Membrane in water
40344
    1TMC1    C1    1   1.146   4.455  11.389 -0.5204  0.0392 -0.0948
    1TMC1    C2    2   1.250   4.475  11.478  0.0660 -0.4600 -0.0521
    1TMC1    C3    3   1.353   4.390  11.483  0.5191 -0.4452  0.3286
    1TMC1    C4    4   1.155   4.358  11.293 -0.5498  0.7002 -0.5011
    1TMC1    C5    5   1.270   4.281  11.293  0.6398 -0.4476  0.1016
    1TMC1    C6    6   1.365   4.296  11.386  0.4081  0.0969  0.5409
    1TMC1     C    7   1.019   4.497  11.435  0.0285  0.2667  0.1555
    1TMC1     O    8   1.001   4.501  11.557 -0.4007  0.0849  0.3143
    1TMC1     H    9   1.248   4.550  11.556 -1.4566  1.4679 -1.9469
    1TMC1    H1   10   1.075   4.343  11.221  0.7308  1.4209 -2.0799
    1TMC1    H2   11   1.456   4.239  11.375  0.2414 -0.5454  2.4513
    1TMC1    C7   12   1.257   4.145  11.240 -0.6895 -0.3200 -0.4222
    1TMC1    C8   13   1.463   4.445  11.553  0.3027  0.2392  0.0814
    1TMC1    O1   14   1.360   4.081  11.247 -0.4002 -0.1044  0.0451
    1TMC1    O2   15   1.467   4.563  11.587  0.6804 -0.1604  0.0823
    1TMC1    O3   16   1.132   4.100  11.260 -0.1803  0.0226 -0.3499
    1TMC1    H3   17   1.066   4.173  11.258 -1.1862 -0.9010 -0.4306
    1TMC1    O5   18   1.552   4.351  11.587  0.2168 -0.4871  0.2387
    1TMC1    H5   19   1.515   4.263  11.564  2.9350 -1.3131 -1.0471
    2MPD2     C   20   0.547   4.665  11.352  0.5632  0.4534  0.6652
    2MPD2    C1   21   0.599   4.597  11.459 -0.0738  0.4739 -1.0287
    2MPD2    C2   22   0.727   4.550  11.452  1.0142 -0.1853 -0.4204
    2MPD2    C3   23   0.798   4.573  11.334  0.9131  0.0834 -0.3068
    2MPD2    C4   24   0.745   4.638  11.227  1.3293 -0.6309  0.5050
    2MPD2    C5   25   0.612   4.683  11.235  0.6850 -0.2928 -0.6546
    2MPD2     H   26   0.769   4.517  11.547 -0.7843 -0.8438  0.1431
    2MPD2    H1   27   0.797   4.665  11.136 -1.9906  0.0732 -1.2095
    2MPD2    H2   28   0.448   4.709  11.350  0.3688  0.0642  2.0596
    2MPD2    H3   29   0.563   0.000  11.156 -0.9647  0.9245  1.2133
    2MPD2     N   30   0.936   4.536  11.324 -0.0880 -0.0115 -0.1797
    2MPD2    H5   31   0.971   4.542  11.229 -2.0535 -1.2416 -0.9807
    2MPD2    N1   32   0.535   4.590  11.584  0.2580 -0.2115 -0.4897
    2MPD2    H7   33   0.589   4.537  11.651 -1.2263 -1.8570 -0.5764
    3TMC1    C1   34   0.265   0.520  10.682  0.1501  0.2020  0.6469
    3TMC1    C2   35   0.304   0.589  10.573  0.2084  0.3504 -1.0688
    3TMC1    C3   36   0.389   0.532  10.481 -0.3130 -0.6615  0.3651
    3TMC1    C4   37   0.309   0.391  10.692 -0.4687  0.5111 -0.0957
    3TMC1    C5   38   0.409   0.340  10.607 -0.0439 -0.5519  0.9073
    3TMC1    C6   39   0.439   0.407  10.490  0.1331 -0.3344  0.2382
    3TMC1     C   40   0.241   0.599  10.801 -0.2336  0.4257 -0.3132
    3TMC1     O   41   0.264   0.538  10.906  0.1807 -0.1113  0.5148
    3TMC1     H   42   0.269   0.692  10.574 -0.7092  0.0142  1.2791
    3TMC1    H1   43   0.293   0.342  10.787  0.9647 -0.3170 -0.2724
    3TMC1    H2   44   0.506   0.375  10.412  2.5293  3.7641  0.6382
    3TMC1    C7   45   0.459   0.209  10.646 -0.0707 -0.0419  0.4788
    3TMC1    C8   46   0.376   0.590  10.348 -0.2980  0.8380  0.7882
    3TMC1    O1   47   0.383   0.122  10.690  0.1672 -0.1110  0.0294
    3TMC1    O2   48   0.363   0.519  10.253 -0.0420 -0.1911 -0.3191
    3TMC1    O3   49   0.574   0.184  10.583 -0.3594  0.0002 -0.6559
    3TMC1    H3   50   0.625   0.257  10.542 -0.1417 -0.8557 -1.9187
    3TMC1    O5   51   0.344   0.717  10.360 -0.3658  0.0782 -0.3494
    3TMC1    H5   52   0.371   0.755  10.447 -1.9823  1.2470 -0.3589
    4MPD2     C   53   4.724   0.983  11.060  0.0789  0.2366  0.1313
    4MPD2    C1   54   4.720   1.008  10.923 -0.2675 -0.1628  0.0434
    4MPD2    C2   55   0.036   0.916  10.831  0.5764  0.4847  0.7638
    4MPD2    C3   56   0.111   0.803  10.875 -0.0449 -0.4780 -0.0253
    4MPD2    C4   57   0.125   0.790  11.014  0.8285 -0.0783  0.1251
    4MPD2    C5   58   0.062   0.877  11.106 -0.7271  0.0677 -0.2848
    4MPD2     H   59   0.034   0.930  10.723  1.9000  0.6869  0.7637
    4MPD2    H1   60   0.182   0.708  11.057 -1.0973 -1.1062  0.7197
    4MPD2    H2   61   4.677   1.048  11.133 -0.1259  1.2639 -0.9077
    4MPD2    H3   62   0.072   0.856  11.212 -0.5920  0.7051 -0.1710
    4MPD2     N   63   0.169   0.713  10.781  0.0731  0.0822 -0.4086
    4MPD2    H5   64   0.154   0.722  10.681 -1.8407 -0.2850 -0.1463
    4MPD2    N1   65   4.645   1.110  10.871 -0.3254 -0.4456 -0.0244
    4MPD2    H7   66   4.643   1.110  10.770 -2.2458 -1.6230  0.0088
    5TCq1    O1   67   1.378   3.194  11.893  0.4886 -0.7819  0.0336
    5TCq1    C1   68   1.371   3.116  11.777 -0.0172 -0.2799  0.0670
    5TCq1    O2   69   1.458   3.051  11.721 -0.3803  0.0488  0.6240
    5TCq1    C2   70   1.243   3.132  11.709 -0.4357  0.6091 -0.3624
    5TCq1    C3   71   1.135   3.178  11.778  0.3153  0.1771 -0.3590
    5TCq1    C4   72   1.028   3.207  11.704 -0.7136  0.4753  0.2189
    5TCq1    C5   73   1.027   3.194  11.570 -0.4930  0.3720  0.4753
    5TCq1    C6   74   1.131   3.137  11.505 -0.3612  0.6813 -0.8781
    5TCq1    C7   75   1.253   3.109  11.574  0.4668 -0.0728 -0.2392
    5TCq1    C8   76   1.123   3.110  11.364 -0.2096 -0.4359 -0.1236
    5TCq1    O4   77   1.212   3.046  11.306 -0.4020  0.2742 -0.8869
    5TCq1    C9   78   0.923   3.280  11.769 -0.0122 -0.3556 -0.0619
    5TCq1    O5   79   0.919   3.279  11.897 -0.3565 -0.7160 -0.8304
    5TCq1    O6   80   0.830   3.330  11.701  0.0406  0.2677  0.3107
    5TCq1    H1   81   1.305   3.258  11.905  1.2503  0.1063 -0.0283
    5TCq1    H2   82   1.127   3.174  11.886 -1.8534 -0.5675 -0.5632
    5TCq1    H3   83   0.942   3.233  11.514  0.6741 -1.0753 -2.2698
    5TCq1    H4   84   1.343   3.085  11.519  1.1088 -0.0127  0.7949
    6MPD2     C   85   0.862   3.242  11.141 -0.0273 -0.0226 -0.1811
    6MPD2    C1   86   0.966   3.155  11.175 -0.2945 -0.3518  0.3406
    6MPD2    C2   87   1.010   3.059  11.093  0.6929 -0.2235  0.3153
    6MPD2    C3   88   0.952   3.045  10.966 -0.0003  0.1390 -0.3565
    6MPD2    C4   89   0.854   3.141  10.919 -0.2586  0.3878 -0.2870
    6MPD2    C5   90   0.811   3.237  11.012  0.3109  0.2597 -0.4276
    6MPD2     H   91   1.089   2.991  11.124  1.2576  0.6573  0.8230
    6MPD2    H1   92   0.799   3.136  10.825 -1.3531 -1.0704  0.4233
    6MPD2    H2   93   0.832   3.321  11.208  1.5000 -0.3734  0.9040
    6MPD2    H3   94   0.732   3.304  10.981  0.3532 -0.3957 -1.9900
    6MPD2     N   95   1.011   2.946  10.877  0.2272 -0.8578 -0.0715
    6MPD2    H5   96   1.082   2.886  10.917  0.2933 -1.0020 -0.4099
    6MPD2    N1   97   1.020   3.173  11.304 -0.0870 -0.8240 -0.2223
    6MPD2    H7   98   0.974   3.241  11.363  0.1369 -1.6767  0.9271
    7TCq1    O1   99   3.498   2.727  13.642  0.0547 -0.4677  0.0407
    7TCq1    C1  100   3.468   2.861  13.613  0.0868 -0.1047  0.0043
    7TCq1    O2  101   3.524   2.962  13.651 -0.2753 -0.3222  0.5194
    7TCq1    C2  102   3.316   2.857  13.581  0.1050  0.5325 -0.3976
    7TCq1    C3  103   3.279   2.965  13.500 -0.2212 -0.0854 -0.1786
    7TCq1    C4  104   3.168   2.949  13.421  0.0543 -1.1287  0.1719
    7TCq1    C5  105   3.085   2.843  13.431 -0.1704 -0.2654 -0.8818
    7TCq1    C6  106   3.123   2.742  13.515 -0.0876  0.1027 -0.2683
    7TCq1    C7  107   3.240   2.746  13.592 -0.0506  0.2415 -0.2470
    7TCq1    C8  108   3.073   2.610  13.498 -0.5250  0.9039 -0.2260
    7TCq1    O4  109   3.136   2.518  13.545  0.1038 -0.0028  0.7947
    7TCq1    C9  110   3.141   3.050  13.321  0.8735 -0.4068 -0.5601
    7TCq1    O5  111   3.212   3.151  13.329 -0.1110 -0.8993 -0.3221
    7TCq1    O6  112   3.073   3.016  13.217  0.4260  0.2920  0.7991
    7TCq1    H1  113   3.453   2.659  13.588 -1.3323 -0.0403  0.6540
    7TCq1    H2  114   3.355   3.041  13.487  0.2893 -0.2806  1.5567
    7TCq1    H3  115   3.014   2.827  13.351 -0.3284 -0.7561 -0.6407
    7TCq1    H4  116   3.273   2.672  13.664  0.2511 -0.3938 -1.0370
    8MPD2     C  117   2.708   2.296  13.346 -0.0291  0.0720 -0.6343
    8MPD2    C1  118   2.837   2.264  13.388 -0.7309 -0.3764 -0.0455
    8MPD2    C2  119   2.924   2.369  13.415  1.0571 -0.1204 -0.4362
    8MPD2    C3  120   2.876   2.502  13.403 -0.5143 -0.1378  0.8529
    8MPD2    C4  121   2.754   2.531  13.350  0.9568 -0.9151 -0.3850
    8MPD2    C5  122   2.669   2.431  13.332 -0.3022  0.5479  0.0106
    8MPD2     H  123   3.027   2.346  13.438  1.5273  3.4034  0.9080
    8MPD2    H1  124   2.727   2.636  13.349 -0.0823 -1.1877 -0.4671
    8MPD2    H2  125   2.639   2.218  13.316 -0.4868  0.2663 -0.0636
    8MPD2    H3  126   2.566   2.455  13.307 -0.7405 -2.1694 -0.8377
    8MPD2     N  127   2.955   2.612  13.429 -0.5046 -0.7255  0.3658
    8MPD2    H5  128   2.917   2.701  13.400 -1.3867 -1.1072  0.3337
    8MPD2    N1  129   2.877   2.127  13.384 -0.1126 -0.9857  0.4048
    8MPD2    H7  130   2.803   2.066  13.351  1.0568 -1.1750 -1.8964
    9TMC1    C1  131   4.572   1.586  11.410  0.2137 -0.2014 -0.1009
    9TMC1    C2  132   4.526   1.456  11.409 -0.1624 -0.1360 -0.8295
    9TMC1    C3  133   4.418   1.424  11.336 -0.9910  0.7201 -0.6156
    9TMC1    C4  134   4.506   1.683  11.341  0.3447 -0.0336 -0.3591
    9TMC1    C5  135   4.396   1.652  11.264  0.0674  0.3977  0.1871
    9TMC1    C6  136   4.343   1.523  11.264 -0.1741  0.5696  0.1781
    9TMC1     C  137   4.703   1.615  11.469 -0.3084 -0.7666  0.4636
    9TMC1     O  138   0.008   1.734  11.455  0.1039  0.4829  0.5098
    9TMC1     H  139   4.553   1.383  11.485  0.5815  0.5115 -0.4744
    9TMC1    H1  140   4.534   1.786  11.359 -2.0231  0.4095  0.8266
    9TMC1    H2  141   4.247   1.501  11.218 -0.8163  1.8525  0.8964
    9TMC1    C7  142   4.296   1.759  11.284  0.3129  0.5146 -0.3772
    9TMC1    C8  143   4.358   1.292  11.340 -0.9736  0.0639  0.8447
    9TMC1    O1  144   4.278   1.809  11.392 -0.3585  0.3132  0.0640
    9TMC1    O2  145   4.239   1.272  11.339 -0.0004 -0.0860  0.3042
    9TMC1    O3  146   4.197   1.735  11.192  0.3422  0.4440  0.2038
    9TMC1    H3  147   4.232   1.689  11.113  0.2484  1.8489 -0.6639
    9TMC1    O5  148   4.456   1.203  11.359 -0.5741  0.7065 -0.3401
    9TMC1    H5  149   4.547   1.236  11.343 -0.2230 -0.3235 -0.4250
   10MPD2     C  150   0.250   1.587  11.550 -0.0521  1.0699  0.8046
   10MPD2    C1  151   0.154   1.496  11.578 -0.1627 -0.1254  0.4224
   10MPD2    C2  152   0.197   1.393  11.660  0.0310 -0.3093  0.1389
   10MPD2    C3  153   0.317   1.384  11.728  0.1284  0.3459  0.2163
   10MPD2    C4  154   0.413   1.477  11.691  0.2248  0.0584  0.2477
   10MPD2    C5  155   0.379   1.577  11.601 -0.3733  0.1104  0.2686
   10MPD2     H  156   0.112   1.334  11.693 -1.2499  2.6884  2.1630
   10MPD2    H1  157   0.513   1.463  11.732  0.8078 -2.3328 -2.0347
   10MPD2    H2  158   0.248   1.675  11.486 -1.1858  0.8088  0.4838
   10MPD2    H3  159   0.451   1.652  11.570 -0.1678 -0.3473 -0.3463
   10MPD2     N  160   0.350   1.286  11.828 -0.3754 -0.5845 -0.1186
   10MPD2    H5  161   0.439   1.293  11.875 -0.5471 -1.5099  0.3625
   10MPD2    N1  162   0.017   1.500  11.537  0.2879 -0.5687  0.3282
   10MPD2    H7  163   4.690   1.424  11.554  0.0403 -0.4617 -0.1490
   11TCq1    O1  164   1.957   1.449  14.106  0.6393 -0.0342  0.0290
   11TCq1    C1  165   2.055   1.370  14.068 -0.2045 -0.7609  0.0044
   11TCq1    O2  166   2.146   1.422  14.008 -0.2674  0.6697 -0.3339
   11TCq1    C2  167   1.976   1.263  14.016 -0.1979 -0.4267 -1.2984
   11TCq1    C3  168   1.933   1.287  13.893  0.1357  0.3838 -0.0808
   11TCq1    C4  169   1.835   1.213  13.842  0.5026  0.5708  0.3280
   11TCq1    C5  170   1.801   1.094  13.912  0.1167  0.2330 -0.3412
   11TCq1    C6  171   1.848   1.075  14.040 -0.3566 -0.6132 -0.0662
   11TCq1    C7  172   1.934   1.162  14.095  1.0211 -0.2847 -0.2157
   11TCq1    C8  173   1.806   0.966  14.130 -0.1811 -0.0786 -0.2240
   11TCq1    O4  174   1.860   0.972  14.241 -0.2163  0.2414  0.2300
   11TCq1    C9  175   1.779   1.224  13.706 -0.0794 -0.0261  0.1371
   11TCq1    O5  176   1.676   1.159  13.687 -0.5767 -0.0383 -0.5549
   11TCq1    O6  177   1.816   1.320  13.633 -0.8189  0.2636 -0.1577
   11TCq1    H1  178   1.877   1.399  14.133  1.3473 -1.4640 -0.5332
   11TCq1    H2  179   1.952   1.379  13.838 -0.9934  1.8526  1.9852
   11TCq1    H3  180   1.720   1.030  13.880  1.2832 -1.3857 -0.0704
   11TCq1    H4  181   1.975   1.155  14.195  1.0432  0.5374 -0.1732
   12MPD2     C  182   1.736   0.713  14.246  0.2884 -0.2825 -0.5177
   12MPD2    C1  183   1.662   0.770  14.145  0.0313  0.5329  0.2079
   12MPD2    C2  184   1.560   0.690  14.093  0.2755 -0.8771 -0.5573
   12MPD2    C3  185   1.532   0.556  14.130  0.0297 -0.1580 -0.8386
   12MPD2    C4  186   1.615   0.509  14.228 -0.7231  0.4460  0.2690
   12MPD2    C5  187   1.712   0.582  14.278 -0.0256 -0.0436 -0.1080
   12MPD2     H  188   1.505   0.736  14.013  0.9153  0.8619 -0.0065
   12MPD2    H1  189   1.607   0.409  14.268 -0.4712  0.4293  0.2824
   12MPD2    H2  190   1.822   0.761  14.292  0.4354 -0.0084 -1.0829
   12MPD2    H3  191   1.768   0.545  14.363  2.0313 -2.5649 -2.5549
   12MPD2     N  192   1.454   0.458  14.061 -0.5337  0.1813 -0.3059
   12MPD2    H5  193   1.471   0.361  14.085 -0.7285  1.2088  4.0370
   12MPD2    N1  194   1.707   0.887  14.082  0.5354 -0.4234 -0.2738
   12MPD2    H7  195   1.673   0.897  13.986 -3.1553 -1.7377  0.8850
   13TCq1    O1  196   1.316   0.650  11.805 -0.0271 -0.3009 -0.2265
   13TCq1    C1  197   1.345   0.717  11.918 -0.9236 -1.0776 -0.2235
   13TCq1    O2  198   1.405   0.681  12.020  0.1316  0.3044 -0.1438
   13TCq1    C2  199   1.279   0.842  11.904  0.9065  0.3766 -0.1507
   13TCq1    C3  200   1.328   0.933  11.994 -0.2045  1.0183 -0.3817
   13TCq1    C4  201   1.259   1.048  12.018  0.1356  0.7654  0.3694
   13TCq1    C5  202   1.138   1.069  11.950 -0.1601  0.2234 -0.0680
   13TCq1    C6  203   1.090   0.971  11.867  0.1246  0.0145 -0.4153
   13TCq1    C7  204   1.158   0.858  11.851  0.4998 -0.1598 -0.8342
   13TCq1    C8  205   1.018   1.013  11.746  0.2510  0.1297  0.4010
   13TCq1    O4  206   0.966   0.921  11.681  0.0801  0.3924 -0.6903
   13TCq1    C9  207   1.318   1.155  12.102  0.2843 -0.4513  0.3858
   13TCq1    O5  208   1.408   1.120  12.182  0.2778 -0.7331 -0.3833
   13TCq1    O6  209   1.256   1.264  12.119 -0.1499 -0.2560  0.3753
   13TCq1    H1  210   1.278   0.701  11.730 -0.6172 -2.0279 -1.1092
   13TCq1    H2  211   1.422   0.924  12.046  1.4859  0.2285 -3.5443
   13TCq1    H3  212   1.078   1.157  11.969 -0.2724  0.3053 -0.7953
   13TCq1    H4  213   1.104   0.789  11.788  0.3084 -0.8289  0.0721
   14MPD2     C  214   0.929   1.364  11.669 -0.1286 -0.7541 -0.8204
   14MPD2    C1  215   0.916   1.227  11.666  0.0271 -0.0241 -0.5573
   14MPD2    C2  216   0.815   1.168  11.595 -0.4810 -0.3650 -0.3831
   14MPD2    C3  217   0.720   1.244  11.525  0.0054 -0.0213 -0.1539
   14MPD2    C4  218   0.738   1.376  11.521  0.0216 -0.3357  0.3431
   14MPD2    C5  219   0.841   1.443  11.596 -0.4750  0.7810  0.9797
   14MPD2     H  220   0.796   1.062  11.605  0.0942 -0.1808  2.5976
   14MPD2    H1  221   0.680   1.436  11.451  0.4168  0.5182  0.7455
   14MPD2    H2  222   1.000   1.416  11.733 -2.3396  0.5353  0.5851
   14MPD2    H3  223   0.850   1.550  11.590  1.1085  0.5908  0.1360
   14MPD2     N  224   0.600   1.192  11.467  0.3239 -0.1063  0.6841
   14MPD2    H5  225   0.552   1.244  11.394 -1.8066 -3.4995 -0.3463
   14MPD2    N1  226   1.004   1.150  11.742  0.1038 -0.5456  0.1463
   14MPD2    H7  227   1.075   1.193  11.800  1.5513 -1.7289 -0.7530
   15TCq1    O1  228   2.516   4.457   1.166 -0.5383 -0.4995  0.1913
   15TCq1    C1  229   2.615   4.522   1.234 -0.1774  0.5476 -0.3522
   15TCq1    O2  230   2.588   4.609   1.316 -0.5668 -0.3951  0.2427
   15TCq1    C2  231   2.704   4.421   1.268  0.1541  0.3706  0.4330
   15TCq1    C3  232   2.733   4.399   1.404 -0.3020  0.5764 -0.6302
   15TCq1    C4  233   2.790   4.284   1.447  0.7634  0.5873  0.2347
   15TCq1    C5  234   2.831   4.198   1.356  0.3531  0.2138  0.5320
   15TCq1    C6  235   2.808   4.218   1.222 -1.1045  0.6820 -0.1779
   15TCq1    C7  236   2.735   4.327   1.179  0.4520 -1.0074  0.2385
   15TCq1    C8  237   2.873   4.120   1.134  0.1185  0.0043  0.3125
   15TCq1    O4  238   2.957   4.047   1.183 -0.4489  0.3437  0.1532
   15TCq1    C9  239   2.842   4.269   1.581 -0.0332  0.2999 -0.1398
   15TCq1    O5  240   2.884   4.154   1.608 -0.3483 -0.3770 -0.7473
   15TCq1    O6  241   2.848   4.373   1.650 -0.0331 -0.0994  0.1918
   15TCq1    H1  242   2.543   4.377   1.116 -0.5741 -1.6565  2.0106
   15TCq1    H2  243   2.703   4.471   1.479  0.4740 -0.0856  0.3082
   15TCq1    H3  244   2.884   4.107   1.383 -3.9095 -1.9883  1.4329
   15TCq1    H4  245   2.722   4.341   1.073  0.0714 -2.0393  0.1483
   16MPD2     C  246   2.822   4.094   0.779  0.0685 -0.2616  0.0534
   16MPD2    C1  247   2.862   4.053   0.900  0.4272  0.4047 -0.2188
   16MPD2    C2  248   2.939   3.938   0.905 -0.1085  0.2563 -0.0281
   16MPD2    C3  249   2.951   3.851   0.797 -0.0065 -0.9199 -0.1138
   16MPD2    C4  250   2.888   3.889   0.685 -0.0323 -0.3819 -0.1030
   16MPD2    C5  251   2.828   4.017   0.670  0.4002  0.2081  0.0785
   16MPD2     H  252   2.974   3.896   0.999  0.1778 -1.0538 -0.7230
   16MPD2    H1  253   2.888   3.835   0.591  0.8709 -0.8116  0.1464
   16MPD2    H2  254   2.762   4.184   0.767  0.8429  0.2935  0.3528
   16MPD2    H3  255   2.787   4.061   0.580 -0.6496 -0.6796  0.1131
   16MPD2     N  256   3.019   3.729   0.818 -0.2070 -0.1778 -1.1629
   16MPD2    H5  257   3.078   3.720   0.900 -0.3164  1.3154 -0.9138
   16MPD2    N1  258   2.828   4.135   1.006  0.2961 -0.2222  0.6772
   16MPD2    H7  259   2.751   4.201   0.995  1.9985  1.5630 -0.4149
   17TMC1    C1  260   4.626   4.601  11.463 -0.3179 -0.5201  0.1224
   17TMC1    C2  261   4.503   4.546  11.488 -0.4824  0.3639 -0.0569
   17TMC1    C3  262   4.518   4.407  11.514  0.4339 -0.4111 -0.6999
   17TMC1    C4  263   0.011   4.536  11.466  0.3546  0.6348  0.3739
   17TMC1    C5  264   0.008   4.401  11.471  0.6973  0.1260 -0.3243
   17TMC1    C6  265   4.635   4.339  11.510  0.2958 -0.0509  0.3034
   17TMC1     C  266   4.612   4.729  11.385 -0.0086  0.4731 -0.0222
   17TMC1     O  267   4.497   0.032  11.375 -0.1689  0.0517  0.4231
   17TMC1     H  268   4.407   4.585  11.457 -0.3372 -0.4965 -1.6009
   17TMC1    H1  269   0.106   4.582  11.446  0.6858 -0.3511 -0.3063
   17TMC1    H2  270   4.635   4.231  11.502 -1.1760  0.1483 -2.4501
   17TMC1    C7  271   0.128   4.358  11.520 -0.7718 -0.6111 -0.4916
   17TMC1    C8  272   4.398   4.324  11.532 -0.8948  0.9058  0.2805
   17TMC1    O1  273   0.179   4.410  11.621  0.0230 -0.1826  0.4218
   17TMC1    O2  274   4.385   4.204  11.512  1.2091  0.6780  0.0786
   17TMC1    O3  275   0.120   4.222  11.505  0.6527 -0.0793 -0.1488
   17TMC1    H3  276   0.079   4.191  11.421  1.4627 -0.6255 -0.3465
   17TMC1    O5  277   4.315   4.407  11.604  0.8073 -0.2706 -0.1092
   17TMC1    H5  278   4.362   4.486  11.639  0.3241  0.6583 -1.5558
   18MPD2     C  279   4.664   0.197  11.178  0.4800  0.0651  0.1222
   18MPD2    C1  280   0.026   0.144  11.257  0.5680  0.5690  0.4300
   18MPD2    C2  281   0.157   0.179  11.238  0.5122 -0.2691 -0.0903
   18MPD2    C3  282   0.188   0.274  11.146  0.2166 -0.1005 -0.6958
   18MPD2    C4  283   0.088   0.323  11.070  0.6076  0.3464  0.6362
   18MPD2    C5  284   4.700   0.287  11.083  0.2825 -0.1614  0.5514
   18MPD2     H  285   0.224   0.120  11.299  0.9057 -0.4379 -0.6873
   18MPD2    H1  286   0.107   0.387  10.984 -0.1987 -0.3944 -0.0954
   18MPD2    H2  287   4.557   0.177  11.180  0.4198  0.3280 -0.4463
   18MPD2    H3  288   4.626   0.322  11.013  0.8712  1.5325  0.7711
   18MPD2     N  289   0.320   0.316  11.124 -0.1794  0.2233  0.2481
   18MPD2    H5  290   0.331   0.389  11.055 -1.5357  1.5434  1.4426
   18MPD2    N1  291   4.733   0.045  11.352  0.1687 -0.4282  0.0888
   18MPD2    H7  292   0.079   4.732  11.381 -1.8384 -2.6449  1.9688
   19TMC2    C1  293   2.372   0.731  13.933 -0.1653  0.1673  0.5941
   19TMC2    C2  294   2.262   0.778  13.864  0.1462  0.3438 -0.3783
   19TMC2    C3  295   2.146   0.715  13.892 -0.2800 -0.7026 -0.5092
   19TMC2    C4  296   2.358   0.621  14.021 -0.3501  0.3164 -0.0509
   19TMC2    C5  297   2.235   0.561  14.039 -0.7625  0.6700 -0.3875
   19TMC2    C6  298   2.128   0.613  13.980 -0.5638  0.0448  0.2690
   19TMC2     C  299   2.503   0.795  13.907  0.2971  0.1670  0.9441
   19TMC2     O  300   2.501   0.893  13.834 -0.5250 -0.4469  0.4417
   19TMC2     H  301   2.270   0.857  13.790  1.1123  1.3258  0.7870
   19TMC2    H1  302   2.435   0.589  14.090  0.2411 -0.1583 -0.9192
   19TMC2    H2  303   2.031   0.565  13.984  0.0100 -1.2441 -1.1228
   19TMC2    C7  304   2.229   0.429  14.091  0.0181  0.4784  0.0129
   19TMC2    C8  305   2.023   0.768  13.853  1.1077  0.2988  0.3458
   19TMC2    O1  306   2.319   0.352  14.063  0.1613  0.4110 -0.4432
   19TMC2    O2  307   1.918   0.710  13.832  0.2958  0.7384  0.4114
   19TMC2    O5  308   2.036   0.898  13.856 -0.1640 -0.6256  0.4410
   19TMC2    H5  309   2.119   0.929  13.899  1.1646 -0.0194 -2.5953
   20MPD2     C  310   2.791   0.883  13.885 -0.3468 -0.5059 -0.6131
   20MPD2    C1  311   2.747   0.776  13.957  0.6493 -0.6622 -0.7419
   20MPD2    C2  312   2.839   0.691  14.022 -0.5694 -0.5370  0.4584
   20MPD2    C3  313   2.974   0.729  14.022  0.4925 -0.1451 -0.2110
   20MPD2    C4  314   3.015   0.840  13.952 -0.4149 -0.0375 -0.8524
   20MPD2    C5  315   2.920   0.921  13.896 -0.1242 -1.2293  0.3351
   20MPD2     H  316   2.814   0.596  14.066  0.7443  0.4593  3.4202
   20MPD2    H1  317   3.119   0.871  13.946 -0.5349  0.5409  0.0073
   20MPD2    H2  318   2.720   0.949  13.836 -0.6473  0.3638  0.9955
   20MPD2    H3  319   2.952   1.004  13.834  0.8922  1.7666  4.8877
   20MPD2     N  320   3.084   0.654  14.073  0.9669 -0.3230 -0.7217
   20MPD2    H5  321   3.176   0.682  14.042  0.2481  2.3658 -0.4780
   20MPD2    N1  322   2.610   0.732  13.966  0.1059 -0.3171 -0.0258
   20MPD2    H7  323   2.600   0.650  14.025  2.3758 -1.7014 -1.5574
   21TMC2    C1  324   0.308   1.298  14.003  0.3857  0.2567 -0.0056
   21TMC2    C2  325   0.362   1.170  14.004 -0.0069 -0.6684 -0.4497
   21TMC2    C3  326   0.313   1.072  14.086  0.4623 -0.3245 -0.3734
   21TMC2    C4  327   0.193   1.318  14.085 -0.1748 -0.2439 -0.5189
   21TMC2    C5  328   0.152   1.218  14.170 -0.6772  0.1114  0.5259
   21TMC2    C6  329   0.209   1.094  14.170  0.7380  0.2170 -0.1817
   21TMC2     C  330   0.376   1.406  13.935 -0.2732  0.2556  0.2485
   21TMC2     O  331   0.389   1.384  13.815  0.1958 -0.0759 -0.4258
   21TMC2     H  332   0.452   1.152  13.945  1.9502 -0.7254  2.5474
   21TMC2    H1  333   0.139   1.412  14.073 -3.2787 -1.8581  0.9277
   21TMC2    H2  334   0.166   1.023  14.240  1.5024  1.2470  1.3254
   21TMC2    C7  335   0.102   1.250  14.298 -0.0433 -0.4568  0.1897
   21TMC2    C8  336   0.386   0.949  14.108 -0.2308  0.0315 -0.4563
   21TMC2    O1  337   0.130   1.176  14.395  0.6739 -0.0702 -0.1489
   21TMC2    O2  338   0.401   0.902  14.218 -0.7713 -0.3764 -0.1377
   21TMC2    O5  339   0.454   0.913  13.997 -0.1767  0.0945  0.0559
   21TMC2    H5  340   0.433   0.970  13.919  5.0118  1.4797 -0.2808
   22MPD2     C  341   0.371   1.597  14.413 -0.2240  0.4619  0.3076
   22MPD2    C1  342   0.417   1.476  14.365  0.0734 -0.3522 -0.3806
   22MPD2    C2  343   0.422   1.455  14.229  0.2613  0.1778 -0.0580
   22MPD2    C3  344   0.364   1.546  14.138  0.4587  0.4521  0.8417
   22MPD2    C4  345   0.322   1.665  14.189 -0.7078  0.3484 -0.2790
   22MPD2    C5  346   0.324   1.686  14.323  0.5410 -0.0355  0.4509
   22MPD2     H  347   0.485   1.374  14.192 -0.3300 -1.2662  2.0852
   22MPD2    H1  348   0.272   1.745  14.136  0.1726 -0.4013 -2.2520
   22MPD2    H2  349   0.364   1.618  14.519  0.2197 -0.4369  0.5170
   22MPD2    H3  350   0.289   1.781  14.362 -1.6305 -0.9676  0.7850
   22MPD2     N  351   0.359   1.530  14.001 -0.8589  0.0875  0.0830
   22MPD2    H5  352   0.333   1.610  13.944 -0.4025 -0.8172 -1.3978
   22MPD2    N1  353   0.439   1.375  14.462  1.0164  0.3771  0.2170
   22MPD2    H7  354   0.401   1.387  14.555  0.8998  0.5187  0.1501
   23TMC2    C1  355   1.390   2.253  14.487 -0.8048 -0.1956  0.1602
   23TMC2    C2  356   1.389   2.362  14.409  0.7549 -0.3770 -0.2970
   23TMC2    C3  357   1.295   2.371  14.314 -0.3444 -0.1632 -0.0284
   23TMC2    C4  358   1.297   2.151  14.482 -0.3868 -0.3767  0.1779
   23TMC2    C5  359   1.185   2.181  14.399 -0.4391  0.3790 -0.0878
   23TMC2    C6  360   1.188   2.281  14.304  1.5194 -0.4082  0.4304
   23TMC2     C  361   1.464   2.263  14.609 -0.5232 -0.4108 -0.8249
   23TMC2     O  362   1.480   2.160  14.669 -0.4047 -0.4984  0.0023
   23TMC2     H  363   1.468   2.436  14.408 -0.0234  0.4434 -2.1464
   23TMC2    H1  364   1.309   2.062  14.541  2.0142  0.2344  0.5859
   23TMC2    H2  365   1.105   2.302  14.238  1.5500 -1.7986 -0.0573
   23TMC2    C7  366   1.069   2.090  14.406 -0.1299 -0.1642  0.0603
   23TMC2    C8  367   1.294   2.482  14.226 -0.2786 -0.0713 -0.4930
   23TMC2    O1  368   1.082   1.972  14.432  0.1549 -0.2851  0.5359
   23TMC2    O2  369   1.343   2.591  14.249 -0.1751 -0.1324  0.2230
   23TMC2    O5  370   1.283   2.408  14.111 -0.1993 -0.2292 -0.0944
   23TMC2    H5  371   1.286   2.311  14.128  1.4100 -0.5458 -2.2275
   24MPD2     C  372   1.735   2.536  14.941  0.1846 -0.6629 -0.0479
   24MPD2    C1  373   1.718   2.402  14.931  0.7882 -0.2802  0.0576
   24MPD2    C2  374   1.637   2.350  14.830  0.0622  0.3081 -0.3526
   24MPD2    C3  375   1.571   2.438  14.748 -0.9425  0.4727  0.0432
   24MPD2    C4  376   1.594   2.567  14.754  0.6074  0.6885 -0.0702
   24MPD2    C5  377   1.678   2.619  14.853 -0.7368 -0.1429 -0.2666
   24MPD2     H  378   1.624   2.245  14.808  0.3856  0.6950 -2.3588
   24MPD2    H1  379   1.562   2.639  14.680 -0.7314 -1.4526 -1.5767
   24MPD2    H2  380   1.807   2.581  15.008  0.5635  1.5122 -1.9241
   24MPD2    H3  381   1.703   2.724  14.867 -3.3028  0.3682  0.4717
   24MPD2     N  382   1.490   2.391  14.642 -0.7731  0.5059 -0.2494
   24MPD2    H5  383   1.449   2.467  14.589 -1.2179  1.1468  1.0066
   24MPD2    N1  384   1.776   2.307  15.025 -0.0974 -0.8038  0.6038
   24MPD2    H7  385   1.759   2.207  15.023 -0.6340 -0.6965 -0.1326
   25TMC2    C1  386   0.463   4.127  11.587  0.0057 -0.2012 -0.4291
   25TMC2    C2  387   0.558   4.214  11.634  0.2674  0.1385  0.1431
   25TMC2    C3  388   0.588   4.214  11.766 -0.3013  0.7475 -0.0668
   25TMC2    C4  389   0.386   4.060  11.677 -0.3781 -0.2305 -0.4072
   25TMC2    C5  390   0.410   4.068  11.806 -0.6675 -0.6833  0.3562
   25TMC2    C6  391   0.521   4.132  11.854  0.4847 -0.0336 -0.4328
   25TMC2     C  392   0.431   4.126  11.449  0.2788  0.4393 -0.0010
   25TMC2     O  393   0.456   4.225  11.374 -0.1687  0.3048 -0.0297
   25TMC2     H  394   0.612   4.280  11.567 -0.1956 -0.5715 -0.9152
   25TMC2    H1  395   0.302   3.999  11.646 -1.2177  1.3150 -1.2127
   25TMC2    H2  396   0.550   4.140  11.958 -0.8473  1.3580 -0.1622
   25TMC2    C7  397   0.292   4.063  11.894  0.4243 -0.5858 -0.3453
   25TMC2    C8  398   0.688   4.311  11.815  0.5098  0.2345 -0.5183
   25TMC2    O1  399   0.313   4.042  12.014  0.0586 -0.3676  0.1375
   25TMC2    O2  400   0.705   4.421  11.767 -0.3594  0.7831 -0.0183
   25TMC2    O5  401   0.756   4.262  11.921  0.0063  0.0293 -0.0139
   25TMC2    H5  402   0.750   4.166  11.940  0.8439 -0.5088 -2.4381
   26MPD2     C  403   0.149   3.928  11.081  0.2588  0.3591 -0.1446
   26MPD2    C1  404   0.125   3.857  11.198  0.2489 -0.5341 -0.3367
   26MPD2    C2  405   0.203   3.888  11.304  0.3823  0.7415  0.0362
   26MPD2    C3  406   0.292   3.993  11.302  0.7041 -0.3482  0.1274
   26MPD2    C4  407   0.303   4.065  11.187  0.0271  0.2624  0.3049
   26MPD2    C5  408   0.239   4.030  11.074 -0.9010 -0.3892  0.6429
   26MPD2     H  409   0.204   3.829  11.395  1.6656 -0.3564 -0.6923
   26MPD2    H1  410   0.375   4.146  11.181  0.1770  0.1888  1.0841
   26MPD2    H2  411   0.094   3.905  10.990  0.3138 -1.6607  0.3346
   26MPD2    H3  412   0.250   4.086  10.982 -2.9770 -0.2374  0.4786
   26MPD2     N  413   0.371   4.008  11.425 -0.5517 -0.0024 -0.3572
   26MPD2    H5  414   0.370   3.935  11.495 -2.6397 -0.3258 -0.7442
   26MPD2    N1  415   0.053   3.736  11.195  0.1858  0.2867  0.0055
   26MPD2    H7  416   0.046   3.697  11.101 -2.4777 -0.4258  0.4813
   27TMC2    C1  417   4.109   1.746  12.040 -0.0669 -0.0870  0.6724
   27TMC2    C2  418   4.037   1.845  11.980  0.1552 -0.6347  0.5187
   27TMC2    C3  419   4.106   1.961  11.947 -0.3342 -0.1203 -0.7065
   27TMC2    C4  420   4.236   1.780  12.085  0.4777 -0.2812  0.4138
   27TMC2    C5  421   4.284   1.911  12.084  0.5421 -0.1215  0.1119
   27TMC2    C6  422   4.226   2.001  11.998  0.1451  0.5807 -0.1534
   27TMC2     C  423   4.045   1.671  12.153  0.2868  0.5218  0.5150
   27TMC2     O  424   4.106   1.578  12.199  0.3606 -0.3997 -0.1457
   27TMC2     H  425   3.937   1.826  11.943  0.0706  2.1710 -0.7003
   27TMC2    H1  426   4.287   1.702  12.140 -0.0822 -0.0319  1.2760
   27TMC2    H2  427   4.270   2.098  11.981  1.4085  0.4418  2.3416
   27TMC2    C7  428   4.310   1.951  12.219 -0.5524  0.2703 -0.1706
   27TMC2    C8  429   4.026   2.064  11.884  0.0235 -0.2371 -0.4922
   27TMC2    O1  430   4.323   1.860  12.301  0.3247  0.1366 -0.4655
   27TMC2    O2  431   3.983   2.148  11.968 -0.1118  0.1262  0.0146
   27TMC2    O5  432   4.108   2.098  11.786 -0.9788  0.1696  0.3105
   27TMC2    H5  433   4.150   2.015  11.755  0.0811  0.6758  0.3851
   28MPD2     C  434   3.712   1.595  12.544 -0.0952  0.3473 -0.1983
   28MPD2    C1  435   3.668   1.699  12.472  0.1107  0.3895  0.5000
   28MPD2    C2  436   3.740   1.737  12.356  0.4020  0.2919  0.4499
   28MPD2    C3  437   3.849   1.667  12.316 -1.1719 -0.5511 -0.5858
   28MPD2    C4  438   3.891   1.559  12.390  0.0781  0.9647 -0.4866
   28MPD2    C5  439   3.823   1.526  12.502 -0.2554 -0.4358 -0.1070
   28MPD2     H  440   3.704   1.824  12.302  2.0529  0.0355 -1.0723
   28MPD2    H1  441   3.974   1.490  12.376 -0.5254 -0.2555  2.0500
   28MPD2    H2  442   3.663   1.548  12.629 -0.3552  0.8786 -0.0564
   28MPD2    H3  443   3.851   1.444  12.566  1.0678 -0.2916 -0.5027
   28MPD2     N  444   3.919   1.708  12.196  0.5355 -0.0537  0.1500
   28MPD2    H5  445   3.870   1.782  12.146  0.8259  0.2385  0.2965
   28MPD2    N1  446   3.552   1.758  12.513 -0.2695 -0.0029 -0.1170
   28MPD2    H7  447   3.522   1.736  12.607 -3.1103 -2.7017 -1.6622
   29TMC2    C1  448   3.545   4.340  14.422 -0.0445 -0.4496 -0.1103
   29TMC2    C2  449   3.587   4.362  14.549 -0.3169  0.0057 -0.5795
   29TMC2    C3  450   3.629   4.484  14.587  0.4958  0.4106 -0.0654
   29TMC2    C4  451   3.556   4.444  14.334  0.3530  0.2929  0.1781
   29TMC2    C5  452   3.606   4.565  14.376 -0.2480 -0.2636  0.7568
   29TMC2    C6  453   3.643   4.592  14.502 -0.0376  0.5750 -0.2779
   29TMC2     C  454   3.510   4.213  14.376 -0.4105  0.1208 -0.1753
   29TMC2     O  455   3.515   4.124  14.460  0.1201  0.5769 -0.0277
   29TMC2     H  456   3.595   4.278  14.618  2.1121  1.2688  0.6803
   29TMC2    H1  457   3.562   4.426  14.227 -0.9835  1.2506 -0.0572
   29TMC2    H2  458   3.646   4.694  14.539  0.4697  0.6984 -0.6609
   29TMC2    C7  459   3.588   4.675  14.290  0.1788 -0.2948 -0.3484
   29TMC2    C8  460   3.644   4.504  14.729 -0.0266 -0.2009  0.2190
   29TMC2    O1  461   3.511   4.658  14.198 -0.0941  0.0580 -0.2077
   29TMC2    O2  462   3.566   4.468  14.814  0.3007  0.0022  0.2745
   29TMC2    O5  463   3.733   4.605  14.737 -0.1556  0.0045 -0.5911
   29TMC2    H5  464   3.792   4.626  14.661  0.1407 -0.8692 -0.5938
   30MPD2     C  465   3.310   3.877  14.044 -0.4424  0.2827 -0.3289
   30MPD2    C1  466   3.400   3.855  14.148 -0.5923  0.1887  0.2745
   30MPD2    C2  467   3.450   3.965  14.214  0.0102  0.0702 -0.3221
   30MPD2    C3  468   3.396   4.092  14.193 -0.1692  0.3512 -0.5001
   30MPD2    C4  469   3.321   4.110  14.079 -0.8389  0.0199  0.0880
   30MPD2    C5  470   3.280   4.003  14.006 -0.0746  0.3132  0.4934
   30MPD2     H  471   3.528   3.949  14.287  0.0564 -0.6308 -0.5287
   30MPD2    H1  472   3.287   4.205  14.041 -1.9087  0.1282  1.3194
   30MPD2    H2  473   3.265   3.793  13.992  0.2793 -0.2477 -0.0846
   30MPD2    H3  474   3.227   4.022  13.913 -0.3734  1.3555  0.8787
   30MPD2     N  475   3.442   4.215  14.261  0.5547 -0.2010 -0.2203
   30MPD2    H5  476   3.423   4.304  14.217  0.5129 -1.3952 -2.6269
   30MPD2    N1  477   3.446   3.728  14.181  0.0026  0.0872 -0.6796
   30MPD2    H7  478   3.528   3.725  14.241  0.1510 -0.7303 -0.9293
   31TMC2    C1  479   1.389   2.978  15.252  0.2560  0.2102  0.3341
   31TMC2    C2  480   1.255   3.024  15.236  0.6364 -0.7468 -0.8132
   31TMC2    C3  481   1.158   2.972  15.309 -0.0434  0.2121  0.5007
   31TMC2    C4  482   1.418   2.883  15.348 -0.3660 -0.1560 -0.0066
   31TMC2    C5  483   1.314   2.835  15.424 -0.3290  1.1982  0.3342
   31TMC2    C6  484   1.181   2.875  15.400  0.1674 -0.3309  0.6546
   31TMC2     C  485   1.483   3.030  15.153  0.3464 -1.0515  0.3954
   31TMC2     O  486   1.432   3.107  15.074 -0.1806 -0.7022 -0.6020
   31TMC2     H  487   1.230   3.094  15.157 -2.3222 -0.8484  0.0204
   31TMC2    H1  488   1.520   2.851  15.366 -0.6713 -0.8642  0.4899
   31TMC2    H2  489   1.091   2.842  15.451  0.2092 -1.7750 -0.1967
   31TMC2    C7  490   1.349   2.746  15.527  0.0928 -0.7589  1.0154
   31TMC2    C8  491   1.022   3.018  15.298  0.1113  0.0982  0.7920
   31TMC2    O1  492   1.442   2.671  15.495 -0.4364 -0.1654  0.0750
   31TMC2    O2  493   0.935   2.965  15.364 -0.0161 -0.4291  0.3914
   31TMC2    O5  494   0.991   3.087  15.188 -0.4508 -0.2460 -0.1825
   31TMC2    H5  495   1.061   3.126  15.132 -2.0919  1.1205 -1.2662
   32MPD2     C  496   1.921   3.013  14.886 -0.0365  0.5013  0.1362
   32MPD2    C1  497   1.795   3.064  14.855 -0.4958  0.5792  0.1992
   32MPD2    C2  498   1.690   3.052  14.946 -0.8816 -0.0377 -0.2864
   32MPD2    C3  499   1.713   3.003  15.071  0.6210  0.8341  0.1074
   32MPD2    C4  500   1.844   2.959  15.101 -0.5595  0.4580 -0.0009
   32MPD2    C5  501   1.952   2.974  15.012  0.0357  0.0163 -0.2436
   32MPD2     H  502   1.588   3.078  14.918  0.3958  4.9730 -0.4314
   32MPD2    H1  503   1.857   2.924  15.203  0.0208  0.9948  0.1121
   32MPD2    H2  504   2.001   3.011  14.814  1.2731  2.2171  1.5390
   32MPD2    H3  505   2.052   2.937  15.031 -1.4886 -2.9978  1.8392
   32MPD2     N  506   1.610   2.973  15.164 -0.2957  0.1512 -1.1380
   32MPD2    H5  507   1.636   2.927  15.251  0.4059  1.6394 -0.5544
   32MPD2    N1  508   1.775   3.102  14.720  0.9735  0.7859  0.0583
   32MPD2    H7  509   1.856   3.089  14.660 -0.7400 -1.0296 -1.8393
   33TMC2    C1  510   0.733   0.794  10.250 -0.2690  0.3919  0.2303
   33TMC2    C2  511   0.694   0.698  10.161 -0.2254 -0.0958 -0.1043
   33TMC2    C3  512   0.698   0.717  10.029  0.5211  0.8981  0.0898
   33TMC2    C4  513   0.780   0.917  10.210  0.7841 -0.0743  0.0373
   33TMC2    C5  514   0.782   0.938  10.074  0.2646  0.0754 -0.5505
   33TMC2    C6  515   0.730   0.843   9.982 -0.3706 -0.5168  0.3115
   33TMC2     C  516   0.739   0.759  10.392 -0.7844  0.2662  0.6000
   33TMC2     O  517   0.711   0.643  10.423  0.3430  0.2056 -0.1517
   33TMC2     H  518   0.665   0.601  10.199  2.1707 -1.3356 -1.3669
   33TMC2    H1  519   0.809   0.999  10.275 -0.8356  2.5610 -2.5294
   33TMC2    H2  520   0.720   0.859   9.875 -2.1149 -0.1380  0.5323
   33TMC2    C7  521   0.842   1.065  10.032  0.3343  0.3326  0.1507
   33TMC2    C8  522   0.627   0.622   9.948  0.1348  0.0116  0.1754
   33TMC2    O1  523   0.911   1.123  10.118  0.1278  0.1863  0.1846
   33TMC2    O2  524   0.581   0.523   9.996 -0.2029 -0.2299  0.0014
   33TMC2    O5  525   0.662   0.640   9.819 -0.4761  0.0760  0.6028
   33TMC2    H5  526   0.697   0.729   9.798 -1.5302 -0.1808 -2.2413
   34MPD2     C  527   0.940   0.817  10.871  0.0724  0.2292 -0.4074
   34MPD2    C1  528   0.843   0.731  10.820  0.7546 -0.0505 -0.2962
   34MPD2    C2  529   0.797   0.738  10.689  0.2221 -0.3479 -0.0529
   34MPD2    C3  530   0.863   0.822  10.602  0.2322  0.1701 -0.2347
   34MPD2    C4  531   0.963   0.904  10.649  0.1251  0.4185  0.3026
   34MPD2    C5  532   0.995   0.904  10.776 -0.8014 -0.3235  0.6168
   34MPD2     H  533   0.707   0.690  10.652  1.0254 -1.7558 -0.2087
   34MPD2    H1  534   1.012   0.973  10.581  3.2812 -1.4300  0.7120
   34MPD2    H2  535   0.972   0.811  10.974  0.9581 -0.3315 -0.7116
   34MPD2    H3  536   1.069   0.973  10.815 -1.3718  1.0990 -0.8076
   34MPD2     N  537   0.822   0.845  10.466  0.4277  0.2300 -0.0605
   34MPD2    H5  538   0.867   0.923  10.419  0.9678 -0.5452 -0.8449
   34MPD2    N1  539   0.792   0.633  10.908 -0.3378 -0.3361  0.4549
   34MPD2    H7  540   0.842   0.618  10.996  1.3626  1.5873 -0.1816
   35TMC2    C1  541   1.909   1.842  11.182 -0.4315 -0.3750 -0.8560
   35TMC2    C2  542   1.801   1.908  11.131 -0.4630  0.1049  0.3404
   35TMC2    C3  543   1.674   1.864  11.159 -0.4916  0.2992  0.3528
   35TMC2    C4  544   1.891   1.730  11.252  0.0880  0.0989 -0.3448
   35TMC2    C5  545   1.764   1.670  11.258 -0.2163 -0.1008  0.1503
   35TMC2    C6  546   1.656   1.739  11.215 -0.7942 -0.1584 -0.5982
   35TMC2     C  547   2.039   1.887  11.144  0.0373  0.2786 -0.2189
   35TMC2     O  548   2.049   1.970  11.055 -0.0653  0.3515  0.0781
   35TMC2     H  549   1.814   1.999  11.074 -0.1489 -0.0102  0.2335
   35TMC2    H1  550   1.976   1.675  11.293  0.8865  0.0700 -2.0612
   35TMC2    H2  551   1.561   1.691  11.233 -1.3952  0.9704 -0.7379
   35TMC2    C7  552   1.742   1.568  11.355 -0.1100  0.3193  0.6576
   35TMC2    C8  553   1.557   1.926  11.094 -0.2683  0.2682  0.2307
   35TMC2    O1  554   1.670   1.480  11.312  0.2142  0.7151  0.2139
   35TMC2    O2  555   1.556   1.992  10.992  0.2061 -0.3500 -0.0828
   35TMC2    O5  556   1.440   1.877  11.152 -0.2675  0.0824  0.2564
   35TMC2    H5  557   1.472   1.834  11.235 -0.2654  0.5186  0.4814
   36MPD2     C  558   2.544   1.938  11.195  0.1301  0.3879 -0.2023
   36MPD2    C1  559   2.500   1.880  11.307  0.1226  0.2546 -0.4041
   36MPD2    C2  560   2.359   1.855  11.320  0.4076  0.0348  0.0552
   36MPD2    C3  561   2.276   1.868  11.208  0.4328  0.3414  0.2650
   36MPD2    C4  562   2.326   1.915  11.095 -0.0249  0.1570 -0.1490
   36MPD2    C5  563   2.460   1.963  11.083 -0.4918 -0.0237 -0.0677
   36MPD2     H  564   2.313   1.824  11.413  1.1904  1.7244  1.0092
   36MPD2    H1  565   2.265   1.931  11.007 -0.3375 -0.1080  0.0194
   36MPD2    H2  566   2.651   1.954  11.183  0.2114  0.0401  0.0758
   36MPD2    H3  567   2.497   2.005  10.991  2.1141 -3.0779 -0.4039
   36MPD2     N  568   2.139   1.847  11.230  0.0461  0.1487 -0.4722
   36MPD2    H5  569   2.113   1.820  11.324  2.9993 -0.4932  0.1607
   36MPD2    N1  570   2.589   1.863  11.417  0.5000 -0.4044  0.7099
   36MPD2    H7  571   2.683   1.898  11.409  0.4568 -0.5772 -0.5894
   37TMC2    C1  572   4.627   2.089  11.892  0.2408 -0.3970  0.4747
   37TMC2    C2  573   4.523   2.099  11.799 -0.1116  0.0848 -0.3433
   37TMC2    C3  574   4.540   2.049  11.673 -0.2086 -0.5630  0.6325
   37TMC2    C4  575   0.008   2.028  11.857  0.4908 -0.0546  0.4454
   37TMC2    C5  576   0.021   1.980  11.727 -0.3106  0.0332 -0.5414
   37TMC2    C6  577   4.652   1.985  11.637  0.4012  0.0762 -0.1945
   37TMC2     C  578   4.605   2.119  12.024  0.4978  0.2160 -0.0094
   37TMC2     O  579   4.490   2.153  12.052 -0.0088  0.1262  0.0027
   37TMC2     H  580   4.423   2.126  11.830  0.3278  0.5878  0.6639
   37TMC2    H1  581   0.101   2.023  11.913  0.5064  2.3344  0.6453
   37TMC2    H2  582   4.661   1.952  11.534 -1.0119 -0.8366 -0.0285
   37TMC2    C7  583   0.149   1.998  11.665  0.0257  1.0324 -0.3019
   37TMC2    C8  584   4.416   2.031  11.600  0.5911  0.0525  1.0497
   37TMC2    O1  585   0.213   2.087  11.723  0.5439 -0.0726 -0.6332
   37TMC2    O2  586   4.322   1.978  11.661 -0.1397  0.4385 -0.1091
   37TMC2    O5  587   4.446   2.023  11.468 -0.1460 -0.2578 -0.4209
   37TMC2    H5  588   4.514   2.085  11.435 -0.3838  0.1483 -0.1582
   38MPD2     C  589   4.709   2.218  12.520  0.5493 -0.5097  0.4952
   38MPD2    C1  590   0.085   2.159  12.460  0.1531  1.3397 -0.3931
   38MPD2    C2  591   0.085   2.122  12.324  0.9772 -0.0171 -0.3038
   38MPD2    C3  592   4.709   2.148  12.246  0.0718  0.5382 -0.4416
   38MPD2    C4  593   4.599   2.213  12.309 -0.1447  0.4238 -0.0930
   38MPD2    C5  594   4.595   2.233  12.446 -0.3790 -0.5470  0.1904
   38MPD2     H  595   0.174   2.074  12.285  0.5497 -0.4095 -0.8055
   38MPD2    H1  596   4.516   2.253  12.251 -0.2316  0.6126  0.1583
   38MPD2    H2  597   4.704   2.244  12.625  0.7108 -0.7937  0.5717
   38MPD2    H3  598   4.503   2.269  12.491  0.1217  0.6417  0.2506
   38MPD2     N  599   4.718   2.124  12.105 -0.4266 -0.1395 -0.1922
   38MPD2    H5  600   0.066   2.088  12.063 -0.4317  1.0426 -1.2492
   38MPD2    N1  601   0.202   2.130  12.527 -0.0600 -0.3272 -0.5888
   38MPD2    H7  602   0.284   2.100  12.474 -1.5841 -1.4404 -2.3168
   39TMC2    C1  603   3.439   3.602   1.525 -0.3018  0.5155  0.4936
   39TMC2    C2  604   3.438   3.697   1.624  0.2250  0.3944  0.1415
   39TMC2    C3  605   3.560   3.724   1.674 -0.2832 -0.1053  0.0400
   39TMC2    C4  606   3.556   3.552   1.467 -0.2239 -0.5795 -0.0800
   39TMC2    C5  607   3.676   3.589   1.529 -0.1370 -0.0240 -0.0656
   39TMC2    C6  608   3.684   3.679   1.631 -0.5222 -0.5020  0.5128
   39TMC2     C  609   3.316   3.560   1.459  0.1576  0.4739 -0.2261
   39TMC2     O  610   3.218   3.619   1.498  0.6957 -0.2313  0.1137
   39TMC2     H  611   3.351   3.749   1.662  0.1691  0.4729 -0.0929
   39TMC2    H1  612   3.567   3.469   1.399 -0.5525 -1.2409  0.6810
   39TMC2    H2  613   3.779   3.712   1.670 -0.7254  1.8089 -0.9631
   39TMC2    C7  614   3.795   3.545   1.464  0.4445 -0.0876 -0.1493
   39TMC2    C8  615   3.578   3.850   1.736  1.0394 -1.3456 -0.7570
   39TMC2    O1  616   3.804   3.432   1.426  0.1132  0.3154  0.2999
   39TMC2    O2  617   3.673   3.880   1.804  0.4028 -0.1960 -0.2122
   39TMC2    O5  618   3.522   3.931   1.643  0.5143 -0.5316 -0.1559
   39TMC2    H5  619   3.474   3.889   1.568  1.1047  0.2114 -0.9526
   40MPD2     C  620   3.213   3.290   1.232 -0.6960  0.4931  0.5574
   40MPD2    C1  621   3.214   3.422   1.286 -0.7840 -0.4254 -0.7066
   40MPD2    C2  622   3.106   3.508   1.258 -1.0345 -0.4588 -1.0233
   40MPD2    C3  623   3.015   3.464   1.173  0.5757  0.1756 -0.6964
   40MPD2    C4  624   3.011   3.334   1.127 -0.0119  0.4960  0.3044
   40MPD2    C5  625   3.109   3.243   1.158  0.4467  0.7199 -0.2122
   40MPD2     H  626   3.092   3.607   1.301 -1.7206 -0.6621 -0.7745
   40MPD2    H1  627   2.935   3.289   1.064  0.1206 -0.9621  1.1773
   40MPD2    H2  628   3.298   3.225   1.252  1.6394  3.9732  1.9660
   40MPD2    H3  629   3.112   3.140   1.125  2.6658  1.0976 -1.1247
   40MPD2     N  630   2.908   3.542   1.133  1.4314  0.0525 -0.1310
   40MPD2    H5  631   2.851   3.507   1.056  0.6044  1.6956 -0.2577
   40MPD2    N1  632   3.324   3.461   1.365  0.0966  0.0830 -0.2273
   40MPD2    H7  633   3.402   3.397   1.351  1.6707  2.6304 -2.9481
   41TMC2    C1  634   2.274   1.955  13.088 -0.6869  0.2158 -0.4631
   41TMC2    C2  635   2.346   2.065  13.130  0.1545  0.2140  0.1080
   41TMC2    C3  636   2.383   2.150  13.035 -0.7585  0.1142  0.1275
   41TMC2    C4  637   2.238   1.932  12.961 -0.0708 -0.3132 -0.5327
   41TMC2    C5  638   2.280   2.026  12.873 -0.0779 -0.3283  1.0186
   41TMC2    C6  639   2.355   2.129  12.908  1.0590 -0.4624 -0.2339
   41TMC2     C  640   2.193   1.889  13.192 -0.6536  0.1269 -0.0413
   41TMC2     O  641   2.089   1.841  13.152 -0.6709 -0.0439  0.9378
   41TMC2     H  642   2.359   2.093  13.234  1.0502  0.5712 -0.0980
   41TMC2    H1  643   2.161   1.861  12.931 -0.1808  0.7487 -2.7581
   41TMC2    H2  644   2.363   2.213  12.840  0.2676  0.6432  1.0562
   41TMC2    C7  645   2.282   1.992  12.727 -0.0374 -0.1271  0.4651
   41TMC2    C8  646   2.410   2.285  13.067 -0.6326  0.4348  0.1656
   41TMC2    O1  647   2.356   2.066  12.666 -0.4393  0.0175 -0.3176
   41TMC2    O2  648   2.521   2.336  13.050  0.2359  0.1691  0.0541
   41TMC2    O5  649   2.317   2.315  13.162  0.2305 -0.0159  0.3513
   41TMC2    H5  650   2.235   2.266  13.142  2.2275 -2.6255 -1.3944
   42MPD2     C  651   2.059   1.789  13.439  0.0453 -0.1585  0.7848
   42MPD2    C1  652   2.187   1.837  13.432  0.2401 -0.2781  0.4922
   42MPD2    C2  653   2.258   1.853  13.550  0.5506  0.6554 -0.2309
   42MPD2    C3  654   2.210   1.803  13.670  0.1556  0.5633 -0.6294
   42MPD2    C4  655   2.089   1.734  13.676  0.2347  0.2940 -0.0664
   42MPD2    C5  656   2.012   1.731  13.559 -0.1765 -0.0357 -1.0449
   42MPD2     H  657   2.351   1.906  13.534  2.2735 -2.1067  0.4769
   42MPD2    H1  658   2.056   1.682  13.765  1.9579 -0.7741 -0.0428
   42MPD2    H2  659   2.000   1.781  13.348  0.3942 -2.0216  0.7224
   42MPD2    H3  660   1.914   1.685  13.558 -0.9150  1.5187 -1.1677
   42MPD2     N  661   2.276   1.816  13.792  0.0643  0.3593 -1.1060
   42MPD2    H5  662   2.234   1.755  13.860  0.4848  1.3621  0.0544
   42MPD2    N1  663   2.245   1.897  13.317 -0.0556  0.0358 -0.4389
   42MPD2    H7  664   2.340   1.928  13.332 -0.7489  0.7828  2.3324
   43TMC2    C1  665   3.674   0.558   0.452 -0.3895  0.0696  0.0413
   43TMC2    C2  666   3.553   0.612   0.472 -0.5840 -0.4234 -0.3904
   43TMC2    C3  667   3.532   0.675   0.593 -0.2290  0.0027 -0.4612
   43TMC2    C4  668   3.769   0.555   0.542 -0.4784  0.2053 -0.6713
   43TMC2    C5  669   3.739   0.610   0.660 -0.6541  0.8916 -0.1755
   43TMC2    C6  670   3.625   0.683   0.688  0.0518  0.3195 -0.1498
   43TMC2     C  671   3.693   0.491   0.324  0.2991  0.7117  0.2196
   43TMC2     O  672   3.788   0.413   0.313  0.8338 -0.0956  0.0943
   43TMC2     H  673   3.470   0.577   0.412 -0.8482 -0.2810 -0.1054
   43TMC2    H1  674   3.859   0.502   0.514  0.5644  0.5667  2.0073
   43TMC2    H2  675   3.609   0.717   0.789  0.3712 -0.2459  0.0876
   43TMC2    C7  676   3.857   0.619   0.753  0.1534 -0.3029 -0.0630
   43TMC2    C8  677   3.402   0.727   0.634 -0.1545 -0.5486  0.6590
   43TMC2    O1  678   3.962   0.572   0.717 -0.3954  0.8988 -0.0992
   43TMC2    O2  679   3.372   0.733   0.750  0.5169 -0.5523 -0.3332
   43TMC2    O5  680   3.315   0.698   0.535  0.1208  0.0136  0.2854
   43TMC2    H5  681   3.350   0.716   0.445  0.5588 -0.6062  0.3265
   44MPD2     C  682   3.580   0.404  17.582  0.1295 -0.6000  0.1112
   44MPD2    C1  683   3.639   0.325  17.677  0.0644 -0.9780 -0.8899
   44MPD2    C2  684   3.658   0.374   0.054  0.3593  0.1206 -0.2229
   44MPD2    C3  685   3.623   0.501   0.088  0.4949  0.0047 -0.9585
   44MPD2    C4  686   3.566   0.580  17.742 -0.6988  0.0479 -0.6009
   44MPD2    C5  687   3.555   0.536  17.610 -1.0417  0.1856  0.2787
   44MPD2     H  688   3.685   0.294   0.122  0.6619  0.2695 -0.1660
   44MPD2    H1  689   3.544   0.685   0.011  2.6130  0.9192 -1.4788
   44MPD2    H2  690   3.560   0.365  17.483 -0.1678  0.1000 -0.1057
   44MPD2    H3  691   3.527   0.605  17.531 -0.5487 -1.0240 -0.9612
   44MPD2     N  692   3.619   0.549   0.219  0.8479  0.1410 -0.1694
   44MPD2    H5  693   3.561   0.630   0.238  1.7046  0.3014  1.7569
   44MPD2    N1  694   3.661   0.186  17.664  0.6112 -0.1887  0.7650
   44MPD2    H7  695   3.713   0.134  17.734  0.2566 -3.3367 -1.2922
   45TMC2    C1  696   3.466   2.154   9.990 -0.3909  1.1903  0.2929
   45TMC2    C2  697   3.368   2.236  10.043  1.3301  0.3255  0.2638
   45TMC2    C3  698   3.401   2.364  10.055 -0.3467 -0.9821  0.0643
   45TMC2    C4  699   3.596   2.199   9.958  0.2055  0.6422  0.0911
   45TMC2    C5  700   3.614   2.336   9.966 -0.1445  0.4082  0.3690
   45TMC2    C6  701   3.519   2.420  10.014  0.3453 -0.2311 -0.2695
   45TMC2     C  702   3.428   2.025   9.942  0.6084  0.7582  0.6147
   45TMC2     O  703   3.521   1.952   9.914 -0.3276  0.1220  0.1319
   45TMC2     H  704   3.274   2.203  10.086  0.1386  0.2648 -2.3598
   45TMC2    H1  705   3.671   2.130   9.921 -0.8245  0.6519 -2.0506
   45TMC2    H2  706   3.546   2.525  10.023 -1.8952  0.2713  0.6599
   45TMC2    C7  707   3.748   2.391   9.988  0.2801  0.0132  0.5666
   45TMC2    C8  708   3.300   2.455  10.100 -0.0269 -0.6834 -0.5453
   45TMC2    O1  709   3.757   2.498  10.054 -0.2547 -0.1066  0.0442
   45TMC2    O2  710   3.326   2.541  10.187 -0.4202 -0.4901 -0.2517
   45TMC2    O5  711   3.225   2.476   9.994 -0.2364  0.7429 -0.3705
   45TMC2    H5  712   3.222   2.401   9.931  0.5660  0.5204 -0.1372
   46MPD2     C  713   3.294   1.801   9.802 -0.0026 -0.0816 -0.7668
   46MPD2    C1  714   3.230   1.905   9.862  0.4860 -0.3323  0.5802
   46MPD2    C2  715   3.087   1.913   9.861 -0.7363  0.3275 -0.0383
   46MPD2    C3  716   3.022   1.806   9.799  0.1641 -0.5571  0.6508
   46MPD2    C4  717   3.095   1.697   9.745  0.4380 -0.4885  0.6629
   46MPD2    C5  718   3.229   1.700   9.742 -0.1912  0.7279  0.6287
   46MPD2     H  719   3.038   1.984   9.926 -1.1494  0.1223 -0.1262
   46MPD2    H1  720   3.042   1.609   9.712 -0.9121  1.4576 -2.3195
   46MPD2    H2  721   3.402   1.790   9.798  0.0607  0.3968 -0.3119
   46MPD2    H3  722   3.280   1.617   9.694 -1.8061  0.0856  0.0428
   46MPD2     N  723   2.881   1.804   9.808 -0.2226 -0.2556  0.4079
   46MPD2    H5  724   2.839   1.868   9.875 -1.0524 -2.2942  1.8337
   46MPD2    N1  725   3.295   2.015   9.916 -0.7506 -0.6392  1.4909
   46MPD2    H7  726   3.246   2.096   9.951  1.0591  1.0955  0.0621
   47TMC2    C1  727   1.978   1.535   9.658 -0.1999  0.8315 -0.1471
   47TMC2    C2  728   2.029   1.581   9.775 -0.8890 -0.3787  0.2118
   47TMC2    C3  729   1.996   1.517   9.888  0.4404  0.7092 -0.0942
   47TMC2    C4  730   1.887   1.437   9.654 -0.5759  0.4962  0.1871
   47TMC2    C5  731   1.862   1.374   9.773  0.0123  0.1139  0.2630
   47TMC2    C6  732   1.915   1.408   9.890  0.2981  0.0239 -0.4850
   47TMC2     C  733   2.006   1.591   9.523  0.2718 -1.0699  0.2463
   47TMC2     O  734   2.019   1.512   9.429 -0.1450 -0.0637  0.4185
   47TMC2     H  735   2.081   1.676   9.769 -0.7699 -0.5030 -0.6880
   47TMC2    H1  736   1.856   1.390   9.561  0.3495 -1.2145  0.7406
   47TMC2    H2  737   1.880   1.364   9.984  0.6697  0.0070 -0.3542
   47TMC2    C7  738   1.769   1.261   9.783  0.0214 -0.8382 -0.6109
   47TMC2    C8  739   2.071   1.573  10.005 -0.8380 -0.0983 -0.4308
   47TMC2    O1  740   1.737   1.211   9.889  0.1407 -0.2736 -0.1217
   47TMC2    O2  741   2.150   1.664  10.004 -0.5224 -0.5039  0.2446
   47TMC2    O5  742   2.047   1.503  10.118  0.1443  0.2944  0.0895
   47TMC2    H5  743   1.973   1.438  10.112  1.8596 -1.7214  0.9674
   48MPD2     C  744   2.020   1.759   9.266  0.0769 -0.4723 -0.2047
   48MPD2    C1  745   2.014   1.812   9.396 -0.5008  0.1083  0.6121
   48MPD2    C2  746   2.017   1.948   9.418 -0.5997  0.6967  0.1144
   48MPD2    C3  747   2.035   2.034   9.308  0.1776  0.1570 -0.6672
   48MPD2    C4  748   2.042   1.983   9.181  0.0040  0.7904  0.1618
   48MPD2    C5  749   2.039   1.848   9.166 -0.1137 -0.2187 -0.4696
   48MPD2     H  750   2.013   1.986   9.519 -0.1946 -0.5761  0.6166
   48MPD2    H1  751   2.056   2.040   9.089  0.9730 -0.0861 -0.2403
   48MPD2    H2  752   2.008   1.653   9.249 -0.9049 -0.7577  2.2184
   48MPD2    H3  753   2.060   1.799   9.071 -0.8646  1.5028 -1.5352
   48MPD2     N  754   2.020   2.173   9.344 -0.2876  0.4201 -0.2773
   48MPD2    H5  755   2.023   2.196   9.443 -3.3544 -1.6582  0.2801
   48MPD2    N1  756   2.003   1.726   9.515 -0.3068 -0.3903  0.6182
   48MPD2    H7  757   1.982   1.774   9.602  0.9034  2.0066 -0.3877
   49TMC2    C1  758   0.667   1.136  10.763 -0.9245 -0.4183 -0.4204
   49TMC2    C2  759   0.581   1.038  10.719  0.4065 -0.0954  0.1328
   49TMC2    C3  760   0.505   1.083  10.614 -0.3477 -0.2290 -0.6841
   49TMC2    C4  761   0.683   1.256  10.704  0.3807 -0.0412  0.7218
   49TMC2    C5  762   0.622   1.284  10.591  0.4499  0.5722  0.6884
   49TMC2    C6  763   0.517   1.199  10.551  0.1005 -0.2830 -0.5115
   49TMC2     C  764   0.729   1.115  10.895 -0.2014  0.6739  0.1692
   49TMC2     O  765   0.796   1.213  10.931 -0.4420 -0.4764 -0.5068
   49TMC2     H  766   0.561   0.939  10.761  3.8958 -1.0244 -0.4485
   49TMC2    H1  767   0.754   1.333  10.734 -1.4938  0.9136  2.6389
   49TMC2    H2  768   0.452   1.224  10.468 -0.9129 -1.5074 -0.0825
   49TMC2    C7  769   0.621   1.418  10.539  0.3102 -0.0559 -0.2959
   49TMC2    C8  770   0.394   0.999  10.568  0.6339  0.3112 -0.4314
   49TMC2    O1  771   0.529   1.438  10.459 -0.3611  0.1529 -0.6756
   49TMC2    O2  772   0.397   0.875  10.570  0.1521  0.1346  0.2011
   49TMC2    O5  773   0.285   1.074  10.599  0.1135  0.3458  0.3807
   49TMC2    H5  774   0.314   1.158  10.641  1.6030  0.6253 -1.1858
   50MPD2     C  775   0.860   1.031  11.141 -0.7619  0.1139 -0.9696
   50MPD2    C1  776   0.743   0.970  11.097 -0.2078 -0.5079 -0.7838
   50MPD2    C2  777   0.662   0.894  11.172 -0.5809 -0.8423 -0.6978
   50MPD2    C3  778   0.713   0.847  11.291  0.3822  0.4311 -0.5582
   50MPD2    C4  779   0.837   0.892  11.331 -0.8602  0.2608 -0.0957
   50MPD2    C5  780   0.905   0.993  11.263  0.0431  0.3102  0.2960
   50MPD2     H  781   0.571   0.859  11.125 -0.9461 -0.3115 -0.3870
   50MPD2    H1  782   0.876   0.867  11.429  0.9706  0.2993 -0.8194
   50MPD2    H2  783   0.909   1.119  11.102  1.6200 -1.2101 -0.9723
   50MPD2    H3  784   0.986   1.051  11.307 -2.1358  2.7969  0.9960
   50MPD2     N  785   0.640   0.754  11.370  0.0430 -0.4033 -0.0524
   50MPD2    H5  786   0.688   0.726  11.455  0.3672 -0.4948 -0.2645
   50MPD2    N1  787   0.683   1.010  10.972  0.3929 -0.1769 -0.1586
   50MPD2    H7  788   0.602   0.964  10.932  1.8405 -0.0510 -3.2315
   51TMC2    C1  789   0.208   2.914   0.683 -0.0804 -0.3632 -0.5187
   51TMC2    C2  790   0.070   2.909   0.702  0.5750  0.0824 -0.2949
   51TMC2    C3  791   0.002   3.027   0.719 -0.1310  0.5428  0.7481
   51TMC2    C4  792   0.274   3.033   0.677  0.3275 -0.4563 -0.2779
   51TMC2    C5  793   0.198   3.144   0.701 -0.4052 -0.0091 -0.1871
   51TMC2    C6  794   0.062   3.152   0.706  0.1563 -0.0471 -0.4207
   51TMC2     C  795   0.287   2.792   0.678 -0.1215  0.1267 -0.0108
   51TMC2     O  796   0.406   2.811   0.690 -0.5773  0.0194 -0.2377
   51TMC2     H  797   0.010   2.818   0.703 -0.9647  1.1266  1.0638
   51TMC2    H1  798   0.382   3.030   0.677  0.3326 -0.1745 -0.6190
   51TMC2    H2  799   0.011   3.247   0.702  0.7761  0.5641  5.1670
   51TMC2    C7  800   0.278   3.268   0.686  0.2889  0.1340 -0.0326
   51TMC2    C8  801   4.607   3.037   0.774 -0.5123 -0.5111 -0.4388
   51TMC2    O1  802   0.392   3.255   0.646  0.1887 -0.3713 -0.2367
   51TMC2    O2  803   4.533   3.131   0.764 -0.1391  0.0771  0.3535
   51TMC2    O5  804   4.606   2.953   0.877 -0.0763 -0.3173  0.1308
   51TMC2    H5  805   4.679   2.889   0.888  2.6049  2.5261 -0.9109
   52MPD2     C  806   0.384   2.290   0.757 -0.2652 -0.0343 -0.3263
   52MPD2    C1  807   0.452   2.403   0.787 -1.0273 -0.0610 -0.0830
   52MPD2    C2  808   0.391   2.528   0.782  0.3163 -0.2080  0.2861
   52MPD2    C3  809   0.267   2.548   0.725  0.1563 -0.4312 -0.0069
   52MPD2    C4  810   0.193   2.425   0.695  0.8419 -0.1300  0.3236
   52MPD2    C5  811   0.247   2.302   0.727 -0.1798  0.6243  0.3343
   52MPD2     H  812   0.454   2.614   0.803  0.2021 -0.4595  1.6100
   52MPD2    H1  813   0.090   2.431   0.659  0.1228 -2.6446  2.0087
   52MPD2    H2  814   0.428   2.195   0.787 -0.7388  0.1981  1.1413
   52MPD2    H3  815   0.189   2.211   0.720  0.3646  0.2096  1.2123
   52MPD2     N  816   0.211   2.676   0.692  0.3647  0.3650 -0.6050
   52MPD2    H5  817   0.113   2.682   0.666 -0.5353 -1.3121  2.3399
   52MPD2    N1  818   0.587   2.398   0.827  0.3625 -0.3104 -0.2900
   52MPD2    H7  819   0.627   2.484   0.862 -0.9991  0.9070 -1.7246
   53TMC2    C1  820   0.698   2.361  11.356  0.1648  0.8101 -0.4475
   53TMC2    C2  821   0.828   2.384  11.327  0.1972 -0.3576  0.1860
   53TMC2    C3  822   0.916   2.432  11.423 -0.2013  0.4119 -0.4109
   53TMC2    C4  823   0.643   2.402  11.474  0.2684 -0.2319 -0.2964
   53TMC2    C5  824   0.730   2.465  11.567  0.1809 -0.2283 -0.2092
   53TMC2    C6  825   0.862   2.475  11.543 -0.0489 -0.4200 -0.5358
   53TMC2     C  826   0.633   2.241  11.286  0.8566 -0.0364  0.3984
   53TMC2     O  827   0.670   2.208  11.175 -0.2641 -0.0292 -0.0495
   53TMC2     H  828   0.872   2.355  11.233  1.0794  1.1077  0.1456
   53TMC2    H1  829   0.536   2.401  11.490  0.0922 -0.4535 -1.4819
   53TMC2    H2  830   0.915   2.542  11.611  3.3632 -1.1868 -2.4511
   53TMC2    C7  831   0.671   2.479  11.700 -0.0251  0.6424  0.0950
   53TMC2    C8  832   1.052   2.490  11.387 -0.6893  0.2650  0.8620
   53TMC2    O1  833   0.555   2.506  11.697  0.4639 -0.0006  0.3543
   53TMC2    O2  834   1.086   2.500  11.270  0.0811 -0.2456  0.4351
   53TMC2    O5  835   1.137   2.446  11.490  0.7984  0.0416  0.4487
   53TMC2    H5  836   1.085   2.396  11.556 -0.3986 -1.6896 -1.8181
   54MPD2     C  837   0.438   2.020  11.234 -0.0338 -0.3324 -0.3787
   54MPD2    C1  838   0.453   2.081  11.354 -0.5287 -0.6846 -0.2885
   54MPD2    C2  839   0.365   2.059  11.459  0.3304 -0.0221 -0.4595
   54MPD2    C3  840   0.258   1.971  11.441 -0.4506  0.7623  0.5618
   54MPD2    C4  841   0.249   1.909  11.320  0.3063  0.4557  0.0703
   54MPD2    C5  842   0.334   1.931  11.213  0.8009  0.0954 -0.5740
   54MPD2     H  843   0.376   2.112  11.553  0.1820  0.2290 -0.5841
   54MPD2    H1  844   0.172   1.835  11.300 -0.3378  0.9338  0.7832
   54MPD2    H2  845   0.509   2.032  11.153 -0.8832 -2.2054 -1.4068
   54MPD2    H3  846   0.323   1.871  11.123 -0.8037 -1.9217  0.9462
   54MPD2     N  847   0.165   1.941  11.543  1.0157  0.2393 -0.4767
   54MPD2    H5  848   0.086   1.883  11.520  1.3127 -0.5706  0.5432
   54MPD2    N1  849   0.548   2.181  11.373 -0.1244 -0.5713 -0.0672
   54MPD2    H7  850   0.567   2.213  11.468 -1.5558  1.1088 -0.3368
   55TMC2    C1  851   1.948   4.643  17.678  0.0608  0.4110 -0.5039
   55TMC2    C2  852   2.037   4.617  17.580 -0.6369 -0.2873  0.0961
   55TMC2    C3  853   2.082   4.491  17.571 -0.0826  0.4207 -0.3553
   55TMC2    C4  854   1.909   4.551   0.020 -0.7796 -0.2041 -0.5044
   55TMC2    C5  855   1.966   4.428   0.018 -0.6791 -0.4059 -0.5317
   55TMC2    C6  856   2.054   4.392  17.665  0.5278 -0.3643  0.4298
   55TMC2     C  857   1.904   0.044  17.696 -0.4020  0.6532 -0.5601
   55TMC2     O  858   1.822   0.069   0.034  0.2967  0.2582 -0.1304
   55TMC2     H  859   2.053   4.695  17.507 -1.7573  0.9564  1.1625
   55TMC2    H1  860   1.843   4.577   0.102 -0.1159 -1.2850  0.3803
   55TMC2    H2  861   2.094   4.292  17.658 -0.6429 -0.7190 -1.1137
   55TMC2    C7  862   1.891   4.314   0.077  0.2390 -0.4640  1.4059
   55TMC2    C8  863   2.143   4.442  17.444  0.5414  0.0689  0.1370
   55TMC2    O1  864   1.929   4.202   0.046  0.5623  0.2473  0.2400
   55TMC2    O2  865   2.132   4.335  17.386  0.1646  0.2792  0.2798
   55TMC2    O5  866   2.227   4.537  17.402  0.1901  0.0046 -0.0489
   55TMC2    H5  867   2.241   4.604  17.473  1.2848  0.6445 -0.8592
   56MPD2     C  868   1.989   0.354  17.510  0.2976 -0.7517 -0.0417
   56MPD2    C1  869   1.938   0.275  17.611 -0.7779 -0.0838  0.2482
   56MPD2    C2  870   1.859   0.335  17.711 -0.0350 -0.3913 -0.4438
   56MPD2    C3  871   1.821   0.467  17.706  0.3410 -0.1450 -0.4943
   56MPD2    C4  872   1.865   0.545  17.597 -0.0537  0.4568  0.5281
   56MPD2    C5  873   1.953   0.492  17.504  0.5402  0.0149 -0.1457
   56MPD2     H  874   1.818   0.279   0.046  1.4718 -0.6813  0.0903
   56MPD2    H1  875   1.838   0.650  17.592  0.2000  0.5386  0.8670
   56MPD2    H2  876   2.062   0.318  17.438  0.7843  0.8492 -0.3702
   56MPD2    H3  877   1.993   0.558  17.429  0.5713  1.6942  1.3472
   56MPD2     N  878   1.752   0.508   0.073 -0.2532  0.3360  0.4904
   56MPD2    H5  879   1.730   0.434   0.139  1.0895  0.0620  0.6332
   56MPD2    N1  880   1.961   0.138  17.614  0.0309 -0.8536  0.0542
   56MPD2    H7  881   2.016   0.095  17.540  2.6122  1.5413  0.5864
   57TMC2    C1  882   0.782   0.976  13.836 -0.1532 -0.3020 -0.1744
   57TMC2    C2  883   0.829   0.909  13.945  0.7375  0.1835 -0.4244
   57TMC2    C3  884   0.876   0.790  13.934  0.4514  0.2278 -0.2449
   57TMC2    C4  885   0.763   0.908  13.717  0.0286 -0.1885  0.6486
   57TMC2    C5  886   0.808   0.779  13.708  0.6351 -0.6687  0.0892
   57TMC2    C6  887   0.863   0.717  13.815  0.0548 -0.0244 -0.3131
   57TMC2     C  888   0.716   1.103  13.847  0.0300 -0.3784 -0.2202
   57TMC2     O  889   0.653   1.141  13.753 -0.3530 -0.4961 -0.2864
   57TMC2     H  890   0.844   0.964  14.038  0.8843  1.2940 -1.1105
   57TMC2    H1  891   0.736   0.960  13.626  0.9027  0.1740  0.5911
   57TMC2    H2  892   0.899   0.614  13.815 -1.1333 -0.4474 -1.2122
   57TMC2    C7  893   0.794   0.718  13.578 -0.9892 -0.0150  0.7623
   57TMC2    C8  894   0.886   0.709  14.054  0.4190 -0.7664  0.6595
   57TMC2    O1  895   0.709   0.765  13.500  0.0302  0.1556 -0.1967
   57TMC2    O2  896   0.939   0.598  14.043  0.7986 -0.7589 -0.0434
   57TMC2    O5  897   0.811   0.766  14.157  0.1489  0.2087  0.3808
   57TMC2    H5  898   0.777   0.856  14.137 -0.5578 -0.0320  0.5136
   58MPD2     C  899   0.731   1.580  14.032 -0.4161 -0.0779  0.0939
   58MPD2    C1  900   0.703   1.541  13.907 -0.4187 -0.8148 -0.7818
   58MPD2    C2  901   0.717   1.402  13.880 -1.1079  0.3462  0.3503
   58MPD2    C3  902   0.756   1.310  13.974  0.2699 -0.2184  0.2125
   58MPD2    C4  903   0.794   1.359  14.098 -0.0109 -0.4132 -0.7605
   58MPD2    C5  904   0.782   1.493  14.131 -0.3047 -0.0799 -0.1306
   58MPD2     H  905   0.679   1.377  13.781  0.0138  0.7643 -0.1888
   58MPD2    H1  906   0.834   1.290  14.172 -0.6228  0.7051  0.6200
   58MPD2    H2  907   0.719   1.682  14.066  0.4801 -0.6177  2.0555
   58MPD2    H3  908   0.805   1.533  14.229 -0.0792 -0.4436 -0.0350
   58MPD2     N  909   0.763   1.170  13.956 -0.0720 -0.3629 -0.4949
   58MPD2    H5  910   0.830   1.122  14.014 -0.6055 -0.3671  0.1177
   58MPD2    N1  911   0.636   1.617  13.813 -0.0749 -0.5927 -0.5521
   58MPD2    H7  912   0.610   1.571  13.726  1.4297  0.7641 -1.7135
   59TMC2    C1  913   3.039   1.424  12.757  0.0103  0.3042 -0.2028
   59TMC2    C2  914   3.059   1.309  12.825 -0.2783 -0.7444 -0.5514
   59TMC2    C3  915   2.996   1.196  12.770 -0.4669 -1.1030  0.5913
   59TMC2    C4  916   2.970   1.439  12.638  0.0590 -0.3121 -0.0411
   59TMC2    C5  917   2.901   1.331  12.598  0.4277 -0.4247 -0.0609
   59TMC2    C6  918   2.915   1.207  12.657 -0.0213 -0.2224  0.9011
   59TMC2     C  919   3.102   1.540  12.815  0.3054 -0.3299 -0.1393
   59TMC2     O  920   3.078   1.644  12.756  0.2647  0.2508 -0.4118
   59TMC2     H  921   3.097   1.307  12.927 -0.3185  0.3534 -0.5171
   59TMC2    H1  922   2.956   1.534  12.588  1.1627 -0.6309 -0.9516
   59TMC2    H2  923   2.849   1.124  12.636  0.5339 -0.5856  0.5929
   59TMC2    C7  924   2.788   1.338  12.513  0.5571  0.0449  0.6647
   59TMC2    C8  925   3.010   1.066  12.834  0.2779 -0.9355  0.2974
   59TMC2    O1  926   2.702   1.253  12.536 -0.6680  0.2287 -0.0335
   59TMC2    O2  927   2.932   0.969  12.819  0.5215  0.4941  0.5818
   59TMC2    O5  928   3.121   1.073  12.910  0.2503 -0.3976  0.2782
   59TMC2    H5  929   3.171   1.157  12.899 -1.1124  0.4811  0.6943
   60MPD2     C  930   3.209   1.754  12.994  0.0299 -0.1761  0.4559
   60MPD2    C1  931   3.246   1.619  12.999 -0.1781 -0.8504  0.3979
   60MPD2    C2  932   3.341   1.584  13.094  0.3620  0.5008  0.7859
   60MPD2    C3  933   3.402   1.668  13.181 -0.2916 -0.4968  0.0790
   60MPD2    C4  934   3.356   1.802  13.176  0.4023  0.0896  0.4080
   60MPD2    C5  935   3.262   1.839  13.084  0.5141 -0.4149 -0.5368
   60MPD2     H  936   3.370   1.480  13.092 -1.6461 -0.0759  3.4304
   60MPD2    H1  937   3.389   1.869  13.254 -1.1780 -0.9149  1.9626
   60MPD2    H2  938   3.135   1.789  12.922  0.8373 -1.8893 -1.1873
   60MPD2    H3  939   3.238   1.945  13.088 -0.9432 -0.7726  0.2789
   60MPD2     N  940   3.509   1.632  13.273 -0.2492 -0.6366 -0.2816
   60MPD2    H5  941   3.536   1.706  13.338 -1.0508 -0.4507 -0.1576
   60MPD2    N1  942   3.196   1.519  12.913  0.6751 -0.1748 -0.1389
   60MPD2    H7  943   3.226   1.425  12.938  2.6819  0.6482  0.5208
   61TMC2    C1  944   2.715   2.724  15.791  0.8279 -0.0312 -0.1729
   61TMC2    C2  945   2.709   2.683  15.918 -0.3646  0.3229 -0.0588
   61TMC2    C3  946   2.691   2.771  16.019  0.1547 -0.4297  0.7405
   61TMC2    C4  947   2.725   2.853  15.763 -0.2581 -0.5037  0.3414
   61TMC2    C5  948   2.724   2.947  15.869 -0.0042  1.2528 -0.6176
   61TMC2    C6  949   2.699   2.909  15.997  0.3003  0.2173  0.0618
   61TMC2     C  950   2.692   2.624  15.686 -0.1963  0.4221 -0.1368
   61TMC2     O  951   2.671   2.508  15.721 -0.1598  0.1128 -0.5741
   61TMC2     H  952   2.698   2.577  15.939  3.8296 -0.0171  0.2581
   61TMC2    H1  953   2.738   2.896  15.665  0.6616 -1.3509  0.0961
   61TMC2    H2  954   2.699   2.983  16.077 -1.6764  0.0977  0.1531
   61TMC2    C7  955   2.721   3.085  15.828 -0.1714  0.5180 -0.3388
   61TMC2    C8  956   2.718   2.734  16.154 -0.4787 -0.3117  0.8506
   61TMC2    O1  957   2.777   3.110  15.725 -0.2925  0.0173 -0.6979
   61TMC2    O2  958   2.778   2.809  16.230 -0.4455 -0.6819 -0.0674
   61TMC2    O5  959   2.730   2.592  16.162 -0.6693  0.3925 -0.3992
   61TMC2    H5  960   2.646   2.556  16.126 -0.6668 -1.0718  1.0857
   62MPD2     C  961   2.673   2.452  15.442  0.1170 -0.7662  0.0587
   62MPD2    C1  962   2.718   2.582  15.436 -0.4540 -0.0922 -0.1317
   62MPD2    C2  963   2.764   2.628  15.318  0.0099 -0.2794  0.5433
   62MPD2    C3  964   2.749   2.561  15.199  0.6102 -1.0223  0.5971
   62MPD2    C4  965   2.706   2.431  15.201 -1.0266  0.1534  0.0778
   62MPD2    C5  966   2.678   2.373  15.328 -0.6528 -0.3631 -0.0971
   62MPD2     H  967   2.795   2.732  15.316  1.6142 -0.7490  0.4363
   62MPD2    H1  968   2.688   2.365  15.117 -1.1227 -2.0920  1.8725
   62MPD2    H2  969   2.647   2.401  15.534  1.4809 -0.7373  0.4645
   62MPD2    H3  970   2.646   2.270  15.338  2.1783 -1.4452 -2.3801
   62MPD2     N  971   2.797   2.631  15.083 -0.5830  0.5920  0.7165
   62MPD2    H5  972   2.856   2.714  15.087  0.3438  0.0063 -1.0496
   62MPD2    N1  973   2.735   2.665  15.556 -0.2638  0.7176  0.1568
   62MPD2    H7  974   2.766   2.761  15.544 -1.3136  0.9054 -1.1240
   63TMC2    C1  975   2.060   2.761  10.810 -0.1430  0.0291  0.2519
   63TMC2    C2  976   2.005   2.820  10.920 -0.7417 -0.3324  0.4505
   63TMC2    C3  977   1.999   2.956  10.923  0.3849 -0.2416 -0.0077
   63TMC2    C4  978   2.107   2.837  10.706 -0.2526 -0.4976  0.2803
   63TMC2    C5  979   2.096   2.974  10.708 -0.4037 -0.1501 -0.7362
   63TMC2    C6  980   2.051   3.041  10.824 -0.7973 -0.5486  0.3896
   63TMC2     C  981   2.013   2.627  10.774  0.0327 -0.1537 -0.3030
   63TMC2     O  982   1.987   2.544  10.862 -0.1922  0.0124 -0.1814
   63TMC2     H  983   1.954   2.756  10.991  1.1909 -1.5290  0.7767
   63TMC2    H1  984   2.149   2.785  10.621 -1.9417 -0.4642 -0.5681
   63TMC2    H2  985   2.027   3.146  10.816 -0.1673 -0.4286  0.0695
   63TMC2    C7  986   2.038   3.003  10.582  0.3730  0.3482 -0.6086
   63TMC2    C8  987   1.983   3.012  11.057 -0.0950 -0.2958 -0.7929
   63TMC2    O1  988   1.957   2.923  10.532  0.3868 -0.5091 -0.3252
   63TMC2    O2  989   2.000   2.953  11.161  0.4488  0.1783 -0.6511
   63TMC2    O5  990   2.014   3.143  11.048  0.6467 -0.1044  0.5315
   63TMC2    H5  991   1.963   3.180  10.972  2.6264  0.4041 -0.5583
   64MPD2     C  992   1.692   2.352  10.499  0.6312  0.0337 -0.3441
   64MPD2    C1  993   1.778   2.319  10.602 -0.0521 -0.3920 -0.3981
   64MPD2    C2  994   1.864   2.409  10.647  0.4949 -0.1756 -0.6809
   64MPD2    C3  995   1.868   2.535  10.599 -0.3234  0.4123 -0.2607
   64MPD2    C4  996   1.777   2.571  10.501  0.1210  0.6490  0.3899
   64MPD2    C5  997   1.699   2.481  10.446  0.2264  0.1177  0.0888
   64MPD2     H  998   1.935   2.369  10.718  1.3594  2.5798 -0.0033
   64MPD2    H1  999   1.776   2.672  10.462 -0.4643  0.7495  0.6758
   64MPD2    H2 1000   1.623   2.282  10.453  0.3844 -0.1564  0.3219
   64MPD2    H3 1001   1.627   2.503  10.369 -0.4091  1.0810  0.9612
   64MPD2     N 1002   1.950   2.639  10.651  0.3485 -0.1478 -0.0847
   64MPD2    H5 1003   1.957   2.730  10.607  1.4250  0.1321  0.6676
   64MPD2    N1 1004   1.787   2.191  10.654 -0.2464  0.2987 -0.2832
   64MPD2    H7 1005   1.861   2.176  10.722 -0.6742 -0.6931 -0.0389
   65TMC2    C1 1006   2.927   2.196  15.501  0.7125 -0.2415  0.1157
   65TMC2    C2 1007   2.935   2.156  15.369  0.3414  0.5156  0.3866
   65TMC2    C3 1008   2.991   2.243  15.280 -0.4227  0.2080  0.1108
   65TMC2    C4 1009   2.980   2.314  15.540 -0.1876 -0.4918 -0.8509
   65TMC2    C5 1010   3.044   2.393  15.448 -0.4490  0.0009 -0.1036
   65TMC2    C6 1011   3.047   2.359  15.310 -0.4383 -0.6037  0.5558
   65TMC2     C 1012   2.928   2.089  15.601 -0.2827 -0.2916  0.0964
   65TMC2     O 1013   2.907   2.111  15.721 -0.3054 -1.0711  0.3712
   65TMC2     H 1014   2.888   2.074  15.316  1.7284 -0.7579  1.1256
   65TMC2    H1 1015   2.964   2.337  15.644 -0.9279  0.6450 -1.2194
   65TMC2    H2 1016   3.081   2.417  15.225 -1.4578 -1.0116 -0.1315
   65TMC2    C7 1017   3.079   2.530  15.465  0.1769 -0.2653  0.0423
   65TMC2    C8 1018   2.975   2.182  15.152  0.2477  0.1088 -1.2986
   65TMC2    O1 1019   3.135   2.587  15.373  0.0304  0.0109 -0.4214
   65TMC2    O2 1020   2.865   2.154  15.111  0.1009  0.4960  0.1720
   65TMC2    O5 1021   3.090   2.209  15.076  0.5549 -0.0119  0.2327
   65TMC2    H5 1022   3.176   2.211  15.122  0.7400 -0.7490 -0.0767
   66MPD2     C 1023   3.007   1.851  15.756  0.2774 -0.3959  0.5287
   66MPD2    C1 1024   3.040   1.867  15.626 -0.4194 -0.3261  0.2770
   66MPD2    C2 1025   3.122   1.770  15.576 -0.0940 -0.6862 -0.9045
   66MPD2    C3 1026   3.178   1.665  15.647  0.8983  0.2205  0.3301
   66MPD2    C4 1027   3.142   1.659  15.779 -0.1922  0.5209  0.5296
   66MPD2    C5 1028   3.057   1.747  15.830 -0.1542 -0.1504 -0.3874
   66MPD2     H 1029   3.148   1.780  15.471  0.9747  2.1245 -0.3796
   66MPD2    H1 1030   3.185   1.590  15.851 -0.7260  0.7179  1.0330
   66MPD2    H2 1031   2.947   1.917  15.817 -0.3283 -0.0458 -0.4350
   66MPD2    H3 1032   3.019   1.731  15.930  2.1276  1.0118  0.6823
   66MPD2     N 1033   3.274   1.565  15.601  0.3902  0.5057 -0.5634
   66MPD2    H5 1034   3.300   1.490  15.665 -2.7745  0.1370  0.2897
   66MPD2    N1 1035   2.989   1.980  15.546 -0.4484  0.4852  0.6711
   66MPD2    H7 1036   3.013   1.985  15.448 -1.7881  2.9100  0.4870
   67TMC2    C1 1037   3.869   1.649  14.334 -0.3903 -0.4747 -0.2089
   67TMC2    C2 1038   3.756   1.726  14.320 -0.5343  0.2535  0.6931
   67TMC2    C3 1039   3.728   1.808  14.423  0.2288 -0.2076  0.4501
   67TMC2    C4 1040   3.960   1.677  14.430  0.1197 -0.0660  0.0250
   67TMC2    C5 1041   3.926   1.767  14.531 -0.0503  0.1883 -0.1251
   67TMC2    C6 1042   3.804   1.823  14.533 -0.3975  0.0561 -0.1363
   67TMC2     C 1043   3.899   1.530  14.254 -0.1507 -0.1929  0.0076
   67TMC2     O 1044   4.010   1.481  14.258 -1.3578  0.1984 -0.7478
   67TMC2     H 1045   3.709   1.731  14.222  2.2279 -2.5940 -0.7807
   67TMC2    H1 1046   4.056   1.626  14.430 -1.2125 -2.5875 -1.7275
   67TMC2    H2 1047   3.783   1.896  14.610  0.3181  1.4411 -1.2587
   67TMC2    C7 1048   4.009   1.765  14.650  0.3008 -0.7817 -0.2096
   67TMC2    C8 1049   3.633   1.916  14.400  0.5570  0.2405  0.5378
   67TMC2    O1 1050   4.127   1.760  14.634  0.8957  0.2742 -0.1283
   67TMC2    O2 1051   3.639   2.023  14.456  0.1210 -0.3871  0.4805
   67TMC2    O5 1052   3.529   1.869  14.328  1.0492  0.7397  0.0330
   67TMC2    H5 1053   3.534   1.777  14.295 -0.6767  0.0597  1.6641
   68MPD2     C 1054   3.881   1.277  14.086 -0.0573 -0.3096  0.1215
   68MPD2    C1 1055   3.775   1.368  14.100  0.3340 -0.9013 -0.0279
   68MPD2    C2 1056   3.653   1.340  14.046 -0.0792 -0.3796 -0.2615
   68MPD2    C3 1057   3.627   1.219  13.975 -0.1733 -0.5307  0.0125
   68MPD2    C4 1058   3.733   1.125  13.968 -0.9100  0.0175 -0.2644
   68MPD2    C5 1059   3.851   1.158  14.019  0.2875 -0.3912 -0.2492
   68MPD2     H 1060   3.572   1.412  14.053 -0.5194 -1.0036  0.9963
   68MPD2    H1 1061   3.718   1.033  13.913  0.1941 -0.0286 -0.4957
   68MPD2    H2 1062   3.982   1.278  14.126 -0.2801 -0.9788  0.6923
   68MPD2    H3 1063   3.927   1.081  14.015  1.3932  0.6145  1.3134
   68MPD2     N 1064   3.508   1.190  13.905  0.4208  0.2563  0.0940
   68MPD2    H5 1065   3.510   1.105  13.849  0.1269  0.3009  0.0185
   68MPD2    N1 1066   3.788   1.491  14.178  0.1551 -0.1925  0.4842
   68MPD2    H7 1067   3.703   1.548  14.186  0.0277 -0.5160  1.3318
   69TMC2    C1 1068   0.534   2.728  12.162  0.6957 -0.9972  0.4788
   69TMC2    C2 1069   0.417   2.723  12.092  0.0404 -0.4802  0.7323
   69TMC2    C3 1070   0.422   2.747  11.956  0.2534 -0.3320 -0.0830
   69TMC2    C4 1071   0.649   2.764  12.103 -1.2856 -0.2155  0.0353
   69TMC2    C5 1072   0.644   2.790  11.963  0.6503 -0.6101 -0.2591
   69TMC2    C6 1073   0.536   2.759  11.887 -0.0594 -0.1114 -0.0479
   69TMC2     C 1074   0.533   2.674  12.293  1.0375  0.0248  0.3142
   69TMC2     O 1075   0.437   2.686  12.365  0.0605  0.0752 -0.7288
   69TMC2     H 1076   0.321   2.697  12.135 -1.2038  2.3382 -0.3026
   69TMC2    H1 1077   0.743   2.783  12.155 -1.1894  1.0679 -0.5961
   69TMC2    H2 1078   0.543   2.731  11.782 -3.6011 -1.0615 -0.0500
   69TMC2    C7 1079   0.771   2.801  11.886 -0.7287 -0.5249 -0.1583
   69TMC2    C8 1080   0.309   2.706  11.881 -0.5258 -0.2479  0.1047
   69TMC2    O1 1081   0.869   2.776  11.957  0.4016  0.3223 -0.1631
   69TMC2    O2 1082   0.250   2.605  11.919 -0.2596 -0.4631 -0.2199
   69TMC2    O5 1083   0.313   2.742  11.757 -0.7691 -0.4291  0.2981
   69TMC2    H5 1084   0.372   2.818  11.739  0.1205 -2.0487 -3.7718
   70MPD2     C 1085   0.837   2.542  12.454  0.5329  0.5852 -0.0465
   70MPD2    C1 1086   0.700   2.566  12.442  0.7440 -0.8532  0.5707
   70MPD2    C2 1087   0.616   2.535  12.552 -0.2769  0.3343  0.0240
   70MPD2    C3 1088   0.674   2.483  12.668  0.7517  0.1040  0.0481
   70MPD2    C4 1089   0.810   2.476  12.683  0.4837 -0.4833 -0.2236
   70MPD2    C5 1090   0.886   2.502  12.572 -0.4095 -0.4561 -0.8412
   70MPD2     H 1091   0.510   2.559  12.551 -0.6814 -1.4401  1.2793
   70MPD2    H1 1092   0.863   2.438  12.769 -0.7899 -1.1022  0.2763
   70MPD2    H2 1093   0.905   2.561  12.372 -1.3046  0.9742 -1.4901
   70MPD2    H3 1094   0.993   2.483  12.573 -0.0873  1.2559 -1.8017
   70MPD2     N 1095   0.607   2.444  12.788  0.3947  0.1333 -0.0469
   70MPD2    H5 1096   0.656   2.387  12.856  0.0176  1.4739  1.3524
   70MPD2    N1 1097   0.653   2.618  12.319  0.0143 -0.1835  0.0256
   70MPD2    H7 1098   0.724   2.622  12.247  0.8406 -2.4993  0.7327
   71TMC2    C1 1099   3.567   2.796   1.740  0.0250 -0.3746 -0.0703
   71TMC2    C2 1100   3.693   2.840   1.783 -0.1679 -0.0665  0.2231
   71TMC2    C3 1101   3.687   2.933   1.886 -0.3798 -0.5520  0.7660
   71TMC2    C4 1102   3.451   2.862   1.774  0.0535  0.0217  0.9618
   71TMC2    C5 1103   3.456   2.965   1.860  0.3535 -0.6126 -0.1501
   71TMC2    C6 1104   3.570   2.999   1.924  0.8467  0.3117 -0.5868
   71TMC2     C 1105   3.560   2.721   1.615 -0.2526  0.3218 -0.1887
   71TMC2     O 1106   3.466   2.761   1.545 -0.9579  0.4228 -0.7843
   71TMC2     H 1107   3.785   2.801   1.742 -0.9504 -0.1579 -1.4457
   71TMC2    H1 1108   3.358   2.814   1.746  0.3584 -0.9892  1.6582
   71TMC2    H2 1109   3.575   3.085   1.990 -3.1205  0.6975 -0.7549
   71TMC2    C7 1110   3.328   2.986   1.934 -0.5296 -0.1345 -0.7107
   71TMC2    C8 1111   3.814   2.979   1.943 -0.3456  0.3760 -0.7525
   71TMC2    O1 1112   3.339   3.027   2.049 -0.6855  0.2514  0.1751
   71TMC2    O2 1113   3.924   3.000   1.894 -0.4977 -0.5287  0.0716
   71TMC2    O5 1114   3.790   3.021   2.064 -0.2167  0.0560  0.0561
   71TMC2    H5 1115   3.707   2.972   2.084 -0.4283  0.4437  0.1335
   72MPD2     C 1116   3.722   2.443   1.217 -0.2403  0.1162  0.9072
   72MPD2    C1 1117   3.598   2.508   1.238  0.1423  0.3356 -0.2233
   72MPD2    C2 1118   3.582   2.569   1.358 -0.2804  0.0358 -0.1655
   72MPD2    C3 1119   3.681   2.580   1.457  0.0426 -0.3338 -0.9305
   72MPD2    C4 1120   3.807   2.529   1.428  0.1265  0.3369  0.0866
   72MPD2    C5 1121   3.819   2.457   1.313 -0.2644  0.0161  0.1590
   72MPD2     H 1122   3.486   2.613   1.381 -1.4297 -1.5136 -1.9200
   72MPD2    H1 1123   3.890   2.533   1.497  0.8725 -2.5814 -0.6310
   72MPD2    H2 1124   3.747   2.384   1.130 -2.9074  0.3978 -0.0228
   72MPD2    H3 1125   3.907   2.397   1.294  0.2354  1.1157 -0.9871
   72MPD2     N 1126   3.667   2.647   1.583  0.7564  0.2406 -0.4183
   72MPD2    H5 1127   3.745   2.631   1.645 -0.1427  1.8134  1.0946
   72MPD2    N1 1128   3.488   2.486   1.151  0.6820  0.4546 -0.4805
   72MPD2    H7 1129   3.397   2.519   1.182  0.5372  0.9103 -1.4029
   73TMC2    C1 1130   2.551   0.092  13.891 -0.2694  0.0152 -0.0307
   73TMC2    C2 1131   2.491   0.101  14.017  0.4372  0.3884 -0.0625
   73TMC2    C3 1132   2.576   0.102  14.124 -0.4882 -0.3392  0.1598
   73TMC2    C4 1133   2.686   0.073  13.871  0.1421  0.7233 -0.4253
   73TMC2    C5 1134   2.768   0.080  13.983 -0.4810  0.4697  0.2424
   73TMC2    C6 1135   2.713   0.081  14.111  0.1049  0.0337 -0.3104
   73TMC2     C 1136   2.499   0.182  13.787 -0.0623  0.1498  0.1348
   73TMC2     O 1137   2.592   0.237  13.729  0.8255  0.5033 -0.1307
   73TMC2     H 1138   2.384   0.098  14.028  0.2610 -0.4536 -2.0760
   73TMC2    H1 1139   2.729   0.077  13.771  1.4681 -1.1552  0.0636
   73TMC2    H2 1140   2.780   0.111  14.191 -0.4335  0.7745 -0.1404
   73TMC2    C7 1141   2.868   0.178  13.975 -0.1259 -0.9032  0.6602
   73TMC2    C8 1142   2.523   0.139  14.256  0.0027  0.4474  0.5938
   73TMC2    O1 1143   2.952   0.190  14.063  0.3465 -0.1385 -0.7844
   73TMC2    O2 1144   2.596   0.119  14.354 -0.3653  0.9555  0.0061
   73TMC2    O5 1145   2.403   0.184  14.258 -0.4266 -0.0431 -0.2155
   73TMC2    H5 1146   2.372   0.221  14.173 -0.1871  1.1031  0.1956
   74MPD2     C 1147   2.151   0.508  13.593  0.1873  0.2334 -0.6761
   74MPD2    C1 1148   2.289   0.509  13.588  1.1191  0.1462 -0.5259
   74MPD2    C2 1149   2.358   0.401  13.638 -0.6029  0.3543  0.4519
   74MPD2    C3 1150   2.288   0.308  13.723  0.0377 -0.1553  0.2517
   74MPD2    C4 1151   2.150   0.315  13.735  0.4812 -0.2638  0.0087
   74MPD2    C5 1152   2.077   0.415  13.666  0.2842 -1.4264 -0.6207
   74MPD2     H 1153   2.463   0.389  13.615 -0.2699  2.7200  0.7355
   74MPD2    H1 1154   2.090   0.251  13.799  0.2181 -3.0478 -3.0020
   74MPD2    H2 1155   2.090   0.586  13.549 -2.4920 -1.9370 -0.8169
   74MPD2    H3 1156   1.972   0.430  13.686  0.3264 -0.5543 -1.0577
   74MPD2     N 1157   2.360   0.204  13.788 -0.3219 -0.5605  0.1570
   74MPD2    H5 1158   2.303   0.137  13.838 -1.7048  0.9286  0.5805
   74MPD2    N1 1159   2.360   0.609  13.523 -0.4018 -0.2542  0.4293
   74MPD2    H7 1160   2.313   0.678  13.465  2.5002  0.9782 -0.4606
   75TMC2    C1 1161   3.302   1.204  13.800  0.0981 -0.1343 -0.2519
   75TMC2    C2 1162   3.318   1.072  13.765  0.1523 -0.5313  0.9349
   75TMC2    C3 1163   3.250   1.031  13.659  0.1298 -0.1003  0.0732
   75TMC2    C4 1164   3.212   1.290  13.741  0.7422  0.4793  0.3256
   75TMC2    C5 1165   3.122   1.234  13.650  0.1523 -0.0964 -0.0352
   75TMC2    C6 1166   3.151   1.111  13.600  0.1494  0.2186 -0.1801
   75TMC2     C 1167   3.392   1.265  13.896  0.2382 -0.0553  0.3638
   75TMC2     O 1168   3.364   1.377  13.943  0.3156  0.2466 -0.2664
   75TMC2     H 1169   3.378   0.999  13.819 -0.0979 -2.4902 -1.4442
   75TMC2    H1 1170   3.195   1.392  13.775 -1.1129  1.0270 -2.1850
   75TMC2    H2 1171   3.082   1.070  13.527 -0.8624  0.1382  0.8080
   75TMC2    C7 1172   3.025   1.312  13.581 -0.0987  0.1116 -0.4893
   75TMC2    C8 1173   3.257   0.892  13.610 -0.4396 -0.1628  0.3198
   75TMC2    O1 1174   3.001   1.280  13.466 -0.4570 -0.7109  0.4064
   75TMC2    O2 1175   3.311   0.808  13.682 -0.1156 -0.3216  0.1844
   75TMC2    O5 1176   3.297   0.926  13.478  0.0493  0.6704 -0.3478
   75TMC2    H5 1177   3.223   0.971  13.432  0.7517  0.3439 -1.7986
   76TMC2    C1 1178   1.370   1.522  11.458 -0.0725  0.1617  0.3524
   76TMC2    C2 1179   1.259   1.515  11.383  0.1304  0.1271  0.3032
   76TMC2    C3 1180   1.194   1.396  11.381 -0.0459  0.0350 -0.2108
   76TMC2    C4 1181   1.412   1.415  11.524  0.2757  0.2874  0.7070
   76TMC2    C5 1182   1.337   1.300  11.533  0.1228 -0.6912 -0.6534
   76TMC2    C6 1183   1.233   1.284  11.453  0.0299 -0.3641 -0.4004
   76TMC2     C 1184   1.409   1.665  11.489  0.3046  0.0702 -0.1579
   76TMC2     O 1185   1.400   1.751  11.397 -0.1910 -0.7023  0.5963
   76TMC2     H 1186   1.241   1.606  11.327  0.4333 -0.2382 -0.3889
   76TMC2    H1 1187   1.505   1.419  11.579  0.4901 -1.5414  0.4842
   76TMC2    H2 1188   1.171   1.195  11.460  1.6852 -1.3297  2.4240
   76TMC2    C7 1189   1.381   1.179  11.599  0.7155  0.1908  0.5247
   76TMC2    C8 1190   1.068   1.379  11.322 -0.4748 -1.0099 -0.2575
   76TMC2    O1 1191   1.342   1.071  11.556 -0.0981 -0.0794  0.2700
   76TMC2    O2 1192   1.024   1.272  11.274  0.4704 -0.4612 -0.4697
   76TMC2    O5 1193   0.999   1.499  11.319 -0.0899 -0.3141  1.3484
   76TMC2    H5 1194   1.024   1.556  11.394 -0.6124  0.8746  0.6077
   77MPD2     C 1195   1.536   2.000  11.852  0.4675 -0.5588  0.1336
   77MPD2    C1 1196   1.488   2.027  11.723  0.3981  0.7048  0.0715
   77MPD2    C2 1197   1.455   1.919  11.648  0.3864  0.6489  0.1159
   77MPD2    C3 1198   1.490   1.789  11.690 -0.5534 -0.9134  0.4323
   77MPD2    C4 1199   1.555   1.769  11.808  0.1399  0.5115 -0.1151
   77MPD2    C5 1200   1.564   1.877  11.890 -0.0090  0.1518  0.3710
   77MPD2     H 1201   1.380   1.943  11.574  1.5623  1.6801 -0.7351
   77MPD2    H1 1202   1.585   1.673  11.847 -3.2933 -1.3166 -1.9705
   77MPD2    H2 1203   1.563   2.074  11.926 -1.6053 -0.2499  0.5926
   77MPD2    H3 1204   1.606   1.865  11.990  0.8775  3.2643  0.3726
   77MPD2     N 1205   1.445   1.670  11.622 -0.4311  0.1392 -0.3842
   77MPD2    H5 1206   1.451   1.588  11.681 -2.3292 -0.2181 -0.6652
   77MPD2    N1 1207   1.452   2.156  11.676 -0.4127 -0.4489 -0.2751
   77MPD2    H7 1208   1.406   2.178  11.588 -0.7395 -0.2899 -0.0672
   78TMC2    C1 1209   2.881   3.347   1.651 -0.1984  0.3559  0.3801
   78TMC2    C2 1210   2.834   3.356   1.780 -0.0384 -0.0191  0.3783
   78TMC2    C3 1211   2.927   3.349   1.881  0.4354 -0.3049  0.7290
   78TMC2    C4 1212   3.008   3.334   1.612  0.4701 -0.3024 -0.1558
   78TMC2    C5 1213   3.097   3.347   1.716  0.2208  0.2255 -0.2730
   78TMC2    C6 1214   3.064   3.334   1.851  0.2240  0.2796  0.0743
   78TMC2     C 1215   2.783   3.342   1.550 -0.7329 -0.1168  0.3149
   78TMC2     O 1216   2.676   3.385   1.582  0.3231 -0.0585 -0.7256
   78TMC2     H 1217   2.728   3.349   1.803  0.0850  1.4056  1.3612
   78TMC2    H1 1218   3.038   3.342   1.508 -1.6711 -1.8632 -0.8921
   78TMC2    H2 1219   3.141   3.343   1.926 -0.9589  2.2259  1.0257
   78TMC2    C7 1220   3.230   3.313   1.680 -0.0906 -0.1602 -0.1883
   78TMC2    C8 1221   2.882   3.377   2.019 -0.2787 -0.2422 -0.2867
   78TMC2    O1 1222   3.242   3.227   1.595  0.4671  0.2940  0.3742
   78TMC2    O2 1223   2.762   3.361   2.051 -0.2238  0.5349  0.2624
   78TMC2    O5 1224   2.967   3.464   2.078  0.3954 -0.4049 -0.0067
   78TMC2    H5 1225   3.037   3.488   2.015  0.4246 -0.0074  0.1747
   79MPD1     C 1226   2.594   3.121   1.121  0.0062 -0.0968  0.5364
   79MPD1    C1 1227   2.531   3.202   1.208 -0.2220  0.6531 -0.4323
   79MPD1    C2 1228   2.595   3.245   1.326 -0.4580  0.3380  0.8686
   79MPD1    C3 1229   2.731   3.219   1.339 -0.0410 -0.1131  0.3978
   79MPD1    C4 1230   2.792   3.134   1.254  0.0739  0.1869 -0.7454
   79MPD1    C5 1231   2.728   3.089   1.141 -0.2021 -0.0867 -0.6076
   79MPD1     H 1232   2.548   3.312   1.397 -0.5544  0.0999  1.0294
   79MPD1    H1 1233   2.896   3.105   1.266  0.4159  0.6236 -2.7196
   79MPD1    H2 1234   2.537   3.095   1.032 -0.6331  0.2071  0.8593
   79MPD1    H3 1235   2.772   3.019   1.071  2.9221  1.3539 -0.0695
   79MPD1     N 1236   2.816   3.264   1.441 -0.1896  0.9080  0.8066
   79MPD1    H5 1237   2.911   3.230   1.437 -0.5190  0.1941 -1.0416
   79MPD1    N1 1238   2.392   3.227   1.194  0.1030 -0.0447  0.9301
   79MPD1    H6 1239   2.364   3.287   1.271  1.8443  2.2623 -0.2454
   79MPD1    H7 1240   2.362   3.136   1.230 -1.6044 -0.6673 -2.0631
   80TMC2    C1 1241   1.033   1.970  11.948  0.1090  0.0023  0.4654
   80TMC2    C2 1242   1.075   2.041  11.840  0.0425 -0.7959  0.6404
   80TMC2    C3 1243   1.003   2.036  11.723  0.0498  0.7661 -0.3675
   80TMC2    C4 1244   0.912   1.899  11.946 -0.2538  0.5353 -0.2337
   80TMC2    C5 1245   0.842   1.898  11.827 -0.0545 -0.0233  0.5851
   80TMC2    C6 1246   0.885   1.967  11.714 -0.9583  0.3314 -0.1713
   80TMC2     C 1247   1.096   2.015  12.068 -0.2268 -0.3989 -1.0336
   80TMC2     O 1248   1.214   2.057  12.067 -0.7084  0.1889 -0.2864
   80TMC2     H 1249   1.176   2.080  11.841 -0.3345  0.1290  1.9467
   80TMC2    H1 1250   0.879   1.853  12.038  1.7387 -0.3893  0.0191
   80TMC2    H2 1251   0.821   1.976  11.627 -1.0876 -0.5718 -0.1687
   80TMC2    C7 1252   0.709   1.835  11.825  0.0793 -0.8366 -0.0963
   80TMC2    C8 1253   1.047   2.134  11.625 -0.0447  0.1604  0.0709
   80TMC2    O1 1254   0.638   1.872  11.734 -0.5846 -0.3266  0.2484
   80TMC2    O2 1255   1.078   2.245  11.668 -0.2850 -0.0635  0.0216
   80TMC2    O5 1256   0.969   2.114  11.513  0.0427 -0.8454  0.1016
   80TMC2    H5 1257   0.954   2.018  11.502 -1.4175 -0.3652 -2.1277
   81MPD2     C 1258   1.142   2.133  12.355 -0.2233  0.2149 -1.0116
   81MPD2    C1 1259   1.025   2.083  12.303 -0.2113  0.1582  0.1885
   81MPD2    C2 1260   0.902   2.075  12.374 -0.0524  0.7191 -0.2730
   81MPD2    C3 1261   0.903   2.111  12.512 -0.0770  0.4206 -0.4550
   81MPD2    C4 1262   1.018   2.166  12.562  0.8532  0.1510 -0.4227
   81MPD2    C5 1263   1.134   2.172  12.490  0.0748 -0.3085 -0.0656
   81MPD2     H 1264   0.815   2.038  12.323  0.4382  0.1063 -0.6665
   81MPD2    H1 1265   1.023   2.214  12.658 -1.5813  0.3626 -0.4016
   81MPD2    H2 1266   1.229   2.146  12.292  0.1457  1.9876 -0.1132
   81MPD2    H3 1267   1.218   2.224  12.535 -0.0089 -1.7588  1.7639
   81MPD2     N 1268   0.794   2.096  12.599  0.0710 -0.8496 -0.0716
   81MPD2    H5 1269   0.812   2.115  12.698 -0.0282  0.3535 -0.2859
   81MPD2    N1 1270   1.005   2.036  12.166  0.4559 -0.6356  0.1622
   81MPD2    H7 1271   0.911   2.009  12.138  0.7505  0.2791 -1.7240
   82TMC2    C1 1272   3.507   1.255  11.448 -0.0902 -0.0372 -0.5071
   82TMC2    C2 1273   3.486   1.376  11.510  0.0817 -0.0857  0.1160
   82TMC2    C3 1274   3.512   1.389  11.646  0.4372 -0.3772 -0.1283
   82TMC2    C4 1275   3.556   1.149  11.522  0.0966  0.1190  0.6906
   82TMC2    C5 1276   3.573   1.165  11.656  0.0210 -0.5852  0.1500
   82TMC2    C6 1277   3.541   1.279  11.724  0.0528 -0.0529 -0.7478
   82TMC2     C 1278   3.447   1.243  11.311 -0.3609  1.4222  0.5109
   82TMC2     O 1279   3.362   1.318  11.272  0.4737  0.2214 -0.6310
   82TMC2     H 1280   3.438   1.457  11.457  0.5088 -0.7013 -1.2152
   82TMC2    H1 1281   3.555   1.051  11.476 -1.5593  1.3832 -1.9264
   82TMC2    H2 1282   3.548   1.294  11.831 -0.7492 -4.7208 -0.0458
   82TMC2    C7 1283   3.587   1.044  11.729 -0.0105  0.8643 -0.2042
   82TMC2    C8 1284   3.482   1.511  11.717  0.3972  0.1994  0.7536
   82TMC2    O1 1285   3.526   1.038  11.835  0.4790 -0.1608 -0.7001
   82TMC2    O2 1286   3.539   1.619  11.699 -0.0603 -0.2310  0.4429
   82TMC2    O5 1287   3.384   1.496  11.810 -0.4092 -0.0991 -0.2752
   82TMC2    H5 1288   3.342   1.410  11.788  0.1823 -0.1315 -1.2766
   83MPD2     C 1289   3.406   0.949  10.890  1.0252  0.3302 -0.4731
   83MPD2    C1 1290   3.322   1.044  10.936 -0.6563 -0.2963  0.2304
   83MPD2    C2 1291   3.361   1.117  11.049  0.0992 -0.2972 -0.2372
   83MPD2    C3 1292   3.481   1.096  11.115 -0.2584 -0.4411  0.4883
   83MPD2    C4 1293   3.563   0.995  11.060  0.3679  0.6350 -0.3603
   83MPD2    C5 1294   3.528   0.922  10.951 -0.2900 -0.7268  0.1584
   83MPD2     H 1295   3.299   1.194  11.094  1.8827  0.3109  1.1763
   83MPD2    H1 1296   3.654   0.969  11.112 -0.3144 -0.6891  0.1703
   83MPD2    H2 1297   3.369   0.880  10.815 -0.1339  0.7838 -0.3218
   83MPD2    H3 1298   3.582   0.835  10.916 -0.0454 -0.7241  0.5306
   83MPD2     N 1299   3.518   1.144  11.243  0.7498  0.2521 -0.6212
   83MPD2    H5 1300   3.603   1.110  11.287  2.2431 -0.1484 -3.8675
   83MPD2    N1 1301   3.195   1.047  10.879  0.5532  0.3425 -0.4708
   83MPD2    H7 1302   3.183   0.983  10.801  0.0713 -1.9771  1.5054
   84TMC2    C1 1303   0.309   0.455  11.513 -0.2240  0.2790 -0.1929
   84TMC2    C2 1304   0.406   0.380  11.581  0.3731 -0.0619 -0.5006
   84TMC2    C3 1305   0.537   0.414  11.569 -0.0682 -0.4241 -0.2424
   84TMC2    C4 1306   0.353   0.554  11.425  0.0976  0.5889 -0.3483
   84TMC2    C5 1307   0.484   0.592  11.428 -0.3103  0.1102  0.6095
   84TMC2    C6 1308   0.581   0.510  11.488 -0.4304  0.9773 -0.8396
   84TMC2     C 1309   0.172   0.394  11.495  0.3382  0.6040  0.2106
   84TMC2     O 1310   0.157   0.284  11.546 -0.4887 -0.0365  0.2034
   84TMC2     H 1311   0.386   0.293  11.641  0.1592 -2.0981 -3.5502
   84TMC2    H1 1312   0.285   0.619  11.372  0.3983  0.1788 -1.2372
   84TMC2    H2 1313   0.686   0.535  11.480 -0.0187 -1.1026 -1.9663
   84TMC2    C7 1314   0.523   0.694  11.340 -0.0323  0.1020 -0.0147
   84TMC2    C8 1315   0.633   0.314  11.607 -0.2890  0.6315  0.2594
   84TMC2    O1 1316   0.466   0.701  11.237 -0.0575  0.3240 -0.3939
   84TMC2    O2 1317   0.750   0.337  11.633  0.3692 -0.3345 -0.0554
   84TMC2    O5 1318   0.599   0.210  11.521  0.2175  0.9799  0.1762
   84TMC2    H5 1319   0.514   0.214  11.473  0.1323  1.8046  0.4034
   85TMC2    C1 1320   0.859   3.315  16.028  0.2177 -0.0955 -1.1230
   85TMC2    C2 1321   0.787   3.419  16.081  0.2286  0.2066 -0.7422
   85TMC2    C3 1322   0.842   3.541  16.086 -0.3669  0.0904 -0.3490
   85TMC2    C4 1323   0.986   3.336  15.983 -0.3210 -0.2075 -0.2301
   85TMC2    C5 1324   1.036   3.466  15.974  0.5419  0.0070  0.1177
   85TMC2    C6 1325   0.969   3.572  16.035  0.0338 -0.0933  0.7442
   85TMC2     C 1326   0.806   3.181  16.045 -0.1828  0.0483 -0.0561
   85TMC2     O 1327   0.683   3.175  16.031  0.0131  0.1264 -0.1035
   85TMC2     H 1328   0.685   3.402  16.114 -0.2913 -0.2323 -2.5642
   85TMC2    H1 1329   1.040   3.259  15.929  1.8227 -0.0714  1.6911
   85TMC2    H2 1330   1.011   3.671  16.051 -1.5066  0.7621 -0.5915
   85TMC2    C7 1331   1.095   3.490  15.843 -0.8433 -0.3590  0.7955
   85TMC2    C8 1332   0.760   3.647  16.150  0.8630  0.2410  0.2723
   85TMC2    O1 1333   1.171   3.403  15.802  0.2624  0.8947 -0.3069
   85TMC2    O2 1334   0.640   3.667  16.128 -0.4771 -0.3716 -0.5111
   85TMC2    O5 1335   0.832   3.705  16.246 -1.0767 -0.1037  0.0019
   85TMC2    H5 1336   0.905   3.653  16.286 -1.1817 -0.6235 -0.4851
   86MPD2     C 1337   0.785   2.732  16.266 -0.2011 -0.4378 -0.4349
   86MPD2    C1 1338   0.691   2.794  16.180 -0.6395 -0.5992 -0.8076
   86MPD2    C2 1339   0.729   2.909  16.122  0.3929  0.1406 -0.1347
   86MPD2    C3 1340   0.852   2.964  16.149 -0.2386  0.0954  0.0213
   86MPD2    C4 1341   0.934   2.911  16.234  0.1859  0.2709  0.1801
   86MPD2    C5 1342   0.902   2.794  16.300  0.2005 -0.5280 -0.2150
   86MPD2     H 1343   0.665   2.947  16.043  1.5935  1.1037 -0.6380
   86MPD2    H1 1344   1.025   2.967  16.247  0.5152 -0.0103 -0.9057
   86MPD2    H2 1345   0.764   2.637  16.314 -2.5316  0.1550 -0.3286
   86MPD2    H3 1346   0.971   2.745  16.368  1.4082  0.1927 -0.9192
   86MPD2     N 1347   0.893   3.092  16.098  0.6037 -0.4727 -0.4318
   86MPD2    H5 1348   0.993   3.105  16.110  0.5864  1.1884 -2.1537
   86MPD2    N1 1349   0.569   2.732  16.141 -0.6083  0.4115  0.2537
   86MPD2    H7 1350   0.515   2.759  16.060  1.7169 -0.3068 -1.5560
   87TMC2    C1 1351   3.281   1.044   1.007  0.4304  0.6886  0.2427
   87TMC2    C2 1352   3.294   1.053   1.145  0.2894 -0.1044 -0.1909
   87TMC2    C3 1353   3.195   1.004   1.230  0.0698  0.2961  0.5730
   87TMC2    C4 1354   3.174   0.985   0.958  0.2059  0.2883  0.0007
   87TMC2    C5 1355   3.065   0.956   1.036 -0.2676  0.9873  0.6351
   87TMC2    C6 1356   3.078   0.964   1.172  0.2676 -0.2790  0.9660
   87TMC2     C 1357   3.352   1.135   0.924 -0.9089  0.3717 -0.1515
   87TMC2     O 1358   3.333   1.128   0.801 -0.0672  0.3619 -0.1962
   87TMC2     H 1359   3.392   1.073   1.187  0.3939  3.9349 -2.3793
   87TMC2    H1 1360   3.163   0.987   0.850 -2.3868  1.2759  0.2708
   87TMC2    H2 1361   2.993   0.945   1.237  2.0375 -1.9910  2.7875
   87TMC2    C7 1362   2.939   1.007   0.984 -0.4656  0.7117  0.3328
   87TMC2    C8 1363   3.202   1.012   1.374 -0.7846  0.4099 -1.0331
   87TMC2    O1 1364   2.940   1.101   0.908 -0.3941  0.4735 -1.0924
   87TMC2    O2 1365   3.159   0.914   1.429  0.0470  0.6727 -0.2057
   87TMC2    O5 1366   3.301   1.090   1.415  0.0211 -0.4910 -0.2019
   87TMC2    H5 1367   3.320   1.166   1.356 -0.4004 -0.1751  0.0737
   88MPD2     C 1368   2.608   0.904   1.109  0.4356 -0.1444  0.3408
   88MPD2    C1 1369   2.698   0.976   1.038 -0.2619 -0.2932  0.1040
   88MPD2    C2 1370   2.653   1.080   0.953  0.3919 -0.0209 -0.4411
   88MPD2    C3 1371   2.519   1.115   0.965  0.2855  0.1549 -0.9954
   88MPD2    C4 1372   2.435   1.035   1.044  0.1409 -0.1534 -0.0855
   88MPD2    C5 1373   2.483   0.934   1.119  0.2214  0.9033  0.8137
   88MPD2     H 1374   2.715   1.128   0.878  0.6823  0.9447  0.4077
   88MPD2    H1 1375   2.329   1.054   1.055  0.2853 -0.6188  2.0708
   88MPD2    H2 1376   2.643   0.837   1.187  4.0987  0.2837 -0.9101
   88MPD2    H3 1377   2.420   0.877   1.186  0.2664  0.7066  0.6894
   88MPD2     N 1378   2.455   1.225   0.903 -0.3177  0.1556 -0.1145
   88MPD2    H5 1379   2.356   1.241   0.916 -0.4851 -2.5392  1.8830
   88MPD2    N1 1380   2.835   0.939   1.040 -0.2734  0.2391  0.3448
   88MPD2    H7 1381   2.861   0.857   1.093  2.2393 -0.2386 -1.6615
   89TMC2    C1 1382   4.358   3.981   1.041  0.8757  0.3319 -0.4811
   89TMC2    C2 1383   4.472   4.003   0.969  0.2340  0.0815 -0.5591
   89TMC2    C3 1384   4.494   4.108   0.887 -0.1406  0.0786 -0.3200
   89TMC2    C4 1385   4.249   4.053   1.004 -0.7179  0.1206 -0.5782
   89TMC2    C5 1386   4.271   4.171   0.932 -0.0532 -0.3004 -0.1986
   89TMC2    C6 1387   4.389   4.199   0.868  0.2348  0.1132 -0.7949
   89TMC2     C 1388   4.338   3.848   1.085 -0.5708  0.2998 -0.5936
   89TMC2     O 1389   4.406   3.755   1.053  0.1157  0.5689 -0.3277
   89TMC2     H 1390   4.551   3.928   0.963  0.4657  0.4467 -2.1027
   89TMC2    H1 1391   4.153   4.046   1.056 -1.6834  1.7723 -2.1515
   89TMC2    H2 1392   4.408   4.296   0.823  0.9216 -0.0769 -0.9068
   89TMC2    C7 1393   4.142   4.240   0.891 -0.0685  0.6982  0.6418
   89TMC2    C8 1394   4.614   4.126   0.813  0.5498  0.3091 -0.3642
   89TMC2    O1 1395   4.037   4.192   0.927  0.4989 -0.1689 -0.1507
   89TMC2    O2 1396   4.615   4.205   0.723 -0.0770 -0.1834 -0.0244
   89TMC2    O5 1397   4.705   4.129   0.914 -0.3821  0.4085 -0.5161
   89TMC2    H5 1398   4.680   4.070   0.989  2.3657 -0.7549 -0.5166
   90MPD2     C 1399   4.070   3.508   1.382  0.8018 -0.9662  0.5640
   90MPD2    C1 1400   4.009   3.631   1.381  0.5026 -0.4783  0.0698
   90MPD2    C2 1401   4.059   3.740   1.314 -0.4135 -0.0957  0.0105
   90MPD2    C3 1402   4.182   3.726   1.243  0.0275 -0.6305 -0.0690
   90MPD2    C4 1403   4.242   3.600   1.248  0.7699  0.1495 -0.8404
   90MPD2    C5 1404   4.194   3.495   1.322  0.1155 -0.4661 -0.3544
   90MPD2     H 1405   4.004   3.834   1.311  1.1171  0.8465  1.2939
   90MPD2    H1 1406   4.340   3.593   1.202  0.3178 -1.5484 -1.5579
   90MPD2    H2 1407   4.038   3.426   1.446  1.1339 -2.1849 -0.8087
   90MPD2    H3 1408   4.245   3.400   1.334 -0.4012 -1.0272 -2.5161
   90MPD2     N 1409   4.236   3.843   1.183  0.1504 -0.0027 -0.3828
   90MPD2    H5 1410   4.183   3.928   1.197  1.1037  0.3257  1.2166
   90MPD2    N1 1411   3.889   3.645   1.455  0.2213  0.0208 -0.4505
   90MPD2    H7 1412   3.858   3.740   1.470 -0.0010  0.1205 -1.5609
   91TMC2    C1 1413   0.382   3.959  16.296 -0.8901  0.3006 -0.3141
   91TMC2    C2 1414   0.448   3.979  16.417 -0.1718  0.1803  0.2060
   91TMC2    C3 1415   0.380   3.956  16.537  0.0898  0.7487  0.3721
   91TMC2    C4 1416   0.256   3.911  16.292 -0.6939 -0.2286 -0.4748
   91TMC2    C5 1417   0.191   3.896  16.412  0.4260  0.2797  0.0228
   91TMC2    C6 1418   0.250   3.918  16.537 -0.1461  0.8944  0.6880
   91TMC2     C 1419   0.452   3.974  16.174 -0.8700  0.2892  0.0783
   91TMC2     O 1420   0.377   3.971  16.076 -0.1081  0.0416  0.1755
   91TMC2     H 1421   0.544   4.029  16.426  0.2504 -0.5801 -0.0801
   91TMC2    H1 1422   0.205   3.901  16.198 -1.5951 -1.2715  0.1320
   91TMC2    H2 1423   0.191   3.899  16.625 -1.5568  0.5721 -0.3278
   91TMC2    C7 1424   0.067   3.828  16.408  1.0581 -0.5417 -0.1760
   91TMC2    C8 1425   0.449   3.952  16.663  0.4404  1.0814  0.0245
   91TMC2    O1 1426   0.032   3.777  16.513 -0.5208  0.4253  0.4377
   91TMC2    O2 1427   0.384   3.965  16.764  0.0248 -0.4070  0.1307
   91TMC2    O5 1428   0.580   3.925  16.648 -0.1896 -0.1267  0.0064
   91TMC2    H5 1429   0.614   3.925  16.556  0.7906  0.0708  0.3772
   92MPD2     C 1430   0.603   4.113  15.970 -0.5837 -0.2890  0.3871
   92MPD2    C1 1431   0.664   4.040  16.071 -0.1748 -0.0106  0.4756
   92MPD2    C2 1432   0.801   4.032  16.075 -0.1684  0.5450  0.7205
   92MPD2    C3 1433   0.878   4.074  15.970 -0.7077 -0.0542  0.7702
   92MPD2    C4 1434   0.818   4.125  15.858 -0.6421  0.3602  0.1627
   92MPD2    C5 1435   0.681   4.148  15.866 -0.1317  0.1324 -0.3739
   92MPD2     H 1436   0.851   3.989  16.161  2.1012 -1.2602 -1.5026
   92MPD2    H1 1437   0.881   4.163  15.778  1.7853 -6.3270 -1.1664
   92MPD2    H2 1438   0.496   4.123  15.952 -0.3424 -3.0881 -2.5414
   92MPD2    H3 1439   0.637   4.205  15.785 -0.7062  1.9382  1.2134
   92MPD2     N 1440   1.019   4.070  15.987 -0.2204  0.0436  0.6321
   92MPD2    H5 1441   1.049   4.040  16.079 -0.1569  2.5245  1.4185
   92MPD2    N1 1442   0.589   3.991  16.185 -0.6157  1.4633  0.2624
   92MPD2    H7 1443   0.639   3.960  16.268 -3.6815 -1.5874  0.9848
   93TMC2    C1 1444   2.674   4.387  14.003  0.3723 -0.6147  0.3053
   93TMC2    C2 1445   2.675   4.298  13.898 -0.3493 -0.3181 -0.4688
   93TMC2    C3 1446   2.792   4.289  13.822 -0.7723  0.1182  0.5021
   93TMC2    C4 1447   2.790   4.455  14.039  0.0952  0.4292  0.0321
   93TMC2    C5 1448   2.906   4.428  13.967  0.3832 -0.3782 -0.2367
   93TMC2    C6 1449   2.911   4.334  13.863  0.1712 -0.7550  0.5408
   93TMC2     C 1450   2.551   4.404  14.077 -0.3920 -0.1750  0.8545
   93TMC2     O 1451   2.551   4.498  14.153  0.3825 -0.3453  0.1109
   93TMC2     H 1452   2.584   4.262  13.850  0.2192  0.6236 -2.2583
   93TMC2    H1 1453   2.800   4.510  14.132 -1.6470  1.0668 -0.1675
   93TMC2    H2 1454   2.996   4.316  13.798 -0.7175 -0.4820 -0.7140
   93TMC2    C7 1455   3.019   4.514  13.977  0.6709  0.4206  0.2472
   93TMC2    C8 1456   2.794   4.211  13.699  0.1693  0.2911 -0.1932
   93TMC2    O1 1457   3.082   4.520  14.081 -0.2815 -0.2695  0.3705
   93TMC2    O2 1458   2.697   4.147  13.664 -0.3973 -0.1309  0.2584
   93TMC2    O5 1459   2.873   4.273  13.612 -0.7538 -0.2305 -0.3461
   93TMC2    H5 1460   2.899   4.364  13.638  0.0090 -0.4323 -0.3962
   94MPD2     C 1461   2.262   4.398  14.198 -0.6681 -1.1341 -0.7987
   94MPD2    C1 1462   2.319   4.306  14.113 -0.0166  0.2461  0.7015
   94MPD2    C2 1463   2.236   4.208  14.064  0.7923  0.2208 -0.8061
   94MPD2    C3 1464   2.104   4.192  14.100  0.0652  0.3668  0.0209
   94MPD2    C4 1465   2.055   4.278  14.191 -0.2224 -0.2498 -0.6973
   94MPD2    C5 1466   2.129   4.382  14.241 -0.2089  0.1945 -0.0429
   94MPD2     H 1467   2.281   4.129  14.005 -0.4973 -0.0679 -1.4069
   94MPD2    H1 1468   1.952   4.269  14.223 -0.4240  4.4131  0.0189
   94MPD2    H2 1469   2.316   4.488  14.227 -0.3523 -1.6142  0.0762
   94MPD2    H3 1470   2.087   4.464  14.297  0.0373 -0.8959  1.7251
   94MPD2     N 1471   2.026   4.078  14.065 -0.3240 -0.0706 -0.2726
   94MPD2    H5 1472   1.945   4.057  14.123  0.0232  0.1692  0.3065
   94MPD2    N1 1473   2.454   4.306  14.060  0.0943 -0.4045  0.3600
   94MPD2    H7 1474   2.480   4.235  13.993  2.9174 -0.4270  1.4841
   95TMC2    C1 1475   2.980   0.675  15.933  0.1253 -0.0785 -0.9853
   95TMC2    C2 1476   2.864   0.731  15.965 -0.2596  0.1002 -0.3276
   95TMC2    C3 1477   2.785   0.643  16.026  0.5446  0.1742 -0.4429
   95TMC2    C4 1478   3.018   0.543  15.966 -0.0590  0.5594 -0.3781
   95TMC2    C5 1479   2.931   0.461  16.030  0.4291  0.3541  0.2885
   95TMC2    C6 1480   2.809   0.512  16.061 -0.2615  0.3008  0.4789
   95TMC2     C 1481   3.055   0.749  15.830 -0.0104  0.2382 -0.5074
   95TMC2     O 1482   3.047   0.867  15.824 -0.2853 -0.7107  0.4474
   95TMC2     H 1483   2.851   0.836  15.941  2.9478  0.3604 -0.9433
   95TMC2    H1 1484   3.121   0.513  15.948  0.7397  2.2067  1.3818
   95TMC2    H2 1485   2.729   0.454  16.106  0.1889 -0.8234 -0.1735
   95TMC2    C7 1486   2.973   0.345  16.103  0.8536 -0.6978 -0.3477
   95TMC2    C8 1487   2.651   0.676  16.061  0.1933  0.2338  0.0514
   95TMC2    O1 1488   2.904   0.310  16.195 -0.0154  0.0642  0.4379
   95TMC2    O2 1489   2.598   0.648  16.166  0.0371  0.2543 -0.2934
   95TMC2    O5 1490   2.605   0.761  15.965 -0.3993 -0.1528  0.3749
   95TMC2    H5 1491   2.660   0.764  15.884 -0.1943  0.0079  0.5217
   96MPD2     C 1492   3.312   0.757  15.381  0.2745  0.6169  0.1339
   96MPD2    C1 1493   3.250   0.857  15.442 -0.1406  0.2963  0.0887
   96MPD2    C2 1494   3.172   0.831  15.557 -0.4410 -0.7912  0.4578
   96MPD2    C3 1495   3.177   0.706  15.613 -0.4920 -0.2001 -0.2354
   96MPD2    C4 1496   3.230   0.605  15.535  0.5704  0.0122  0.2867
   96MPD2    C5 1497   3.288   0.626  15.418  0.6394 -0.3041 -0.4396
   96MPD2     H 1498   3.118   0.913  15.604  0.4878 -0.4507  0.9203
   96MPD2    H1 1499   3.236   0.501  15.566  0.3444 -0.7294 -2.1249
   96MPD2    H2 1500   3.365   0.794  15.295 -1.0726 -0.9962 -1.3800
   96MPD2    H3 1501   3.340   0.548  15.362 -1.2920 -2.2152  0.4493
   96MPD2     N 1502   3.128   0.672  15.742 -0.0164 -0.4991 -0.3663
   96MPD2    H5 1503   3.136   0.575  15.770 -0.4111  0.0433  1.6371
   96MPD2    N1 1504   3.281   0.994  15.395  0.3821  1.3977 -0.6976
   96MPD2    H7 1505   3.341   1.001  15.314  0.9226 -0.3609 -0.4578
   97TMC2    C1 1506   0.016   3.831  17.291  0.3884 -0.0592  0.5064
   97TMC2    C2 1507   4.724   3.847  17.160 -0.2808 -0.1102  0.7673
   97TMC2    C3 1508   0.017   3.965  17.102 -0.3575 -0.6495  0.0487
   97TMC2    C4 1509   0.078   3.930  17.362  0.2767  0.1251 -0.8877
   97TMC2    C5 1510   0.081   4.051  17.301 -0.4393  0.6001 -0.3691
   97TMC2    C6 1511   0.065   4.071  17.171 -0.6239  0.5917 -0.1465
   97TMC2     C 1512   0.013   3.702  17.362 -0.2013 -0.6316 -0.5537
   97TMC2     O 1513   0.017   3.704  17.483  0.5629 -0.1636  0.6437
   97TMC2     H 1514   4.667   3.770  17.109  0.5693  0.0876 -0.4831
   97TMC2    H1 1515   0.091   3.920  17.469 -0.2211  0.6733 -0.7743
   97TMC2    H2 1516   0.091   4.163  17.120 -0.3106  0.6535  0.1243
   97TMC2    C7 1517   0.137   4.157  17.383 -0.0511  0.0379  0.5921
   97TMC2    C8 1518   0.060   3.976  16.961  0.4885 -0.0089  0.3083
   97TMC2    O1 1519   0.221   4.131  17.469  0.4167  0.2146  0.0722
   97TMC2    O2 1520   0.067   4.079  16.896  0.0189  0.6134  0.1382
   97TMC2    O5 1521   0.052   3.855  16.909  0.4274  0.1298 -0.6072
   97TMC2    H5 1522   0.068   3.780  16.969  1.8609  0.0485 -1.0734
   98MPD2     C 1523   4.634   3.199  17.385 -0.4490  0.4216 -0.3257
   98MPD2    C1 1524   4.642   3.297  17.483 -0.3355  0.6141 -0.1316
   98MPD2    C2 1525   4.671   3.424  17.448  0.3226  0.0255 -0.5856
   98MPD2    C3 1526   4.700   3.459  17.315 -0.1210  0.1635 -0.3278
   98MPD2    C4 1527   4.677   3.363  17.212 -0.0654 -0.4625 -0.2854
   98MPD2    C5 1528   4.648   3.237  17.250  0.3672 -0.3145  0.1299
   98MPD2     H 1529   4.682   3.498  17.526 -1.0215 -0.5160  0.1214
   98MPD2    H1 1530   4.698   3.375  17.106 -1.8275 -2.1197 -0.8013
   98MPD2    H2 1531   4.603   3.100  17.415 -2.3769  1.2631  0.4647
   98MPD2    H3 1532   4.630   3.167  17.168  1.2739 -0.7262  0.2713
   98MPD2     N 1533   4.730   3.594  17.277 -0.1291  0.5098  0.1280
   98MPD2    H5 1534   0.006   3.616  17.179  1.0214 -0.1394  0.1405
   98MPD2    N1 1535   4.607   3.252  17.610 -0.1409 -0.5058 -0.5054
   98MPD2    H7 1536   4.598   3.152  17.623 -0.9326 -0.4257 -0.4290
   99TMC2    C1 1537   3.893   0.508   1.601  0.3010 -0.1432 -0.3522
   99TMC2    C2 1538   3.980   0.481   1.708  0.3210 -0.0233 -0.3401
   99TMC2    C3 1539   3.935   0.496   1.833  0.7410 -0.9777 -0.2233
   99TMC2    C4 1540   3.768   0.538   1.619  0.1864  0.0551  0.2882
   99TMC2    C5 1541   3.724   0.553   1.750  0.3341  0.5985 -0.1110
   99TMC2    C6 1542   3.808   0.537   1.855  0.3653  0.4233  0.1141
   99TMC2     C 1543   3.961   0.546   1.480  0.5773 -0.5732 -0.1803
   99TMC2     O 1544   4.081   0.551   1.500  0.0794  0.2396 -0.3379
   99TMC2     H 1545   4.088   0.476   1.704  0.1678 -3.4911 -0.0169
   99TMC2    H1 1546   3.712   0.574   1.533 -2.0960 -2.1491  0.8607
   99TMC2    H2 1547   3.764   0.535   1.954  0.4013 -1.8778  0.1026
   99TMC2    C7 1548   3.586   0.602   1.780  0.5754 -0.5004  0.0076
   99TMC2    C8 1549   4.028   0.503   1.937  0.3451 -0.7091 -0.0368
   99TMC2    O1 1550   3.568   0.680   1.869 -0.1095  0.1662 -0.2024
   99TMC2    O2 1551   4.012   0.567   2.041  0.3826  0.7683  0.0231
   99TMC2    O5 1552   4.112   0.402   1.924  0.7840 -0.5507 -0.2327
   99TMC2    H5 1553   4.083   0.340   1.853 -2.6604  0.4013  0.3393
  100MPD2     C 1554   4.075   0.630   1.217  0.3247  0.7894  0.3154
  100MPD2    C1 1555   3.937   0.616   1.236  0.0202  0.6427 -0.5904
  100MPD2    C2 1556   3.859   0.618   1.124  0.0669 -0.5029 -0.0307
  100MPD2    C3 1557   3.914   0.636   0.995 -0.2953 -0.1600  0.4845
  100MPD2    C4 1558   4.056   0.646   0.981  0.2458  0.2709  0.1272
  100MPD2    C5 1559   4.129   0.650   1.093 -0.1261 -0.3824  0.1675
  100MPD2     H 1560   3.752   0.606   1.140 -0.3172  1.9301 -0.6277
  100MPD2    H1 1561   4.107   0.668   0.888  1.5731  0.3868  0.8820
  100MPD2    H2 1562   4.150   0.623   1.295  1.0517  1.6850 -0.3138
  100MPD2    H3 1563   4.237   0.664   1.087 -0.1481 -0.3921 -0.2061
  100MPD2     N 1564   3.820   0.643   0.887 -0.2616  0.8063  0.0921
  100MPD2    H5 1565   3.723   0.651   0.916 -0.4450  0.8158 -0.5086
  100MPD2    N1 1566   3.883   0.576   1.364  0.4307 -0.2640  0.0952
  100MPD2    H7 1567   3.782   0.561   1.357  0.5914 -0.3973 -2.0784
  101TMC2    C1 1568   4.120   2.147  12.904  0.0269  1.0955 -0.2496
  101TMC2    C2 1569   4.013   2.229  12.897  0.5544 -0.3552  0.4474
  101TMC2    C3 1570   4.025   2.355  12.843 -0.1580  0.3602 -0.0807
  101TMC2    C4 1571   4.249   2.191  12.872  0.0647  0.6705 -0.4288
  101TMC2    C5 1572   4.252   2.308  12.800 -0.0114 -0.0151  0.5155
  101TMC2    C6 1573   4.145   2.394  12.793  0.8599 -0.4039 -0.3971
  101TMC2     C 1574   4.102   2.023  12.967 -0.0072 -0.1777  0.4304
  101TMC2     O 1575   4.002   2.016  13.037 -0.0016  0.2043 -0.2142
  101TMC2     H 1576   3.915   2.194  12.927 -1.0064  2.7023 -1.0437
  101TMC2    H1 1577   4.339   2.132  12.881  0.4068  1.5495  1.7954
  101TMC2    H2 1578   4.153   2.492  12.748 -0.7531  0.8515  2.0429
  101TMC2    C7 1579   4.381   2.359  12.771  0.5062 -0.0480  0.3987
  101TMC2    C8 1580   3.911   2.431  12.810  0.2457  0.1903  0.2797
  101TMC2    O1 1581   4.383   2.437  12.678  0.4062 -0.1376  0.1242
  101TMC2    O2 1582   3.908   2.504  12.710 -0.1162  0.3210 -0.0507
  101TMC2    O5 1583   3.825   2.417  12.910 -0.0996 -0.5620 -0.0687
  101TMC2    H5 1584   3.857   2.365  12.986 -0.0308 -0.7445 -0.2219
  102MPD2     C 1585   4.290   1.704  12.930 -0.2886  0.8878 -0.5549
  102MPD2    C1 1586   4.197   1.796  12.979 -0.1126 -0.5053  0.0444
  102MPD2    C2 1587   4.113   1.745  13.073  0.1206 -0.1438  0.5597
  102MPD2    C3 1588   4.121   1.617  13.133  0.3489 -0.5292 -0.2785
  102MPD2    C4 1589   4.223   1.528  13.085  0.3627 -0.7868 -0.9194
  102MPD2    C5 1590   4.303   1.574  12.982  1.1091  0.6651  0.9902
  102MPD2     H 1591   4.034   1.810  13.111  0.3269  0.0172  0.7097
  102MPD2    H1 1592   4.233   1.423  13.110 -1.6910 -0.7356  0.1301
  102MPD2    H2 1593   4.357   1.715  12.845 -1.1531  0.2700 -1.3173
  102MPD2    H3 1594   4.365   1.501  12.931  1.8701  0.1635  2.6132
  102MPD2     N 1595   4.027   1.580  13.233  0.4836 -0.2614 -0.1852
  102MPD2    H5 1596   3.955   1.647  13.259 -0.6140 -2.0684  1.3894
  102MPD2    N1 1597   4.193   1.926  12.926  0.4827  0.2276  0.1104
  102MPD2    H7 1598   4.251   1.948  12.845  0.9217  0.3756  0.4686
  103TMC2    C1 1599   1.856   1.215  12.235 -0.2669 -0.8081  0.5006
  103TMC2    C2 1600   1.831   1.111  12.316  0.3081 -0.6809 -0.0335
  103TMC2    C3 1601   1.862   1.120  12.447  0.2055 -0.3513 -0.1155
  103TMC2    C4 1602   1.904   1.331  12.288 -0.3518  0.1360 -0.1010
  103TMC2    C5 1603   1.949   1.334  12.417  0.4547 -0.2468 -0.3434
  103TMC2    C6 1604   1.928   1.228  12.497 -0.0033  0.0265 -0.0035
  103TMC2     C 1605   1.785   1.213  12.115 -0.2367  0.5057 -1.0714
  103TMC2     O 1606   1.757   1.321  12.066  0.8020 -0.4484 -0.1663
  103TMC2     H 1607   1.796   1.013  12.285  0.3784 -1.2064  1.5640
  103TMC2    H1 1608   1.889   1.420  12.229  0.1793 -1.0961 -2.0996
  103TMC2    H2 1609   1.949   1.238  12.603  1.3004 -1.5647 -0.1234
  103TMC2    C7 1610   1.989   1.466  12.472  0.1465  0.1520  0.3106
  103TMC2    C8 1611   1.841   1.002  12.521  0.4972 -0.1224 -1.0436
  103TMC2    O1 1612   1.985   1.481  12.595  0.1792  0.2717 -0.2942
  103TMC2    O2 1613   1.761   0.914  12.490  0.1643  0.2782 -0.0660
  103TMC2    O5 1614   1.954   0.978  12.591 -0.1378  0.0596  0.8461
  103TMC2    H5 1615   2.022   1.049  12.597 -1.3837  1.3517 -0.4839
  104MPD2     C 1616   1.687   0.927  11.915 -0.5395 -0.2130 -0.7719
  104MPD2    C1 1617   1.694   1.057  11.950  0.2897  0.7298 -0.2512
  104MPD2    C2 1618   1.617   1.144  11.874 -0.2105  0.1681 -0.7217
  104MPD2    C3 1619   1.545   1.102  11.766  0.8359 -0.6257 -0.4496
  104MPD2    C4 1620   1.553   0.973  11.722  0.5894 -0.0916 -0.7336
  104MPD2    C5 1621   1.628   0.885  11.800 -0.0447 -0.8282  0.7907
  104MPD2     H 1622   1.611   1.249  11.901  1.1905  0.6535 -2.3211
  104MPD2    H1 1623   1.506   0.931  11.634  1.8362 -1.1185 -0.9106
  104MPD2    H2 1624   1.727   0.849  11.980  0.9656 -0.2025 -1.6833
  104MPD2    H3 1625   1.647   0.785  11.765  1.3173 -1.7933  4.2726
  104MPD2     N 1626   1.469   1.206  11.701  0.3798 -0.0165 -0.1245
  104MPD2    H5 1627   1.491   1.300  11.734  1.4234 -0.3909  0.2592
  104MPD2    N1 1628   1.759   1.084  12.072  0.2920 -0.1983  0.1077
  104MPD2    H7 1629   1.799   1.006  12.122  0.3033  0.3840  1.0216
  105TMC2    C1 1630   3.584   1.489   0.236  0.4886 -0.4612 -0.2453
  105TMC2    C2 1631   3.572   1.601   0.167  0.3946  0.0972  0.4170
  105TMC2    C3 1632   3.624   1.715   0.234 -0.5633 -0.0436 -0.0480
  105TMC2    C4 1633   3.634   1.475   0.363 -0.7202 -0.6027 -0.6025
  105TMC2    C5 1634   3.676   1.592   0.420  0.6114  0.4450 -0.0581
  105TMC2    C6 1635   3.666   1.715   0.361  0.1436  0.5055 -0.1396
  105TMC2     C 1636   3.540   1.363   0.168 -0.0283  1.3282  0.4794
  105TMC2     O 1637   3.525   1.276   0.250  0.4212 -0.0356 -0.4399
  105TMC2     H 1638   3.536   1.613   0.065 -1.2252 -1.2035  0.8406
  105TMC2    H1 1639   3.650   1.378   0.407 -0.1392 -0.5807 -0.7620
  105TMC2    H2 1640   3.686   1.806   0.417  0.5053  1.7620 -2.3127
  105TMC2    C7 1641   3.681   1.587   0.568  0.2474 -0.9137  0.2336
  105TMC2    C8 1642   3.596   1.838   0.164 -0.3927  0.2832  0.4591
  105TMC2    O1 1643   3.718   1.696   0.615 -0.2644  0.3830  0.1511
  105TMC2    O2 1644   3.544   1.844   0.052  0.3133  0.4301  0.2847
  105TMC2    O5 1645   3.694   1.931   0.205 -0.1633 -0.3584  0.0371
  105TMC2    H5 1646   3.740   1.905   0.288  1.4360  2.1586 -0.0558
  106MPD2     C 1647   3.567   1.039  17.515 -0.2636  0.5095 -0.3242
  106MPD2    C1 1648   3.631   1.156  17.485  0.2135  0.1302 -0.2561
  106MPD2    C2 1649   3.626   1.264  17.575  0.5271 -0.0674  0.0490
  106MPD2    C3 1650   3.560   1.253  17.693 -0.0275 -0.0387 -0.1919
  106MPD2    C4 1651   3.503   1.134  17.731 -0.2458 -0.3486  0.7034
  106MPD2    C5 1652   3.508   1.029  17.636 -0.3335 -0.9682 -0.4540
  106MPD2     H 1653   3.669   1.360  17.551 -2.0460  1.3601  1.2522
  106MPD2    H1 1654   3.463   1.114   0.081 -0.9861  1.2392  0.7209
  106MPD2    H2 1655   3.588   0.946  17.462  1.4054  0.6856  0.0194
  106MPD2    H3 1656   3.484   0.931  17.676  2.8604 -1.2373  0.8829
  106MPD2     N 1657   3.562   1.369   0.032 -0.2981 -0.0864  0.2016
  106MPD2    H5 1658   3.596   1.454  17.737 -1.1502 -0.4558 -1.1524
  106MPD2    N1 1659   3.700   1.171  17.368  0.2227  0.8494 -0.7522
  106MPD2    H7 1660   3.745   1.260  17.353 -2.8211  2.1711 -1.9780
  107TMC2    C1 1661   4.134   1.050  11.684  0.1952 -0.3869 -0.9161
  107TMC2    C2 1662   4.233   1.135  11.653 -0.4981 -0.4927 -0.0770
  107TMC2    C3 1663   4.359   1.083  11.646 -0.0656  0.7275  0.3383
  107TMC2    C4 1664   4.153   0.912  11.677  0.0480 -0.0918 -0.1054
  107TMC2    C5 1665   4.284   0.874  11.657  0.3874 -0.5483 -0.1972
  107TMC2    C6 1666   4.395   0.958  11.647 -0.1302 -0.2639 -0.5028
  107TMC2     C 1667   4.028   1.085  11.776 -0.0727  0.1909  0.0823
  107TMC2     O 1668   3.991   0.999  11.853 -0.6180 -0.2988 -0.5439
  107TMC2     H 1669   4.221   1.242  11.670 -0.1472 -0.3185 -0.9160
  107TMC2    H1 1670   4.075   0.841  11.702 -1.7596  1.4996 -1.1688
  107TMC2    H2 1671   4.498   0.927  11.643  0.4650  1.4439  1.6320
  107TMC2    C7 1672   4.306   0.737  11.602  0.6165  0.8962 -0.8614
  107TMC2    C8 1673   4.467   1.170  11.664 -0.7834 -0.1980  0.4836
  107TMC2    O1 1674   4.226   0.649  11.637  1.2672  0.1550 -0.2869
  107TMC2    O2 1675   4.571   1.159  11.603 -0.0293 -0.6418  0.0621
  107TMC2    O5 1676   4.450   1.239  11.776  0.6249 -0.0451 -0.1564
  107TMC2    H5 1677   4.369   1.207  11.821 -1.2140  1.0160 -2.6918
  108MPD2     C 1678   3.866   1.406  11.795 -0.1871  0.5470 -0.4832
  108MPD2    C1 1679   3.906   1.282  11.844  0.8071  0.3440  0.1543
  108MPD2    C2 1680   3.872   1.237  11.971 -0.5630  0.7756  0.8605
  108MPD2    C3 1681   3.796   1.322  12.047 -1.0362 -0.4648  0.4934
  108MPD2    C4 1682   3.751   1.443  12.000  0.6268  0.3346 -0.6285
  108MPD2    C5 1683   3.791   1.487  11.880 -0.3279  0.6748 -0.2381
  108MPD2     H 1684   3.913   1.144  12.006  0.5918  0.8914 -0.2019
  108MPD2    H1 1685   3.708   1.523  12.060  0.8395  0.2759 -0.4004
  108MPD2    H2 1686   3.904   1.448  11.703 -0.0357 -0.2988 -0.8079
  108MPD2    H3 1687   3.765   1.586  11.844 -0.4849  0.5844 -0.3770
  108MPD2     N 1688   3.771   1.290  12.184  0.0928  0.1011 -0.3455
  108MPD2    H5 1689   3.707   1.355  12.228  0.0773 -0.3942  0.3614
  108MPD2    N1 1690   3.983   1.213  11.753  0.4407  0.0186  0.2664
  108MPD2    H7 1691   4.017   1.262  11.671  0.5821 -0.8044 -0.1736
  109TMC2    C1 1692   3.724   2.455   0.503  0.2534 -0.8025 -0.5520
  109TMC2    C2 1693   3.730   2.322   0.491  0.2664 -0.0484  0.6217
  109TMC2    C3 1694   3.845   2.272   0.444 -0.8627  0.3390 -0.6348
  109TMC2    C4 1695   3.823   2.544   0.474 -0.3972  0.6063 -0.2597
  109TMC2    C5 1696   3.939   2.494   0.425  0.2539 -0.6701  0.2284
  109TMC2    C6 1697   3.946   2.358   0.398  0.0847  0.5346  0.6478
  109TMC2     C 1698   3.611   2.514   0.578 -0.6760  0.1592  0.4620
  109TMC2     O 1699   3.507   2.454   0.599  0.6940 -0.2417  0.0615
  109TMC2     H 1700   3.672   2.268   0.566 -0.4474 -2.7255 -1.8520
  109TMC2    H1 1701   3.810   2.652   0.481  0.6536  0.6877  0.3397
  109TMC2    H2 1702   4.016   2.299   0.340 -0.0269 -1.6165  2.7211
  109TMC2    C7 1703   4.036   2.582   0.365 -0.6179 -0.2203 -0.2598
  109TMC2    C8 1704   3.889   2.137   0.462  0.2820  0.2149  0.1005
  109TMC2    O1 1705   4.032   2.700   0.405  0.1089  0.1396 -0.2168
  109TMC2    O2 1706   3.989   2.103   0.401  0.2345  0.5639  0.0367
  109TMC2    O5 1707   3.772   2.066   0.455 -0.0631  0.1068 -0.2004
  109TMC2    H5 1708   3.698   2.109   0.503 -0.1705 -1.2343  0.8344
  110MPD2     C 1709   3.456   2.830   0.949  0.4308 -0.6001  0.1577
  110MPD2    C1 1710   3.586   2.795   0.970 -0.2973 -0.2580  0.4300
  110MPD2    C2 1711   3.649   2.734   0.862  0.6543 -0.3025  0.4936
  110MPD2    C3 1712   3.581   2.682   0.756  0.3673  0.1235 -0.2557
  110MPD2    C4 1713   3.450   2.698   0.745  0.3008 -0.4265 -0.6050
  110MPD2    C5 1714   3.392   2.777   0.840  0.2597 -0.1095 -0.2299
  110MPD2     H 1715   3.755   2.710   0.870  0.8983  0.0726 -1.6469
  110MPD2    H1 1716   3.385   2.651   0.672  1.7418  0.6124 -2.5316
  110MPD2    H2 1717   3.403   2.885   1.026 -0.8118 -1.7590  0.1284
  110MPD2    H3 1718   3.286   2.797   0.825  0.3796  0.5102 -0.2153
  110MPD2     N 1719   3.658   2.606   0.664 -0.1022 -0.1981 -0.0802
  110MPD2    H5 1720   3.759   2.608   0.675  0.1562  0.7959 -2.7012
  110MPD2    N1 1721   3.644   2.839   1.091  0.6202  0.4434  0.5192
  110MPD2    H7 1722   3.584   2.898   1.147 -1.7708  0.2266 -1.7885
  111TMC2    C1 1723   3.834   2.439  11.827  0.0967  0.0185 -0.5307
  111TMC2    C2 1724   3.778   2.432  11.952  0.2236  0.5792 -0.4193
  111TMC2    C3 1725   3.859   2.431  12.061 -0.2213  0.1547 -0.9743
  111TMC2    C4 1726   3.972   2.455  11.813 -0.5933  0.6757 -0.3113
  111TMC2    C5 1727   4.051   2.440  11.929 -0.2724 -0.5186 -0.3427
  111TMC2    C6 1728   3.996   2.432  12.057  0.3116  0.3382  0.5745
  111TMC2     C 1729   3.753   2.481  11.714 -0.0101 -0.6983  0.1477
  111TMC2     O 1730   3.785   2.458  11.600  0.3000  0.5180 -0.0815
  111TMC2     H 1731   3.673   2.407  11.956 -0.0902  2.3365  2.0289
  111TMC2    H1 1732   4.018   2.468  11.716 -1.7912 -1.9656 -1.2372
  111TMC2    H2 1733   4.057   2.423  12.146  2.7982 -2.0391 -1.3908
  111TMC2    C7 1734   4.193   2.410  11.928  0.3878 -0.3741  0.4039
  111TMC2    C8 1735   3.799   2.392  12.183 -0.0188  0.0732  0.4045
  111TMC2    O1 1736   4.234   2.404  12.043 -0.2366  0.0914 -0.2652
  111TMC2    O2 1737   3.678   2.416  12.203  0.1703  0.1967  0.1707
  111TMC2    O5 1738   3.846   2.263  12.171 -0.3529  0.1575 -0.1970
  111TMC2    H5 1739   3.926   2.265  12.115  0.2041 -1.3999  0.5311
  112MPD2     C 1740   3.334   2.732  11.559  1.0533  0.0794 -0.1597
  112MPD2    C1 1741   3.437   2.676  11.489 -0.3788 -0.8629 -1.0465
  112MPD2    C2 1742   3.535   2.610  11.552  0.2575 -0.1963  0.5860
  112MPD2    C3 1743   3.536   2.608  11.692  0.7051  0.2767 -0.0735
  112MPD2    C4 1744   3.434   2.661  11.768 -0.0116  0.1171 -0.3251
  112MPD2    C5 1745   3.338   2.723  11.698 -0.9752 -0.0921 -0.7678
  112MPD2     H 1746   3.614   2.557  11.501  0.4265  1.3056 -0.6960
  112MPD2    H1 1747   3.432   2.656  11.877  1.9909  1.4396 -0.2329
  112MPD2    H2 1748   3.245   2.776  11.514 -0.1168 -1.7973  0.3230
  112MPD2    H3 1749   3.251   2.760  11.752 -0.4450 -0.7829  0.5698
  112MPD2     N 1750   3.650   2.550  11.763  0.1405  0.6140  0.0287
  112MPD2    H5 1751   3.661   2.581  11.859  0.2470 -0.3663  0.3343
  112MPD2    N1 1752   3.450   2.679  11.349  0.5403  0.3067  0.0570
  112MPD2    H7 1753   3.532   2.632  11.312  0.3085 -1.5272  1.9031
  113TMC2    C1 1754   2.184   0.107   0.484  0.3571 -0.9492  0.3847
  113TMC2    C2 1755   2.114   0.202   0.414  0.2277 -0.5746  1.5584
  113TMC2    C3 1756   2.008   0.167   0.346  1.0679 -0.1667  0.2665
  113TMC2    C4 1757   2.143   4.717   0.485 -0.1324  0.1380 -0.1127
  113TMC2    C5 1758   2.036   4.683   0.411  0.5591 -0.1271  0.1166
  113TMC2    C6 1759   1.961   0.039   0.337  0.0358 -0.7197 -0.6501
  113TMC2     C 1760   2.301   0.142   0.559 -0.0035  0.0142 -0.1668
  113TMC2     O 1761   2.354   0.240   0.513  0.1895  0.3982  0.2415
  113TMC2     H 1762   2.145   0.306   0.411 -0.6132 -0.4629 -3.0635
  113TMC2    H1 1763   2.199   4.642   0.540 -0.9384 -1.5254 -1.5493
  113TMC2    H2 1764   1.858   0.019   0.307 -1.2389  0.7661  2.6947
  113TMC2    C7 1765   1.972   4.549   0.435  0.8322 -0.0472  0.8293
  113TMC2    C8 1766   1.906   0.262   0.335  0.0874  0.5524 -0.5285
  113TMC2    O1 1767   1.893   4.516   0.345  0.0089 -0.0465 -0.8822
  113TMC2    O2 1768   1.791   0.227   0.329 -0.1662 -0.4047 -0.5296
  113TMC2    O5 1769   1.965   0.382   0.299  0.2078 -0.1968  0.9425
  113TMC2    H5 1770   2.055   0.367   0.263 -0.7417 -1.5442 -0.9046
  114MPD2     C 1771   2.709   0.034   0.853 -0.0591 -0.2189 -0.7077
  114MPD2    C1 1772   2.686   0.140   0.772  0.6060 -0.3953 -0.1651
  114MPD2    C2 1773   2.563   0.155   0.704  0.0661 -0.4703 -0.1918
  114MPD2    C3 1774   2.472   0.055   0.714 -0.1078  0.0798 -0.2663
  114MPD2    C4 1775   2.494   4.682   0.793 -0.5702  0.6373  0.4539
  114MPD2    C5 1776   2.612   4.675   0.863 -0.0049 -0.7578 -0.3684
  114MPD2     H 1777   2.539   0.249   0.656 -1.0455 -0.7417 -0.1658
  114MPD2    H1 1778   2.421   4.604   0.812 -0.7079  0.8547  0.8039
  114MPD2    H2 1779   2.802   0.013   0.904 -0.5502 -0.7570 -0.0359
  114MPD2    H3 1780   2.634   4.592   0.929  0.3287 -0.2585  0.1472
  114MPD2     N 1781   2.346   0.055   0.652  0.0670  0.1338 -0.1079
  114MPD2    H5 1782   2.301   4.704   0.672  0.5960 -0.3535 -1.0966
  114MPD2    N1 1783   2.775   0.249   0.782  0.9335  0.3611  0.2920
  114MPD2    H7 1784   2.755   0.325   0.717 -1.9922 -0.6442 -0.0159
  115TMC2    C1 1785   3.266   2.868   0.072  0.3432  0.3055  0.0558
  115TMC2    C2 1786   3.391   2.855   0.014  0.0435  0.0561  0.1043
  115TMC2    C3 1787   3.469   2.959   0.005 -0.0978 -0.0200  0.4040
  115TMC2    C4 1788   3.225   2.987   0.127  0.5105 -0.1821 -0.5645
  115TMC2    C5 1789   3.312   3.091   0.111 -0.1148  0.7236  0.2656
  115TMC2    C6 1790   3.438   3.078   0.062 -0.1522  0.1084 -0.2399
  115TMC2     C 1791   3.167   2.770   0.047 -0.3060 -0.2822 -0.2050
  115TMC2     O 1792   3.197   2.698  17.701 -0.3165 -0.1849  0.1667
  115TMC2     H 1793   3.429   2.759  17.732 -0.7132 -0.5957  1.1756
  115TMC2    H1 1794   3.130   2.997   0.179  0.0731  0.3432 -1.4773
  115TMC2    H2 1795   3.512   3.157   0.064  2.2739 -2.1011 -2.0725
  115TMC2    C7 1796   3.258   3.209   0.166 -0.6271  0.5044  0.5895
  115TMC2    C8 1797   3.604   2.945  17.714 -0.0519  0.6727 -0.1114
  115TMC2    O1 1798   3.157   3.209   0.231 -0.0739 -0.6541  0.0499
  115TMC2    O2 1799   3.701   3.018  17.736 -0.1343 -0.2532  0.2814
  115TMC2    O5 1800   3.600   2.857  17.614  0.1964  0.4041  0.4347
  115TMC2    H5 1801   3.516   2.815  17.585 -0.1322  1.3272  0.0434
  116MPD2     C 1802   2.700   2.569   0.078  0.2503 -0.4438 -0.3169
  116MPD2    C1 1803   2.791   2.549  17.734 -0.8864 -0.1485 -0.4148
  116MPD2    C2 1804   2.914   2.614   0.006 -0.7199  0.1170 -0.3874
  116MPD2    C3 1805   2.937   2.704   0.113 -0.3288  0.4341  0.0930
  116MPD2    C4 1806   2.836   2.719   0.210  0.2229  0.0636  0.5266
  116MPD2    C5 1807   2.719   2.648   0.189 -0.2378 -0.2327 -0.0037
  116MPD2     H 1808   2.987   2.607  17.676 -1.8533 -1.3249 -1.3149
  116MPD2    H1 1809   2.841   2.790   0.292  2.1635 -0.5563  0.9413
  116MPD2    H2 1810   2.602   2.521   0.076 -0.0078  0.1155 -0.9494
  116MPD2    H3 1811   2.638   2.657   0.260 -0.5706  0.3610 -0.4569
  116MPD2     N 1812   3.064   2.775   0.134 -0.0001 -0.0325 -0.9580
  116MPD2    H5 1813   3.071   2.838   0.212 -0.5975 -0.5726 -0.4670
  116MPD2    N1 1814   2.761   2.476  17.616  0.0268  0.3578 -0.0838
  116MPD2    H7 1815   2.663   2.451  17.608 -0.4130  0.8356  3.5526
  117TMC2    C1 1816   1.995   4.371  13.766  0.5559 -0.3329  0.5515
  117TMC2    C2 1817   2.100   4.303  13.714 -0.5771  0.2593 -0.7106
  117TMC2    C3 1818   2.222   4.357  13.744  0.4299  0.4367  0.1844
  117TMC2    C4 1819   2.006   4.480  13.848  0.4030  0.3563 -0.3889
  117TMC2    C5 1820   2.130   4.518  13.888  0.7032  0.3681  0.8002
  117TMC2    C6 1821   2.244   4.462  13.828 -0.5110  0.0581 -0.1856
  117TMC2     C 1822   1.874   4.346  13.689  0.1504  0.7780 -0.0723
  117TMC2     O 1823   1.857   4.243  13.631  0.0653 -0.0509 -0.2532
  117TMC2     H 1824   2.092   4.216  13.651  1.2043 -0.4516  0.0460
  117TMC2    H1 1825   1.915   4.519  13.891 -1.0192 -1.7414 -1.4718
  117TMC2    H2 1826   2.344   4.497  13.850 -1.3095  1.2238  1.5232
  117TMC2    C7 1827   2.140   4.644  13.952  0.8616 -0.0268  0.5441
  117TMC2    C8 1828   2.339   4.299  13.682  0.3234  0.2140  0.0529
  117TMC2    O1 1829   2.231   4.714  13.908  0.4250  0.4251 -0.6481
  117TMC2    O2 1830   2.438   4.363  13.659  0.1185  0.1762  0.3462
  117TMC2    O5 1831   2.330   4.175  13.734 -0.6832  0.0776 -0.1333
  117TMC2    H5 1832   2.243   4.137  13.759 -1.8185  1.3267 -2.1999
  118MPD2     C 1833   1.947   0.022  14.236 -1.0785 -0.2850  0.3310
  118MPD2    C1 1834   2.035   0.041  14.133 -1.0814  0.6816  0.3631
  118MPD2    C2 1835   2.094   0.161  14.105  1.1064 -0.3023  0.2637
  118MPD2    C3 1836   2.065   0.269  14.184  0.0710 -0.7065  0.0039
  118MPD2    C4 1837   1.968   0.252  14.286 -0.6072 -0.7024 -0.7208
  118MPD2    C5 1838   1.918   0.129  14.318  0.2779  0.2891 -0.0438
  118MPD2     H 1839   2.151   0.177  14.015  2.1667  1.1392  1.1913
  118MPD2    H1 1840   1.951   0.336  14.353  0.4679 -1.3572  0.3749
  118MPD2    H2 1841   1.897   4.666  14.258 -0.8493 -0.4369  0.2088
  118MPD2    H3 1842   1.847   0.124  14.400 -1.1384  0.7664 -1.2442
  118MPD2     N 1843   2.111   0.401  14.155 -0.1446  0.3832 -0.2131
  118MPD2    H5 1844   2.060   0.482  14.191 -1.4167  0.7533 -2.8373
  118MPD2    N1 1845   2.049   4.665  14.047 -0.1898 -0.1443 -0.2077
  118MPD2    H7 1846   1.987   4.588  14.068  0.7198 -1.0692 -0.9132
  119TMC2    C1 1847   0.447   1.524  13.130 -0.0905  0.6274  0.2079
  119TMC2    C2 1848   0.535   1.475  13.033  0.3473 -0.3767 -0.8713
  119TMC2    C3 1849   0.511   1.353  12.983 -0.0747 -0.0340 -0.7619
  119TMC2    C4 1850   0.345   1.454  13.181  0.0671  0.0806  0.5765
  119TMC2    C5 1851   0.325   1.332  13.115  0.5216 -0.3554  0.0047
  119TMC2    C6 1852   0.400   1.287  13.009  0.3181  0.4550  0.0671
  119TMC2     C 1853   0.471   1.659  13.192  0.5677  0.2240  0.8883
  119TMC2     O 1854   0.376   1.708  13.254 -0.3693 -0.0572  0.1854
  119TMC2     H 1855   0.608   1.538  12.985 -0.1434  0.4450 -0.5362
  119TMC2    H1 1856   0.280   1.499  13.255 -0.5915 -1.3945  0.8864
  119TMC2    H2 1857   0.390   1.184  12.977  1.5438  0.1340  0.7485
  119TMC2    C7 1858   0.206   1.251  13.139 -0.1209  0.5799  0.6424
  119TMC2    C8 1859   0.583   1.319  12.862 -0.9152 -0.4498  0.1539
  119TMC2    O1 1860   0.182   1.167  13.055 -1.2384  0.0934 -0.1700
  119TMC2    O2 1861   0.631   1.403  12.794  0.0768 -0.2795  0.1883
  119TMC2    O5 1862   0.620   1.184  12.853  0.3299 -0.6380 -0.3367
  119TMC2    H5 1863   0.605   1.141  12.940  2.2827 -0.1002  0.2669
  120MPD2     C 1864   0.744   2.092  13.292  0.2086  0.1988  0.0046
  120MPD2    C1 1865   0.623   2.041  13.336 -0.2177 -0.3444 -0.0435
  120MPD2    C2 1866   0.567   1.923  13.289 -0.4404 -0.1559 -0.0873
  120MPD2    C3 1867   0.635   1.843  13.205  0.2375  0.8135 -0.1778
  120MPD2    C4 1868   0.759   1.895  13.161  0.3504 -0.0249 -0.1277
  120MPD2    C5 1869   0.806   2.016  13.204 -0.2793  0.4423  0.6506
  120MPD2     H 1870   0.472   1.889  13.329 -0.4738 -0.4219 -0.3965
  120MPD2    H1 1871   0.826   1.855  13.085  2.6408  0.0208  1.8452
  120MPD2    H2 1872   0.774   2.188  13.332  1.5362 -1.4298  2.8971
  120MPD2    H3 1873   0.897   2.052  13.159 -0.3509 -0.2574 -0.0545
  120MPD2     N 1874   0.594   1.712  13.159  0.4586  0.1967  0.3001
  120MPD2    H5 1875   0.662   1.650  13.117 -2.4297 -2.2780 -0.6533
  120MPD2    N1 1876   0.566   2.113  13.446  0.6611 -0.5455  0.2366
  120MPD2    H7 1877   0.609   2.205  13.452  0.7531 -0.6496  1.1531
  121TMC2    C1 1878   1.692   2.934  14.106 -0.1119 -0.2007 -0.2613
  121TMC2    C2 1879   1.677   2.869  14.221  0.4013  0.0581  0.1127
  121TMC2    C3 1880   1.555   2.862  14.279  0.2299  0.6142 -0.0968
  121TMC2    C4 1881   1.594   2.987  14.030 -0.1358 -0.5439 -0.5610
  121TMC2    C5 1882   1.472   2.988  14.091 -0.1131 -0.2590  0.4861
  121TMC2    C6 1883   1.447   2.926  14.213  0.0868 -0.8109  0.0902
  121TMC2     C 1884   1.829   2.969  14.074  0.0844  0.0968  0.4494
  121TMC2     O 1885   1.925   2.906  14.117  0.1705  0.5703 -0.0713
  121TMC2     H 1886   1.765   2.826  14.268 -0.1913 -3.4866 -1.9711
  121TMC2    H1 1887   1.605   3.019  13.927 -2.5294 -1.1011 -0.9860
  121TMC2    H2 1888   1.357   2.942  14.271 -0.1440 -1.0061 -0.2164
  121TMC2    C7 1889   1.372   3.074  14.030 -0.1895  0.1498 -0.2322
  121TMC2    C8 1890   1.537   2.834  14.418  0.2182 -0.4919 -0.4210
  121TMC2    O1 1891   1.418   3.163  13.962  0.3129 -0.5997  0.8000
  121TMC2    O2 1892   1.451   2.904  14.468  0.5719  0.2102 -0.3025
  121TMC2    O5 1893   1.662   2.819  14.466 -0.2058  0.3302 -0.4312
  121TMC2    H5 1894   1.699   2.735  14.432  2.7464  0.8216  1.6019
  122MPD2     C 1895   2.061   3.076  13.935 -0.7290  0.0033 -0.1531
  122MPD2    C1 1896   1.934   3.125  13.913  0.1874  1.0248  0.1236
  122MPD2    C2 1897   1.916   3.229  13.823  0.2884  0.0509  0.0734
  122MPD2    C3 1898   2.024   3.289  13.765  0.3562  0.6750  0.2999
  122MPD2    C4 1899   2.153   3.243  13.788 -0.0848  0.7899  0.5172
  122MPD2    C5 1900   2.172   3.142  13.877 -0.1421  0.2852 -0.1516
  122MPD2     H 1901   1.815   3.256  13.794 -0.0525  0.0945  1.3088
  122MPD2    H1 1902   2.237   3.298  13.750  1.5546 -0.6415  2.0564
  122MPD2    H2 1903   2.085   2.976  13.970  1.3716  0.0404 -1.4378
  122MPD2    H3 1904   2.269   3.095  13.893 -0.5970 -0.2365  1.1234
  122MPD2     N 1905   2.008   3.378  13.659 -0.4763  0.1122 -0.1913
  122MPD2    H5 1906   2.076   3.399  13.587  0.5373 -1.2955  0.3583
  122MPD2    N1 1907   1.825   3.068  13.977  0.3725 -0.2077  0.3312
  122MPD2    H7 1908   1.731   3.104  13.963  0.1516  0.1290  2.6048
  123TMC2    C1 1909   0.045   0.825  10.328 -0.7145  0.0444  0.6579
  123TMC2    C2 1910   0.051   0.957  10.361  0.7028  0.2590 -0.0817
  123TMC2    C3 1911   0.050   1.045  10.257 -0.6575  0.5362 -0.1850
  123TMC2    C4 1912   0.028   0.779  10.197  0.7631 -0.7769  0.6660
  123TMC2    C5 1913   0.023   0.871  10.103  0.2336 -0.2128  0.4268
  123TMC2    C6 1914   0.045   1.005  10.127  0.0837 -0.3303  0.0574
  123TMC2     C 1915   0.005   0.732  10.432  0.0873  0.7446 -0.7325
  123TMC2     O 1916   0.030   0.767  10.547 -0.5013  0.2792 -0.2829
  123TMC2     H 1917   0.060   0.984  10.466 -0.7104  0.2936  0.0307
  123TMC2    H1 1918   0.028   0.673  10.172 -0.5187 -0.2378 -1.5185
  123TMC2    H2 1919   0.033   1.079  10.049 -0.3392 -2.9450 -2.3986
  123TMC2    C7 1920   4.693   0.838   9.980  0.2252 -0.5832  0.2249
  123TMC2    C8 1921   0.082   1.185  10.289 -0.5825 -0.3206 -0.2147
  123TMC2    O1 1922   4.718   0.725   9.936  0.1904 -0.7299  0.2681
  123TMC2    O2 1923   0.132   1.261  10.203 -0.0471  0.0981  0.4213
  123TMC2    O5 1924   0.032   1.221  10.408 -0.8754 -0.0710  0.5708
  123TMC2    H5 1925   4.724   1.153  10.462  0.3791 -0.0553  1.6437
  124MPD2     C 1926   4.435   0.381  10.632 -0.7427 -0.3160 -0.1780
  124MPD2    C1 1927   4.415   0.378  10.496 -0.1490 -0.4992  0.0186
  124MPD2    C2 1928   4.497   0.452  10.420 -0.5462  1.1964  0.3562
  124MPD2    C3 1929   4.600   0.530  10.478  0.1206 -0.0986 -0.5318
  124MPD2    C4 1930   4.624   0.523  10.609 -0.1414 -0.8890  0.5158
  124MPD2    C5 1931   4.536   0.449  10.683  0.0206  0.5157 -0.7483
  124MPD2     H 1932   4.485   0.440  10.313 -3.4636 -0.0557  0.8171
  124MPD2    H1 1933   4.707   0.574  10.656  0.8779 -0.7206 -1.4465
  124MPD2    H2 1934   4.369   0.325  10.697 -0.1259 -0.5631  0.2378
  124MPD2    H3 1935   4.542   0.458  10.791  2.8017  0.3278 -0.8842
  124MPD2     N 1936   4.661   0.625  10.394  0.1750 -0.2954 -0.0388
  124MPD2    H5 1937   4.640   0.618  10.295 -0.1061 -0.7018  0.0466
  124MPD2    N1 1938   4.309   0.295  10.451  0.3411 -0.1457 -0.0076
  124MPD2    H7 1939   4.263   0.235  10.518  0.0843  0.6659  0.5399
  125TMC2    C1 1940   1.390   0.554  10.118  0.2138  0.1082 -0.1319
  125TMC2    C2 1941   1.366   0.442  10.047 -0.4404  0.3441 -0.5553
  125TMC2    C3 1942   1.398   0.439   9.913  0.0003  0.1118  0.4679
  125TMC2    C4 1943   1.440   0.671  10.062  0.0315 -0.1050  0.8691
  125TMC2    C5 1944   1.447   0.670   9.926 -0.2216  0.1526 -0.3167
  125TMC2    C6 1945   1.431   0.559   9.851  0.2678 -0.0382 -0.1103
  125TMC2     C 1946   1.348   0.575  10.259  0.1435 -0.4005 -0.0036
  125TMC2     O 1947   1.413   0.665  10.316  0.1483  0.7578 -0.1002
  125TMC2     H 1948   1.328   0.359  10.105  0.0002  0.7980  0.3803
  125TMC2    H1 1949   1.453   0.763  10.118  2.8924  0.7432 -1.2212
  125TMC2    H2 1950   1.445   0.558   9.743 -1.3228 -0.7376 -0.3137
  125TMC2    C7 1951   1.516   0.784   9.870  0.2826 -0.1017 -0.3101
  125TMC2    C8 1952   1.356   0.325   9.837  0.6528  0.1535 -0.1563
  125TMC2    O1 1953   1.588   0.847   9.945  0.3137  0.3209 -0.3735
  125TMC2    O2 1954   1.312   0.224   9.893  0.2165  0.3549 -0.2614
  125TMC2    O5 1955   1.288   0.371   9.726  0.4351 -0.6080 -0.0807
  125TMC2    H5 1956   1.302   0.467   9.712 -1.4150 -0.4022 -0.5702
  126MPD1     C 1957   1.095   0.481  10.690  0.9171  0.0109 -0.1128
  126MPD1    C1 1958   1.080   0.377  10.609 -0.4681  0.5738  0.9170
  126MPD1    C2 1959   1.135   0.382  10.483  0.7513  0.5602  0.8136
  126MPD1    C3 1960   1.210   0.486  10.439  0.8723  0.1874 -0.2368
  126MPD1    C4 1961   1.236   0.584  10.530  0.1132 -0.4798  0.1066
  126MPD1    C5 1962   1.175   0.588  10.653 -0.5914  1.3327 -0.1935
  126MPD1     H 1963   1.110   0.296  10.422  0.7591  0.6358  0.7056
  126MPD1    H1 1964   1.298   0.670  10.510  0.8287 -0.6078  1.7369
  126MPD1    H2 1965   1.049   0.488  10.788  0.3789  1.5601 -0.4707
  126MPD1    H3 1966   1.193   0.673  10.718 -1.0334  0.7328  0.7150
  126MPD1     N 1967   1.269   0.477  10.308  0.1551  0.4484 -0.0062
  126MPD1    H5 1968   1.235   0.403  10.248 -0.5693 -0.4884  1.5613
  126MPD1    N1 1969   0.977   0.286  10.636 -0.0739 -0.4693 -0.5138
  126MPD1    H6 1970   0.951   0.278  10.735 -1.6898 -0.9879 -0.9740
  126MPD1    H7 1971   1.008   0.193  10.610  1.0044 -0.1709 -0.2850
  127TMC2    C1 1972   1.363   1.869   9.960  0.2604 -0.2394  0.0583
  127TMC2    C2 1973   1.371   1.838  10.094 -0.9275 -0.4743 -0.3991
  127TMC2    C3 1974   1.297   1.738  10.148 -0.4091 -0.3053 -0.0626
  127TMC2    C4 1975   1.266   1.801   9.880  0.2480 -0.3085  0.1539
  127TMC2    C5 1976   1.204   1.692   9.936  0.1884  0.3842  0.6817
  127TMC2    C6 1977   1.221   1.659  10.067  0.1570  0.4973  0.8348
  127TMC2     C 1978   1.433   1.983   9.897  0.2290  0.3200  0.2527
  127TMC2     O 1979   1.448   1.979   9.774  0.0089  0.3674  0.0236
  127TMC2     H 1980   1.430   1.906  10.155  0.2853 -1.0221 -0.9429
  127TMC2    H1 1981   1.260   1.826   9.775 -0.5399 -0.9170  0.0561
  127TMC2    H2 1982   1.172   1.576  10.117  0.5730  0.2756  0.8785
  127TMC2    C7 1983   1.092   1.638   9.864 -1.0415  0.3397  0.2387
  127TMC2    C8 1984   1.323   1.705  10.285  0.4142  0.4496 -0.5155
  127TMC2    O1 1985   1.044   1.706   9.774 -0.5398  0.2987 -1.0290
  127TMC2    O2 1986   1.424   1.742  10.346 -0.1258  0.1176 -0.6580
  127TMC2    O5 1987   1.198   1.715  10.337 -0.5901  0.2226  0.4156
  127TMC2    H5 1988   1.129   1.688  10.273  1.0656 -0.9201 -0.8717
  128MPD2     C 1989   1.622   2.256  10.060 -0.8884 -0.1796  0.4045
  128MPD2    C1 1990   1.580   2.175   9.957  0.9330 -0.0250 -0.1862
  128MPD2    C2 1991   1.629   2.203   9.832  0.4150 -0.0956 -0.3235
  128MPD2    C3 1992   1.691   2.321   9.810 -0.1337  0.3482  0.2487
  128MPD2    C4 1993   1.732   2.397   9.918  0.2853  0.5908 -0.1398
  128MPD2    C5 1994   1.709   2.360  10.045 -0.1133 -0.5692 -0.0853
  128MPD2     H 1995   1.603   2.139   9.748 -0.0872 -1.5156  0.9138
  128MPD2    H1 1996   1.799   2.481   9.907  1.4068 -0.1464  1.0544
  128MPD2    H2 1997   1.591   2.235  10.161  0.3066  0.3817  0.8961
  128MPD2    H3 1998   1.746   2.422  10.126 -0.9490 -0.7985  0.4738
  128MPD2     N 1999   1.722   2.356   9.674  0.5692 -0.0959 -0.1878
  128MPD2    H5 2000   1.716   2.285   9.601 -1.3611  2.3040 -2.3519
  128MPD2    N1 2001   1.499   2.062   9.991 -0.3390  0.2004 -0.4088
  128MPD2    H7 2002   1.499   2.042  10.090 -0.1307  0.9804 -0.2491
  129TMC2    C1 2003   1.214   1.448   1.240 -0.3875  0.3140 -0.2332
  129TMC2    C2 2004   1.307   1.357   1.220  0.4045 -0.0441 -0.4163
  129TMC2    C3 2005   1.276   1.250   1.138 -0.0909  0.2771  0.0389
  129TMC2    C4 2006   1.083   1.429   1.190 -0.0221 -0.8317 -0.4280
  129TMC2    C5 2007   1.046   1.307   1.136  0.1813  0.0227 -0.2298
  129TMC2    C6 2008   1.150   1.217   1.114 -1.1043  0.1106 -0.5371
  129TMC2     C 2009   1.238   1.573   1.311  0.2505 -0.5528 -0.3376
  129TMC2     O 2010   1.336   1.584   1.384  0.5944 -0.9113  0.5093
  129TMC2     H 2011   1.409   1.360   1.259 -0.0222  0.7846  0.6363
  129TMC2    H1 2012   1.010   1.508   1.208  1.3128  0.0636  1.0426
  129TMC2    H2 2013   1.129   1.120   1.071  1.2354 -0.8802  0.5360
  129TMC2    C7 2014   0.902   1.278   1.137  0.2789  0.2770  0.7608
  129TMC2    C8 2015   1.371   1.147   1.120 -0.0723  0.0040 -0.1602
  129TMC2    O1 2016   0.839   1.349   1.216 -0.0336 -0.1673  0.7143
  129TMC2    O2 2017   1.330   1.028   1.105 -0.5702  0.8535  0.0087
  129TMC2    O5 2018   1.476   1.198   1.065 -0.2499  0.0968 -0.3953
  129TMC2    H5 2019   1.485   1.295   1.057  1.1221  0.0967  1.2401
  130MPD2     C 2020   1.200   1.841   1.424 -0.2282  0.3090 -0.2091
  130MPD2    C1 2021   1.145   1.808   1.303 -0.2632 -0.3488 -0.5389
  130MPD2    C2 2022   1.086   1.898   1.220 -0.9672 -0.0406 -0.5955
  130MPD2    C3 2023   1.073   2.026   1.259  0.2606 -0.6215  0.3644
  130MPD2    C4 2024   1.127   2.066   1.383 -0.6182 -0.6908 -0.7989
  130MPD2    C5 2025   1.198   1.975   1.457  0.5543  0.7884 -0.2611
  130MPD2     H 2026   1.048   1.871   1.122 -1.0876  0.8457 -0.7909
  130MPD2    H1 2027   1.118   2.167   1.421 -0.9430 -0.6685 -0.9324
  130MPD2    H2 2028   1.253   1.778   1.494  1.6385  2.3607  0.2239
  130MPD2    H3 2029   1.247   2.019   1.543 -0.2221  2.2519 -0.5672
  130MPD2     N 2030   1.018   2.121   1.167  0.4671 -0.5060 -0.0107
  130MPD2    H5 2031   0.988   2.079   1.080  1.5750 -2.4473  0.5356
  130MPD2    N1 2032   1.163   1.680   1.248 -0.2610 -0.1252 -0.1286
  130MPD2    H7 2033   1.100   1.651   1.174 -1.8881  0.5391  1.0053
  131TMC2    C1 2034   4.069   0.483   9.406 -0.2040  0.5854  0.3225
  131TMC2    C2 2035   4.059   0.619   9.408 -0.2991 -0.6847 -0.8573
  131TMC2    C3 2036   4.140   0.685   9.323  0.0253  0.7169  0.2109
  131TMC2    C4 2037   4.140   0.416   9.305 -0.6697 -0.3873 -0.4185
  131TMC2    C5 2038   4.205   0.492   9.212 -0.0436 -0.0754  0.1915
  131TMC2    C6 2039   4.213   0.627   9.222 -0.1020  0.2978  0.6389
  131TMC2     C 2040   4.060   0.420   9.531  0.0294  0.1881  0.1803
  131TMC2     O 2041   4.095   0.483   9.633  0.7196 -0.1140 -0.2006
  131TMC2     H 2042   4.013   0.658   9.498  2.1371  0.8684 -0.2941
  131TMC2    H1 2043   4.137   0.307   9.304  2.7401 -0.4855 -1.4525
  131TMC2    H2 2044   4.242   0.694   9.142 -0.4319  2.3969  2.2905
  131TMC2    C7 2045   4.321   0.425   9.161  0.2762  0.0793 -0.0697
  131TMC2    C8 2046   4.133   0.828   9.322  0.1345 -0.4955  0.0981
  131TMC2    O1 2047   4.310   0.303   9.144  0.2350 -0.5652 -0.2373
  131TMC2    O2 2048   4.215   0.891   9.389  0.3589 -0.2444  0.3418
  131TMC2    O5 2049   3.998   0.847   9.332  0.5463  0.6421  0.4316
  131TMC2    H5 2050   3.950   0.783   9.274  0.3242  1.8779 -0.7372
  132MPD2     C 2051   3.866   0.123   9.567  0.1032  0.1823 -0.6218
  132MPD2    C1 2052   3.958   0.210   9.618 -0.0645  0.0570 -0.5448
  132MPD2    C2 2053   3.992   0.213   9.750 -0.0346 -0.1583  0.3586
  132MPD2    C3 2054   3.924   0.130   9.841  0.4370  0.2284  0.9164
  132MPD2    C4 2055   3.824   0.044   9.786 -0.0265  0.0072 -0.4499
  132MPD2    C5 2056   3.803   0.034   9.650 -0.0821 -0.6114 -0.4212
  132MPD2     H 2057   4.059   0.288   9.791 -1.5014  1.6810 -0.6247
  132MPD2    H1 2058   3.772   4.706   9.844  4.1769 -3.0829 -0.7129
  132MPD2    H2 2059   3.829   0.124   9.465 -2.1101  0.3466  0.1718
  132MPD2    H3 2060   3.731   4.702   9.608 -0.7399  0.1263 -0.5268
  132MPD2     N 2061   3.976   0.122   9.969  0.1191 -0.4836  0.1132
  132MPD2    H5 2062   4.051   0.187   9.993  1.0028 -0.3067 -3.1686
  132MPD2    N1 2063   4.014   0.291   9.513 -0.0074  0.6816  0.1317
  132MPD2    H7 2064   3.990   0.269   9.417 -2.0595  0.3623  0.7183
  133TMC2    C1 2065   1.973   0.958   9.565  0.2786  0.2634 -0.2609
  133TMC2    C2 2066   1.930   0.982   9.438  0.3656 -0.6889 -0.0257
  133TMC2    C3 2067   1.832   0.907   9.379 -0.3909  0.7302 -0.0962
  133TMC2    C4 2068   1.924   0.845   9.635 -0.9365  0.4031  0.2817
  133TMC2    C5 2069   1.829   0.769   9.571 -0.6282 -0.0440  0.2609
  133TMC2    C6 2070   1.789   0.791   9.445 -0.1611  0.5356  0.1858
  133TMC2     C 2071   2.066   1.046   9.634  0.3450  0.0537  0.6599
  133TMC2     O 2072   2.090   1.157   9.583  0.2275  0.5323 -0.1011
  133TMC2     H 2073   1.963   1.065   9.376  2.3088  0.4363  2.5049
  133TMC2    H1 2074   1.978   0.795   9.715  0.9912  1.4862 -0.3568
  133TMC2    H2 2075   1.723   0.726   9.388  1.3973 -0.8787  0.0006
  133TMC2    C7 2076   1.782   0.634   9.622 -0.2785 -0.2715 -0.2867
  133TMC2    C8 2077   1.749   0.960   9.275 -0.9092 -0.2921 -0.0692
  133TMC2    O1 2078   1.720   0.567   9.544  0.7082 -0.0394  0.1021
  133TMC2    O2 2079   1.642   0.911   9.244 -0.1019  0.4542 -0.0775
  133TMC2    O5 2080   1.833   1.016   9.185 -0.0594 -0.3557  0.2031
  133TMC2    H5 2081   1.926   1.017   9.215 -0.0786 -0.7297  0.2752
  134MPD2     C 2082   2.116   1.054  10.007  1.0750 -0.5786 -0.4415
  134MPD2    C1 2083   2.130   1.101   9.874  0.7439  0.9847  0.3361
  134MPD2    C2 2084   2.196   1.221   9.847 -0.5175 -0.0380  0.4737
  134MPD2    C3 2085   2.258   1.282   9.957  0.0128 -0.0595 -0.3421
  134MPD2    C4 2086   2.234   1.239  10.085  0.5996 -0.2919  0.3598
  134MPD2    C5 2087   2.160   1.126  10.109  0.3219 -0.3284 -0.2725
  134MPD2     H 2088   2.215   1.251   9.745  1.2116 -1.0043  0.5158
  134MPD2    H1 2089   2.270   1.296  10.170  1.7429 -1.3839  0.6047
  134MPD2    H2 2090   2.048   0.972  10.029 -2.2906  2.0117 -1.2708
  134MPD2    H3 2091   2.141   1.093  10.211 -1.4274  2.2788  0.2472
  134MPD2     N 2092   2.354   1.388   9.962  0.4715 -0.1300  0.5431
  134MPD2    H5 2093   2.384   1.410  10.057 -1.9657 -1.1916  1.5728
  134MPD2    N1 2094   2.071   1.027   9.772  0.1566  0.3003 -0.0327
  134MPD2    H7 2095   2.030   0.941   9.808  1.3089  0.1723  0.9603
  135TMC2    C1 2096   2.044   2.047   8.558  0.2463 -0.2970 -0.6279
  135TMC2    C2 2097   2.102   2.019   8.433 -0.5826 -0.2214  0.0498
  135TMC2    C3 2098   2.168   1.899   8.426 -0.3203 -0.0287 -0.1464
  135TMC2    C4 2099   2.045   1.958   8.666  0.4746  0.6281 -0.0246
  135TMC2    C5 2100   2.099   1.835   8.642  0.6766 -0.6543  0.1680
  135TMC2    C6 2101   2.162   1.808   8.523  0.4678  0.4683 -0.1829
  135TMC2     C 2102   2.036   2.185   8.583  0.4856  0.1317 -0.7329
  135TMC2     O 2103   2.000   2.254   8.488  0.0143 -0.2574  0.3622
  135TMC2     H 2104   2.102   2.087   8.348  0.6463  0.7702  0.8532
  135TMC2    H1 2105   2.013   1.995   8.763  1.8927 -1.1645  1.1335
  135TMC2    H2 2106   2.198   1.707   8.502 -2.8137 -0.0881 -3.0215
  135TMC2    C7 2107   2.077   1.715   8.726  0.5967 -0.1268 -0.1427
  135TMC2    C8 2108   2.198   1.858   8.291 -0.5365  0.4106  0.0600
  135TMC2    O1 2109   2.156   1.624   8.718 -0.0825  0.1195  0.2104
  135TMC2    O2 2110   2.139   1.913   8.193 -0.0523  0.3579 -0.4790
  135TMC2    O5 2111   2.324   1.802   8.291  0.4517 -0.2628  0.1744
  135TMC2    H5 2112   2.373   1.796   8.376  0.8631 -1.1607 -0.1265
  136MPD2     C 2113   2.035   2.469   8.690  0.3979  0.4535  0.7007
  136MPD2    C1 2114   2.099   2.361   8.752 -0.2893 -0.3077  0.2141
  136MPD2    C2 2115   2.164   2.387   8.870  0.0924  0.1545  0.3676
  136MPD2    C3 2116   2.168   2.509   8.935 -0.0567 -0.1956 -0.4722
  136MPD2    C4 2117   2.100   2.614   8.868  0.5778 -0.2754 -0.4137
  136MPD2    C5 2118   2.035   2.589   8.756  0.8035  0.7212  0.0114
  136MPD2     H 2119   2.198   2.298   8.922 -1.4249 -1.7902 -1.9718
  136MPD2    H1 2120   2.110   2.717   8.901 -2.1370 -0.3924  0.8141
  136MPD2    H2 2121   2.007   2.471   8.586 -3.4835 -2.5462  1.7097
  136MPD2    H3 2122   1.994   2.674   8.702  1.2071  1.3134  0.6311
  136MPD2     N 2123   2.227   2.536   9.057 -0.3024 -0.3957 -0.4248
  136MPD2    H5 2124   2.217   2.626   9.103  0.8202  0.5128 -1.9509
  136MPD2    N1 2125   2.094   2.228   8.700  0.2245 -0.0754  0.9203
  136MPD2    H7 2126   2.145   2.165   8.761  1.0680 -0.8561 -0.6007
  137TMC2    C1 2127   0.625   1.559  10.066  0.2099  0.8194 -0.0965
  137TMC2    C2 2128   0.744   1.566  10.133 -0.1241  0.4345 -0.2880
  137TMC2    C3 2129   0.780   1.464  10.211 -0.1286  0.2736  0.0250
  137TMC2    C4 2130   0.547   1.439  10.067 -0.4338  0.0044 -0.4429
  137TMC2    C5 2131   0.593   1.340  10.152  0.2613  0.2146 -0.6896
  137TMC2    C6 2132   0.713   1.342  10.215  0.5439 -0.2440 -0.3775
  137TMC2     C 2133   0.589   1.680   9.996  0.3780  0.4253 -1.0718
  137TMC2     O 2134   0.647   1.777  10.041 -0.4743  0.0239  0.3324
  137TMC2     H 2135   0.811   1.651  10.145  1.4469 -0.8466  0.0412
  137TMC2    H1 2136   0.452   1.430  10.016 -1.3869  1.5647  1.0470
  137TMC2    H2 2137   0.743   1.258  10.276 -1.5314 -0.4454  0.3596
  137TMC2    C7 2138   0.545   1.204  10.138 -0.0568  0.1336  0.5334
  137TMC2    C8 2139   0.913   1.469  10.274 -0.0458 -0.0903 -0.0062
  137TMC2    O1 2140   0.562   1.123  10.228 -0.4563 -0.0598  0.2932
  137TMC2    O2 2141   0.977   1.573  10.276 -0.5141 -1.0760  0.1532
  137TMC2    O5 2142   0.970   1.363  10.228  0.1434  0.1798  0.4566
  137TMC2    H5 2143   0.911   1.292  10.195  0.6068 -0.1474  0.3263
  138MPD2     C 2144   0.362   1.752   9.723 -0.4734 -0.2657 -0.1009
  138MPD2    C1 2145   0.472   1.770   9.801  0.0055 -0.6952  0.7530
  138MPD2    C2 2146   0.553   1.881   9.777  0.0588 -0.3222 -0.1848
  138MPD2    C3 2147   0.521   1.975   9.676 -0.2510 -0.1046  0.5447
  138MPD2    C4 2148   0.416   1.947   9.597 -0.4517  0.4190 -0.3721
  138MPD2    C5 2149   0.337   1.843   9.622 -0.0412 -0.2220  0.1358
  138MPD2     H 2150   0.645   1.898   9.832 -0.4463 -2.2649  1.2638
  138MPD2    H1 2151   0.385   2.017   9.520 -0.4176  1.3936  0.5000
  138MPD2    H2 2152   0.292   1.670   9.729 -2.1028  1.0021 -1.8599
  138MPD2    H3 2153   0.253   1.823   9.557  0.6129 -1.6786 -0.2588
  138MPD2     N 2154   0.605   2.091   9.662  0.0623  0.0904 -0.6812
  138MPD2    H5 2155   0.684   2.100   9.726 -1.1550  0.1122  0.8170
  138MPD2    N1 2156   0.503   1.670   9.889 -0.2781  0.7134  0.0909
  138MPD2    H7 2157   0.455   1.582   9.872  0.7215  0.2422 -0.3510
  139TMC2    C1 2158   1.411   0.631  13.530 -0.5027 -1.1201 -0.1539
  139TMC2    C2 2159   1.353   0.625  13.403 -0.0760  0.6189 -0.1769
  139TMC2    C3 2160   1.245   0.703  13.379  0.6848  0.2582 -0.2751
  139TMC2    C4 2161   1.350   0.705  13.631 -0.7239  0.7190 -0.4303
  139TMC2    C5 2162   1.234   0.774  13.602  0.4343  0.0345  0.5017
  139TMC2    C6 2163   1.177   0.771  13.477  0.3771  0.7674 -0.6504
  139TMC2     C 2164   1.537   0.557  13.539 -0.5134  0.5798  0.3666
  139TMC2     O 2165   1.588   0.508  13.441  0.3580 -0.2548  0.1215
  139TMC2     H 2166   1.387   0.553  13.329  1.7642  0.9544  0.3489
  139TMC2    H1 2167   1.404   0.725  13.724 -0.7282 -1.5504  0.0577
  139TMC2    H2 2168   1.085   0.821  13.449 -0.9447 -1.4832 -0.3387
  139TMC2    C7 2169   1.178   0.871  13.694  0.3610  1.4502  0.8479
  139TMC2    C8 2170   1.195   0.702  13.239 -0.8968  0.2952 -0.4931
  139TMC2    O1 2171   1.096   0.954  13.657 -0.3340  0.2146  0.7161
  139TMC2    O2 2172   1.219   0.612  13.158 -0.5399  0.2994 -0.3846
  139TMC2    O5 2173   1.132   0.826  13.211 -0.1690  0.1301 -0.0597
  139TMC2    H5 2174   1.168   0.898  13.268 -2.0845  1.5799 -0.6540
  140MPD2     C 2175   1.717   0.431  13.835  0.2122 -0.9612  0.3488
  140MPD2    C1 2176   1.673   0.440  13.702 -0.2062  0.4036 -0.4805
  140MPD2    C2 2177   1.709   0.336  13.616  0.3904  1.0634  0.4364
  140MPD2    C3 2178   1.781   0.232  13.668 -1.0745 -0.3295 -0.4255
  140MPD2    C4 2179   1.809   0.212  13.802 -0.2997  0.1373  0.0668
  140MPD2    C5 2180   1.790   0.321  13.884  0.6979  0.1675  0.0992
  140MPD2     H 2181   1.694   0.342  13.509  0.8375  1.3045  0.3886
  140MPD2    H1 2182   1.875   0.135  13.841 -0.7250  1.3509  3.1698
  140MPD2    H2 2183   1.703   0.516  13.901 -0.0497  0.8425 -2.0036
  140MPD2    H3 2184   1.828   0.317  13.986 -3.2467 -3.4888  1.4653
  140MPD2     N 2185   1.839   0.147  13.570  0.2241  0.5567  0.0150
  140MPD2    H5 2186   1.833   0.179  13.474 -3.2435  0.9685  0.3500
  140MPD2    N1 2187   1.594   0.554  13.665  0.0385  0.7980  0.1953
  140MPD2    H7 2188   1.557   0.612  13.740 -2.1458 -1.1423  0.6105
  141TMC2    C1 2189   2.414   1.895  13.962  0.0273  0.4129  1.0503
  141TMC2    C2 2190   2.392   1.779  14.035 -0.3364  0.1845 -0.1038
  141TMC2    C3 2191   2.409   1.784  14.172 -0.4122  0.5396 -0.3617
  141TMC2    C4 2192   2.459   2.008  14.021  0.0521  0.2060 -0.4494
  141TMC2    C5 2193   2.486   2.005  14.157 -0.2637  0.2348 -0.4006
  141TMC2    C6 2194   2.452   1.895  14.239  0.2682  0.4461 -0.0924
  141TMC2     C 2195   2.382   1.904  13.824 -0.4447  0.4054  0.3202
  141TMC2     O 2196   2.447   1.979  13.750 -0.3361  0.0723  0.2277
  141TMC2     H 2197   2.363   1.685  13.990  3.0267 -0.8236 -0.1560
  141TMC2    H1 2198   2.474   2.092  13.955 -1.3354  0.0115 -1.0238
  141TMC2    H2 2199   2.480   1.886  14.343  0.0981 -1.2252 -0.1876
  141TMC2    C7 2200   2.558   2.114  14.223  0.1275 -0.6964 -0.0296
  141TMC2    C8 2201   2.393   1.660  14.249 -0.3568 -0.4053 -0.0067
  141TMC2    O1 2202   2.622   2.091  14.327  0.0539  0.6122 -0.0203
  141TMC2    O2 2203   2.397   1.555  14.186 -0.2921  0.3418 -0.3047
  141TMC2    O5 2204   2.350   1.680  14.375  0.1193 -0.0529 -0.2459
  141TMC2    H5 2205   2.328   1.776  14.382  2.8197  0.5592 -0.1856
  142TMC2    C1 2206   4.360   0.203   9.673 -0.4383 -0.0146 -0.2128
  142TMC2    C2 2207   4.410   0.137   9.559  0.6825 -0.5394 -0.0342
  142TMC2    C3 2208   4.494   0.211   9.476  0.4143  0.0770 -0.4744
  142TMC2    C4 2209   4.370   0.340   9.682  0.4200  0.4957  0.0095
  142TMC2    C5 2210   4.439   0.408   9.585 -0.2493 -0.5533  0.2709
  142TMC2    C6 2211   4.511   0.348   9.487  0.3691  0.4276 -0.4370
  142TMC2     C 2212   4.321   0.120   9.782  0.2202 -0.0106  0.6174
  142TMC2     O 2213   4.266   0.014   9.754  0.0740  0.5607  0.1614
  142TMC2     H 2214   4.402   0.032   9.534  2.9217  0.1043 -3.4037
  142TMC2    H1 2215   4.344   0.388   9.776  0.6559  1.5218 -0.4424
  142TMC2    H2 2216   4.570   0.405   9.416  1.0080  1.3940  0.8643
  142TMC2    C7 2217   4.459   0.553   9.598 -0.0756 -0.2384  0.0058
  142TMC2    C8 2218   4.566   0.139   9.370 -0.3533  0.7464  0.0864
  142TMC2    O1 2219   4.568   0.600   9.561 -0.1756 -0.5134  0.2041
  142TMC2    O2 2220   4.513   0.029   9.341  0.1196 -0.1079  0.0250
  142TMC2    O5 2221   4.696   0.170   9.372 -0.0081  0.2730 -0.4639
  142TMC2    H5 2222   4.712   0.242   9.437 -0.5702 -0.8825  0.9392
  143MPD2     C 2223   4.452   4.648  10.213  0.6498 -0.2435 -0.4482
  143MPD2    C1 2224   4.336   4.622  10.141 -0.1558  0.6730 -0.2842
  143MPD2    C2 2225   4.306   4.714  10.037 -0.3726  0.2046 -0.1985
  143MPD2    C3 2226   4.394   0.083  10.008 -0.4529 -0.0464 -0.0173
  143MPD2    C4 2227   4.502   0.112  10.096  0.2673  0.1139  0.2846
  143MPD2    C5 2228   4.533   0.024  10.199  0.0306  0.1632  0.1153
  143MPD2     H 2229   4.212   4.704   9.983 -0.2897 -1.6380 -0.0023
  143MPD2    H1 2230   4.566   0.198  10.081  0.5763 -0.1859 -0.1059
  143MPD2    H2 2231   4.488   4.570  10.279 -1.7774  0.3021  1.5221
  143MPD2    H3 2232   4.619   0.042  10.262  0.0327  0.8317 -0.0845
  143MPD2     N 2233   4.384   0.165   9.898  0.2601  0.1153  0.0424
  143MPD2    H5 2234   4.443   0.248   9.898 -0.2279  0.4624  0.3981
  143MPD2    N1 2235   4.272   4.502  10.160  0.4251 -0.5140 -0.5039
  143MPD2    H7 2236   4.303   4.430  10.225 -0.6438 -0.2863  0.2587
  144TMC2    C1 2237   3.110   4.211   0.622 -0.6325  0.2239  0.1928
  144TMC2    C2 2238   3.149   4.091   0.567  0.5312  0.7395  0.5123
  144TMC2    C3 2239   3.229   4.006   0.642  0.2688 -0.0675 -0.3862
  144TMC2    C4 2240   3.126   4.228   0.761 -0.0894 -0.7058  0.8683
  144TMC2    C5 2241   3.194   4.135   0.833  0.6123 -0.8495  0.9085
  144TMC2    C6 2242   3.259   4.026   0.776  0.0992  0.0091  0.5860
  144TMC2     C 2243   3.046   4.307   0.537 -0.2817  0.4793  0.0589
  144TMC2     O 2244   2.967   4.257   0.460 -0.0136 -0.3722  0.1019
  144TMC2     H 2245   3.126   4.081   0.461  0.4027  3.3530  0.3076
  144TMC2    H1 2246   3.080   4.320   0.797  0.0026 -0.1604 -0.4201
  144TMC2    H2 2247   3.312   3.954   0.837 -2.4836 -1.9868  0.4945
  144TMC2    C7 2248   3.220   4.160   0.977 -0.1567 -0.5245  0.2445
  144TMC2    C8 2249   3.282   3.886   0.578  1.5581  0.2575 -0.5941
  144TMC2    O1 2250   3.280   4.068   1.034 -0.3293 -0.4412  0.2591
  144TMC2    O2 2251   3.297   3.780   0.637 -0.6573  0.0555  0.0551
  144TMC2    O5 2252   3.329   3.918   0.458  0.2590 -0.0925 -0.1953
  144TMC2    H5 2253   3.322   4.013   0.435  0.2777  0.1886  0.9440
  145MPD2     C 2254   2.872   0.064   0.494 -0.5186  0.2491 -0.6458
  145MPD2    C1 2255   2.838   4.685   0.422  0.9553  0.2182 -0.2692
  145MPD2    C2 2256   2.903   4.568   0.442  0.1009  0.5405 -0.3763
  145MPD2    C3 2257   3.007   4.557   0.532  0.6447  0.1525 -0.4448
  145MPD2    C4 2258   3.036   4.673   0.604 -0.7699 -0.5209 -0.1564
  145MPD2    C5 2259   2.973   0.052   0.581 -0.0666 -0.3447 -0.0308
  145MPD2     H 2260   2.859   4.483   0.392  2.1701 -0.9713  0.3655
  145MPD2    H1 2261   3.115   4.678   0.679 -0.6753 -0.4032 -0.2637
  145MPD2    H2 2262   2.828   0.163   0.485  0.8747  1.1506  2.4841
  145MPD2    H3 2263   2.995   0.144   0.634 -0.4969  0.2451 -0.9000
  145MPD2     N 2264   3.070   4.438   0.578 -0.3262 -0.2043  0.0002
  145MPD2    H5 2265   3.133   4.450   0.657  1.0969 -1.3229 -0.9727
  145MPD2    N1 2266   2.726   4.682   0.334  0.8994 -0.5804 -0.1671
  145MPD2    H7 2267   2.699   4.589   0.302 -0.3167  0.1795 -1.3820
  146TMC2    C1 2268   4.231   2.850  11.935  0.4077  0.1760 -0.0242
  146TMC2    C2 2269   4.167   2.811  11.822 -0.2810 -0.2834  0.3686
  146TMC2    C3 2270   4.239   2.793  11.706 -0.8094 -0.4468  0.8984
  146TMC2    C4 2271   4.367   2.872  11.939  0.3244 -0.4874 -0.1834
  146TMC2    C5 2272   4.435   2.853  11.820 -0.3675 -0.7316 -0.2238
  146TMC2    C6 2273   4.375   2.816  11.704  0.4529  0.1214  0.3909
  146TMC2     C 2274   4.152   2.888  12.047 -0.3379  0.5568 -0.3339
  146TMC2     O 2275   4.028   2.891  12.031 -0.4461 -0.1365  0.7532
  146TMC2     H 2276   4.059   2.804  11.816 -0.4571  1.9529  0.9074
  146TMC2    H1 2277   4.413   2.909  12.030 -0.3099 -2.0375  0.7607
  146TMC2    H2 2278   4.428   2.805  11.611  0.7158  1.2952  0.3983
  146TMC2    C7 2279   4.576   2.874  11.813 -0.0868  0.7525  0.7169
  146TMC2    C8 2280   4.164   2.754  11.588 -0.6616 -0.8165 -0.4971
  146TMC2    O1 2281   4.623   2.910  11.707  0.7051 -0.3171 -0.6269
  146TMC2    O2 2282   4.064   2.683  11.604  0.6648 -0.1729  0.3764
  146TMC2    O5 2283   4.245   2.737  11.484 -0.7752  0.6284  0.5031
  146TMC2    H5 2284   4.300   2.819  11.486 -0.0281  0.1505 -0.3667
  147MPD2     C 2285   0.260   3.059  12.034  0.5417  0.2219 -0.2036
  147MPD2    C1 2286   0.189   3.006  12.136 -0.0531 -0.6412 -0.8493
  147MPD2    C2 2287   0.077   2.933  12.099  0.1611 -0.5016  0.1341
  147MPD2    C3 2288   0.030   2.928  11.969 -0.0247 -0.7113 -0.6724
  147MPD2    C4 2289   0.107   2.989  11.874  0.4499 -0.0446 -0.1714
  147MPD2    C5 2290   0.226   3.051  11.904  0.0709 -0.4267 -1.0569
  147MPD2     H 2291   0.023   2.887  12.182  1.1728  0.1415  1.1559
  147MPD2    H1 2292   0.081   2.995  11.769 -0.1948  0.2961  0.0052
  147MPD2    H2 2293   0.357   3.105  12.047  0.8426 -0.3453 -0.4397
  147MPD2    H3 2294   0.287   3.098  11.828  1.0929  0.3588  0.2548
  147MPD2     N 2295   4.633   2.883  11.940 -0.1128 -0.0530 -0.1309
  147MPD2    H5 2296   4.574   2.852  12.017  1.2995 -1.0906  0.5337
  147MPD2    N1 2297   0.237   3.020  12.271 -0.2904 -0.3110 -0.2221
  147MPD2    H7 2298   0.323   3.073  12.281 -1.6302  1.3197  2.6174
  148TMC2    C1 2299   3.713   1.596  10.465 -0.7068  0.4118 -0.0115
  148TMC2    C2 2300   3.675   1.723  10.487  0.5665  0.4937 -0.3156
  148TMC2    C3 2301   3.752   1.801  10.569 -0.1964 -0.0508  0.1885
  148TMC2    C4 2302   3.823   1.544  10.519  0.3447 -0.0952  0.0739
  148TMC2    C5 2303   3.901   1.622  10.594 -0.5557  0.4167 -0.0238
  148TMC2    C6 2304   3.865   1.750  10.627  0.2431 -0.4403  0.6674
  148TMC2     C 2305   3.605   1.506  10.434 -0.1095  0.5538  0.3438
  148TMC2     O 2306   3.509   1.558  10.384  0.0145  0.2038 -0.5052
  148TMC2     H 2307   3.579   1.764  10.457 -0.3865 -0.5749  1.2567
  148TMC2    H1 2308   3.855   1.446  10.488 -1.0996 -0.9373  1.2066
  148TMC2    H2 2309   3.919   1.807  10.702 -1.7264 -0.6966  2.2946
  148TMC2    C7 2310   4.016   1.554  10.644  0.1355 -0.1702  0.0333
  148TMC2    C8 2311   3.716   1.941  10.569  0.5711  0.0548 -0.3317
  148TMC2    O1 2312   4.080   1.485  10.570 -0.3901  0.2014 -0.4012
  148TMC2    O2 2313   3.608   1.977  10.525 -0.4252 -0.2064  0.2386
  148TMC2    O5 2314   3.815   2.026  10.599  0.3442 -0.1445 -0.1570
  148TMC2    H5 2315   3.901   1.982  10.617  0.1218 -0.0154  1.2571
  149MPD2     C 2316   3.404   1.291  10.411  0.4961 -0.2251 -0.4870
  149MPD2    C1 2317   3.527   1.269  10.467  0.5919  0.0119  0.0490
  149MPD2    C2 2318   3.551   1.139  10.513  0.2057 -0.3629 -0.3206
  149MPD2    C3 2319   3.463   1.029  10.480 -0.0488  0.1779 -0.1896
  149MPD2    C4 2320   3.342   1.060  10.415 -0.4417 -0.2236  0.2574
  149MPD2    C5 2321   3.320   1.190  10.375  0.0106 -0.4311  0.9607
  149MPD2     H 2322   3.644   1.126  10.568 -0.2041  2.3967  1.0144
  149MPD2    H1 2323   3.270   0.986  10.383  2.3254 -2.5449 -0.6429
  149MPD2    H2 2324   3.372   1.390  10.380  1.1329  0.3096  0.5871
  149MPD2    H3 2325   3.232   1.202  10.313  1.0181  1.7237 -0.0574
  149MPD2     N 2326   3.479   0.895  10.518 -0.0332  0.1265  0.0316
  149MPD2    H5 2327   3.402   0.838  10.484 -0.0622 -0.0734  0.4210
  149MPD2    N1 2328   3.627   1.372  10.474 -0.0969 -0.0145  0.3415
  149MPD2    H7 2329   3.718   1.347  10.512  0.0504  0.2957  0.1847
  150TMC2    C1 2330   1.212   1.149  12.461  0.0509 -0.0245 -0.1931
  150TMC2    C2 2331   1.171   1.259  12.403 -0.1712 -0.2901  0.3021
  150TMC2    C3 2332   1.216   1.382  12.446  0.1792 -0.3004 -0.7563
  150TMC2    C4 2333   1.313   1.145  12.557  0.1870 -0.3010 -0.2985
  150TMC2    C5 2334   1.353   1.274  12.596  0.7195 -1.0761  0.6261
  150TMC2    C6 2335   1.302   1.388  12.545  0.3171  0.1464 -0.1288
  150TMC2     C 2336   1.174   1.019  12.403 -0.7074  0.2357  0.3098
  150TMC2     O 2337   1.248   0.927  12.435 -0.1099  0.5581 -0.2050
  150TMC2     H 2338   1.097   1.261  12.323  0.9837  1.9189 -0.7209
  150TMC2    H1 2339   1.362   1.052  12.584  1.7070  1.0150  1.4835
  150TMC2    H2 2340   1.347   1.483  12.571  1.4403  0.5340 -3.4434
  150TMC2    C7 2341   1.484   1.282  12.665 -0.7676  0.1666 -0.1207
  150TMC2    C8 2342   1.194   1.499  12.369  0.3054 -0.2392 -0.3811
  150TMC2    O1 2343   1.531   1.393  12.678  0.3890 -0.4194 -0.1000
  150TMC2    O2 2344   1.196   1.608  12.426 -0.5677 -0.3276 -0.6275
  150TMC2    O5 2345   1.147   1.466  12.247 -0.0111 -0.1364  0.0909
  150TMC2    H5 2346   1.178   1.383  12.206  0.0766  0.4588 -1.0387
  151MPD2     C 2347   0.898   0.687  12.116  0.3199 -0.3051 -0.0099
  151MPD2    C1 2348   0.844   0.814  12.105 -0.5895 -0.0500  0.0080
  151MPD2    C2 2349   0.906   0.924  12.171 -0.0078 -0.1226 -0.5364
  151MPD2    C3 2350   1.014   0.904  12.254 -0.1372  0.0373 -0.5054
  151MPD2    C4 2351   1.062   0.779  12.263  0.2097 -0.5719 -0.5838
  151MPD2    C5 2352   1.011   0.673  12.197  0.0233 -0.0474  0.0687
  151MPD2     H 2353   0.853   1.019  12.175 -1.2252 -0.7950 -0.5835
  151MPD2    H1 2354   1.145   0.762  12.330 -1.3462  0.2242  1.5736
  151MPD2    H2 2355   0.857   0.596  12.073 -0.2398 -0.0701  0.0281
  151MPD2    H3 2356   1.056   0.577  12.221  1.0825  0.4301  0.0345
  151MPD2     N 2357   1.067   1.017  12.321  0.2639  0.3168 -0.4922
  151MPD2    H5 2358   1.004   1.095  12.335  2.3812  1.8018  0.7809
  151MPD2    N1 2359   0.725   0.828  12.027 -0.0100  0.7204 -0.0122
  151MPD2    H7 2360   0.682   0.740  12.001  2.0102 -0.7363  1.6879
  152TMC2    C1 2361   1.281   1.011  12.951  0.1613 -0.1678  0.3792
  152TMC2    C2 2362   1.365   0.909  12.988 -0.4818  0.5128  0.1829
  152TMC2    C3 2363   1.465   0.937  13.068  0.5358 -0.1027 -0.4204
  152TMC2    C4 2364   1.314   1.141  12.986  0.7400  0.2644  0.0218
  152TMC2    C5 2365   1.422   1.162  13.067  0.0771  0.1858 -0.2159
  152TMC2    C6 2366   1.504   1.058  13.103  0.0843 -0.0943  0.1152
  152TMC2     C 2367   1.173   1.007  12.857 -0.2424  0.2478 -0.3172
  152TMC2     O 2368   1.132   1.111  12.807  0.6710  0.3457  0.5304
  152TMC2     H 2369   1.336   0.806  12.968 -0.3838  0.9712 -2.2949
  152TMC2    H1 2370   1.261   1.224  12.940 -0.9272  0.3768  2.1197
  152TMC2    H2 2371   1.584   1.060  13.177 -0.1169  0.6619  0.3123
  152TMC2    C7 2372   1.464   1.296  13.074  0.1733  0.2458 -0.3774
  152TMC2    C8 2373   1.526   0.827  13.141  0.4595 -0.2154  0.3715
  152TMC2    O1 2374   1.386   1.380  13.026  0.0045  0.1414 -0.5299
  152TMC2    O2 2375   1.527   0.717  13.091 -0.4010  0.4142  0.0831
  152TMC2    O5 2376   1.504   0.848  13.269 -0.5147 -0.6350  0.8386
  152TMC2    H5 2377   1.470   0.929  13.313  1.4328 -0.6329  2.3621
  153MPD2     C 2378   1.036   0.707  12.701  0.1051 -0.9630 -0.1273
  153MPD2    C1 2379   1.047   0.840  12.723 -0.3739  0.4375 -0.2240
  153MPD2    C2 2380   0.955   0.933  12.667  0.3241  0.0604  0.8494
  153MPD2    C3 2381   0.854   0.881  12.585  0.1832 -0.1252 -0.0801
  153MPD2    C4 2382   0.855   0.751  12.549  0.1165  0.0495  0.5693
  153MPD2    C5 2383   0.933   0.666  12.624  0.4270  0.0694  0.8929
  153MPD2     H 2384   0.968   1.040  12.681 -1.5508  0.4917 -0.7898
  153MPD2    H1 2385   0.777   0.704  12.490  1.6748 -1.2196 -0.4849
  153MPD2    H2 2386   1.089   0.627  12.752  0.8946  0.7808  1.7503
  153MPD2    H3 2387   0.906   0.561  12.614 -1.9891  1.0375 -2.7123
  153MPD2     N 2388   0.765   0.978  12.532  0.1760  0.2599 -1.0623
  153MPD2    H5 2389   0.778   1.070  12.572  0.0056 -0.1731 -0.0259
  153MPD2    N1 2390   1.146   0.876  12.817  1.0921  0.2242  0.3414
  153MPD2    H7 2391   1.204   0.804  12.858 -0.2859 -1.3320 -0.4526
  154TMC2    C1 2392   1.922   1.201  17.206  0.0655 -0.3157 -0.5918
  154TMC2    C2 2393   1.853   1.134  17.113 -0.4716  0.3197  0.0332
  154TMC2    C3 2394   1.758   1.191  17.032  0.2343 -0.4823  0.3412
  154TMC2    C4 2395   1.879   1.325  17.245  0.4847 -0.6608  0.2788
  154TMC2    C5 2396   1.789   1.394  17.167  0.2245  0.0012 -0.3061
  154TMC2    C6 2397   1.725   1.320  17.064 -0.0486  0.3213 -0.1612
  154TMC2     C 2398   2.000   1.128  17.293  0.0729  0.3006 -1.3229
  154TMC2     O 2399   2.009   1.169  17.409 -0.0829 -0.3443  0.1788
  154TMC2     H 2400   1.870   1.029  17.091 -0.7489  0.3125 -0.1612
  154TMC2    H1 2401   1.939   1.379  17.317 -0.6427  1.2117 -0.1944
  154TMC2    H2 2402   1.642   1.358  17.006 -0.3279  1.1124  0.7371
  154TMC2    C7 2403   1.726   1.508  17.226  0.7301  0.1286 -0.4471
  154TMC2    C8 2404   1.648   1.099  16.994 -0.0220  0.3461  0.7141
  154TMC2    O1 2405   1.743   1.521  17.346  0.3353 -0.2964 -0.1037
  154TMC2    O2 2406   1.684   0.999  16.934 -0.1814  0.1194 -0.4604
  154TMC2    O5 2407   1.559   1.097  17.100 -0.0229  0.9119  0.1953
  154TMC2    H5 2408   1.557   1.182  17.148 -2.7288  0.6981  0.4414
  155MPD2     C 2409   2.175   0.807  17.253 -0.2891 -0.2635  0.2473
  155MPD2    C1 2410   2.111   0.908  17.320 -0.4260  0.6831  0.6930
  155MPD2    C2 2411   2.094   0.903  17.458 -0.0330  0.3527  0.9628
  155MPD2    C3 2412   2.135   0.792  17.528 -0.0096  0.3665  0.7912
  155MPD2    C4 2413   2.197   0.692  17.464 -0.7554  0.7615 -0.4604
  155MPD2    C5 2414   2.213   0.702  17.329  0.4294 -0.3709 -0.2441
  155MPD2     H 2415   2.041   0.975  17.518  0.0504 -0.4973  2.0544
  155MPD2    H1 2416   2.242   0.603  17.505 -2.8941 -1.1056 -2.2175
  155MPD2    H2 2417   2.191   0.792  17.147 -0.4975 -0.0398  0.1837
  155MPD2    H3 2418   2.261   0.622  17.275  0.4664  0.1814 -1.0262
  155MPD2     N 2419   2.111   0.790  17.668  0.1401  0.1371 -0.0226
  155MPD2    H5 2420   2.040   0.855  17.700 -0.0289  0.9033 -1.9591
  155MPD2    N1 2421   2.054   1.012  17.240  0.0303  0.6071  0.2402
  155MPD2    H7 2422   2.050   0.999  17.139  0.5371  1.9326  0.0399
  156TMC2    C1 2423   1.326   3.341  11.138 -0.5845 -0.5610  0.0676
  156TMC2    C2 2424   1.354   3.243  11.049 -0.0270  0.1864  0.6397
  156TMC2    C3 2425   1.277   3.231  10.935  1.0531  0.3371  0.6444
  156TMC2    C4 2426   1.227   3.430  11.126  0.0321 -0.1299  0.0902
  156TMC2    C5 2427   1.157   3.417  11.012  0.5503  0.0361 -0.1505
  156TMC2    C6 2428   1.194   3.325  10.913 -0.5803  0.0324  0.1079
  156TMC2     C 2429   1.381   3.334  11.275 -0.3650  0.6437  0.0987
  156TMC2     O 2430   1.312   3.371  11.367 -0.2384  0.0421 -0.5356
  156TMC2     H 2431   1.425   3.165  11.069 -0.6794 -0.0722  1.9527
  156TMC2    H1 2432   1.199   3.492  11.211 -0.4524  0.0147 -0.1815
  156TMC2    H2 2433   1.159   3.326  10.810  1.6085  1.4004 -0.6313
  156TMC2    C7 2434   1.052   3.512  10.986  0.0412 -0.7322  0.0713
  156TMC2    C8 2435   1.324   3.141  10.837  0.0952  0.1097  0.8968
  156TMC2    O1 2436   1.054   3.613  11.054  0.2768 -0.3043  0.5144
  156TMC2    O2 2437   1.253   3.109  10.741 -0.0804  0.1612  0.1145
  156TMC2    O5 2438   1.440   3.204  10.813 -0.5255  0.4386  0.4741
  156TMC2    H5 2439   1.481   3.244  10.893  0.4174  0.2953  0.0687
  157MPD2     C 2440   1.726   3.236  11.350 -0.0057  0.3983 -0.0464
  157MPD2    C1 2441   1.600   3.279  11.376  0.3437 -0.8109 -0.3051
  157MPD2    C2 2442   1.569   3.309  11.508  0.0245  0.1810 -0.2933
  157MPD2    C3 2443   1.653   3.304  11.611 -0.9279 -0.0460 -0.9871
  157MPD2    C4 2444   1.775   3.265  11.576  0.5692 -0.2041  0.2250
  157MPD2    C5 2445   1.811   3.222  11.453  0.3086  0.5665  0.1224
  157MPD2     H 2446   1.471   3.348  11.534 -0.7286 -1.3163 -0.8603
  157MPD2    H1 2447   1.850   3.257  11.654  0.7684 -2.8901 -0.2431
  157MPD2    H2 2448   1.750   3.206  11.248 -1.1819 -0.0442 -0.1905
  157MPD2    H3 2449   1.912   3.185  11.440  0.3363  0.5489  0.3889
  157MPD2     N 2450   1.611   3.362  11.735  0.1171 -0.7399  0.7101
  157MPD2    H5 2451   1.513   3.388  11.734  0.1449 -0.6594 -1.1014
  157MPD2    N1 2452   1.508   3.296  11.268  0.4289 -0.9651 -0.3963
  157MPD2    H7 2453   1.543   3.279  11.174  0.6195  0.2859 -0.5516
  158TMC2    C1 2454   1.878   2.121  13.206  0.0523  0.4075  1.0798
  158TMC2    C2 2455   1.896   2.096  13.075  0.1557  0.4794 -0.1337
  158TMC2    C3 2456   1.799   2.053  12.993  0.1643 -0.2105 -0.4856
  158TMC2    C4 2457   1.761   2.095  13.272  0.2228 -0.1380  0.3874
  158TMC2    C5 2458   1.655   2.064  13.186  0.0666  0.0607  0.2986
  158TMC2    C6 2459   1.677   2.042  13.048 -0.6944 -0.0387  0.5370
  158TMC2     C 2460   2.000   2.152  13.273 -0.3682 -0.2607 -0.2491
  158TMC2     O 2461   2.095   2.198  13.210 -0.1570 -0.0637 -0.1243
  158TMC2     H 2462   1.994   2.108  13.029  0.5723 -2.3312 -0.0093
  158TMC2    H1 2463   1.736   2.126  13.373 -0.2371  1.9073 -0.3387
  158TMC2    H2 2464   1.594   2.044  12.978  1.0559 -0.9685 -1.5895
  158TMC2    C7 2465   1.516   2.101  13.219  0.0945  0.4058  0.6723
  158TMC2    C8 2466   1.827   2.038  12.854  0.1481  0.0879 -0.8169
  158TMC2    O1 2467   1.450   2.154  13.129  0.1157  0.2612  0.6791
  158TMC2    O2 2468   1.934   2.084  12.819  0.3982 -0.0764  0.3712
  158TMC2    O5 2469   1.784   1.917  12.820 -0.6073 -0.0607  0.4644
  158TMC2    H5 2470   1.694   1.892  12.847 -0.3597 -2.8502 -1.2776
  159MPD2     C 2471   2.237   2.202  13.725 -0.1008 -0.3442  0.1645
  159MPD2    C1 2472   2.114   2.144  13.748 -0.0723  0.3997  0.1984
  159MPD2    C2 2473   2.026   2.125  13.642  0.4775 -0.3264  0.2756
  159MPD2    C3 2474   2.062   2.158  13.511  0.4006  0.5974  0.2702
  159MPD2    C4 2475   2.182   2.223  13.494 -0.9953 -0.3609 -0.1776
  159MPD2    C5 2476   2.271   2.238  13.593 -0.0452  0.4887  0.5003
  159MPD2     H 2477   1.933   2.072  13.659 -0.9135  1.8699 -0.6236
  159MPD2    H1 2478   2.223   2.253  13.398 -0.6422 -1.1955 -0.2807
  159MPD2    H2 2479   2.314   2.207  13.801 -0.0309  2.4719 -0.1108
  159MPD2    H3 2480   2.376   2.261  13.578 -0.2168  0.6271 -0.5101
  159MPD2     N 2481   1.981   2.128  13.406 -0.7258  0.1618  0.5564
  159MPD2    H5 2482   1.888   2.105  13.440  0.0713 -0.9817  1.9595
  159MPD2    N1 2483   2.092   2.115  13.885  0.6997 -0.1008  0.6168
  159MPD2    H7 2484   2.168   2.119  13.952 -0.1460 -0.5774  1.6199
  160TMC2    C1 2485   1.049   4.560   1.229 -0.3342 -0.1711 -0.6262
  160TMC2    C2 2486   1.017   4.456   1.306  0.8230  0.1017  0.1981
  160TMC2    C3 2487   1.091   4.347   1.300  0.6022 -1.1539  0.5579
  160TMC2    C4 2488   1.160   4.566   1.161 -1.1710  0.4070 -0.2720
  160TMC2    C5 2489   1.239   4.453   1.155  0.3197 -0.1115  0.3059
  160TMC2    C6 2490   1.207   4.340   1.227 -0.0087  0.2507 -0.0190
  160TMC2     C 2491   0.964   4.681   1.238 -0.8291  0.1739  0.3678
  160TMC2     O 2492   0.910   4.707   1.345  0.0146  0.0933  0.0748
  160TMC2     H 2493   0.927   4.453   1.367 -0.2972 -1.3768 -1.5189
  160TMC2    H1 2494   1.176   4.649   1.092  1.7854 -0.3293 -0.4971
  160TMC2    H2 2495   1.266   4.249   1.221  0.6721  0.5905  1.5122
  160TMC2    C7 2496   1.323   4.444   1.039  0.1357 -0.3423 -0.3898
  160TMC2    C8 2497   1.063   4.260   1.408  0.0022  0.0049 -0.4738
  160TMC2    O1 2498   1.336   4.329   0.998  0.7641 -0.2512  0.3034
  160TMC2    O2 2499   0.954   4.232   1.464 -0.3391 -0.4813 -0.3798
  160TMC2    O5 2500   1.182   4.227   1.467 -0.6082 -0.6628  0.4439
  160TMC2    H5 2501   1.264   4.249   1.417  1.1007 -1.3596  2.9121
  161MPD2     C 2502   0.903   0.249   1.234  0.4416  0.3701 -0.0758
  161MPD2    C1 2503   0.938   0.167   1.127 -0.8972  0.1759  0.1076
  161MPD2    C2 2504   0.967   0.222   1.004 -1.0113 -0.5067  0.7905
  161MPD2    C3 2505   0.949   0.358   0.983 -0.3852  0.5589  0.8700
  161MPD2    C4 2506   0.907   0.434   1.090 -0.7479  0.6932  0.1563
  161MPD2    C5 2507   0.887   0.381   1.211 -0.4787 -0.5802 -0.2816
  161MPD2     H 2508   0.983   0.155   0.921  1.2168  0.0527  0.7725
  161MPD2    H1 2509   0.897   0.541   1.078 -0.1074  0.7388  0.0628
  161MPD2    H2 2510   0.892   0.214   1.336 -0.9269  0.9301 -0.0350
  161MPD2    H3 2511   0.860   0.449   1.290  1.3728  1.7816 -1.6793
  161MPD2     N 2512   0.971   0.424   0.861  1.1401  0.0400 -0.4216
  161MPD2    H5 2513   0.932   0.517   0.860 -0.6799 -0.6896  0.7405
  161MPD2    N1 2514   0.973   0.034   1.133  0.5707 -0.3821  0.7821
  161MPD2    H7 2515   1.006   0.007   1.041  0.9023 -1.7235  1.3124
  162TMC2    C1 2516   4.349   1.996   1.192 -0.7324 -0.7963 -0.3929
  162TMC2    C2 2517   4.262   2.076   1.263  0.2192 -0.0424  0.1073
  162TMC2    C3 2518   4.311   2.139   1.375 -0.9083 -0.6762  0.1547
  162TMC2    C4 2519   4.469   1.964   1.240 -0.1215  0.3150 -0.3357
  162TMC2    C5 2520   4.509   2.023   1.358 -0.3457 -0.2904 -0.0213
  162TMC2    C6 2521   4.433   2.111   1.428  0.5717 -0.9981 -0.0374
  162TMC2     C 2522   4.324   1.977   1.048  0.0049  0.7400  0.5790
  162TMC2     O 2523   4.396   1.892   0.996 -0.3270  0.2811  0.9167
  162TMC2     H 2524   4.161   2.086   1.225  1.3688  1.7375 -2.3821
  162TMC2    H1 2525   4.542   1.916   1.176 -1.5079 -0.3889 -1.3853
  162TMC2    H2 2526   4.482   2.163   1.510  1.7242 -1.0753 -0.6771
  162TMC2    C7 2527   4.635   1.989   1.417  0.4240  0.3892 -0.3447
  162TMC2    C8 2528   4.240   2.257   1.428  0.1139 -0.0284 -0.5710
  162TMC2    O1 2529   4.702   2.073   1.471 -0.3932 -0.3059 -0.2250
  162TMC2    O2 2530   4.157   2.328   1.372  0.3618 -0.2529 -0.2515
  162TMC2    O5 2531   4.259   2.237   1.559 -0.2344  0.0259 -0.0247
  162TMC2    H5 2532   4.323   2.164   1.574  1.8032  1.4226 -1.9985
  163MPD2     C 2533   4.224   2.178   0.582  0.1411 -0.5670 -0.2232
  163MPD2    C1 2534   4.274   2.052   0.615  0.5314  0.3496 -0.0100
  163MPD2    C2 2535   4.282   2.015   0.750  0.5580 -0.4027 -1.0147
  163MPD2    C3 2536   4.225   2.095   0.851  0.3781 -0.2261 -0.0036
  163MPD2    C4 2537   4.158   2.212   0.812  0.2403 -0.0388  0.6189
  163MPD2    C5 2538   4.167   2.255   0.682  0.3381  0.7296  0.4273
  163MPD2     H 2539   4.338   1.925   0.773  0.4592 -0.5689 -1.4307
  163MPD2    H1 2540   4.111   2.281   0.881 -0.6831 -1.4990  1.4516
  163MPD2    H2 2541   4.232   2.213   0.480  3.0397 -0.5468  0.0298
  163MPD2    H3 2542   4.108   2.342   0.654  0.3596  0.0177 -1.8000
  163MPD2     N 2543   4.243   2.072   0.991  0.0317 -0.6240  0.5082
  163MPD2    H5 2544   4.211   2.148   1.051  3.2782 -0.7420  2.4075
  163MPD2    N1 2545   4.325   1.971   0.514  0.3113  0.1252 -0.2381
  163MPD2    H7 2546   4.314   2.006   0.419 -0.3946 -1.6070 -0.8108
  164TMC2    C1 2547   4.563   1.329  10.859  0.4682 -0.9271 -0.0537
  164TMC2    C2 2548   4.634   1.355  10.743  0.0298  0.4248 -0.0484
  164TMC2    C3 2549   4.609   1.470  10.679 -0.3227  0.2447 -0.1807
  164TMC2    C4 2550   4.470   1.416  10.899 -0.2538  0.0305 -1.0503
  164TMC2    C5 2551   4.440   1.531  10.833  0.5830 -0.7475  0.0547
  164TMC2    C6 2552   4.513   1.561  10.721 -0.3595 -0.3722  0.3955
  164TMC2     C 2553   4.585   1.213  10.943 -0.2248  0.2211 -0.2017
  164TMC2     O 2554   4.565   1.218  11.062  0.8427 -0.6218  0.3478
  164TMC2     H 2555   4.708   1.287  10.703  1.0740  1.7858 -0.4452
  164TMC2    H1 2556   4.413   1.391  10.988  2.6068 -1.4594  0.3342
  164TMC2    H2 2557   4.496   1.648  10.659  3.5026 -0.3992 -0.6724
  164TMC2    C7 2558   4.364   1.636  10.889 -0.1240  0.1118 -0.2498
  164TMC2    C8 2559   4.681   1.507  10.564 -0.1478  0.2403 -0.5383
  164TMC2    O1 2560   4.303   1.611  10.991  0.6658  0.3919  0.1209
  164TMC2    O2 2561   0.067   1.518  10.560 -0.3808 -0.1995  0.0583
  164TMC2    O5 2562   4.590   1.501  10.465  0.1281  0.3213  0.0160
  164TMC2    H5 2563   4.501   1.471  10.492  0.2598 -0.8117 -0.7914
  165TMC2    C1 2564   0.866   3.614   0.721 -0.8953  0.1966 -0.0943
  165TMC2    C2 2565   0.937   3.564   0.616  0.6899  0.0239 -0.4817
  165TMC2    C3 2566   1.058   3.618   0.602 -0.0940  0.4461 -0.3346
  165TMC2    C4 2567   0.914   3.708   0.809  0.1439 -0.6802 -0.0952
  165TMC2    C5 2568   1.037   3.765   0.780  0.0385  0.1919 -0.3906
  165TMC2    C6 2569   1.102   3.721   0.670 -0.5039 -0.2185  0.2598
  165TMC2     C 2570   0.730   3.569   0.730 -0.0471 -0.0970 -0.2952
  165TMC2     O 2571   0.709   3.457   0.685 -0.5233 -0.1024  0.1233
  165TMC2     H 2572   0.896   3.498   0.540 -0.2887 -0.1096  0.1587
  165TMC2    H1 2573   0.848   3.745   0.887  2.2675  1.6281  0.6052
  165TMC2    H2 2574   1.192   3.765   0.630  0.0607 -2.2975 -0.7353
  165TMC2    C7 2575   1.115   3.834   0.881  0.1358 -0.3554 -0.3345
  165TMC2    C8 2576   1.146   3.580   0.501 -0.0758 -0.0932  0.0463
  165TMC2    O1 2577   1.213   3.892   0.827 -0.2974 -0.1948  0.1378
  165TMC2    O2 2578   1.190   3.643   0.409  0.3443 -0.1190 -0.5252
  165TMC2    O5 2579   1.107   3.451   0.479 -0.5251  0.1821 -0.4693
  165TMC2    H5 2580   1.098   3.404   0.565 -1.1306  1.6711  0.2779
  166MPD2     C 2581   0.222   3.615   0.795  0.0864 -0.5440 -0.4980
  166MPD2    C1 2582   0.295   3.505   0.753  0.5634 -0.3373 -0.5072
  166MPD2    C2 2583   0.429   3.521   0.750 -0.6746  0.0066 -0.8774
  166MPD2    C3 2584   0.498   3.636   0.795 -0.1810 -0.4342  0.2896
  166MPD2    C4 2585   0.426   3.739   0.848  0.0824  0.1947 -0.6142
  166MPD2    C5 2586   0.290   3.725   0.851 -0.3570 -0.6911 -0.7815
  166MPD2     H 2587   0.486   3.437   0.712  0.5180 -1.0018  3.0667
  166MPD2    H1 2588   0.464   3.825   0.901  0.3672 -0.8728  0.9272
  166MPD2    H2 2589   0.115   3.608   0.811  0.5006 -1.7542  1.7506
  166MPD2    H3 2590   0.236   3.813   0.886 -1.2553 -1.6234  0.1977
  166MPD2     N 2591   0.638   3.647   0.790 -0.3361 -0.2294 -0.0192
  166MPD2    H5 2592   0.668   3.741   0.813 -0.2422 -0.6370  1.4986
  166MPD2    N1 2593   0.228   3.387   0.731  0.3618  0.2741  0.0429
  166MPD2    H7 2594   0.128   3.387   0.748  0.2543  1.7420 -0.6204
  167TMC2    C1 2595   3.780   1.979  12.738 -0.1479 -0.3922 -0.7582
  167TMC2    C2 2596   3.710   2.047  12.838 -0.2181  0.1456  0.1547
  167TMC2    C3 2597   3.668   1.968  12.943 -0.0480 -0.3079 -0.4045
  167TMC2    C4 2598   3.823   1.854  12.756  0.4271  0.7233 -0.3694
  167TMC2    C5 2599   3.800   1.788  12.875 -0.1322  0.6830 -0.1626
  167TMC2    C6 2600   3.713   1.844  12.960  0.2218 -0.2781 -0.0771
  167TMC2     C 2601   3.834   2.071  12.637  0.4990  0.4197 -0.4473
  167TMC2     O 2602   3.781   2.181  12.636  0.6804 -0.1103 -0.3192
  167TMC2     H 2603   3.673   2.148  12.823 -0.9961 -0.0991  0.4552
  167TMC2    H1 2604   3.882   1.797  12.685  0.5701  0.4389 -0.0248
  167TMC2    H2 2605   3.670   1.796  13.048 -0.1194  1.1637  0.5513
  167TMC2    C7 2606   3.837   1.654  12.908  0.4135  0.4367 -0.1783
  167TMC2    C8 2607   3.609   2.033  13.061  0.5748  0.6532 -0.0148
  167TMC2    O1 2608   3.788   1.603  13.006  0.5591 -0.2241  0.3656
  167TMC2    O2 2609   3.638   1.996  13.172  0.3923  0.2387 -0.0785
  167TMC2    O5 2610   3.554   2.155  13.033 -0.9091  0.1274  0.4107
  167TMC2    H5 2611   3.511   2.144  12.946 -1.6734  1.0860  0.6750
  168MPD2     C 2612   4.021   2.254  12.504  0.8589  0.3215 -0.2284
  168MPD2    C1 2613   4.027   2.116  12.492 -0.2096 -0.5361 -0.0185
  168MPD2    C2 2614   4.127   2.059  12.417  0.3486  0.5166 -0.9664
  168MPD2    C3 2615   4.209   2.137  12.341  0.3473 -0.1598  0.0406
  168MPD2    C4 2616   4.205   2.278  12.358 -0.1489 -0.2636  0.2278
  168MPD2    C5 2617   4.125   2.335  12.453  0.4752  0.8013 -0.3372
  168MPD2     H 2618   4.132   1.951  12.415 -0.9834  0.4482 -0.4873
  168MPD2    H1 2619   4.268   2.342  12.298 -2.5636  2.2226  0.3415
  168MPD2    H2 2620   3.961   2.309  12.575  0.3169  0.8863 -1.1294
  168MPD2    H3 2621   4.120   2.443  12.463  0.7109  0.8612 -0.8296
  168MPD2     N 2622   4.291   2.084  12.242 -0.4313 -0.0875  0.2278
  168MPD2    H5 2623   4.327   2.156  12.179  0.8720  0.5544  1.6970
  168MPD2    N1 2624   3.946   2.026  12.567 -0.8029  0.0469  0.2709
  168MPD2    H7 2625   3.977   1.930  12.576 -1.6319 -0.1120  1.4917
  169MPD1     C 2626   0.639   1.496   9.204 -0.0563 -0.0046 -0.6026
  169MPD1    C1 2627   0.754   1.570   9.217  0.0675  0.2095  0.0419
  169MPD1    C2 2628   0.865   1.522   9.280 -0.1630  0.9713 -0.1995
  169MPD1    C3 2629   0.859   1.395   9.339  0.2455 -0.3316  0.0474
  169MPD1    C4 2630   0.742   1.326   9.333 -0.1436 -0.1031 -0.0669
  169MPD1    C5 2631   0.632   1.378   9.270  0.5420 -0.1039 -0.5020
  169MPD1     H 2632   0.947   1.592   9.283  1.8532 -1.3618 -0.5754
  169MPD1    H1 2633   0.716   1.234   9.384 -0.9354  1.4167  2.2338
  169MPD1    H2 2634   0.551   1.526   9.148 -0.3336  1.0897  0.4036
  169MPD1    H3 2635   0.540   1.322   9.265 -0.0022  0.7168  0.4139
  169MPD1     N 2636   0.968   1.350   9.419  0.1547 -0.2213 -0.1936
  169MPD1    H5 2637   1.048   1.411   9.425  0.9519 -1.0801 -2.1354
  169MPD1    N1 2638   0.746   1.708   9.175  0.5423  0.1178  0.1788
  169MPD1    H6 2639   0.671   1.731   9.110 -0.7620 -1.8830  0.9479
  169MPD1    H7 2640   0.832   1.755   9.149  0.6584  0.8019  1.8030
  170MPD1     C 2641   0.822   3.976  13.124 -0.1170  0.2309 -0.0859
  170MPD1    C1 2642   0.708   3.927  13.067  0.1856 -0.0100  0.2714
  170MPD1    C2 2643   0.588   3.959  13.135 -0.1261  0.1980 -0.1364
  170MPD1    C3 2644   0.589   4.008  13.266 -0.1461 -0.5831 -0.3699
  170MPD1    C4 2645   0.713   4.046  13.318  0.1408 -0.2763 -0.1747
  170MPD1    C5 2646   0.828   4.033  13.244  0.0222 -0.2657 -0.4454
  170MPD1     H 2647   0.494   3.923  13.095  0.9663 -2.5610 -0.1948
  170MPD1    H1 2648   0.717   4.080  13.421  2.4439 -0.5810 -0.1610
  170MPD1    H2 2649   0.919   3.954  13.081  0.7876 -0.2865  2.2199
  170MPD1    H3 2650   0.921   4.064  13.289 -1.5167  0.9461  1.8888
  170MPD1     N 2651   0.468   4.004  13.347 -0.0332  0.0651 -0.2874
  170MPD1    H5 2652   0.390   3.956  13.302 -0.0544  0.7815 -1.0282
  170MPD1    N1 2653   0.707   3.870  12.939 -0.3208  0.3136  0.1111
  170MPD1    H6 2654   0.778   3.799  12.920 -2.6426 -2.2790  1.0927
  170MPD1    H7 2655   0.621   3.822  12.914  0.9473 -0.9384 -1.8522
  171MPD1     C 2656   3.506   0.372  15.614 -0.2947 -0.1898 -0.3042
  171MPD1    C1 2657   3.439   0.254  15.629 -0.0389 -0.1235 -0.4233
  171MPD1    C2 2658   3.483   0.154  15.717  0.4222 -0.6837  0.2896
  171MPD1    C3 2659   3.610   0.157  15.771 -0.4353  0.2925 -0.3256
  171MPD1    C4 2660   3.672   0.279  15.768  1.0413 -0.2014  0.3547
  171MPD1    C5 2661   3.619   0.376  15.692 -0.5415  0.2974 -0.7981
  171MPD1     H 2662   3.431   0.060  15.732  2.6019 -1.7673  0.9342
  171MPD1    H1 2663   3.764   0.284  15.826  1.9166 -2.1185 -0.8429
  171MPD1    H2 2664   3.481   0.457  15.552 -1.3803 -0.1921  0.1356
  171MPD1    H3 2665   3.674   0.468  15.704 -0.1061 -0.2512  1.3035
  171MPD1     N 2666   3.660   0.053  15.839 -0.1472 -0.0064  0.3516
  171MPD1    H5 2667   3.754   0.071  15.874  0.0576 -1.0576  0.3611
  171MPD1    N1 2668   3.317   0.229  15.560  0.0319 -0.1211 -0.0662
  171MPD1    H6 2669   3.291   0.131  15.558 -2.4602  0.5596 -0.4695
  171MPD1    H7 2670   3.319   0.251  15.461  2.0311 -0.4640 -0.1058
  172MPD1     C 2671   2.998   4.265   0.041  0.0423  0.5371  0.3431
  172MPD1    C1 2672   2.925   4.377  17.740  0.4400  0.5680 -0.1919
  172MPD1    C2 2673   2.964   4.504   0.033 -0.2111  0.2254  0.6379
  172MPD1    C3 2674   3.069   4.516   0.124 -0.3788  0.4723 -0.1259
  172MPD1    C4 2675   3.137   4.405   0.171  0.2168 -0.4084 -0.1906
  172MPD1    C5 2676   3.100   4.282   0.131  0.2155  0.6575  0.1872
  172MPD1     H 2677   2.899   4.586   0.004  1.2360  1.1252 -0.0740
  172MPD1    H1 2678   3.223   4.418   0.235 -0.2325 -1.5122  0.6505
  172MPD1    H2 2679   2.973   4.163   0.013 -0.3882  0.7010  0.1287
  172MPD1    H3 2680   3.160   4.198   0.165 -0.7993 -0.3984 -0.6234
  172MPD1     N 2681   3.104   4.644   0.181 -0.1225  0.5356  0.2968
  172MPD1    H5 2682   3.171   4.639   0.257 -0.6383  0.1657  0.7282
  172MPD1    N1 2683   2.804   4.347  17.677 -0.5120  0.3298  0.6779
  172MPD1    H6 2684   2.775   4.418  17.609  3.7002  1.6697  0.2852
  172MPD1    H7 2685   2.818   4.258  17.631  2.5348  1.0517  0.1990
  173MPD1     C 2686   4.232   0.145  13.948 -0.5583  0.1092 -0.1614
  173MPD1    C1 2687   4.303   0.037  13.914  0.8459 -0.4286 -0.4006
  173MPD1    C2 2688   4.283   4.667  13.992 -0.0784  0.3058  0.0672
  173MPD1    C3 2689   4.192   4.654  14.097 -0.5599 -0.5978  0.0959
  173MPD1    C4 2690   4.110   0.024  14.113 -0.3145  0.5866 -0.3039
  173MPD1    C5 2691   4.126   0.137  14.034  0.1599  0.6840 -0.3027
  173MPD1     H 2692   4.345   4.578  13.982  0.4642  0.6104  0.7292
  173MPD1    H1 2693   4.047   0.029  14.201 -0.1909  1.2858 -0.2542
  173MPD1    H2 2694   4.264   0.240  13.908 -1.3241  1.2494  1.8922
  173MPD1    H3 2695   4.052   0.216  14.032  0.4475  0.9705  0.2771
  173MPD1     N 2696   4.191   4.534  14.174 -0.1240 -0.3816  0.0877
  173MPD1    H5 2697   4.262   4.463  14.158 -1.4450 -1.7532  0.3093
  173MPD1    N1 2698   4.422   0.054  13.837 -0.1571  0.6594 -0.0694
  173MPD1    H6 2699   4.402   0.121  13.762 -1.2699  0.8539  0.3897
  173MPD1    H7 2700   4.445   4.702  13.796  2.2434  0.5154  1.6470
  174MPD1     C 2701   0.159   4.157  14.396 -0.1175 -0.2041  0.4481
  174MPD1    C1 2702   0.091   4.128  14.516 -0.0412 -0.5620  0.3431
  174MPD1    C2 2703   4.692   4.156  14.530  0.3762  0.3420  0.1148
  174MPD1    C3 2704   4.627   4.193  14.413  0.0028 -0.4237  0.1221
  174MPD1    C4 2705   4.697   4.215  14.299 -0.1430  0.0809  0.1391
  174MPD1    C5 2706   0.094   4.204  14.291 -0.9826  1.0430  0.1979
  174MPD1     H 2707   4.633   4.150  14.620  2.3138  1.7838  1.5011
  174MPD1    H1 2708   4.657   4.238  14.201 -1.9795  0.4304  0.9643
  174MPD1    H2 2709   0.265   4.155  14.372 -0.8545  2.4626 -3.1861
  174MPD1    H3 2710   0.141   4.242  14.201  0.1626 -1.0124 -0.0621
  174MPD1     N 2711   4.486   4.222  14.401  0.0063 -0.7750  0.1964
  174MPD1    H5 2712   4.454   4.241  14.306  0.2872  0.9288  0.4352
  174MPD1    N1 2713   0.168   4.085  14.627 -1.1538  0.2088 -0.3076
  174MPD1    H6 2714   0.128   4.013  14.686  0.2752  0.3304  0.7926
  174MPD1    H7 2715   0.258   4.044  14.602 -1.4380 -1.1904  1.0200
  175MPD1     C 2716   2.077   4.463  16.181 -0.2905  0.4993 -0.2581
  175MPD1    C1 2717   2.051   4.560  16.085 -0.2737  0.0370  0.4758
  175MPD1    C2 2718   2.103   4.684  16.106  0.1220  0.6099 -0.1691
  175MPD1    C3 2719   2.184   4.719  16.212 -0.1014 -0.2553  0.0702
  175MPD1    C4 2720   2.208   4.620  16.301 -0.2887  0.3961  0.7647
  175MPD1    C5 2721   2.160   4.495  16.283 -0.3953 -0.0092  0.0149
  175MPD1     H 2722   2.071   0.022  16.036 -0.8691  0.9364  0.6476
  175MPD1    H1 2723   2.271   4.635  16.388  2.4852 -0.6263 -1.0727
  175MPD1    H2 2724   2.048   4.359  16.169 -0.0700  0.4772 -0.6384
  175MPD1    H3 2725   2.184   4.424  16.362 -0.6023 -1.6358 -1.4021
  175MPD1     N 2726   2.243   0.110  16.235  0.0990 -0.2914  0.4173
  175MPD1    H5 2727   2.281   0.128  16.328 -2.8369  1.4050  1.2692
  175MPD1    N1 2728   1.949   4.533  15.990  0.2181  0.0332 -0.0042
  175MPD1    H6 2729   1.972   4.575  15.900 -0.8733  0.4382 -0.0945
  175MPD1    H7 2730   1.933   4.436  15.963  0.6820  0.1403 -0.6836
  176MPD1     C 2731   4.256   1.849  16.220  0.0920 -0.5891 -0.2264
  176MPD1    C1 2732   4.226   1.796  16.342 -0.5880  0.0793  0.3094
  176MPD1    C2 2733   4.249   1.882  16.442  0.3231 -0.2190 -0.5221
  176MPD1    C3 2734   4.307   2.003  16.432  0.0693 -0.8359  0.0482
  176MPD1    C4 2735   4.351   2.042  16.315 -0.2988  0.5815  0.2313
  176MPD1    C5 2736   4.325   1.964  16.208  0.4756  0.0250  0.1795
  176MPD1     H 2737   4.214   1.859  16.542 -1.5342 -0.8165 -1.3224
  176MPD1    H1 2738   4.398   2.139  16.305 -0.6321  0.9048  1.7687
  176MPD1    H2 2739   4.233   1.801  16.125 -1.6653  0.3727 -0.2925
  176MPD1    H3 2740   4.350   1.996  16.108 -0.6751  1.4556  0.3496
  176MPD1     N 2741   4.327   2.072  16.552 -0.3168 -0.0502  0.1902
  176MPD1    H5 2742   4.291   2.038  16.641  0.8671 -0.0028  0.6830
  176MPD1    N1 2743   4.151   1.682  16.353 -0.3179 -0.1452 -0.5216
  176MPD1    H6 2744   4.169   1.637  16.443 -0.5371  0.4067 -0.1996
  176MPD1    H7 2745   4.161   1.614  16.278  3.8528  1.0177 -1.0092
  177MPD1     C 2746   1.904   3.271   9.310 -0.5134 -0.9308  0.2374
  177MPD1    C1 2747   1.788   3.213   9.353  0.0563  0.2237  0.4507
  177MPD1    C2 2748   1.782   3.076   9.367  0.1782  0.2733 -0.1178
  177MPD1    C3 2749   1.890   2.997   9.331 -0.9038  0.2700 -0.9256
  177MPD1    C4 2750   2.006   3.051   9.291  0.1622  0.3210  0.3574
  177MPD1    C5 2751   2.015   3.190   9.289 -0.2928 -0.0598 -0.2480
  177MPD1     H 2752   1.690   3.025   9.394  1.1823 -0.8450  1.2100
  177MPD1    H1 2753   2.091   2.992   9.257 -2.0379 -2.4675 -0.3819
  177MPD1    H2 2754   1.899   3.377   9.288 -1.6840 -1.3692 -1.6833
  177MPD1    H3 2755   2.104   3.245   9.261  1.3177 -2.2210  0.5925
  177MPD1     N 2756   1.873   2.853   9.333 -1.1031 -0.4964 -0.0190
  177MPD1    H5 2757   1.788   2.816   9.374 -0.5231 -0.1373  1.5119
  177MPD1    N1 2758   1.669   3.291   9.364 -0.0959 -0.1077 -0.5759
  177MPD1    H6 2759   1.687   3.383   9.404 -1.0867  0.0668 -0.5429
  177MPD1    H7 2760   1.599   3.247   9.423 -1.7745  0.1244 -2.4179
  178MPD1     C 2761   0.027   2.897   0.282  0.7758 -0.6900  0.2605
  178MPD1    C1 2762   4.720   2.820   0.176 -0.0690  0.5846  0.3408
  178MPD1    C2 2763   0.026   2.843   0.043  0.2442  0.6019  0.8774
  178MPD1    C3 2764   0.111   2.950   0.013 -0.1204 -0.4810  0.2945
  178MPD1    C4 2765   0.156   3.023   0.121  0.4060 -0.4004  0.5551
  178MPD1    C5 2766   0.115   2.996   0.249 -0.4370  0.2673  0.1741
  178MPD1     H 2767   4.735   2.774  17.713  1.8454  0.9072  0.0200
  178MPD1    H1 2768   0.219   3.112   0.114 -1.0621  0.5578 -0.5030
  178MPD1    H2 2769   0.004   2.886   0.387  2.6769  1.9454  0.9446
  178MPD1    H3 2770   0.151   3.047   0.338  2.9801  0.1023 -1.1129
  178MPD1     N 2771   0.158   2.968  17.627 -0.0892 -0.2378  0.4285
  178MPD1    H5 2772   0.221   3.047  17.615 -2.0997  0.9785 -2.1828
  178MPD1    N1 2773   4.647   2.709   0.206  0.5806 -0.9763 -0.6262
  178MPD1    H6 2774   4.584   2.685   0.130 -0.4406  1.4193 -0.5346
  178MPD1    H7 2775   4.593   2.724   0.291 -1.0234 -1.4700 -1.5730
  179MPD1     C 2776   4.593   1.533  15.056 -0.0927  0.9622  0.6311
  179MPD1    C1 2777   4.664   1.415  15.059 -0.0659  0.2230 -0.3234
  179MPD1    C2 2778   4.617   1.326  15.156  0.3355  0.1780 -0.5802
  179MPD1    C3 2779   4.506   1.344  15.232  0.1205 -0.1633  0.5474
  179MPD1    C4 2780   4.428   1.449  15.208  0.4593 -0.1913 -0.6667
  179MPD1    C5 2781   4.477   1.548  15.124  0.2717 -0.1808 -0.0158
  179MPD1     H 2782   4.676   1.236  15.170 -5.3997 -3.6958 -1.1908
  179MPD1    H1 2783   4.329   1.469  15.247  0.5747 -3.3503  1.2407
  179MPD1    H2 2784   4.631   1.617  14.998  0.0108  0.6369  0.2281
  179MPD1    H3 2785   4.412   1.634  15.113 -1.8419 -1.6022  1.5161
  179MPD1     N 2786   4.467   1.258  15.337  0.5477  0.1246  0.3306
  179MPD1    H5 2787   4.374   1.272  15.375 -0.0960  1.3074 -1.6494
  179MPD1    N1 2788   0.050   1.387  14.995  0.2871  0.3456  0.0362
  179MPD1    H6 2789   0.059   1.442  14.911  1.3782 -1.7335 -1.2077
  179MPD1    H7 2790   0.060   1.288  14.975  0.5901  0.6003 -1.0157
  180MPD1     C 2791   0.059   2.801  14.718 -0.8316 -0.2342  0.4062
  180MPD1    C1 2792   0.069   2.842  14.588  0.1334  0.6389 -0.1866
  180MPD1    C2 2793   4.686   2.841  14.518 -0.1546 -0.1780  0.0744
  180MPD1    C3 2794   4.562   2.826  14.575 -0.0613 -0.1627  0.0426
  180MPD1    C4 2795   4.556   2.782  14.708 -0.3053 -0.8074  0.0819
  180MPD1    C5 2796   4.672   2.772  14.772  0.1507  0.8943 -0.0305
  180MPD1     H 2797   4.682   2.882  14.417  1.7098  0.1437  0.1227
  180MPD1    H1 2798   4.463   2.774  14.763 -0.1314  2.0040  0.8049
  180MPD1    H2 2799   0.144   2.792  14.785  0.6110 -1.1285 -1.5602
  180MPD1    H3 2800   4.674   2.733  14.873 -2.0508 -0.7858 -0.6603
  180MPD1     N 2801   4.447   2.864  14.504 -0.4212 -0.3783  0.1914
  180MPD1    H5 2802   4.457   2.902  14.410  1.1138 -3.1908 -0.7674
  180MPD1    N1 2803   0.186   2.860  14.523 -0.0893  0.0527  0.3473
  180MPD1    H6 2804   0.265   2.886  14.582 -0.6520  2.0384  0.2109
  180MPD1    H7 2805   0.184   2.925  14.444 -1.1283  0.4222  0.6826
  181MPD1     C 2806   4.608   3.883   9.764  0.3252  0.5865  0.1888
  181MPD1    C1 2807   4.616   4.013   9.719 -0.0582 -0.3953 -0.0500
  181MPD1    C2 2808   4.737   4.085   9.730  0.1771  0.2088  0.2291
  181MPD1    C3 2809   0.108   4.029   9.801 -0.8265 -0.0059  0.2769
  181MPD1    C4 2810   0.104   3.896   9.847  0.2220  0.9561 -0.1721
  181MPD1    C5 2811   4.720   3.826   9.823 -0.0446  0.0313  0.1311
  181MPD1     H 2812   0.005   4.182   9.684 -1.9027  0.3454  0.2469
  181MPD1    H1 2813   0.187   3.852   9.901 -0.2353  1.9770  1.3752
  181MPD1    H2 2814   4.517   3.825   9.764  0.5586  0.2132  1.2830
  181MPD1    H3 2815   4.705   3.728   9.866 -3.1917  0.0099 -1.0042
  181MPD1     N 2816   0.226   4.110   9.816  0.1960 -0.5097  0.4348
  181MPD1    H5 2817   0.310   4.072   9.858 -0.1510 -2.4198 -0.5684
  181MPD1    N1 2818   4.521   4.080   9.640 -0.3370 -1.0168  0.0129
  181MPD1    H6 2819   4.432   4.053   9.680  0.9270 -0.7470  2.9796
  181MPD1    H7 2820   4.541   4.179   9.629 -2.2439 -0.7084 -0.5281
  182MPD1     C 2821   2.423   3.634   1.479  0.5006  0.0332  0.4688
  182MPD1    C1 2822   2.475   3.585   1.360  0.3239 -0.0525 -0.0797
  182MPD1    C2 2823   2.405   3.601   1.241  0.3482 -0.9004 -0.2873
  182MPD1    C3 2824   2.269   3.638   1.247  0.2723  0.6394  0.5120
  182MPD1    C4 2825   2.222   3.698   1.363 -0.1891  0.2845  0.3542
  182MPD1    C5 2826   2.306   3.696   1.474 -0.3429  0.2357 -0.9482
  182MPD1     H 2827   2.449   3.555   1.153 -1.0309  0.7250 -1.8382
  182MPD1    H1 2828   2.129   3.753   1.359  0.1376  0.5257 -3.8480
  182MPD1    H2 2829   2.481   3.626   1.570  0.0336 -0.2145  0.7423
  182MPD1    H3 2830   2.265   3.752   1.558  0.3760  1.1233 -1.1884
  182MPD1     N 2831   2.178   3.638   1.142  0.5200  0.2763 -0.1387
  182MPD1    H5 2832   2.085   3.669   1.169 -0.3599 -2.5699  0.1286
  182MPD1    N1 2833   2.611   3.557   1.356 -0.4910  0.0949 -0.7019
  182MPD1    H6 2834   2.634   3.487   1.286 -1.8754 -0.5292 -0.5312
  182MPD1    H7 2835   2.643   3.525   1.447  0.4392  0.2996 -0.9538
  183MPD1     C 2836   1.648   2.532   9.085  0.8012 -0.2758 -0.1152
  183MPD1    C1 2837   1.557   2.611   9.141  0.0680  0.0811  0.1787
  183MPD1    C2 2838   1.576   2.752   9.136 -0.3064 -0.4191  0.9408
  183MPD1    C3 2839   1.666   2.811   9.051 -0.0525 -0.0779 -0.4815
  183MPD1    C4 2840   1.752   2.717   8.986  0.3310  0.9591  0.1012
  183MPD1    C5 2841   1.748   2.580   9.012 -0.1978  0.4996  0.3513
  183MPD1     H 2842   1.517   2.822   9.194  0.1678  0.6597  0.1086
  183MPD1    H1 2843   1.819   2.761   8.913  0.9904  0.5735  0.4693
  183MPD1    H2 2844   1.648   2.425   9.102 -0.1555 -0.6505 -2.4464
  183MPD1    H3 2845   1.819   2.516   8.961 -0.0589  1.8303 -1.1552
  183MPD1     N 2846   1.670   2.947   9.033 -0.5971 -0.4707  0.5502
  183MPD1    H5 2847   1.620   3.010   9.096 -1.4517 -0.5108 -0.0855
  183MPD1    N1 2848   1.458   2.552   9.218  0.0315 -0.1995 -0.6353
  183MPD1    H6 2849   1.407   2.614   9.280  1.6459  0.5340 -0.0557
  183MPD1    H7 2850   1.494   2.478   9.279 -0.7206 -0.1779 -0.1637
  184MPD1     C 2851   1.063   2.049  10.324 -0.1975 -0.7798  0.2258
  184MPD1    C1 2852   1.033   2.001  10.201 -0.8498 -0.8276 -0.3113
  184MPD1    C2 2853   1.085   2.070  10.092  0.0719 -0.8531  0.7417
  184MPD1    C3 2854   1.147   2.190  10.104 -0.1708  0.0722 -0.7256
  184MPD1    C4 2855   1.183   2.236  10.225 -0.2431  0.2058 -0.1658
  184MPD1    C5 2856   1.136   2.162  10.339  0.1322 -0.3471 -0.0517
  184MPD1     H 2857   1.062   2.035   9.992  0.1756  0.2468  0.3426
  184MPD1    H1 2858   1.239   2.326  10.248  0.3181 -0.1226 -0.2518
  184MPD1    H2 2859   1.042   1.992  10.414  2.2608  2.0587  2.6207
  184MPD1    H3 2860   1.163   2.196  10.438  0.0430 -3.7072  1.1209
  184MPD1     N 2861   1.212   2.255  10.000 -0.0860 -0.3231 -0.3555
  184MPD1    H5 2862   1.283   2.320  10.031  0.3158 -0.3495 -1.2130
  184MPD1    N1 2863   0.985   1.871  10.185  0.4746 -0.2514  0.5113
  184MPD1    H6 2864   0.929   1.836  10.263 -3.1402  0.0285 -1.9709
  184MPD1    H7 2865   0.949   1.845  10.093 -1.2789  1.9130  0.5994
  185MPD1     C 2866   1.667   1.828   9.277 -0.4948  0.7843 -0.2274
  185MPD1    C1 2867   1.663   1.955   9.223 -0.2662  0.5027 -0.5342
  185MPD1    C2 2868   1.584   2.046   9.285 -0.0098 -0.3625  0.1475
  185MPD1    C3 2869   1.536   2.025   9.418 -0.0493 -0.3254 -0.0748
  185MPD1    C4 2870   1.553   1.896   9.477  0.2290  0.6086 -0.2317
  185MPD1    C5 2871   1.622   1.806   9.404 -0.2886  0.0514  0.3721
  185MPD1     H 2872   1.560   2.144   9.247 -0.7990  0.7958  3.5740
  185MPD1    H1 2873   1.517   1.876   9.577  3.0713  0.4044  0.7368
  185MPD1    H2 2874   1.727   1.745   9.240 -1.4471  0.3597 -0.8339
  185MPD1    H3 2875   1.644   1.708   9.445 -1.3453 -0.1889  0.3662
  185MPD1     N 2876   1.470   2.126   9.493 -0.3089  0.2281  0.3058
  185MPD1    H5 2877   1.433   2.100   9.584 -1.4035 -1.3181 -0.5829
  185MPD1    N1 2878   1.716   1.969   9.097 -0.3333 -0.1736 -0.0747
  185MPD1    H6 2879   1.790   1.899   9.091 -0.5567 -0.2151 -2.2614
  185MPD1    H7 2880   1.746   2.063   9.071  0.6106 -0.4974 -0.1738
  186MPD1     C 2881   0.126   1.349  15.414  0.2624 -0.2455 -0.6951
  186MPD1    C1 2882   0.169   1.478  15.410  0.1279 -0.6530 -0.4416
  186MPD1    C2 2883   0.255   1.525  15.514 -0.3011 -1.1118  0.0495
  186MPD1    C3 2884   0.278   1.443  15.622  0.2174  1.0765  0.1073
  186MPD1    C4 2885   0.230   1.319  15.638 -0.0592  0.3026  0.1834
  186MPD1    C5 2886   0.152   1.273  15.532 -0.6445 -0.3919 -0.6858
  186MPD1     H 2887   0.302   1.621  15.499 -3.0846  0.0558 -1.0105
  186MPD1    H1 2888   0.251   1.244  15.713  0.7683 -1.0105 -1.3557
  186MPD1    H2 2889   0.071   1.301  15.334 -2.2562 -0.5166  1.2212
  186MPD1    H3 2890   0.116   1.171  15.540 -0.4625 -0.3315  1.0372
  186MPD1     N 2891   0.354   1.484  15.734 -0.4827  1.0781  0.1869
  186MPD1    H5 2892   0.368   1.421  15.812  0.1854 -0.8673 -1.4707
  186MPD1    N1 2893   0.116   1.561  15.308 -0.0411  0.5635 -0.1071
  186MPD1    H6 2894   0.099   1.518  15.217  0.9005 -0.9603  0.4536
  186MPD1    H7 2895   0.170   1.645  15.288  0.6812 -0.3305 -1.8821
  187MPD1     C 2896   3.664   3.442   0.260  0.6476  0.4935 -0.7085
  187MPD1    C1 2897   3.710   3.566   0.223 -0.2106 -0.8722  0.3060
  187MPD1    C2 2898   3.786   3.581   0.108 -0.0376  0.1243 -0.5134
  187MPD1    C3 2899   3.810   3.470   0.029  0.5915 -0.5038 -0.2979
  187MPD1    C4 2900   3.766   3.346   0.067 -0.0197 -0.3269  0.3892
  187MPD1    C5 2901   3.699   3.332   0.187 -0.8382  0.0503  1.0242
  187MPD1     H 2902   3.836   3.674   0.084 -2.0150  1.5488  0.9241
  187MPD1    H1 2903   3.782   3.264  17.747 -1.9085  0.4394 -0.9578
  187MPD1    H2 2904   3.609   3.437   0.353  1.0501 -0.1594 -0.5081
  187MPD1    H3 2905   3.666   3.232   0.210 -0.5218  0.1967  2.1012
  187MPD1     N 2906   3.879   3.471  17.653 -0.4109 -0.0189 -0.3281
  187MPD1    H5 2907   3.877   3.380  17.609 -1.9415 -1.5224  2.7978
  187MPD1    N1 2908   3.695   3.670   0.318 -0.4099  0.1545 -0.1378
  187MPD1    H6 2909   3.679   3.752   0.260  2.0287  0.8007  0.0721
  187MPD1    H7 2910   3.612   3.650   0.372 -1.1485  0.3684 -1.1912
  188MPD1     C 2911   3.512   3.040  10.006 -0.1435  0.2012 -0.0331
  188MPD1    C1 2912   3.620   3.041  10.094 -0.4166  0.3272  0.3292
  188MPD1    C2 2913   3.633   2.932  10.175  0.1609 -0.7067  0.1860
  188MPD1    C3 2914   3.532   2.834  10.183  0.8479 -0.5226 -0.1083
  188MPD1    C4 2915   3.433   2.834  10.093 -0.2925  0.2248  0.3300
  188MPD1    C5 2916   3.421   2.938  10.002 -0.7978  0.2745  0.2685
  188MPD1     H 2917   3.719   2.925  10.241  0.1227  0.8430  0.4095
  188MPD1    H1 2918   3.365   2.750  10.079 -0.5342  0.0846  2.4071
  188MPD1    H2 2919   3.490   3.124   9.942  0.0343 -0.9017 -1.5493
  188MPD1    H3 2920   3.335   2.941   9.937 -1.2550  0.3175  0.8728
  188MPD1     N 2921   3.538   2.710  10.257 -0.0951  0.1908  0.2660
  188MPD1    H5 2922   3.462   2.644  10.249  0.1188 -0.2670  2.0099
  188MPD1    N1 2923   3.724   3.138  10.091  0.0717  0.5435 -0.5203
  188MPD1    H6 2924   3.691   3.220  10.041  0.0010  0.7433 -0.1474
  188MPD1    H7 2925   3.780   3.159  10.173  0.7314  1.3888 -1.1878
  189MPD1     C 2926   1.137   4.037   0.297 -0.1045  0.3917 -0.3168
  189MPD1    C1 2927   1.003   4.013   0.322 -0.3654  0.2512  0.4630
  189MPD1    C2 2928   0.905   4.106   0.284  0.1136  0.0276  0.3588
  189MPD1    C3 2929   0.943   4.235   0.243  0.6690 -0.5449 -0.0303
  189MPD1    C4 2930   1.080   4.255   0.212 -0.3176 -0.1566  0.1991
  189MPD1    C5 2931   1.173   4.157   0.239 -0.5236 -0.1441  0.3736
  189MPD1     H 2932   0.801   4.083   0.307 -0.2121  2.4579  1.3206
  189MPD1    H1 2933   1.111   4.350   0.171 -0.2317  0.6210  2.0543
  189MPD1    H2 2934   1.218   3.967   0.312 -0.4575  1.1560  5.1684
  189MPD1    H3 2935   1.278   4.171   0.216 -0.7617  1.0838  0.0693
  189MPD1     N 2936   0.845   4.323   0.196  0.0554 -0.2369 -0.2880
  189MPD1    H5 2937   0.753   4.285   0.175 -1.5472  2.8552  1.0698
  189MPD1    N1 2938   0.955   3.891   0.377  0.0385  0.2183 -0.0683
  189MPD1    H6 2939   0.871   3.883   0.434  0.4093 -0.0247  0.4500
  189MPD1    H7 2940   1.029   3.850   0.434 -0.5897  0.6380  1.0467
  190MPD1     C 2941   4.555   3.357  15.370  0.3976  0.6811 -0.4008
  190MPD1    C1 2942   4.642   3.375  15.474 -0.4009  0.1521 -0.4416
  190MPD1    C2 2943   4.712   3.263  15.516 -0.0116  0.4290  0.2768
  190MPD1    C3 2944   4.709   3.140  15.446  0.3121 -0.0501  0.4895
  190MPD1    C4 2945   4.638   3.134  15.331  0.0155  0.4336 -0.6092
  190MPD1    C5 2946   4.566   3.243  15.300  0.2876 -0.3289  0.3002
  190MPD1     H 2947   0.025   3.271  15.612 -0.3559  1.1460  0.3968
  190MPD1    H1 2948   4.626   3.048  15.266 -1.1996 -1.4382  2.0800
  190MPD1    H2 2949   4.489   3.439  15.344  0.2276  0.4292 -0.7561
  190MPD1    H3 2950   4.507   3.229  15.210  0.4941 -1.4476  0.3402
  190MPD1     N 2951   0.041   3.034  15.508  0.1712  0.4931 -0.6399
  190MPD1    H5 2952   0.081   3.051  15.599  0.7838 -0.1509 -0.7877
  190MPD1    N1 2953   4.635   3.488  15.559  0.0114 -0.2665 -0.9516
  190MPD1    H6 2954   4.612   3.577  15.514 -1.7700 -0.2289  0.0289
  190MPD1    H7 2955   4.727   3.503  15.600 -0.1489  0.1903 -0.7578
  191MPD1     C 2956   3.848   3.879  12.466  0.3804 -0.0240 -0.2656
  191MPD1    C1 2957   3.959   3.959  12.486  0.0474 -0.8670  0.2155
  191MPD1    C2 2958   3.972   4.079  12.414  0.6804 -0.1306 -0.7362
  191MPD1    C3 2959   3.884   4.105  12.316  0.2974  0.2858  0.2115
  191MPD1    C4 2960   3.773   4.026  12.296  0.4716 -0.0478  0.1594
  191MPD1    C5 2961   3.762   3.912  12.367 -0.0612  0.4011 -0.8104
  191MPD1     H 2962   4.047   4.156  12.432 -0.6890  1.5312 -2.0970
  191MPD1    H1 2963   3.705   4.041  12.213  0.6096  0.4367  0.1296
  191MPD1    H2 2964   3.830   3.793  12.530  2.6900 -0.9154 -0.8029
  191MPD1    H3 2965   3.676   3.846  12.357  0.2977  0.0491 -1.6088
  191MPD1     N 2966   3.911   4.219  12.239  0.3824 -0.2623 -0.2347
  191MPD1    H5 2967   4.000   4.263  12.261  0.0782  0.9639 -1.4640
  191MPD1    N1 2968   4.032   3.930  12.600 -0.4082 -0.0449  0.3828
  191MPD1    H6 2969   4.122   3.975  12.594 -0.7549  0.7423  1.0492
  191MPD1    H7 2970   4.041   3.829  12.605  1.8137  0.1061 -0.9613
  192MPD1     C 2971   3.915   4.442  11.210  0.5265  0.1737 -0.5924
  192MPD1    C1 2972   3.816   4.387  11.281  0.1770  0.3100 -0.5078
  192MPD1    C2 2973   3.814   4.403  11.423  0.2272 -0.4743 -0.1185
  192MPD1    C3 2974   3.934   4.453  11.488  0.2755 -0.6600  0.3700
  192MPD1    C4 2975   4.027   4.515  11.407 -0.1921 -0.3538 -0.1306
  192MPD1    C5 2976   4.024   4.502  11.268  0.5353  0.4738  0.2958
  192MPD1     H 2977   3.723   4.379  11.476  1.2198  1.2430  2.3317
  192MPD1    H1 2978   4.103   4.575  11.457  1.0521  0.9936 -3.6341
  192MPD1    H2 2979   3.916   4.445  11.102  1.0508 -0.1683 -0.5969
  192MPD1    H3 2980   4.090   4.567  11.212 -0.6323  1.3842 -0.0366
  192MPD1     N 2981   3.952   4.456  11.622 -0.0471 -0.9030 -0.1169
  192MPD1    H5 2982   4.028   4.511  11.661 -0.2639 -1.4692  1.0829
  192MPD1    N1 2983   3.706   4.336  11.208 -0.4818 -0.8565 -0.5021
  192MPD1    H6 2984   3.655   4.268  11.265 -1.5480  1.3786  1.1995
  192MPD1    H7 2985   3.744   4.278  11.133  0.3494  1.4621 -1.8505
  193MPD1     C 2986   3.756   4.426  16.486 -0.3828 -0.5068 -0.7858
  193MPD1    C1 2987   3.717   4.555  16.460  0.2134 -0.2733  0.2635
  193MPD1    C2 2988   3.812   4.651  16.489 -0.3998  0.2037  0.4997
  193MPD1    C3 2989   3.941   4.629  16.525  0.1552 -0.2453 -0.3288
  193MPD1    C4 2990   3.979   4.496  16.550  0.3391 -0.0229 -0.6859
  193MPD1    C5 2991   3.882   4.398  16.536  0.5005  0.6247  0.5919
  193MPD1     H 2992   3.795   0.016  16.461 -1.9115 -0.2641 -0.3156
  193MPD1    H1 2993   4.072   4.467  16.597  0.0348 -1.6247 -1.0754
  193MPD1    H2 2994   3.692   4.338  16.482  0.3719 -1.1298  0.9369
  193MPD1    H3 2995   3.900   4.294  16.557  2.0896  0.1322 -3.1446
  193MPD1     N 2996   4.030   0.004  16.544 -0.3358  0.3804  0.3790
  193MPD1    H5 2997   3.993   0.098  16.536 -2.1287 -0.1950  1.7970
  193MPD1    N1 2998   3.586   4.593  16.422 -0.5001 -0.2894 -0.7124
  193MPD1    H6 2999   3.593   4.691  16.395 -0.1187 -0.0896  0.1382
  193MPD1    H7 3000   3.542   4.539  16.348 -1.2640 -0.4538 -0.1340
  194MPD1     C 3001   0.661   2.510  17.220  0.2003  0.7285 -0.4767
  194MPD1    C1 3002   0.730   2.469  17.104  0.4674  0.0097 -0.4447
  194MPD1    C2 3003   0.809   2.361  17.110 -0.4097 -0.1182 -0.6600
  194MPD1    C3 3004   0.818   2.277  17.222 -0.3394  0.6518  0.3295
  194MPD1    C4 3005   0.743   2.312  17.332 -0.9858 -0.8187  0.2600
  194MPD1    C5 3006   0.675   2.433  17.338 -0.4564  0.1370 -0.5174
  194MPD1     H 3007   0.867   2.329  17.024 -0.3607 -2.3921  0.2207
  194MPD1    H1 3008   0.749   2.251  17.422 -0.4845 -0.0417  0.7494
  194MPD1    H2 3009   0.600   2.600  17.226 -1.0717 -0.1172 -0.8358
  194MPD1    H3 3010   0.626   2.460  17.431  1.6678 -0.9274  0.9133
  194MPD1     N 3011   0.896   2.163  17.236  0.1694  0.4772  0.4355
  194MPD1    H5 3012   0.880   2.108  17.319  1.0891 -0.7653 -0.1968
  194MPD1    N1 3013   0.724   2.553  16.990 -0.0803  0.0151  0.2517
  194MPD1    H6 3014   0.754   2.507  16.905  0.5869  1.0875 -0.0768
  194MPD1    H7 3015   0.626   2.579  16.977  0.2451  0.3055 -1.5263
  195MPD1     C 3016   4.155   3.408   0.149 -0.4430 -0.3828 -0.8055
  195MPD1    C1 3017   4.179   3.353   0.026  0.1596 -0.3579  0.2681
  195MPD1    C2 3018   4.144   3.218  17.742 -0.7699 -0.4303 -0.7287
  195MPD1    C3 3019   4.081   3.143   0.088  0.1544  0.6840 -0.4871
  195MPD1    C4 3020   4.050   3.197   0.208 -0.5686 -0.6130  0.1861
  195MPD1    C5 3021   4.078   3.329   0.235 -0.3513  0.2574  0.1326
  195MPD1     H 3022   4.170   3.173  17.647  1.3362  0.3734 -0.5428
  195MPD1    H1 3023   4.000   3.134   0.281  0.5331 -0.0418  1.4296
  195MPD1    H2 3024   4.180   3.511   0.168  2.3393 -0.5318 -3.5271
  195MPD1    H3 3025   4.045   3.369   0.331  2.6644 -0.5780  1.4987
  195MPD1     N 3026   4.047   3.008   0.065  0.4652  0.3316  0.2160
  195MPD1    H5 3027   4.002   2.966   0.146 -0.2256  0.5308 -0.0712
  195MPD1    N1 3028   4.273   3.418  17.693  0.2322 -0.2403  0.7059
  195MPD1    H6 3029   4.244   3.399  17.597  1.1153 -1.7538  0.7282
  195MPD1    H7 3030   4.276   3.518  17.707  0.1996 -0.1789  0.2610
  196MPD1     C 3031   3.286   2.061   0.220  0.7434  0.0346  0.5090
  196MPD1    C1 3032   3.178   2.032   0.303 -0.2999 -0.5837  0.1333
  196MPD1    C2 3033   3.174   2.095   0.422 -0.0973 -0.5139 -0.2177
  196MPD1    C3 3034   3.271   2.195   0.452  0.4085  0.2705  0.6355
  196MPD1    C4 3035   3.370   2.230   0.364 -0.6451  0.0714 -0.4859
  196MPD1    C5 3036   3.377   2.163   0.246 -0.2522 -0.4626  0.0092
  196MPD1     H 3037   3.105   2.062   0.499 -0.8153 -0.1583 -0.7143
  196MPD1    H1 3038   3.438   2.312   0.384 -0.1112 -0.8894  1.5673
  196MPD1    H2 3039   3.297   2.003   0.130 -2.9604  0.3117 -0.1377
  196MPD1    H3 3040   3.461   2.188   0.182 -0.4859  0.2381 -0.0271
  196MPD1     N 3041   3.279   2.263   0.577 -0.2138 -0.1716  0.7265
  196MPD1    H5 3042   3.356   2.326   0.599  0.3698  0.4124 -3.0579
  196MPD1    N1 3043   3.102   1.926   0.264  0.0198 -0.0744 -0.3864
  196MPD1    H6 3044   3.004   1.933   0.291  0.4132  0.2932  0.9445
  196MPD1    H7 3045   3.101   1.913   0.163  0.9314 -2.8796 -0.0474
  197MPD1     C 3046   3.241   1.463  17.643 -0.1787 -0.1414 -0.0156
  197MPD1    C1 3047   3.114   1.516  17.667 -0.3767  0.2076  0.7584
  197MPD1    C2 3048   3.017   1.517  17.564 -0.9779 -0.2282  0.1235
  197MPD1    C3 3049   3.040   1.447  17.442 -0.5542 -0.5010  0.1199
  197MPD1    C4 3050   3.165   1.394  17.421  0.5282  0.4628  0.4087
  197MPD1    C5 3051   3.258   1.391  17.525  0.2213 -0.1624 -0.0525
  197MPD1     H 3052   2.922   1.564  17.587 -0.6758  0.2533  0.3827
  197MPD1    H1 3053   3.198   1.357  17.325  4.0428 -0.0767  1.8131
  197MPD1    H2 3054   3.329   1.465  17.707 -0.3607 -1.3831  0.2722
  197MPD1    H3 3055   3.358   1.353  17.512  0.1433 -0.5727  0.5396
  197MPD1     N 3056   2.939   1.435  17.341  0.4243 -0.1147 -0.1816
  197MPD1    H5 3057   2.962   1.389  17.254 -1.4265 -0.1598 -0.6497
  197MPD1    N1 3058   3.104   1.578   0.044  0.2285 -0.1619  0.0478
  197MPD1    H6 3059   3.006   1.589   0.068  0.3944  1.5164 -0.0489
  197MPD1    H7 3060   3.164   1.529   0.110  0.8852 -1.2533 -1.3406
  198MPD1     C 3061   3.672   3.369  15.329 -0.6070 -0.2901 -0.2439
  198MPD1    C1 3062   3.783   3.283  15.341  0.9759 -0.0233  0.4898
  198MPD1    C2 3063   3.907   3.326  15.386 -0.1321  0.0772 -0.8872
  198MPD1    C3 3064   3.918   3.463  15.402  0.5265  0.3728  0.1829
  198MPD1    C4 3065   3.808   3.549  15.389 -1.0109  0.0838 -0.2476
  198MPD1    C5 3066   3.688   3.500  15.353 -0.5825  0.8461  0.0675
  198MPD1     H 3067   3.993   3.260  15.395  1.6583  2.5726  0.1263
  198MPD1    H1 3068   3.806   3.656  15.407 -2.1737  0.1717 -0.9432
  198MPD1    H2 3069   3.574   3.332  15.300 -0.4086 -0.2981 -0.8935
  198MPD1    H3 3070   3.603   3.566  15.348 -2.8089 -2.0996 -1.0788
  198MPD1     N 3071   4.048   3.504  15.441  0.5597  0.5265 -0.0639
  198MPD1    H5 3072   4.112   3.445  15.491 -0.3664  0.5881  1.1867
  198MPD1    N1 3073   3.754   3.143  15.336  0.0079  0.0222  0.5907
  198MPD1    H6 3074   3.720   3.111  15.426 -0.7520 -0.7877  0.0297
  198MPD1    H7 3075   3.837   3.088  15.314 -1.3763 -1.5976 -0.5924
  199MPD1     C 3076   1.440   4.441  10.068 -0.0926  0.0188 -0.0075
  199MPD1    C1 3077   1.326   4.390  10.007  0.0926  0.5435  0.7287
  199MPD1    C2 3078   1.242   4.470   9.938  0.3781 -0.9479  0.3672
  199MPD1    C3 3079   1.276   4.601   9.915  0.2838 -0.0579  0.2147
  199MPD1    C4 3080   1.398   4.646   9.962  0.2760  0.3929 -0.8215
  199MPD1    C5 3081   1.477   4.569  10.040 -0.4105  1.0422  0.5274
  199MPD1     H 3082   1.159   4.419   9.889 -0.1235  0.7996 -0.6051
  199MPD1    H1 3083   1.421   0.014   9.954 -0.7610  0.5050 -2.2918
  199MPD1    H2 3084   1.511   4.385  10.128 -0.4751 -0.1240  0.3154
  199MPD1    H3 3085   1.570   4.611  10.077 -0.1023  1.6711 -0.9830
  199MPD1     N 3086   1.199   4.699   9.847  0.2628  0.3345  0.0505
  199MPD1    H5 3087   1.231   0.057   9.848 -0.4106  0.6127 -2.5293
  199MPD1    N1 3088   1.294   4.255  10.016 -0.2718  0.5655 -0.1174
  199MPD1    H6 3089   1.223   4.227   9.948 -1.1114  1.4464  0.3878
  199MPD1    H7 3090   1.376   4.204   9.985 -0.2975  0.9611 -0.8316
  200MPD1     C 3091   0.344   0.487  15.408 -0.6358  0.5608 -0.2701
  200MPD1    C1 3092   0.314   0.348  15.412 -0.7265  0.1131 -0.4918
  200MPD1    C2 3093   0.380   0.267  15.323  0.2455 -0.6767  0.6435
  200MPD1    C3 3094   0.483   0.312  15.249 -0.0341  0.6374 -0.4447
  200MPD1    C4 3095   0.530   0.445  15.265  0.1772  0.9020  0.5241
  200MPD1    C5 3096   0.448   0.533  15.331  0.0625 -0.1272 -0.0838
  200MPD1     H 3097   0.343   0.167  15.305  0.3324 -0.7019  0.6034
  200MPD1    H1 3098   0.617   0.484  15.215 -1.2107  1.0104 -1.8127
  200MPD1    H2 3099   0.297   0.548  15.484  1.3707  1.5053  0.2099
  200MPD1    H3 3100   0.471   0.639  15.331  0.5821 -0.2411 -0.3544
  200MPD1     N 3101   0.551   0.219  15.165 -0.0538  0.4901 -0.5185
  200MPD1    H5 3102   0.514   0.124  15.169  0.5969  0.2757  0.2349
  200MPD1    N1 3103   0.194   0.301  15.472 -0.0797 -0.3584  0.0163
  200MPD1    H6 3104   0.199   0.205  15.506 -0.8106 -1.4380 -3.0076
  200MPD1    H7 3105   0.177   0.361  15.553 -0.9359  0.4391 -0.7597
  201MPD1     C 3106   3.814   4.519  12.864  0.3129 -0.1697 -0.5046
  201MPD1    C1 3107   3.688   4.464  12.849 -0.1883 -0.2456  0.3847
  201MPD1    C2 3108   3.663   4.349  12.926  0.2075  0.1423 -0.2878
  201MPD1    C3 3109   3.766   4.284  13.001 -0.1823  0.0213  0.4312
  201MPD1    C4 3110   3.889   4.344  13.009 -0.0083  0.5287 -0.0219
  201MPD1    C5 3111   3.911   4.456  12.941  0.3338 -0.0160 -0.0016
  201MPD1     H 3112   3.570   4.296  12.908  0.8309 -0.7719 -0.8478
  201MPD1    H1 3113   3.973   4.303  13.063 -0.1930  0.5368  0.2734
  201MPD1    H2 3114   3.843   4.607  12.808  0.3987  0.4034  0.4570
  201MPD1    H3 3115   4.011   4.498  12.939  1.8462 -3.6227 -0.0224
  201MPD1     N 3116   3.739   4.159  13.064 -0.2230  0.2053 -0.5534
  201MPD1    H5 3117   3.652   4.114  13.040 -0.2211  0.2744 -0.6861
  201MPD1    N1 3118   3.593   4.523  12.769  0.9561  0.2071  0.6730
  201MPD1    H6 3119   3.618   4.618  12.742  1.4459 -0.0308  0.2784
  201MPD1    H7 3120   3.506   4.533  12.820  1.0388 -2.9974  1.4354
  202MPD1     C 3121   2.491   2.499   8.847  0.0665  0.3100 -1.1276
  202MPD1    C1 3122   2.574   2.461   8.951 -0.0886  0.3299 -0.1437
  202MPD1    C2 3123   2.628   2.562   9.027 -0.5459 -0.8201  0.8655
  202MPD1    C3 3124   2.573   2.688   9.019  0.6391 -0.8100 -0.6383
  202MPD1    C4 3125   2.480   2.720   8.922  0.4086 -0.0998 -0.1049
  202MPD1    C5 3126   2.444   2.628   8.828 -0.3698 -0.1925 -0.0033
  202MPD1     H 3127   2.700   2.542   9.105  0.2894 -0.0557  0.2930
  202MPD1    H1 3128   2.433   2.818   8.921  0.4844 -0.0391  1.4526
  202MPD1    H2 3129   2.473   2.428   8.767  1.5748 -1.4059  0.0375
  202MPD1    H3 3130   2.382   2.662   8.746  2.2478 -1.3586 -2.4276
  202MPD1     N 3131   2.607   2.788   9.108  0.3210 -0.2146  0.5742
  202MPD1    H5 3132   2.560   2.875   9.089  2.4243  0.7205 -0.3503
  202MPD1    N1 3133   2.643   2.345   8.939  0.6675 -0.0733  0.1933
  202MPD1    H6 3134   2.685   2.315   9.027 -1.7705 -1.7855  0.7378
  202MPD1    H7 3135   2.575   2.274   8.913  0.4699  0.4272 -0.6890
  203MPD1     C 3136   0.923   4.558  12.374  0.7482  0.1073  0.6145
  203MPD1    C1 3137   0.985   4.501  12.262 -0.3185 -0.3558  0.5094
  203MPD1    C2 3138   1.098   4.419  12.284  0.0864 -0.1488 -0.5089
  203MPD1    C3 3139   1.161   4.399  12.404  0.2674  0.1694 -0.1719
  203MPD1    C4 3140   1.099   4.451  12.512 -0.1738 -0.7629  0.7580
  203MPD1    C5 3141   0.980   4.522  12.494  0.3706 -0.0255  0.0929
  203MPD1     H 3142   1.143   4.372  12.197 -0.5553 -0.5157 -0.6410
  203MPD1    H1 3143   1.139   4.440  12.612 -1.2352  0.7965  1.3580
  203MPD1    H2 3144   0.836   4.623  12.369 -0.9997 -2.2131  0.7862
  203MPD1    H3 3145   0.933   4.555  12.586  0.4224  2.6553 -0.8638
  203MPD1     N 3146   1.285   4.316  12.407 -0.2697  0.8162  0.1669
  203MPD1    H5 3147   1.319   4.270  12.323 -2.3116 -2.0024  0.8737
  203MPD1    N1 3148   0.939   4.536  12.138  0.1287  0.1994 -0.5432
  203MPD1    H6 3149   0.852   4.588  12.147 -1.0492 -2.1725  1.7706
  203MPD1    H7 3150   0.934   4.458  12.074 -1.4860  0.2688 -0.5134
  204MPD1     C 3151   1.191   0.940  17.424  0.0180 -0.1750  0.1010
  204MPD1    C1 3152   1.301   0.960  17.345  0.3044  0.1847  0.3395
  204MPD1    C2 3153   1.397   0.860  17.338  0.2033  0.7673 -0.0677
  204MPD1    C3 3154   1.396   0.750  17.424  0.9045 -0.3033  0.1296
  204MPD1    C4 3155   1.283   0.736  17.510 -0.0696 -0.5509  0.1180
  204MPD1    C5 3156   1.176   0.829  17.509  0.7509 -0.0684  0.1473
  204MPD1     H 3157   1.485   0.866  17.275 -0.7999 -1.2792 -1.6600
  204MPD1    H1 3158   1.257   0.649  17.570 -0.2299  0.7510  1.9041
  204MPD1    H2 3159   1.105   1.005  17.409  0.1171 -0.4943 -1.9405
  204MPD1    H3 3160   1.078   0.808  17.549 -0.2671 -0.9769 -2.7905
  204MPD1     N 3161   1.490   0.648  17.401  0.3292  0.0218 -0.0205
  204MPD1    H5 3162   1.563   0.672  17.335  1.2871 -0.9308  0.6949
  204MPD1    N1 3163   1.291   1.047  17.237 -0.6219  0.5182 -0.0326
  204MPD1    H6 3164   1.389   1.067  17.218 -0.5414 -2.0080 -2.1599
  204MPD1    H7 3165   1.245   1.135  17.262  1.8486  1.6288  0.6322
  205MPD1     C 3166   2.457   4.016  17.044 -0.0943 -0.1905 -0.9963
  205MPD1    C1 3167   2.370   3.916  17.035 -0.5559  0.0685 -0.3191
  205MPD1    C2 3168   2.256   3.920  17.113 -0.1586  0.8934  0.2863
  205MPD1    C3 3169   2.219   4.030  17.194  0.7762  0.1683  0.3926
  205MPD1    C4 3170   2.314   4.139  17.207 -0.2517 -0.2022  0.1846
  205MPD1    C5 3171   2.430   4.127  17.129 -0.7334 -0.5921  0.9348
  205MPD1     H 3172   2.195   3.831  17.119  2.3402 -0.7607  1.0292
  205MPD1    H1 3173   2.300   4.224  17.273 -2.7375 -0.4238 -0.0506
  205MPD1    H2 3174   2.555   4.026  16.999  1.3930  0.4244  2.3691
  205MPD1    H3 3175   2.502   4.207  17.141  1.5208 -2.5242  0.3553
  205MPD1     N 3176   2.098   4.033  17.273  0.2814  0.3791  0.1429
  205MPD1    H5 3177   2.083   4.118  17.327 -0.4824  0.8387 -0.7781
  205MPD1    N1 3178   2.413   3.791  16.979  0.4095 -0.1642  0.4504
  205MPD1    H6 3179   2.336   3.726  16.966 -0.1082  0.8243 -1.3701
  205MPD1    H7 3180   2.462   3.805  16.891  0.2212 -0.2609  0.3324
  206MPD1     C 3181   2.199   2.094  16.675 -0.2729  0.1675 -0.0568
  206MPD1    C1 3182   2.061   2.123  16.689 -0.4620  0.7981  0.6957
  206MPD1    C2 3183   1.985   2.140  16.574 -0.7051  0.2749  0.0987
  206MPD1    C3 3184   2.045   2.126  16.448  0.0711  0.3256 -0.7472
  206MPD1    C4 3185   2.184   2.094  16.433 -0.0772  0.1721 -0.8291
  206MPD1    C5 3186   2.254   2.083  16.547  0.2052 -0.1755 -0.1370
  206MPD1     H 3187   1.877   2.144  16.584 -0.7690  1.7657 -1.1366
  206MPD1    H1 3188   2.235   2.109  16.339  2.4223 -0.3530  0.4703
  206MPD1    H2 3189   2.266   2.098  16.759  1.6002  0.7602 -1.5966
  206MPD1    H3 3190   2.361   2.067  16.540 -0.6102 -5.1806 -1.2786
  206MPD1     N 3191   1.982   2.142  16.328  0.1396 -0.5826  0.9108
  206MPD1    H5 3192   2.039   2.106  16.252 -0.5690  1.2819 -0.5187
  206MPD1    N1 3193   2.012   2.151  16.816 -0.1574 -0.1948  0.3674
  206MPD1    H6 3194   2.070   2.114  16.890  2.2337  1.8125 -0.5015
  206MPD1    H7 3195   1.921   2.106  16.829 -0.2077 -0.3116 -0.3693
  207MPD1     C 3196   3.702   3.998   9.521  0.1049  0.0901  0.1499
  207MPD1    C1 3197   3.693   3.920   9.635  0.1654 -0.0633 -0.4214
  207MPD1    C2 3198   3.747   3.967   9.754 -0.1949 -0.5279 -0.2746
  207MPD1    C3 3199   3.820   4.087   9.753  0.0658  0.1989 -0.9556
  207MPD1    C4 3200   3.839   4.159   9.637  0.8324  0.0755  0.2004
  207MPD1    C5 3201   3.771   4.116   9.524  0.0509 -0.0126  0.3930
  207MPD1     H 3202   3.751   3.900   9.839  2.3658 -0.0605 -0.0185
  207MPD1    H1 3203   3.890   4.254   9.639  0.5763  0.2300 -0.6679
  207MPD1    H2 3204   3.656   3.967   9.428  1.9714 -2.0150 -0.0883
  207MPD1    H3 3205   3.776   4.177   9.434 -2.7446 -0.5990 -0.1594
  207MPD1     N 3206   3.867   4.141   9.877  0.7486  0.2138 -0.3077
  207MPD1    H5 3207   3.918   4.228   9.866 -0.6009  0.8348 -1.5928
  207MPD1    N1 3208   3.616   3.800   9.628 -0.1177 -0.7450 -1.0556
  207MPD1    H6 3209   3.612   3.757   9.720 -1.2251  0.6948 -0.4251
  207MPD1    H7 3210   3.642   3.734   9.555  1.1841 -1.0700 -0.2882
  208MPD1     C 3211   1.220   2.246  17.741 -0.6550 -0.1751  0.1715
  208MPD1    C1 3212   1.251   2.325  17.628  0.1766  0.4286 -0.7159
  208MPD1    C2 3213   1.300   2.452  17.647 -0.4020 -0.5648  0.2578
  208MPD1    C3 3214   1.332   2.498   0.028 -0.5000  0.7543 -0.1626
  208MPD1    C4 3215   1.299   2.415   0.137  0.3731  0.5045  0.0206
  208MPD1    C5 3216   1.240   2.294   0.117  0.0057  0.4674  0.3694
  208MPD1     H 3217   1.307   2.514  17.559  0.3863 -0.4116  0.4255
  208MPD1    H1 3218   1.308   2.450   0.239  0.5763  1.9360 -0.4782
  208MPD1    H2 3219   1.171   2.149  17.731 -1.4830  0.2480  0.1055
  208MPD1    H3 3220   1.226   2.224   0.199 -2.0256  1.0716  0.5400
  208MPD1     N 3221   1.380   2.628   0.038 -0.5908  0.9714  0.0430
  208MPD1    H5 3222   1.400   2.689  17.708 -1.4099  1.1393 -0.0340
  208MPD1    N1 3223   1.205   2.282  17.505  0.6494  0.2586  0.1924
  208MPD1    H6 3224   1.212   2.180  17.504 -2.1881  0.0650 -0.5300
  208MPD1    H7 3225   1.250   2.331  17.428  2.5295  2.1025  2.4883
  209MPD1     C 3226   4.253   3.733  11.802 -0.0589 -0.0286 -0.0903
  209MPD1    C1 3227   4.364   3.816  11.799 -0.1157  0.4082  0.8579
  209MPD1    C2 3228   4.420   3.848  11.676  0.2284 -0.0517 -0.9601
  209MPD1    C3 3229   4.358   3.816  11.561  0.0546  0.5304  0.1969
  209MPD1    C4 3230   4.238   3.749  11.565  0.6183 -0.2007  0.8027
  209MPD1    C5 3231   4.190   3.703  11.688 -0.0418  0.4901  0.1228
  209MPD1     H 3232   4.514   3.902  11.677  0.4376 -0.3872 -2.0425
  209MPD1    H1 3233   4.177   3.723  11.479  0.2266 -2.7208  1.8225
  209MPD1    H2 3234   4.213   3.696  11.896  0.8195  2.0049  1.0931
  209MPD1    H3 3235   4.096   3.649  11.690  0.8140 -0.8964  2.0674
  209MPD1     N 3236   4.431   3.845  11.439  0.3027 -0.1117 -0.2356
  209MPD1    H5 3237   4.522   3.889  11.452  1.2747 -1.6906 -1.6617
  209MPD1    N1 3238   4.445   3.827  11.907  0.2530 -0.1309  0.3219
  209MPD1    H6 3239   4.514   3.901  11.895  0.9717 -0.7060  0.9577
  209MPD1    H7 3240   4.407   3.834  12.001 -0.1509 -0.2239  0.1645
  210MPD1     C 3241   0.201   4.583  11.088 -0.2190  0.7348  0.6107
  210MPD1    C1 3242   0.235   4.465  11.156 -0.8549  0.1060  0.1452
  210MPD1    C2 3243   0.138   4.374  11.167  0.4966  0.1847 -0.5681
  210MPD1    C3 3244   0.014   4.384  11.102  0.1041  0.3555 -0.1603
  210MPD1    C4 3245   4.726   4.496  11.032 -0.1028 -1.0759 -0.4088
  210MPD1    C5 3246   0.074   4.600  11.037  0.0211  0.0316 -0.3567
  210MPD1     H 3247   0.171   4.278  11.204  0.3808  1.1980  2.1458
  210MPD1    H1 3248   4.635   4.510  10.975 -0.1545  0.9476  0.1638
  210MPD1    H2 3249   0.271   4.666  11.093 -0.9207  1.1479  4.1396
  210MPD1    H3 3250   0.050   4.681  10.969 -0.3925 -0.2937 -0.5981
  210MPD1     N 3251   4.651   4.285  11.106 -0.2284  0.0692  0.5687
  210MPD1    H5 3252   4.571   4.300  11.044  0.0058 -0.2796  0.1762
  210MPD1    N1 3253   0.371   4.426  11.176  0.1506 -0.2075  0.7007
  210MPD1    H6 3254   0.440   4.500  11.191  0.9895 -1.0728  1.1037
  210MPD1    H7 3255   0.391   4.358  11.250  0.8704 -0.6468  0.1005
  211MPD1     C 3256   1.949   3.885  15.492 -0.4092  0.0150 -0.4668
  211MPD1    C1 3257   1.963   3.816  15.610 -0.9560  0.4772 -0.0352
  211MPD1    C2 3258   1.867   3.837  15.707 -0.5993  0.2524  0.3327
  211MPD1    C3 3259   1.751   3.909  15.686 -0.5570  0.1951 -0.5160
  211MPD1    C4 3260   1.733   3.971  15.565 -0.3701 -0.1053  1.0130
  211MPD1    C5 3261   1.836   3.967  15.473  0.6408 -0.2840  0.6489
  211MPD1     H 3262   1.880   3.804  15.809  0.5926  0.6557  0.3072
  211MPD1    H1 3263   1.643   4.017  15.526 -0.8122 -2.2023 -0.4502
  211MPD1    H2 3264   2.014   3.871  15.407  1.7653 -0.7230  1.3348
  211MPD1    H3 3265   1.827   4.001  15.371 -1.0750 -1.5331  0.3678
  211MPD1     N 3266   1.659   3.919  15.791  0.0317 -0.1144 -0.0725
  211MPD1    H5 3267   1.678   3.849  15.862 -1.9200  0.9050  1.4179
  211MPD1    N1 3268   2.076   3.738  15.649 -0.4622 -0.0072  0.1602
  211MPD1    H6 3269   2.132   3.696  15.575  0.3450  1.2569  0.0518
  211MPD1    H7 3270   2.048   3.658  15.704  1.4236 -0.3607  0.6120
  212MPD1     C 3271   1.181   2.570  16.470  0.0150 -0.4537 -0.4087
  212MPD1    C1 3272   1.095   2.595  16.570  0.1116 -0.1095  0.1514
  212MPD1    C2 3273   1.001   2.509  16.610 -0.3494  0.7627 -0.1847
  212MPD1    C3 3274   0.976   2.387  16.541 -0.1682  0.0354 -0.3015
  212MPD1    C4 3275   1.057   2.357  16.436 -0.2135  0.1291  0.2974
  212MPD1    C5 3276   1.155   2.451  16.404 -0.4449 -0.2788  0.1246
  212MPD1     H 3277   0.937   2.541  16.691 -3.7495  0.2961 -2.6748
  212MPD1    H1 3278   1.032   2.277  16.368  2.0546  1.9641 -2.6910
  212MPD1    H2 3279   1.269   2.629  16.445  0.7294 -0.8588  1.1429
  212MPD1    H3 3280   1.228   2.424  16.329 -0.1123  1.4228 -0.1641
  212MPD1     N 3281   0.887   2.287  16.584  0.5037 -0.2473  0.4919
  212MPD1    H5 3282   0.898   2.200  16.532  0.1119  0.4740 -0.7935
  212MPD1    N1 3283   1.114   2.710  16.656 -0.0879 -0.6678 -0.4873
  212MPD1    H6 3284   1.143   2.787  16.596 -1.3200  2.3919  2.8544
  212MPD1    H7 3285   1.031   2.739  16.706 -0.3659 -0.2583 -1.1951
  213MPD1     C 3286   3.441   2.220  15.047 -0.7014 -0.2367 -0.2348
  213MPD1    C1 3287   3.403   2.275  15.169  0.4074  0.4063  0.3528
  213MPD1    C2 3288   3.410   2.414  15.168 -0.0406 -0.2403 -0.1186
  213MPD1    C3 3289   3.468   2.487  15.068 -0.2465  0.3355 -0.2852
  213MPD1    C4 3290   3.533   2.426  14.964  0.0815  0.3635  0.0378
  213MPD1    C5 3291   3.512   2.293  14.951  0.3219 -0.0724 -0.9325
  213MPD1     H 3292   3.354   2.470  15.242  0.5032 -0.1002  0.1872
  213MPD1    H1 3293   3.573   2.479  14.878  1.8006  0.9904  1.2269
  213MPD1    H2 3294   3.449   2.113  15.028  0.4001 -0.2585  0.3746
  213MPD1    H3 3295   3.549   2.237  14.866 -0.3106 -0.6673 -0.8121
  213MPD1     N 3296   3.468   2.624  15.089  0.1820  0.1352  0.5093
  213MPD1    H5 3297   3.445   2.650  15.185  1.0622  1.5801  0.3336
  213MPD1    N1 3298   3.320   2.201  15.244  0.1357 -0.5450  0.4748
  213MPD1    H6 3299   3.324   2.238  15.339  1.9428  1.2570 -0.3229
  213MPD1    H7 3300   3.345   2.102  15.243  1.2581 -0.2755  1.6006
  214MPD1     C 3301   2.783   3.123  15.127 -0.5039 -1.2365 -0.1216
  214MPD1    C1 3302   2.877   3.212  15.085 -0.0622  0.9019 -0.3570
  214MPD1    C2 3303   3.006   3.169  15.084  0.1817 -0.0283 -0.4728
  214MPD1    C3 3304   3.050   3.045  15.138  0.0466 -0.3259  0.4069
  214MPD1    C4 3305   2.952   2.963  15.180  0.7954 -0.3712 -0.3991
  214MPD1    C5 3306   2.822   3.001  15.170  0.0493  0.2903 -0.6863
  214MPD1     H 3307   3.084   3.240  15.058  1.1412 -1.7082 -2.1959
  214MPD1    H1 3308   2.986   2.869  15.224  1.1208 -2.0338 -4.1847
  214MPD1    H2 3309   2.680   3.149  15.107  0.0465 -0.1309 -1.5767
  214MPD1    H3 3310   2.746   2.931  15.202  0.4548  1.1888  2.2546
  214MPD1     N 3311   3.185   3.014  15.158  0.1955  0.6338  0.3872
  214MPD1    H5 3312   3.210   2.923  15.196 -1.1512 -0.2091 -0.7603
  214MPD1    N1 3313   2.833   3.321  15.017 -0.2411 -0.0149  0.3838
  214MPD1    H6 3314   2.742   3.357  15.045 -0.0966  0.9518 -0.3882
  214MPD1    H7 3315   2.897   3.397  15.039 -1.0301  1.0326 -0.9333
  215MPD1     C 3316   3.977   3.373  10.921 -0.5060 -0.2200  0.5323
  215MPD1    C1 3317   4.083   3.374  11.007  0.5185  0.9144  0.4046
  215MPD1    C2 3318   4.120   3.499  11.060 -0.3772 -0.3030 -0.2657
  215MPD1    C3 3319   4.053   3.616  11.028  0.0794  0.1214 -0.3558
  215MPD1    C4 3320   3.953   3.608  10.929  0.1744  0.0988  0.1441
  215MPD1    C5 3321   3.914   3.487  10.880 -0.5041 -0.4211 -0.1021
  215MPD1     H 3322   4.198   3.501  11.135  0.8250  0.6301 -1.5567
  215MPD1    H1 3323   3.904   3.693  10.882  0.9125  1.0362  1.0701
  215MPD1    H2 3324   3.950   3.283  10.866  0.3895 -0.6853  0.8671
  215MPD1    H3 3325   3.833   3.478  10.808 -0.3889 -2.0013 -0.0248
  215MPD1     N 3326   4.085   3.737  11.092  0.0467 -0.9367 -0.5194
  215MPD1    H5 3327   4.150   3.738  11.170 -1.5492  1.1346  0.7987
  215MPD1    N1 3328   4.128   3.257  11.068  0.3544  0.1203 -0.1946
  215MPD1    H6 3329   4.223   3.264  11.102  0.3241 -0.6067  0.0268
  215MPD1    H7 3330   4.137   3.189  10.993  2.3971 -1.2823  1.3440
  216MPD1     C 3331   0.433   2.170  17.675 -0.1787  0.1431 -0.2379
  216MPD1    C1 3332   0.404   2.087   0.030 -0.2126 -0.4587  0.4855
  216MPD1    C2 3333   0.406   1.947  17.749 -0.0081  0.0914  0.3091
  216MPD1    C3 3334   0.447   1.894  17.623 -0.2181 -0.5727  0.0702
  216MPD1    C4 3335   0.494   1.987  17.530  0.6804  0.4546 -0.5023
  216MPD1    C5 3336   0.474   2.120  17.552  0.3672  0.1029  0.0320
  216MPD1     H 3337   0.373   1.869   0.068  3.7677 -1.7768  0.0306
  216MPD1    H1 3338   0.532   1.955  17.433 -0.4076 -2.5787  0.0685
  216MPD1    H2 3339   0.406   2.275  17.684  0.4080  0.2579  0.2083
  216MPD1    H3 3340   0.501   2.176  17.463  1.8693  1.6206  1.4464
  216MPD1     N 3341   0.458   1.758  17.604  0.0522  0.4738  0.7703
  216MPD1    H5 3342   0.430   1.704  17.685  1.0012  0.1857  0.9128
  216MPD1    N1 3343   0.338   2.131   0.145 -0.2655  0.0283 -0.4359
  216MPD1    H6 3344   0.382   2.220   0.166  1.5787 -0.7087 -1.2014
  216MPD1    H7 3345   0.363   2.072   0.223  1.9685 -0.1966 -1.3375
  217MPD1     C 3346   2.307   1.833   9.723 -0.0435 -0.3913  0.0979
  217MPD1    C1 3347   2.271   1.943   9.795 -0.8525  0.0236 -0.3581
  217MPD1    C2 3348   2.302   2.063   9.739 -0.2003 -0.2909 -0.3655
  217MPD1    C3 3349   2.376   2.081   9.625  0.2933 -0.3262  0.4325
  217MPD1    C4 3350   2.421   1.967   9.559  0.2102  0.1344 -0.1696
  217MPD1    C5 3351   2.377   1.844   9.608  0.8950  0.0163  0.6717
  217MPD1     H 3352   2.270   2.154   9.788 -1.3390 -0.6746 -0.3896
  217MPD1    H1 3353   2.474   1.971   9.464 -2.2145 -1.1891 -1.5749
  217MPD1    H2 3354   2.276   1.733   9.751  2.9824 -1.6459 -1.0817
  217MPD1    H3 3355   2.399   1.750   9.559 -0.2022  1.4944 -2.6500
  217MPD1     N 3356   2.405   2.206   9.563  0.1926  0.3981  0.2830
  217MPD1    H5 3357   2.461   2.200   9.478  0.6142  0.3637  0.5676
  217MPD1    N1 3358   2.193   1.924   9.914 -0.4375  0.0839 -0.4523
  217MPD1    H6 3359   2.202   1.834   9.960  3.9168  0.1088 -1.2595
  217MPD1    H7 3360   2.223   2.003   9.971 -1.9933 -0.1201  0.6206
  218MPD1     C 3361   4.126   4.668  12.503  0.0041 -0.0307 -0.7326
  218MPD1    C1 3362   4.127   4.566  12.596 -0.7609 -0.0072 -0.8007
  218MPD1    C2 3363   4.018   4.476  12.596 -0.6748  0.0538  0.2707
  218MPD1    C3 3364   3.908   4.501  12.512 -0.1037 -1.2845  0.0248
  218MPD1    C4 3365   3.907   4.609  12.434 -0.1917  0.5304  0.8181
  218MPD1    C5 3366   4.021   4.681  12.419  0.6774  0.0444 -0.1754
  218MPD1     H 3367   4.012   4.384  12.654 -0.9301 -0.7306 -0.9934
  218MPD1    H1 3368   3.828   4.638  12.365  3.0280  0.5375 -2.8871
  218MPD1    H2 3369   4.215   4.727  12.486  0.2747  0.1433  1.2752
  218MPD1    H3 3370   4.019   0.021  12.343 -0.1843 -0.1075 -0.3106
  218MPD1     N 3371   3.811   4.402  12.520  0.2135 -0.1782  0.2453
  218MPD1    H5 3372   3.830   4.327  12.586  0.8303  0.8195  1.2094
  218MPD1    N1 3373   4.241   4.533  12.673 -0.2945  0.1670  0.2841
  218MPD1    H6 3374   4.298   4.614  12.695 -2.6785  1.1631  2.7877
  218MPD1    H7 3375   4.214   4.485  12.758 -0.3491 -0.4934 -0.1049
  219MPD1     C 3376   3.257   4.117  11.786  1.1385  0.3476 -1.0214
  219MPD1    C1 3377   3.194   4.055  11.888  0.2232 -0.5228  0.3575
  219MPD1    C2 3378   3.259   4.064  12.009  1.0740  0.0330 -0.3488
  219MPD1    C3 3379   3.375   4.139  12.037  0.2670 -0.2038  0.5372
  219MPD1    C4 3380   3.433   4.201  11.929 -0.4061  0.2341 -0.8258
  219MPD1    C5 3381   3.373   4.186  11.807 -0.0394 -0.0921  0.5233
  219MPD1     H 3382   3.214   4.018  12.097  2.6211  1.7704  1.3463
  219MPD1    H1 3383   3.526   4.257  11.930  0.1398 -0.6646 -1.0487
  219MPD1    H2 3384   3.213   4.116  11.687  1.5257  0.4595 -1.1941
  219MPD1    H3 3385   3.428   4.244  11.733  0.9910 -1.0906  0.5092
  219MPD1     N 3386   3.435   4.149  12.160 -0.0383 -0.1368  0.1654
  219MPD1    H5 3387   3.530   4.186  12.164 -0.5249  0.8188  2.5385
  219MPD1    N1 3388   3.085   3.975  11.863 -0.4717 -0.2232  0.2454
  219MPD1    H6 3389   3.035   3.983  11.951  0.4445 -0.9898  0.8338
  219MPD1    H7 3390   3.027   4.018  11.790  0.1156  0.0334 -0.0719
  220MPD1     C 3391   4.180   0.753  10.169 -0.0380 -1.1294 -0.7416
  220MPD1    C1 3392   4.234   0.709  10.285 -0.0339  0.5558  0.3298
  220MPD1    C2 3393   4.166   0.612  10.358 -0.0919  0.5288  0.3589
  220MPD1    C3 3394   4.037   0.576  10.325 -0.6275  0.4550  0.3631
  220MPD1    C4 3395   3.983   0.613  10.203  0.1378  0.2806 -0.1899
  220MPD1    C5 3396   4.053   0.707  10.132  0.0867 -0.0572 -0.4016
  220MPD1     H 3397   4.212   0.575  10.449 -1.1712  0.6256  0.9426
  220MPD1    H1 3398   3.888   0.586  10.159 -0.6753 -0.8329  2.2657
  220MPD1    H2 3399   4.224   0.834  10.112  2.3129  1.0288  4.1366
  220MPD1    H3 3400   4.006   0.745  10.042 -1.8816  0.4433  0.8217
  220MPD1     N 3401   3.979   0.480  10.409  0.0001  0.1420  0.4865
  220MPD1    H5 3402   4.037   0.452  10.488  0.6384 -3.0977 -1.1085
  220MPD1    N1 3403   4.365   0.744  10.324 -0.6118  0.6186  0.0791
  220MPD1    H6 3404   4.386   0.723  10.421  0.3568 -0.5474 -0.3807
  220MPD1    H7 3405   4.362   0.846  10.321  1.2844  0.5921 -2.8550
  221MPD1     C 3406   1.006   3.844  16.869 -0.0019 -0.0821 -0.4248
  221MPD1    C1 3407   0.979   3.755  16.769 -0.4527 -0.5913  0.0272
  221MPD1    C2 3408   1.085   3.693  16.699 -0.0899  0.4847  0.1601
  221MPD1    C3 3409   1.213   3.703  16.756  0.1919  0.5421 -0.0828
  221MPD1    C4 3410   1.233   3.778  16.873 -0.1445  0.1760 -0.0139
  221MPD1    C5 3411   1.135   3.853  16.928 -0.2152  0.2715 -0.0814
  221MPD1     H 3412   1.064   3.641  16.607  2.7465 -0.5416  0.0984
  221MPD1    H1 3413   1.335   3.775  16.910 -1.0081  0.1835  2.3881
  221MPD1    H2 3414   0.928   3.904  16.914 -1.0946 -0.5920 -1.6275
  221MPD1    H3 3415   1.149   3.921  17.011 -1.8644 -0.7328  1.0037
  221MPD1     N 3416   1.323   3.642  16.699  0.3183 -0.1414 -0.3286
  221MPD1    H5 3417   1.407   3.640  16.757  0.3840  0.7874 -0.3968
  221MPD1    N1 3418   0.850   3.757  16.720 -0.8852  0.2635  0.6397
  221MPD1    H6 3419   0.826   3.673  16.667 -2.5594  1.4189 -0.4160
  221MPD1    H7 3420   0.781   3.774  16.793 -0.6069 -0.5092  1.0818
  222MPD1     C 3421   0.846   1.522  17.464 -0.1136 -0.4840  0.0359
  222MPD1    C1 3422   0.808   1.629  17.395  0.1058  0.2079 -0.2648
  222MPD1    C2 3423   0.825   1.755  17.444 -0.5503  0.3245 -0.2766
  222MPD1    C3 3424   0.870   1.771  17.578  0.1068 -0.7816  0.5520
  222MPD1    C4 3425   0.903   1.657  17.649  0.1002 -0.0689  0.1329
  222MPD1    C5 3426   0.885   1.533  17.590 -0.6678 -0.6245 -0.2498
  222MPD1     H 3427   0.812   1.844  17.383 -1.1846  0.5065  0.1236
  222MPD1    H1 3428   0.922   1.655   0.007  1.3921  1.0560 -0.0873
  222MPD1    H2 3429   0.839   1.422  17.422 -0.1017 -0.3962 -0.1719
  222MPD1    H3 3430   0.907   1.439  17.641  2.2457  0.9859  1.4247
  222MPD1     N 3431   0.868   1.895  17.647 -0.8912  0.4237  0.0182
  222MPD1    H5 3432   0.875   1.899  17.748  0.6619 -1.0423 -0.0108
  222MPD1    N1 3433   0.775   1.604  17.263  0.0746 -0.2519  0.1742
  222MPD1    H6 3434   0.709   1.527  17.251 -0.2499  0.1508 -0.5954
  222MPD1    H7 3435   0.731   1.688  17.228 -2.5685 -0.8167  2.1949
  223MPD1     C 3436   0.388   1.873   0.583 -0.4380  0.7295 -0.4720
  223MPD1    C1 3437   0.481   1.791   0.519 -0.7843 -0.1775  0.3982
  223MPD1    C2 3438   0.550   1.850   0.410 -0.6253 -0.1927  0.3498
  223MPD1    C3 3439   0.545   1.982   0.384 -0.2333  0.1555 -0.3054
  223MPD1    C4 3440   0.440   2.062   0.441 -0.7885  0.2029  0.1433
  223MPD1    C5 3441   0.363   1.997   0.530 -0.5669  0.3198 -0.6732
  223MPD1     H 3442   0.613   1.789   0.346  0.5654 -1.1689  2.4844
  223MPD1    H1 3443   0.430   2.167   0.417  1.0179  0.2325 -0.4908
  223MPD1    H2 3444   0.321   1.837   0.660 -1.4262  0.4907 -1.4407
  223MPD1    H3 3445   0.277   2.048   0.571 -1.4877 -1.1400 -0.7926
  223MPD1     N 3446   0.632   2.037   0.280  0.2535  0.0138 -0.4417
  223MPD1    H5 3447   0.687   1.963   0.239 -0.7425 -0.9300 -0.0691
  223MPD1    N1 3448   0.475   1.654   0.533 -0.9022  0.2248  0.0429
  223MPD1    H6 3449   0.454   1.636   0.631 -0.4203 -0.8471 -0.0568
  223MPD1    H7 3450   0.567   1.615   0.519 -1.7721 -1.6012 -0.6291
  224MPD1     C 3451   0.693   3.068   9.729  0.0523  0.3753 -0.6087
  224MPD1    C1 3452   0.823   3.046   9.768 -0.1245  0.2264  0.8524
  224MPD1    C2 3453   0.923   3.134   9.732 -0.1762 -0.1839  0.1706
  224MPD1    C3 3454   0.885   3.254   9.661  0.3531  0.5463 -0.6686
  224MPD1    C4 3455   0.757   3.276   9.624 -0.0713 -0.2831 -0.2724
  224MPD1    C5 3456   0.666   3.184   9.659  0.3968 -0.1331 -0.0997
  224MPD1     H 3457   1.024   3.112   9.765  0.4547  0.5254 -1.2734
  224MPD1    H1 3458   0.717   3.362   9.572 -1.2559  0.1394  1.3225
  224MPD1    H2 3459   0.614   2.996   9.751  0.0713 -0.0529 -1.9691
  224MPD1    H3 3460   0.562   3.209   9.639 -0.2502 -1.3518  1.7321
  224MPD1     N 3461   0.979   3.350   9.612  0.2356 -0.3902 -0.3367
  224MPD1    H5 3462   0.932   3.435   9.582 -0.4029 -1.5236 -2.5140
  224MPD1    N1 3463   0.866   2.920   9.809  0.2450 -0.2023 -0.0272
  224MPD1    H6 3464   0.953   2.929   9.860  0.8396 -0.6751 -0.9400
  224MPD1    H7 3465   0.801   2.880   9.876 -0.7952 -1.5056 -1.8039
  225MPD1     C 3466   3.732   0.438  12.585 -0.4288 -0.1327 -0.0305
  225MPD1    C1 3467   3.693   0.304  12.587  0.3692  0.7941  0.1895
  225MPD1    C2 3468   3.563   0.280  12.620  0.8388  0.1653 -0.5510
  225MPD1    C3 3469   3.481   0.390  12.652 -0.5333 -0.3886 -0.2503
  225MPD1    C4 3470   3.518   0.517  12.638  0.0791  0.7198 -0.2501
  225MPD1    C5 3471   3.651   0.540  12.613  0.4481  0.4690 -0.5157
  225MPD1     H 3472   3.516   0.183  12.612 -0.3013  0.6154  0.6169
  225MPD1    H1 3473   3.451   0.598  12.664 -0.3394  0.3345 -0.1294
  225MPD1    H2 3474   3.837   0.457  12.564 -0.9484  2.1810 -0.5263
  225MPD1    H3 3475   3.687   0.642  12.607  1.3628  0.1557 -0.4648
  225MPD1     N 3476   3.341   0.372  12.679  0.5788 -0.6441 -0.0887
  225MPD1    H5 3477   3.287   0.456  12.663  0.2642 -0.7787  0.2556
  225MPD1    N1 3478   3.791   0.202  12.577  0.1561 -0.0745  0.7543
  225MPD1    H6 3479   3.857   0.227  12.504  0.0298 -3.4248 -0.5131
  225MPD1    H7 3480   3.746   0.112  12.557  1.7882 -1.1466  1.9666
  226MPD1     C 3481   0.217   4.127   9.442  0.2099 -0.8124 -0.5341
  226MPD1    C1 3482   0.257   3.999   9.432  0.6663  0.3432 -0.1597
  226MPD1    C2 3483   0.375   3.972   9.370 -0.2717  0.6823  0.0065
  226MPD1    C3 3484   0.470   4.076   9.348  1.3020 -0.5972  0.5692
  226MPD1    C4 3485   0.424   4.207   9.364  0.1379  0.0012  0.0146
  226MPD1    C5 3486   0.300   4.231   9.416  0.0778 -0.2665  0.7510
  226MPD1     H 3487   0.405   3.870   9.350 -0.2655  1.0573 -1.8555
  226MPD1    H1 3488   0.480   4.298   9.347 -0.0839  0.1737  0.2080
  226MPD1    H2 3489   0.119   4.154   9.480 -0.5371 -2.8550 -1.0148
  226MPD1    H3 3490   0.267   4.330   9.442 -4.1455 -1.2354 -0.9387
  226MPD1     N 3491   0.598   4.035   9.294  0.1690  0.2189 -0.6083
  226MPD1    H5 3492   0.604   3.934   9.290  2.6424  0.3364 -0.0918
  226MPD1    N1 3493   0.159   3.897   9.450  0.2117 -0.6967 -0.3674
  226MPD1    H6 3494   0.078   3.933   9.500  0.3351 -2.8312  1.3575
  226MPD1    H7 3495   0.198   3.815   9.494  0.9179 -1.1570 -1.8417
  227MPD1     C 3496   1.154   3.978   8.369 -0.2918 -0.3580  0.2045
  227MPD1    C1 3497   1.133   3.857   8.433  0.0242 -0.3520 -0.4054
  227MPD1    C2 3498   1.081   3.858   8.558  0.1613  0.3269  0.4821
  227MPD1    C3 3499   1.056   3.975   8.623  1.1218  0.1127 -0.5066
  227MPD1    C4 3500   1.095   4.099   8.569 -0.3146  0.8648  0.6104
  227MPD1    C5 3501   1.151   4.095   8.442 -0.6241 -0.2365  0.1729
  227MPD1     H 3502   1.043   3.766   8.602  1.9545  0.3298  2.0245
  227MPD1    H1 3503   1.091   4.196   8.617 -3.3321  0.5196  1.0890
  227MPD1    H2 3504   1.194   3.988   8.269 -2.3447  1.9487 -0.4009
  227MPD1    H3 3505   1.171   4.191   8.395 -0.1053 -1.4344 -2.0493
  227MPD1     N 3506   0.997   3.968   8.755  0.3105  0.7121  0.4870
  227MPD1    H5 3507   0.975   3.872   8.781 -1.0990  0.4246 -1.7219
  227MPD1    N1 3508   1.151   3.739   8.358 -0.6164  0.2270 -0.5970
  227MPD1    H6 3509   1.238   3.736   8.305 -0.1563  1.6411  0.0550
  227MPD1    H7 3510   1.133   3.650   8.403  1.2304  0.0887 -0.1308
  228MPD1     C 3511   1.089   2.888  12.368 -0.2134 -0.1904 -1.2472
  228MPD1    C1 3512   1.003   2.930  12.262 -0.0114  0.0266 -0.0663
  228MPD1    C2 3513   0.870   2.943  12.305 -0.5765 -0.0535 -0.0558
  228MPD1    C3 3514   0.819   2.912  12.432 -0.1248  0.6645 -0.1418
  228MPD1    C4 3515   0.911   2.860  12.521 -0.0024 -0.1114  0.5276
  228MPD1    C5 3516   1.045   2.850  12.491 -0.3104  0.4720  0.0808
  228MPD1     H 3517   0.799   2.977  12.230 -0.5875  0.2559  0.0967
  228MPD1    H1 3518   0.876   2.835  12.621  0.8456 -0.6666  0.6844
  228MPD1    H2 3519   1.198   2.889  12.362  0.0381  0.2019  3.0675
  228MPD1    H3 3520   1.111   2.819  12.571  0.3734 -0.6308 -0.8980
  228MPD1     N 3521   0.683   2.938  12.451  0.2771 -0.4552  0.3626
  228MPD1    H5 3522   0.621   2.959  12.374  1.9370 -0.8733 -1.0983
  228MPD1    N1 3523   1.049   2.977  12.137 -0.3860  0.4108 -0.2445
  228MPD1    H6 3524   1.141   2.949  12.103 -0.1610  0.0618  0.6699
  228MPD1    H7 3525   0.981   2.968  12.061  1.8923  1.7915 -2.4593
  229MPD1     C 3526   0.017   1.957  14.720 -0.7468 -0.0975  0.3075
  229MPD1    C1 3527   0.040   1.839  14.647  0.2160 -0.2488  0.6376
  229MPD1    C2 3528   0.126   1.748  14.703  0.3256  0.2580 -0.1745
  229MPD1    C3 3529   0.166   1.756  14.834  0.5165  0.3994  0.2642
  229MPD1    C4 3530   0.125   1.866  14.906  0.5321  0.4961 -0.4204
  229MPD1    C5 3531   0.060   1.973  14.846  0.2058 -0.1064 -0.3011
  229MPD1     H 3532   0.145   1.662  14.641  1.1588 -0.1114  0.5829
  229MPD1    H1 3533   0.157   1.886  15.008  0.7291 -0.2761 -0.3268
  229MPD1    H2 3534   4.699   2.040  14.677  1.9247  1.4489 -0.2271
  229MPD1    H3 3535   0.054   2.065  14.905 -0.3857  0.4576 -1.2436
  229MPD1     N 3536   0.240   1.659  14.902  0.0229  0.0664  0.2126
  229MPD1    H5 3537   0.258   1.686  14.998  1.1812 -0.6075  0.1880
  229MPD1    N1 3538   0.004   1.827  14.515 -0.0188  0.0964  0.1327
  229MPD1    H6 3539   4.656   1.876  14.488 -0.2695 -1.1337 -1.3295
  229MPD1    H7 3540   4.722   1.731  14.489  0.3262  0.4067 -1.2821
  230MPD1     C 3541   0.892   1.528  15.647 -1.0494 -0.1566 -0.2355
  230MPD1    C1 3542   0.911   1.403  15.587 -0.4670  0.1669 -0.5363
  230MPD1    C2 3543   0.827   1.367  15.479  0.0949  0.6221  0.4732
  230MPD1    C3 3544   0.727   1.459  15.428  0.0663  0.0413 -0.0669
  230MPD1    C4 3545   0.712   1.576  15.492 -0.0910 -0.1130 -0.2539
  230MPD1    C5 3546   0.800   1.611  15.592 -0.8525 -0.3742 -0.0241
  230MPD1     H 3547   0.848   1.276  15.424  1.4258 -0.7256  3.2233
  230MPD1    H1 3548   0.641   1.652  15.461 -2.2641 -2.1881 -0.3346
  230MPD1    H2 3549   0.951   1.561  15.731 -1.9686  2.2892 -0.5643
  230MPD1    H3 3550   0.789   1.711  15.632  2.8640  0.0217 -0.0091
  230MPD1     N 3551   0.648   1.419  15.319  0.0312 -0.0392 -0.2948
  230MPD1    H5 3552   0.665   1.323  15.290 -1.4858 -0.5683  0.4970
  230MPD1    N1 3553   1.025   1.334  15.619 -0.3435  0.5517  0.2853
  230MPD1    H6 3554   1.052   1.339  15.717 -2.6257 -0.7816  0.9877
  230MPD1    H7 3555   1.018   1.233  15.606 -0.7105  0.3888  1.7844
  231MPD1     C 3556   2.881   3.310  15.478 -0.2567 -0.3455 -0.1441
  231MPD1    C1 3557   2.832   3.392  15.377 -0.5456  0.3177 -0.1222
  231MPD1    C2 3558   2.929   3.468  15.313  0.5310  0.2039  0.2085
  231MPD1    C3 3559   3.060   3.449  15.332 -0.1084 -0.7195 -0.7129
  231MPD1    C4 3560   3.108   3.348  15.416  0.4788  0.5261  0.8457
  231MPD1    C5 3561   3.014   3.303  15.504  0.1848 -0.2714 -0.4738
  231MPD1     H 3562   2.902   3.551  15.249 -1.0879 -0.1235  0.4541
  231MPD1    H1 3563   3.213   3.326  15.432  0.6391  1.7869  1.5428
  231MPD1    H2 3564   2.809   3.256  15.537 -0.7265 -0.6707 -1.0147
  231MPD1    H3 3565   3.043   3.236  15.584 -1.6741 -0.8862 -0.3151
  231MPD1     N 3566   3.145   3.523  15.243 -0.6154  0.2988  0.6173
  231MPD1    H5 3567   3.096   3.581  15.176  3.4999  2.4057 -0.5392
  231MPD1    N1 3568   2.694   3.422  15.374 -0.0356  0.6201 -0.2994
  231MPD1    H6 3569   2.665   3.463  15.286 -0.9627 -0.5837 -0.5575
  231MPD1    H7 3570   2.637   3.342  15.401  0.3875  0.8148  1.1889
  232MPD1     C 3571   0.052   1.234   0.305  0.4189 -0.5005  0.3766
  232MPD1    C1 3572   0.015   1.336   0.214  0.0188 -0.1505 -0.7625
  232MPD1    C2 3573   4.692   1.296   0.094  0.1511  0.7469 -0.0445
  232MPD1    C3 3574   4.696   1.165   0.059 -0.7326  0.5251  0.7957
  232MPD1    C4 3575   0.004   1.066   0.148  0.3094  0.0343  0.7447
  232MPD1    C5 3576   0.043   1.103   0.272  0.2592 -1.1795 -0.2212
  232MPD1     H 3577   4.645   1.372   0.032 -1.0448  0.8575  1.0097
  232MPD1    H1 3578   0.015   0.959   0.129  0.2795  0.3427 -1.0396
  232MPD1    H2 3579   0.096   1.257   0.401  2.3446 -0.2160 -0.5762
  232MPD1    H3 3580   0.074   1.026   0.343  0.7708 -1.0350 -0.2890
  232MPD1     N 3581   4.640   1.124  17.683 -0.1789 -0.5705  0.2943
  232MPD1    H5 3582   4.576   1.191  17.641  1.6535  0.5347 -0.7608
  232MPD1    N1 3583   0.013   1.464   0.254  0.3305 -0.2294 -0.7827
  232MPD1    H6 3584   0.021   1.528   0.176  0.3482  2.5024  1.4594
  232MPD1    H7 3585   0.083   1.489   0.324  1.7231  0.0039 -2.2812
  233MPD1     C 3586   1.120   4.139   1.934 -1.0320 -0.3933  0.0177
  233MPD1    C1 3587   1.225   4.176   2.012 -0.0109  0.0260  0.0834
  233MPD1    C2 3588   1.357   4.140   1.983  0.3850  0.2303 -0.1969
  233MPD1    C3 3589   1.377   4.037   1.884  0.6759 -1.2396  0.2225
  233MPD1    C4 3590   1.270   3.997   1.808  0.7899 -0.1371  0.0902
  233MPD1    C5 3591   1.142   4.040   1.839  0.4775 -0.2603 -0.2232
  233MPD1     H 3592   1.442   4.177   2.038 -0.4533 -1.1428  1.9780
  233MPD1    H1 3593   1.273   3.926   1.726  2.8194  1.9478 -1.6734
  233MPD1    H2 3594   1.020   4.169   1.960 -0.9466  0.5552 -0.7580
  233MPD1    H3 3595   1.066   4.006   1.769 -0.1165  0.4834  0.0609
  233MPD1     N 3596   1.504   3.985   1.852 -0.0435 -0.0478 -0.4549
  233MPD1    H5 3597   1.499   3.903   1.793  0.9678 -1.9780  2.1220
  233MPD1    N1 3598   1.204   4.268   2.113  0.3815  0.2570  0.1660
  233MPD1    H6 3599   1.113   4.250   2.155  0.0434 -0.5043 -0.9014
  233MPD1    H7 3600   1.276   4.256   2.184 -0.2920 -0.0106  0.8021
  234MPD1     C 3601   2.717   4.271   9.593  0.8177  0.8079  0.4209
  234MPD1    C1 3602   2.578   4.276   9.578 -0.0062 -0.4008 -0.0399
  234MPD1    C2 3603   2.507   4.156   9.565  0.4667 -0.1193 -0.0761
  234MPD1    C3 3604   2.573   4.031   9.576  0.0832  0.3081  0.7718
  234MPD1    C4 3605   2.711   4.034   9.590  0.5444  0.2121  0.7780
  234MPD1    C5 3606   2.779   4.154   9.603 -0.4516 -0.2143  0.1770
  234MPD1     H 3607   2.403   4.162   9.538  0.9340  1.5358 -1.5189
  234MPD1    H1 3608   2.765   3.942   9.606 -0.7774 -1.0171 -1.7573
  234MPD1    H2 3609   2.782   4.357   9.602 -0.5851  1.9010 -0.0012
  234MPD1    H3 3610   2.887   4.150   9.610 -0.6834 -0.9256  3.0878
  234MPD1     N 3611   2.498   3.916   9.562  0.8411  0.3453 -0.3678
  234MPD1    H5 3612   2.399   3.920   9.541  0.8485 -1.0781 -0.6914
  234MPD1    N1 3613   2.510   4.397   9.532  0.1596 -0.5448 -0.1425
  234MPD1    H6 3614   2.409   4.393   9.539  0.3606 -0.4329  3.2009
  234MPD1    H7 3615   2.537   4.476   9.590 -2.0236 -1.7198  2.4792
  235MPD1     C 3616   3.984   4.150  10.704 -1.1102 -0.7207 -0.1536
  235MPD1    C1 3617   3.869   4.193  10.636  0.0394  0.0673 -0.6491
  235MPD1    C2 3618   3.866   4.321  10.586  0.2712  0.0867  0.1446
  235MPD1    C3 3619   3.989   4.399  10.576  0.0101 -0.8610  0.3867
  235MPD1    C4 3620   4.104   4.349  10.639 -0.5282 -0.0749  0.7870
  235MPD1    C5 3621   4.096   4.230  10.704  0.4836  0.0934  0.1161
  235MPD1     H 3622   3.772   4.357  10.547  0.5460  2.0602  1.3599
  235MPD1    H1 3623   4.193   4.409  10.656  0.6746 -1.3736 -0.8376
  235MPD1    H2 3624   3.988   4.054  10.755  0.2685  0.5414  2.1208
  235MPD1    H3 3625   4.195   4.212  10.745  0.5011 -0.9175 -0.3711
  235MPD1     N 3626   3.980   4.515  10.503 -0.0872 -0.3628 -0.0223
  235MPD1    H5 3627   3.884   4.541  10.481  0.3828  1.3756 -0.0266
  235MPD1    N1 3628   3.754   4.117  10.636 -0.1235 -0.6928  0.1572
  235MPD1    H6 3629   3.774   4.018  10.640 -1.2770 -0.8980  0.7669
  235MPD1    H7 3630   3.688   4.138  10.561 -0.4277  0.4852  0.7479
  236MPD1     C 3631   3.028   0.334  10.136 -0.2003  0.0771 -0.3927
  236MPD1    C1 3632   3.146   0.259  10.155 -0.5230 -0.1331  0.7563
  236MPD1    C2 3633   3.236   0.303  10.250  0.5167 -0.2280  0.7529
  236MPD1    C3 3634   3.203   0.406  10.334  0.3407  0.0067 -0.3986
  236MPD1    C4 3635   3.088   0.480  10.315  0.5627 -0.2141 -0.1731
  236MPD1    C5 3636   2.994   0.432  10.216 -0.2085 -0.5050 -0.4972
  236MPD1     H 3637   3.337   0.265  10.249  0.5548 -0.0847 -0.0700
  236MPD1    H1 3638   3.069   0.574  10.366  0.7677 -1.3282  1.9495
  236MPD1    H2 3639   2.958   0.303  10.060  0.0412  0.1465 -0.6446
  236MPD1    H3 3640   2.897   0.480  10.203  0.6709  2.0451  2.1108
  236MPD1     N 3641   3.284   0.456  10.436 -0.0038 -0.3636 -0.2268
  236MPD1    H5 3642   3.261   0.545  10.479  3.0993  0.7319 -0.8879
  236MPD1    N1 3643   3.180   0.167  10.055 -0.3324 -0.1157  0.2032
  236MPD1    H6 3644   3.227   0.082  10.087  0.8332 -0.0514 -1.2976
  236MPD1    H7 3645   3.101   0.148   9.994 -1.0128 -0.0292  1.0790
  237MPD1     C 3646   3.176   1.004  15.031 -0.3001 -0.3539  0.2768
  237MPD1    C1 3647   3.092   0.972  15.141 -0.2788 -0.0776  1.0716
  237MPD1    C2 3648   3.044   0.836  15.162  0.1018  0.3024  0.3883
  237MPD1    C3 3649   3.089   0.732  15.085  0.5701  0.6335 -0.1159
  237MPD1    C4 3650   3.172   0.768  14.978 -0.3092  0.7162  0.5021
  237MPD1    C5 3651   3.214   0.896  14.949 -0.3814 -0.3310 -0.0931
  237MPD1     H 3652   2.970   0.823  15.239  0.1919 -0.3089  0.3694
  237MPD1    H1 3653   3.207   0.697  14.904 -2.0616 -0.5057  0.8622
  237MPD1    H2 3654   3.196   1.105  14.995  0.5378 -1.1355 -1.4210
  237MPD1    H3 3655   3.264   0.918  14.855 -0.0570  1.0791  0.4054
  237MPD1     N 3656   3.064   0.596  15.108  0.2770  0.7403 -0.1374
  237MPD1    H5 3657   3.106   0.531  15.043 -0.9911 -0.0598 -0.1646
  237MPD1    N1 3658   3.030   1.085  15.206  0.2437 -0.2707 -0.5828
  237MPD1    H6 3659   3.003   1.050  15.297 -0.9599 -0.2650 -0.9388
  237MPD1    H7 3660   2.939   1.100  15.164  0.2221  0.9968 -0.1154
  238MPD1     C 3661   0.763   3.216  15.006 -0.0921  0.0596  0.0965
  238MPD1    C1 3662   0.725   3.271  14.886 -0.5689 -0.2731 -0.4881
  238MPD1    C2 3663   0.599   3.258  14.845  0.2369  0.9632  0.1273
  238MPD1    C3 3664   0.515   3.162  14.903 -0.2300  1.0591 -0.5852
  238MPD1    C4 3665   0.565   3.094  15.014 -0.1331  0.3062 -0.9146
  238MPD1    C5 3666   0.683   3.125  15.072  0.1295 -0.0622 -0.3479
  238MPD1     H 3667   0.573   3.303  14.750  0.0545 -1.1184 -0.8190
  238MPD1    H1 3668   0.499   3.020  15.057 -0.4703  1.1043 -0.0794
  238MPD1    H2 3669   0.860   3.236  15.051  0.0118 -1.8025  0.7253
  238MPD1    H3 3670   0.715   3.079  15.165  2.2829  2.3803  0.1268
  238MPD1     N 3671   0.384   3.128  14.843  0.2120  0.9234  0.0229
  238MPD1    H5 3672   0.336   3.050  14.886  2.3218 -0.0513  0.6188
  238MPD1    N1 3673   0.814   3.356  14.813  0.0328  0.3058  0.1458
  238MPD1    H6 3674   0.882   3.389  14.882 -0.2576  1.3539 -0.0618
  238MPD1    H7 3675   0.769   3.433  14.764  2.1102 -0.8854 -3.6257
  239MPD1     C 3676   0.615   4.591  14.641  0.5146 -0.1231  0.3991
  239MPD1    C1 3677   0.524   4.511  14.711 -0.2673 -0.3221 -0.2614
  239MPD1    C2 3678   0.396   4.504  14.656 -0.3642  0.2110  0.6651
  239MPD1    C3 3679   0.365   4.552  14.532  0.3501  0.6873  0.2194
  239MPD1    C4 3680   0.462   4.623  14.464  0.1652  0.3259 -0.3324
  239MPD1    C5 3681   0.586   4.643  14.518  0.2875 -0.2707 -0.6434
  239MPD1     H 3682   0.321   4.446  14.708 -1.0825  1.6486  1.2383
  239MPD1    H1 3683   0.435   4.682  14.378  1.7299 -0.3420 -1.2867
  239MPD1    H2 3684   0.709   4.622  14.686  1.6663 -3.9590  0.6752
  239MPD1    H3 3685   0.660   4.710  14.477  1.3838 -1.2092 -0.1980
  239MPD1     N 3686   0.229   4.538  14.478  0.2011  0.2158  0.5117
  239MPD1    H5 3687   0.239   4.568  14.381  2.4162 -0.1613  0.6312
  239MPD1    N1 3688   0.542   4.464  14.843  0.0573  0.1383  0.0151
  239MPD1    H6 3689   0.490   4.380  14.865  3.0688 -2.0387 -1.1587
  239MPD1    H7 3690   0.639   4.446  14.867  0.1348 -0.3436 -0.6636
  240MPD1     C 3691   4.624   4.019  13.986 -0.0074  0.3536  0.4821
  240MPD1    C1 3692   4.491   3.990  14.026  0.4562 -0.1475 -0.0245
  240MPD1    C2 3693   4.465   3.934  14.149  0.3514 -0.5866 -0.6080
  240MPD1    C3 3694   4.570   3.896  14.233 -0.6931 -0.0568  0.4413
  240MPD1    C4 3695   4.693   3.936  14.191  0.3958 -0.4970 -0.5124
  240MPD1    C5 3696   4.721   4.000  14.076 -0.4739 -0.4324  0.9920
  240MPD1     H 3697   4.363   3.915  14.180 -0.0208  1.9395 -0.3195
  240MPD1    H1 3698   0.043   3.921  14.253 -0.7919  0.2385  1.3372
  240MPD1    H2 3699   4.642   4.065  13.889  2.3555  0.4769  0.9877
  240MPD1    H3 3700   0.089   3.998  14.052 -0.6394  3.2491 -0.0844
  240MPD1     N 3701   4.534   3.822  14.345 -0.0757  0.1886 -0.0919
  240MPD1    H5 3702   4.436   3.797  14.356 -0.2429  1.3630  1.0362
  240MPD1    N1 3703   4.385   4.022  13.942  0.4130 -0.5790  0.5229
  240MPD1    H6 3704   4.405   4.006  13.844 -1.8870  1.0940 -0.2298
  240MPD1    H7 3705   4.295   3.979  13.963  1.1943 -2.0338  0.9020
  241MPD1     C 3706   0.329   3.476  15.110  0.5408 -0.4123 -0.8945
  241MPD1    C1 3707   0.207   3.412  15.139  0.0762  0.2999 -0.1019
  241MPD1    C2 3708   0.107   3.434  15.041 -0.1174 -0.1518 -0.2076
  241MPD1    C3 3709   0.137   3.509  14.926  0.3542  0.6034  0.1603
  241MPD1    C4 3710   0.258   3.562  14.897 -0.7550  0.6321  0.4472
  241MPD1    C5 3711   0.352   3.541  14.993 -0.1182  0.3124 -0.0136
  241MPD1     H 3712   0.002   3.422  15.065 -0.8873  1.6584 -2.6506
  241MPD1    H1 3713   0.285   3.613  14.805  0.1596  0.6598  0.7352
  241MPD1    H2 3714   0.417   3.465  15.171 -1.1974 -0.5491  1.5895
  241MPD1    H3 3715   0.452   3.568  14.961 -0.9524  2.5258 -0.7959
  241MPD1     N 3716   0.036   3.541  14.824 -0.4604  0.2056  0.1256
  241MPD1    H5 3717   0.071   3.596  14.747 -0.0598 -1.3614 -0.8176
  241MPD1    N1 3718   0.179   3.367  15.269  0.1892  0.0216  0.2294
  241MPD1    H6 3719   0.101   3.304  15.286  0.0014  0.2664  0.2821
  241MPD1    H7 3720   0.253   3.326  15.325 -1.2227 -2.9569 -0.0712
  242MPD1     C 3721   0.103   2.527  15.842 -0.3069  0.4464  0.3462
  242MPD1    C1 3722   0.009   2.592  15.763  0.4702  0.5541 -0.0121
  242MPD1    C2 3723   0.019   2.557  15.628 -0.7895  0.2190  1.0918
  242MPD1    C3 3724   0.112   2.473  15.564  0.0128 -0.3130  0.0005
  242MPD1    C4 3725   0.197   2.409  15.655  0.2507 -0.0368  0.1225
  242MPD1    C5 3726   0.187   2.437  15.788 -0.3209 -0.2717 -0.1348
  242MPD1     H 3727   4.688   2.606  15.561 -0.4483 -1.8176 -0.7578
  242MPD1    H1 3728   0.265   2.338  15.609  1.9921  0.8330  1.3545
  242MPD1    H2 3729   0.128   2.541  15.947  0.4499  2.3003 -0.0966
  242MPD1    H3 3730   0.251   2.385  15.859  0.3629  1.7256  0.7069
  242MPD1     N 3731   0.131   2.464  15.424  0.5315 -0.3091 -0.1072
  242MPD1    H5 3732   0.202   2.393  15.408  1.2711  0.5398 -0.6185
  242MPD1    N1 3733   4.652   2.685  15.810 -0.2527 -0.1367 -0.5532
  242MPD1    H6 3734   4.589   2.642  15.877  0.7794  0.6373  0.8951
  242MPD1    H7 3735   4.595   2.720  15.733 -0.2324 -1.4264 -1.1691
  243MPD1     C 3736   0.494   0.557  17.439 -0.2855  0.9215 -0.1884
  243MPD1    C1 3737   0.570   0.446  17.414 -0.2920  0.3453  0.7383
  243MPD1    C2 3738   0.690   0.467  17.352  0.0314 -0.2030  0.6029
  243MPD1    C3 3739   0.751   0.591  17.335  0.9960 -0.4543  0.2158
  243MPD1    C4 3740   0.674   0.704  17.363 -0.4521  0.3055 -0.6854
  243MPD1    C5 3741   0.550   0.687  17.427 -0.2744  0.7925 -0.2013
  243MPD1     H 3742   0.733   0.372  17.320  2.4144  0.5993  1.3884
  243MPD1    H1 3743   0.716   0.803  17.350  2.0672 -0.4475  1.7650
  243MPD1    H2 3744   0.396   0.546  17.485 -0.1474  3.0229  0.5923
  243MPD1    H3 3745   0.486   0.769  17.458 -0.6457  0.0647  0.9633
  243MPD1     N 3746   0.881   0.598  17.282 -0.2463 -0.2466  0.3199
  243MPD1    H5 3747   0.921   0.509  17.253  1.5083 -0.5445  3.6608
  243MPD1    N1 3748   0.522   0.315  17.414  0.2161  0.6594  0.0656
  243MPD1    H6 3749   0.592   0.246  17.441 -0.6691 -0.4241 -0.4324
  243MPD1    H7 3750   0.442   0.312  17.477  1.9126  1.5189  2.2853
  244MPD1     C 3751   1.482   4.674  16.975  1.0258 -0.3020  0.3885
  244MPD1    C1 3752   1.488   0.040  16.883 -0.6636 -0.1611  0.3367
  244MPD1    C2 3753   1.430   0.164  16.925  0.2711 -0.2266 -0.4215
  244MPD1    C3 3754   1.394   0.196  17.050 -0.0681 -0.2602 -0.1740
  244MPD1    C4 3755   1.403   0.100  17.144  0.8228  0.0414 -0.2821
  244MPD1    C5 3756   1.447   4.712  17.108 -0.3271 -0.1046  0.0269
  244MPD1     H 3757   1.439   0.254  16.866  3.4068 -0.8868 -0.9450
  244MPD1    H1 3758   1.375   0.120  17.247 -2.9930  0.3994 -1.3802
  244MPD1    H2 3759   1.502   4.569  16.955  0.7661 -0.1778 -0.5104
  244MPD1    H3 3760   1.424   4.633  17.177 -1.5279  1.4087  1.3602
  244MPD1     N 3761   1.356   0.321  17.078 -0.6709  0.6135  0.1640
  244MPD1    H5 3762   1.356   0.373  16.991  1.1963 -1.5760 -1.1536
  244MPD1    N1 3763   1.522   0.022  16.747  0.2269 -0.3336 -0.4554
  244MPD1    H6 3764   1.599   4.694  16.738  1.4735  1.0974 -0.0859
  244MPD1    H7 3765   1.556   0.111  16.713 -0.9301  0.5566  0.7554
  245MPD1     C 3766   2.688   1.275  12.943  0.1942  0.2627  0.0251
  245MPD1    C1 3767   2.759   1.231  13.057  0.9713  0.2011 -0.3762
  245MPD1    C2 3768   2.842   1.325  13.115 -0.2737 -0.0300  0.2502
  245MPD1    C3 3769   2.841   1.461  13.089 -0.2819 -0.4459  0.4272
  245MPD1    C4 3770   2.770   1.503  12.978  0.1679  0.0838  0.3973
  245MPD1    C5 3771   2.699   1.409  12.908 -0.0572  0.2240  0.6079
  245MPD1     H 3772   2.909   1.293  13.194  1.3487  0.8859 -0.7392
  245MPD1    H1 3773   2.768   1.606  12.943  1.8367 -0.0238 -0.0136
  245MPD1    H2 3774   2.618   1.211  12.891 -2.2103  2.5305  0.4670
  245MPD1    H3 3775   2.636   1.442  12.826  2.3452 -2.0261 -2.1267
  245MPD1     N 3776   2.926   1.535  13.170 -0.1857  0.1013 -0.4091
  245MPD1    H5 3777   2.959   1.485  13.251 -0.2373 -0.3812 -0.6895
  245MPD1    N1 3778   2.784   1.099  13.087 -0.4269  0.2124 -0.4499
  245MPD1    H6 3779   2.704   1.042  13.060  0.2154 -0.0212 -1.8460
  245MPD1    H7 3780   2.819   1.089  13.182 -1.1955  1.9035  0.0225
  246MPD1     C 3781   1.737   0.282   9.989 -1.0435 -0.2198  0.1568
  246MPD1    C1 3782   1.739   0.405  10.048 -0.2796 -0.5148 -0.0179
  246MPD1    C2 3783   1.769   0.516   9.972 -0.4553  0.3714 -0.1930
  246MPD1    C3 3784   1.769   0.509   9.831 -0.0160 -0.0189 -0.7145
  246MPD1    C4 3785   1.746   0.386   9.771 -0.0135 -0.3891  0.8028
  246MPD1    C5 3786   1.732   0.276   9.851  0.5774 -0.5086  0.5635
  246MPD1     H 3787   1.778   0.610  10.024 -0.0445 -0.4348  1.1948
  246MPD1    H1 3788   1.774   0.373   9.667 -2.4301  1.7207 -0.1178
  246MPD1    H2 3789   1.733   0.192  10.049 -0.8633 -1.1816 -1.2955
  246MPD1    H3 3790   1.740   0.178   9.805 -1.8485 -0.0991 -0.7227
  246MPD1     N 3791   1.797   0.627   9.757  0.4158  0.0033 -0.0001
  246MPD1    H5 3792   1.820   0.712   9.808  0.2131  1.3921 -2.2278
  246MPD1    N1 3793   1.744   0.417  10.186 -0.1233  0.8315 -0.1619
  246MPD1    H6 3794   1.717   0.509  10.220 -2.1313  0.1239  0.1116
  246MPD1    H7 3795   1.677   0.363  10.240  0.8950  0.0876  0.3685
  247MPD1     C 3796   3.299   4.696  16.186 -0.1345  0.4263 -0.8727
  247MPD1    C1 3797   3.187   4.729  16.255  0.3842  0.0066  0.0356
  247MPD1    C2 3798   3.121   0.109  16.218  0.8363 -0.4789 -1.2266
  247MPD1    C3 3799   3.153   0.178  16.107  0.5169  0.5723  0.5475
  247MPD1    C4 3800   3.255   0.132  16.035 -0.0530 -0.1503  0.1297
  247MPD1    C5 3801   3.339   0.029  16.082  0.2530  0.0543  0.3680
  247MPD1     H 3802   3.040   0.141  16.283  0.2768 -2.0300 -1.1577
  247MPD1    H1 3803   3.288   0.170  15.939  2.3002  0.9836  1.3747
  247MPD1    H2 3804   3.359   4.611  16.216 -0.5748 -0.1788 -1.6870
  247MPD1    H3 3805   3.426   0.005  16.022 -0.5657  0.7381 -1.0833
  247MPD1     N 3806   3.086   0.286  16.054 -0.5197 -0.0630 -0.1693
  247MPD1    H5 3807   3.114   0.324  15.963 -0.6539  0.2152 -0.0934
  247MPD1    N1 3808   3.157   4.662  16.371  0.1201 -0.1921 -0.5249
  247MPD1    H6 3809   3.056   4.664  16.389  0.0077 -1.9057 -0.9635
  247MPD1    H7 3810   3.181   4.563  16.365  3.2329  0.6202 -1.4660
  248MPD1     C 3811   1.517   1.984  17.214  0.0082 -0.0131 -0.2953
  248MPD1    C1 3812   1.526   1.938  17.080  0.6709  0.0519  0.3353
  248MPD1    C2 3813   1.578   1.811  17.066 -0.5429 -0.1084 -0.0056
  248MPD1    C3 3814   1.631   1.736  17.171 -0.2669 -0.5352 -0.0751
  248MPD1    C4 3815   1.631   1.788  17.300 -0.5161  0.9964  0.7915
  248MPD1    C5 3816   1.568   1.912  17.321  0.1000 -0.8218 -0.1033
  248MPD1     H 3817   1.583   1.772  16.965 -0.7777  0.4205 -0.2236
  248MPD1    H1 3818   1.663   1.734  17.388 -0.3549 -0.9007 -0.4101
  248MPD1    H2 3819   1.461   2.075  17.233 -1.3080 -1.3140  1.9003
  248MPD1    H3 3820   1.542   1.941  17.422 -0.5674 -1.9098  0.0463
  248MPD1     N 3821   1.676   1.605  17.137 -0.0339 -0.2826 -0.4100
  248MPD1    H5 3822   1.677   1.583  17.038 -0.8489  2.4689 -1.0330
  248MPD1    N1 3823   1.503   2.022  16.970  0.8445 -0.0515  0.1019
  248MPD1    H6 3824   1.484   1.972  16.884  1.9662 -2.4312  1.2545
  248MPD1    H7 3825   1.428   2.089  16.988 -1.4654 -2.7891  0.5299
  249MPD1     C 3826   0.814   1.893  10.522 -0.5051  0.0940  0.3440
  249MPD1    C1 3827   0.909   1.809  10.582  1.0652  0.5115 -0.6390
  249MPD1    C2 3828   0.883   1.671  10.583 -0.1278 -0.3903  0.2705
  249MPD1    C3 3829   0.766   1.615  10.532  0.1836  0.1111  0.4910
  249MPD1    C4 3830   0.684   1.698  10.460  0.1551  0.0923 -0.0786
  249MPD1    C5 3831   0.711   1.834  10.455  0.4703  0.5299  0.3658
  249MPD1     H 3832   0.959   1.609  10.630  1.0572  0.5054 -0.4824
  249MPD1    H1 3833   0.595   1.660  10.412 -0.7602 -0.6909  2.2559
  249MPD1    H2 3834   0.819   2.001  10.520  1.3942  0.0106  0.6397
  249MPD1    H3 3835   0.649   1.898  10.392 -0.7447  0.5241  1.5649
  249MPD1     N 3836   0.740   1.485  10.560  0.1850 -0.4236 -0.0016
  249MPD1    H5 3837   0.807   1.426  10.609  0.6331  0.2090  0.1498
  249MPD1    N1 3838   1.019   1.855  10.652  0.1292 -0.1752  0.2755
  249MPD1    H6 3839   1.042   1.953  10.637  0.1023 -0.5350 -2.1534
  249MPD1    H7 3840   1.101   1.802  10.622 -0.4673 -1.3166  0.6539
  250MPD2     C 3841   0.983   4.440  13.197  1.0616 -0.2143  0.0335
  250MPD2    C1 3842   1.111   4.457  13.143 -0.1832  0.0017 -0.4861
  250MPD2    C2 3843   1.142   4.372  13.039  0.1285  0.0092  0.0178
  250MPD2    C3 3844   1.047   4.284  12.986 -0.4926  0.9008  0.3999
  250MPD2    C4 3845   0.919   4.277  13.036  0.5175 -0.1760  0.2417
  250MPD2    C5 3846   0.897   4.347  13.154  0.0200  0.4692  0.0551
  250MPD2     H 3847   1.237   4.387  12.989  1.4468 -0.6261  2.3327
  250MPD2    H1 3848   0.844   4.206  13.003 -0.2686  0.5263  0.5281
  250MPD2    H2 3849   0.946   4.501  13.278  2.5937  0.9219 -0.1188
  250MPD2    H3 3850   0.797   4.339  13.195  0.1586 -0.5214  0.1924
  250MPD2     N 3851   1.063   4.214  12.867 -0.7629 -0.4340 -0.3046
  250MPD2    H5 3852   0.980   4.164  12.835 -1.0571 -0.0795 -0.0940
  250MPD2    N1 3853   1.190   4.559  13.201  0.2991  0.1960 -0.1210
  250MPD2    H7 3854   1.151   4.611  13.279  0.3723  1.7275 -1.1124
  251TMC3    C1 3855   1.378   4.698  13.251  0.3447  0.1648  0.0732
  251TMC3    C2 3856   1.283   0.059  13.298 -0.4507 -0.7333  0.3900
  251TMC3    C3 3857   1.331   0.172  13.352  0.6270 -0.2522  0.0383
  251TMC3    C4 3858   1.507   4.715  13.259  0.4484 -0.4333 -0.7244
  251TMC3    C5 3859   1.548   0.101  13.312  0.0197  0.3150 -0.5927
  251TMC3    C6 3860   1.465   0.191  13.370 -0.2765 -0.7614 -0.2008
  251TMC3     C 3861   1.331   4.575  13.180 -0.4208  0.5541  0.2266
  251TMC3     O 3862   1.402   4.504  13.114 -0.3310 -0.1155 -0.4186
  251TMC3     H 3863   1.180   0.052  13.264 -0.8989 -1.9308  2.0158
  251TMC3    H1 3864   1.583   4.660  13.205  3.2001  0.2829  2.4199
  251TMC3    H2 3865   1.498   0.273  13.433  2.6415 -0.4138 -2.1638
  251TMC3    C7 3866   1.680   0.140  13.276  0.2896 -0.5825  0.0366
  251TMC3    C8 3867   1.244   0.273  13.400 -0.3550  0.4921 -1.1625
  251TMC3    O1 3868   1.771   0.063  13.297  0.2425 -0.3612 -0.3613
  251TMC3    O2 3869   1.271   0.337  13.499 -0.0032  0.5043 -0.4399
  252TMC3    C1 3870   1.102   1.207   9.568  0.8546  0.3320  0.3840
  252TMC3    C2 3871   1.204   1.300   9.561 -1.2515 -0.3480  0.9808
  252TMC3    C3 3872   1.292   1.317   9.666 -0.0209 -0.2726  0.8014
  252TMC3    C4 3873   1.104   1.114   9.667 -0.3968 -0.1748 -0.5435
  252TMC3    C5 3874   1.192   1.127   9.769  0.1356 -0.1394 -1.0196
  252TMC3    C6 3875   1.286   1.228   9.775 -0.5508 -0.5011  0.0552
  252TMC3     C 3876   0.981   1.227   9.489  0.0057  0.4781 -0.3129
  252TMC3     O 3877   0.903   1.130   9.486 -0.6688  0.1852 -0.1431
  252TMC3     H 3878   1.217   1.379   9.488  0.1427 -1.1634  0.3545
  252TMC3    H1 3879   1.023   1.043   9.677  0.7697 -1.4847 -0.5319
  252TMC3    H2 3880   1.357   1.230   9.856 -0.6423  1.6170  0.0771
  252TMC3    C7 3881   1.161   1.043   9.884  0.4434  0.9110  0.4490
  252TMC3    C8 3882   1.386   1.429   9.664 -0.9023 -0.1539  0.1901
  252TMC3    O1 3883   1.171   1.096   9.995 -0.1393  0.4724  0.4352
  252TMC3    O2 3884   1.404   1.494   9.564  0.1557  0.6931  0.1347
  253MPD2     C 3885   2.646   0.104  15.988  0.5254  0.2697  0.4379
  253MPD2    C1 3886   2.588   0.031  15.888 -0.2406  0.0049 -0.2015
  253MPD2    C2 3887   2.521   4.654  15.919 -0.5795  0.2575 -0.7229
  253MPD2    C3 3888   2.512   4.619  16.055 -0.0623  0.7675 -0.0293
  253MPD2    C4 3889   2.585   4.690  16.151  0.1655 -0.1447 -0.1451
  253MPD2    C5 3890   2.655   0.057  16.115  0.0164  0.1537 -0.2950
  253MPD2     H 3891   2.477   4.598  15.838 -2.7947  0.7660  0.1357
  253MPD2    H1 3892   2.581   4.668  16.257  0.2268 -0.2866 -0.1723
  253MPD2    H2 3893   2.719   0.178  15.959  2.4837 -1.3833  1.1383
  253MPD2    H3 3894   2.705   0.110  16.196  1.3569 -1.0179 -0.3643
  253MPD2     N 3895   2.448   4.502  16.103 -0.3581  0.0270 -0.1718
  253MPD2    H5 3896   2.445   4.485  16.203  3.2961 -0.0771 -0.0756
  253MPD2    N1 3897   2.590   0.068  15.752  0.6982 -0.3830  0.1935
  253MPD2    H7 3898   2.527   0.015  15.693  2.8317  0.4132 -2.8291
  254TMC3    C1 3899   2.369   4.288  16.097  0.0338 -0.6795  0.1892
  254TMC3    C2 3900   2.261   4.220  16.065 -0.1736  1.0954  0.1035
  254TMC3    C3 3901   2.235   4.111  16.136  0.2602 -0.2155 -0.7977
  254TMC3    C4 3902   2.438   4.259  16.208 -0.2939 -0.2960 -0.4642
  254TMC3    C5 3903   2.400   4.158  16.286  0.3849  0.2729  0.3632
  254TMC3    C6 3904   2.303   4.069  16.251 -0.1709  0.7740  0.1385
  254TMC3     C 3905   2.393   4.408  16.022 -0.2518  0.3819 -0.3080
  254TMC3     O 3906   2.364   4.414  15.903 -0.0295 -0.2331 -0.1568
  254TMC3     H 3907   2.195   4.255  15.987  1.0097  0.2898 -1.2586
  254TMC3    H1 3908   2.532   4.307  16.233 -0.9145  2.3505 -3.2285
  254TMC3    H2 3909   2.267   3.986  16.310 -1.8741  0.3826 -1.4773
  254TMC3    C7 3910   2.481   4.105  16.386  0.4678 -0.1011  0.5298
  254TMC3    C8 3911   2.090   4.075  16.150 -0.0860  0.1578  0.4660
  254TMC3    O1 3912   2.483   3.988  16.406  0.3591  0.0461  0.0180
  254TMC3    O2 3913   2.054   4.056  16.270  0.0468 -0.2018  0.2330
  255MPD2     C 3914   1.302   2.120   9.052 -0.4009 -0.4679  0.4459
  255MPD2    C1 3915   1.223   2.027   9.109  0.2912  0.2353 -0.6256
  255MPD2    C2 3916   1.120   2.079   9.192  0.1271  0.0688 -0.7082
  255MPD2    C3 3917   1.120   2.210   9.230 -0.3610  0.4159  0.1267
  255MPD2    C4 3918   1.207   2.304   9.174  0.2634  0.3161  0.0264
  255MPD2    C5 3919   1.294   2.252   9.084  0.6329  0.5678  0.2697
  255MPD2     H 3920   1.050   2.008   9.234 -0.0234  0.8480  0.3632
  255MPD2    H1 3921   1.215   2.408   9.202 -1.1656  0.6090 -0.6125
  255MPD2    H2 3922   1.384   2.084   8.990  1.1503  1.4023  1.4235
  255MPD2    H3 3923   1.366   2.322   9.044 -0.5363  0.0864 -2.6494
  255MPD2     N 3924   1.027   2.235   9.326 -0.7605 -0.0043 -0.3368
  255MPD2    H5 3925   0.968   2.156   9.349 -0.4658 -0.2272 -0.3551
  255MPD2    N1 3926   1.237   1.897   9.075 -0.0428 -0.4512  0.0544
  255MPD2    H7 3927   1.325   1.870   9.031 -0.4089  1.7855 -2.0776
  256TMC3    C1 3928   1.202   1.668   9.075 -0.2016 -0.6502 -0.5949
  256TMC3    C2 3929   1.333   1.651   9.112 -0.3299  0.4599 -0.8686
  256TMC3    C3 3930   1.378   1.528   9.141  0.2538  1.3213 -0.0159
  256TMC3    C4 3931   1.117   1.562   9.063 -0.1875 -0.3376  0.7321
  256TMC3    C5 3932   1.166   1.437   9.083  0.2206 -0.9254 -0.5543
  256TMC3    C6 3933   1.298   1.417   9.120  0.1246 -0.0356  0.4167
  256TMC3     C 3934   1.145   1.797   9.091 -0.2011 -0.8943  0.0941
  256TMC3     O 3935   1.020   1.813   9.094 -0.2426 -0.0273  0.5745
  256TMC3     H 3936   1.397   1.737   9.129  0.5247 -0.7460  1.9945
  256TMC3    H1 3937   1.015   1.585   9.037  0.0257 -1.4864 -1.1094
  256TMC3    H2 3938   1.338   1.318   9.141 -0.4331 -0.0528  1.3566
  256TMC3    C7 3939   1.067   1.326   9.076 -0.2735  0.0883 -0.6690
  256TMC3    C8 3940   1.517   1.493   9.142 -0.1740 -0.0308 -0.3043
  256TMC3    O1 3941   1.087   1.229   9.143 -0.0705  0.8537  0.4800
  256TMC3    O2 3942   1.558   1.394   9.203  0.4598  0.2244  0.1091
  257MPD2     C 3943   4.490   4.065  13.029 -0.3281  0.0747 -0.0273
  257MPD2    C1 3944   4.580   4.158  13.062  0.8717  0.5637  0.2485
  257MPD2    C2 3945   4.647   4.141  13.181  0.6324  0.0628  0.2774
  257MPD2    C3 3946   4.629   4.032  13.263  0.6526 -0.2590  0.5830
  257MPD2    C4 3947   4.553   3.924  13.225  0.5826  0.4151  0.2635
  257MPD2    C5 3948   4.487   3.944  13.100 -0.1994 -0.0925 -0.4798
  257MPD2     H 3949   4.715   4.214  13.224  0.0432 -0.1034  1.4877
  257MPD2    H1 3950   4.544   3.831  13.279  0.5614 -1.0168 -2.2271
  257MPD2    H2 3951   4.447   4.071  12.930  0.3578 -2.5981 -0.5029
  257MPD2    H3 3952   4.426   3.863  13.060 -1.1584  0.0988  0.5937
  257MPD2     N 3953   4.715   4.027  13.377  0.2894 -0.4083  0.8243
  257MPD2    H5 3954   0.048   4.099  13.387 -0.3702  0.3283  0.2196
  257MPD2    N1 3955   4.605   4.272  12.981  0.1193 -0.2291 -0.2864
  257MPD2    H7 3956   4.541   4.285  12.904  1.4068  2.0143 -0.9630
  258TMC3    C1 3957   0.114   3.935  13.541 -0.0561  0.0078 -0.2644
  258TMC3    C2 3958   0.215   3.981  13.467  0.1776  0.0209 -0.6891
  258TMC3    C3 3959   0.331   4.009  13.540  0.3852 -0.2120 -0.1581
  258TMC3    C4 3960   0.115   3.892  13.666  0.8600  0.5815 -0.4231
  258TMC3    C5 3961   0.235   3.913  13.730 -0.5337  0.4835  0.0015
  258TMC3    C6 3962   0.351   3.977  13.667 -0.2242 -0.2434  0.0706
  258TMC3     C 3963   4.721   3.933  13.477  0.1951  0.6433 -0.2613
  258TMC3     O 3964   4.659   3.827  13.494 -0.1963 -0.5326  0.2059
  258TMC3     H 3965   0.214   4.004  13.361 -3.4491 -0.8518 -0.8427
  258TMC3    H1 3966   0.023   3.863  13.715  1.5480 -3.3521 -1.5196
  258TMC3    H2 3967   0.437   3.995  13.731 -1.3087 -0.5747  1.6385
  258TMC3    C7 3968   0.246   3.848  13.857  0.2097 -0.1563  0.4880
  258TMC3    C8 3969   0.455   4.056  13.476  0.2219  0.2749 -0.4571
  258TMC3    O1 3970   0.169   3.755  13.870  0.1763  0.0479 -0.1937
  258TMC3    O2 3971   0.541   4.108  13.548  0.3502 -0.1504 -0.1702
  259MPD2     C 3972   4.062   1.623   0.713 -0.0219 -0.1191  0.2466
  259MPD2    C1 3973   4.006   1.495   0.674 -0.3252 -0.1390 -0.0044
  259MPD2    C2 3974   3.984   1.471   0.538 -0.1154  0.0973 -0.2375
  259MPD2    C3 3975   4.020   1.565   0.442 -0.7049  0.1746 -0.0787
  259MPD2    C4 3976   4.058   1.692   0.485 -0.6345 -0.2638  1.2162
  259MPD2    C5 3977   4.079   1.719   0.618  0.1060 -0.6243  0.1837
  259MPD2     H 3978   3.927   1.384   0.507  0.8787 -1.1874  1.5530
  259MPD2    H1 3979   4.070   1.777   0.419  2.6559 -2.8139 -1.4776
  259MPD2    H2 3980   4.099   1.643   0.813 -2.5802  2.1015  0.7580
  259MPD2    H3 3981   4.109   1.820   0.644 -2.2865  0.0994  0.2331
  259MPD2     N 3982   3.998   1.536   0.306 -0.0695  0.1310 -0.2504
  259MPD2    H5 3983   3.956   1.447   0.281 -0.4100 -0.0425  0.9623
  259MPD2    N1 3984   3.995   1.405   0.777  0.2443 -0.7883  0.2046
  259MPD2    H7 3985   4.017   1.441   0.869 -0.4346  1.7070 -0.6060
  260TMC3    C1 3986   3.994   1.564   0.081 -0.5717 -0.2256  0.4754
  260TMC3    C2 3987   3.982   1.653  17.730 -0.0675 -0.0170  0.3757
  260TMC3    C3 3988   3.950   1.604  17.606 -0.2893 -0.7803 -0.2439
  260TMC3    C4 3989   3.982   1.425   0.068 -0.3561 -0.0694 -1.3197
  260TMC3    C5 3990   3.929   1.378  17.703 -0.2968 -0.1330  0.3208
  260TMC3    C6 3991   3.919   1.469  17.597  0.5677  0.5934 -0.3692
  260TMC3     C 3992   4.052   1.608   0.198 -0.4137  0.2069  0.4306
  260TMC3     O 3993   4.110   1.717   0.197 -0.4745 -0.0155  0.0116
  260TMC3     H 3994   3.988   1.761  17.745  1.4660 -0.0196 -0.1712
  260TMC3    H1 3995   4.015   1.362   0.150  0.7646 -1.7043 -3.0203
  260TMC3    H2 3996   3.861   1.436  17.512  0.0759  0.8834 -0.1471
  260TMC3    C7 3997   3.954   1.245  17.656 -0.1534 -0.8851 -0.1449
  260TMC3    C8 3998   4.027   1.648  17.498  0.3341  0.0190 -0.6047
  260TMC3    O1 3999   3.973   1.232  17.538 -0.4391  0.1206  0.1429
  260TMC3    O2 4000   4.089   1.753  17.525  0.3971 -0.3298 -0.2168
  261MPD2     C 4001   0.587   4.097  12.362  0.0396  0.2820  0.0297
  261MPD2    C1 4002   0.684   4.195  12.363 -0.1706  0.2615 -0.0032
  261MPD2    C2 4003   0.664   4.312  12.294  0.2828  0.1050  0.6355
  261MPD2    C3 4004   0.553   4.325  12.217 -0.5807 -1.1623  0.2608
  261MPD2    C4 4005   0.463   4.222  12.215 -0.1711  0.0729 -0.3797
  261MPD2    C5 4006   0.476   4.106  12.285  0.8152  0.0918 -0.0427
  261MPD2     H 4007   0.744   4.385  12.297  0.2932  0.1778 -1.1809
  261MPD2    H1 4008   0.373   4.233  12.156  0.3073 -1.5622 -1.4320
  261MPD2    H2 4009   0.603   4.017  12.433  0.8746 -0.0197 -0.4958
  261MPD2    H3 4010   0.402   4.029  12.267  1.4661 -0.7859  1.0616
  261MPD2     N 4011   0.528   4.446  12.149  0.4709  0.1176 -0.6618
  261MPD2    H5 4012   0.593   4.523  12.159 -1.1468  1.3277  0.4363
  261MPD2    N1 4013   0.809   4.176  12.428 -0.0869  0.1409 -0.2446
  261MPD2    H7 4014   0.861   4.263  12.439 -3.1074  1.9752 -0.2171
  262TMC3    C1 4015   0.449   4.578  11.969  0.2423  0.3913  0.1675
  262TMC3    C2 4016   0.401   4.690  12.029 -0.6612  0.0525  0.3201
  262TMC3    C3 4017   0.355   0.054  11.950  0.0717  0.1672 -0.0836
  262TMC3    C4 4018   0.440   4.561  11.833  0.4840  0.5879  0.4066
  262TMC3    C5 4019   0.397   4.658  11.757  0.2168  0.4692 -0.1375
  262TMC3    C6 4020   0.349   0.039  11.814  0.1081  0.2476 -0.4027
  262TMC3     C 4021   0.432   4.458  12.040 -0.2298 -0.6012 -0.9430
  262TMC3     O 4022   0.353   4.379  11.991 -0.0410  0.0536  0.0089
  262TMC3     H 4023   0.419   4.704  12.135 -0.0517 -2.2673  0.5293
  262TMC3    H1 4024   0.449   4.458  11.801  0.5743  1.0326 -0.9872
  262TMC3    H2 4025   0.329   0.125  11.751  1.0512 -0.0158 -1.0547
  262TMC3    C7 4026   0.420   4.652  11.612 -0.1757  0.2564 -0.0479
  262TMC3    C8 4027   0.340   0.185  11.994 -0.2742 -0.3685 -0.5257
  262TMC3    O1 4028   0.346   4.723  11.544  0.1344  0.3583  0.0314
  262TMC3    O2 4029   0.334   0.271  11.903  0.1426  0.1487 -0.7982
  263MPD2     C 4030   1.652   4.250  11.222 -0.0008  0.4885  0.3595
  263MPD2    C1 4031   1.764   4.303  11.288  0.4214 -0.3567  0.1512
  263MPD2    C2 4032   1.809   4.428  11.247  0.2268 -0.2497  0.3775
  263MPD2    C3 4033   1.750   4.500  11.142 -0.1666  0.2587 -0.0775
  263MPD2    C4 4034   1.645   4.439  11.073  0.0466 -0.0482  0.0608
  263MPD2    C5 4035   1.599   4.318  11.117  0.2202  0.6638  0.3516
  263MPD2     H 4036   1.890   4.477  11.300  0.5003  0.4887 -0.7227
  263MPD2    H1 4037   1.596   4.493  10.993 -3.4924 -1.2454  1.4116
  263MPD2    H2 4038   1.611   4.154  11.251  1.4453 -0.3574 -0.4243
  263MPD2    H3 4039   1.515   4.270  11.068  0.1409 -1.1933  2.2835
  263MPD2     N 4040   1.799   4.629  11.116  0.5471 -0.7733  0.0642
  263MPD2    H5 4041   1.872   4.660  11.180 -0.2203 -1.2717  1.1677
  263MPD2    N1 4042   1.811   4.237  11.410  0.1105  0.4570  0.9181
  263MPD2    H7 4043   1.759   4.156  11.444 -0.2804  0.2156 -0.2296
  264TMC3    C1 4044   1.831   0.101  11.018 -0.5011  0.2348 -0.7418
  264TMC3    C2 4045   1.878   0.147  11.142  0.9904 -0.0480 -0.3808
  264TMC3    C3 4046   1.990   0.224  11.139  0.1967 -0.2019 -0.2401
  264TMC3    C4 4047   1.889   0.140  10.902  0.2994 -0.2748 -0.0390
  264TMC3    C5 4048   1.996   0.228  10.904 -0.0577 -0.4752 -0.5101
  264TMC3    C6 4049   2.051   0.269  11.027 -0.1560 -0.3734 -0.4630
  264TMC3     C 4050   1.771   4.709  11.009 -0.1595  0.7144 -0.5445
  264TMC3     O 4051   1.710   4.683  10.905 -0.5247 -0.0236  0.3640
  264TMC3     H 4052   1.842   0.101  11.233  1.7459  0.0154 -0.0460
  264TMC3    H1 4053   1.852   0.099  10.809 -0.4154 -2.0118  1.0109
  264TMC3    H2 4054   2.145   0.322  11.033 -0.9675  1.1913 -1.2981
  264TMC3    C7 4055   2.081   0.241  10.787 -0.6710 -0.7678  0.3367
  264TMC3    C8 4056   2.060   0.235  11.265 -0.2627 -0.1820 -0.7931
  264TMC3    O1 4057   2.080   0.156  10.699 -0.4627 -0.1708  0.2610
  264TMC3    O2 4058   2.178   0.245  11.255  0.1652 -0.6301  0.1000
  265MPD2     C 4059   3.744   3.952  15.830  0.1517 -0.2032 -0.3231
  265MPD2    C1 4060   3.734   4.071  15.766 -0.2192 -0.3415  0.4133
  265MPD2    C2 4061   3.785   4.074  15.640 -0.6585 -0.4199 -0.1277
  265MPD2    C3 4062   3.844   3.966  15.571 -0.2507  0.2954 -0.5128
  265MPD2    C4 4063   3.849   3.849  15.638 -0.8163 -0.2956  0.2629
  265MPD2    C5 4064   3.790   3.841  15.762 -0.1820  0.0447 -0.7037
  265MPD2     H 4065   3.791   4.171  15.592  1.2381  0.3827  1.7423
  265MPD2    H1 4066   3.890   3.759  15.593 -1.6476  0.5394 -2.2026
  265MPD2    H2 4067   3.706   3.934  15.930  1.5998 -1.6440 -0.0374
  265MPD2    H3 4068   3.787   3.744  15.812 -0.2502  2.0714  3.2808
  265MPD2     N 4069   3.887   3.963  15.436 -0.1518  0.6821  0.5746
  265MPD2    H5 4070   3.927   3.875  15.403  1.0064  1.6313 -0.5350
  265MPD2    N1 4071   3.687   4.190  15.829  0.5768 -0.3930  0.1590
  265MPD2    H7 4072   3.657   4.271  15.776  0.3181 -1.1338 -0.8263
  266TMC3    C1 4073   3.716   4.350  16.007 -0.3619  0.1951 -0.2972
  266TMC3    C2 4074   3.827   4.391  16.072  0.9263 -0.9204 -0.1866
  266TMC3    C3 4075   3.864   4.520  16.075 -0.2937 -0.7858  0.0202
  266TMC3    C4 4076   3.647   4.445  15.937 -0.2685  0.2308  0.2657
  266TMC3    C5 4077   3.693   4.574  15.930  0.7511 -0.0405 -0.1188
  266TMC3    C6 4078   3.799   4.615  16.000 -0.1855 -0.0095  0.2505
  266TMC3     C 4079   3.697   4.209  15.965  0.3779  0.1241 -0.3612
  266TMC3     O 4080   3.745   4.131  16.045 -0.5122  0.1514  0.3576
  266TMC3     H 4081   3.874   4.311  16.127  1.4276 -2.3163 -2.6534
  266TMC3    H1 4082   3.558   4.418  15.880  0.0951  2.4419 -1.3601
  266TMC3    H2 4083   3.828   4.719  16.006 -1.7247  0.4356  0.1615
  266TMC3    C7 4084   3.621   4.659  15.846 -0.1454  0.5270  0.1717
  266TMC3    C8 4085   3.997   4.549  16.141 -0.7362  0.0792 -0.0969
  266TMC3    O1 4086   3.536   4.599  15.778  0.3660 -0.0898  0.4245
  266TMC3    O2 4087   4.068   4.452  16.169  0.0308 -0.0442 -0.5924
  267MPD2     C 4088   0.844   0.885   0.165  0.1485 -0.2545 -0.2475
  267MPD2    C1 4089   0.868   1.019   0.176  0.3922 -0.5343  1.1758
  267MPD2    C2 4090   0.779   1.117   0.110  0.0289 -0.6152  0.6677
  267MPD2    C3 4091   0.668   1.069   0.039 -0.2877 -0.3777 -0.3791
  267MPD2    C4 4092   0.647   0.932   0.032 -0.3362 -0.5717 -0.4713
  267MPD2    C5 4093   0.733   0.843   0.098 -0.3684  0.3111 -0.7318
  267MPD2     H 4094   0.817   1.218   0.099  1.1176 -0.9570  1.2983
  267MPD2    H1 4095   0.563   0.888  17.728 -0.9544 -0.8064  0.6956
  267MPD2    H2 4096   0.922   0.815   0.193 -0.3278 -0.4418  0.5917
  267MPD2    H3 4097   0.716   0.736   0.092  0.9794 -0.0180  1.2264
  267MPD2     N 4098   0.573   1.145  17.721  0.1262  0.2310 -0.2606
  267MPD2    H5 4099   0.495   1.102  17.671  1.7837 -2.9134 -0.1854
  267MPD2    N1 4100   0.991   1.052   0.243 -0.2733  0.1985  0.1710
  267MPD2    H7 4101   1.059   0.980   0.266  0.0474  0.5912  0.4346
  268TMC3    C1 4102   1.160   1.196   0.308 -0.0176  0.4702 -0.3241
  268TMC3    C2 4103   1.211   1.318   0.283 -0.1555  0.3230  0.4155
  268TMC3    C3 4104   1.344   1.334   0.311 -0.2690 -0.2720 -0.6667
  268TMC3    C4 4105   1.227   1.091   0.372 -1.0682  0.3168 -0.0600
  268TMC3    C5 4106   1.353   1.127   0.419 -0.4459  0.0360 -0.3708
  268TMC3    C6 4107   1.417   1.242   0.384  0.0593 -0.1590 -0.2135
  268TMC3     C 4108   1.022   1.178   0.275 -0.3224 -0.1881 -0.1814
  268TMC3     O 4109   0.945   1.273   0.284  0.3258 -0.3407 -0.1847
  268TMC3     H 4110   1.157   1.404   0.245  0.8683  1.2951  1.1699
  268TMC3    H1 4111   1.176   0.999   0.394 -1.7822  1.2764  2.2479
  268TMC3    H2 4112   1.518   1.255   0.420  0.8539  2.1928 -3.2342
  268TMC3    C7 4113   1.430   1.027   0.487  0.2383 -0.6174  0.1859
  268TMC3    C8 4114   1.415   1.452   0.263 -0.1909  0.3513  0.8127
  268TMC3    O1 4115   1.404   0.911   0.454  0.1559  0.4015  0.5658
  268TMC3    O2 4116   1.508   1.500   0.326  0.7607 -0.1052  0.6488
  269MPD2     C 4117   2.178   0.496  15.314  0.0375  0.8610 -0.5572
  269MPD2    C1 4118   2.061   0.530  15.378  0.5525 -0.4587 -0.2158
  269MPD2    C2 4119   1.994   0.636  15.322  0.3619  0.2878  1.8606
  269MPD2    C3 4120   2.039   0.711  15.215 -0.0669 -0.2498 -0.0898
  269MPD2    C4 4121   2.157   0.682  15.149 -0.4362 -0.4284 -0.0584
  269MPD2    C5 4122   2.225   0.575  15.208 -0.1419  0.1343 -0.4473
  269MPD2     H 4123   1.902   0.668  15.370 -0.3864  1.3910 -0.3120
  269MPD2    H1 4124   2.210   0.733  15.069 -0.3898 -1.8597 -0.9418
  269MPD2    H2 4125   2.250   0.422  15.346  0.4768  1.4236 -0.2535
  269MPD2    H3 4126   2.325   0.546  15.177  0.4529  0.1181  1.4626
  269MPD2     N 4127   1.955   0.818  15.182  0.2144 -0.4347 -0.5984
  269MPD2    H5 4128   1.876   0.837  15.244  0.9074  1.9652 -0.4670
  269MPD2    N1 4129   2.008   0.447  15.482  0.3515 -0.2087  0.6648
  269MPD2    H7 4130   2.073   0.374  15.509 -0.6138  0.0306  3.5942
  270TMC3    C1 4131   1.846   0.319  15.611  0.0391 -0.6137 -0.1392
  270TMC3    C2 4132   1.711   0.300  15.639 -0.4196 -0.1602  0.3022
  270TMC3    C3 4133   1.667   0.190  15.708  0.0190 -0.4303 -0.1069
  270TMC3    C4 4134   1.939   0.230  15.644  0.5977 -0.1091  0.8074
  270TMC3    C5 4135   1.893   0.122  15.716  0.1566  0.1839 -0.2058
  270TMC3    C6 4136   1.762   0.098  15.750  0.3576 -0.6645 -0.4159
  270TMC3     C 4137   1.877   0.440  15.528 -0.6875  0.4456  0.2772
  270TMC3     O 4138   1.789   0.521  15.506  0.6774 -0.6252  0.1582
  270TMC3     H 4139   1.636   0.374  15.615  0.1506 -0.0811 -1.2555
  270TMC3    H1 4140   2.042   0.235  15.610  0.6787  0.2853  1.1033
  270TMC3    H2 4141   1.732   0.013  15.809  1.0286 -1.3205 -1.0198
  270TMC3    C7 4142   1.981   0.004  15.719 -0.1342 -0.3323 -0.3507
  270TMC3    C8 4143   1.535   0.142  15.672  0.5326  0.3282  0.0150
  270TMC3    O1 4144   2.101   0.014  15.735  0.3240  0.0836 -0.4117
  270TMC3    O2 4145   1.459   0.106  15.765 -0.5280 -1.1062  0.3453
  271MPD2     C 4146   0.593   4.269  14.259  0.6685  0.1448  0.4986
  271MPD2    C1 4147   0.673   4.383  14.264 -0.2966 -0.4010 -0.0414
  271MPD2    C2 4148   0.635   4.491  14.188  0.2439  0.2449 -0.9726
  271MPD2    C3 4149   0.528   4.485  14.106  0.7553  0.2431 -0.6967
  271MPD2    C4 4150   0.447   4.381  14.108  0.6833  0.3151  0.6060
  271MPD2    C5 4151   0.477   4.270  14.185  0.1234  0.5849 -0.5198
  271MPD2     H 4152   0.697   4.580  14.191  1.0992 -0.4324  1.5937
  271MPD2    H1 4153   0.352   4.376  14.057  1.4188 -0.6056 -0.6700
  271MPD2    H2 4154   0.601   4.182  14.323  1.2743  1.1225  1.7336
  271MPD2    H3 4155   0.409   4.186  14.187 -1.5739  1.9720  0.1991
  271MPD2     N 4156   0.520   4.586  14.014 -0.2763  0.7957 -0.1241
  271MPD2    H5 4157   0.580   4.667  14.021  0.3841  0.3306 -0.4002
  271MPD2    N1 4158   0.782   4.398  14.345  0.8568  0.3012 -0.4363
  271MPD2    H7 4159   0.827   4.489  14.333  0.1358  0.7050 -0.0503
  272TMC3    C1 4160   0.917   4.380  14.529 -0.1919  0.2437 -0.3793
  272TMC3    C2 4161   1.047   4.370  14.485  0.1696  0.3677 -0.4403
  272TMC3    C3 4162   1.144   4.383  14.576  0.5508 -0.4866 -0.1178
  272TMC3    C4 4163   0.888   4.385  14.664  0.2890  0.9686 -0.2171
  272TMC3    C5 4164   0.991   4.413  14.748 -0.1004  0.2131  0.6370
  272TMC3    C6 4165   1.121   4.406  14.711 -0.4699  0.4428 -0.1913
  272TMC3     C 4166   0.813   4.319  14.454 -0.5359 -0.0829  0.3705
  272TMC3     O 4167   0.751   4.232  14.502  0.0309 -0.2197 -0.6570
  272TMC3     H 4168   1.068   4.353  14.380 -1.0668  0.0473 -0.6360
  272TMC3    H1 4169   0.785   4.388  14.697  0.3967 -0.4477  0.2408
  272TMC3    H2 4170   1.201   4.426  14.782  1.1479  1.7446 -2.3726
  272TMC3    C7 4171   0.949   4.477  14.871  0.4418 -0.1586 -0.1715
  272TMC3    C8 4172   1.277   4.386  14.528 -0.6564  0.2287 -0.2151
  272TMC3    O1 4173   0.846   4.434  14.923 -0.4817 -0.7098 -0.2398
  272TMC3    O2 4174   1.295   4.432  14.416 -0.4758  0.1617  0.5603
  273MPD2     C 4175   2.280   2.806  11.303 -0.4168  0.0755  0.1195
  273MPD2    C1 4176   2.318   2.929  11.350  0.0645  0.1669 -0.3326
  273MPD2    C2 4177   2.346   3.030  11.262 -0.1323 -0.7119 -0.6591
  273MPD2    C3 4178   2.341   3.007  11.117  0.3043  0.2691 -0.0242
  273MPD2    C4 4179   2.311   2.882  11.078 -0.6544  0.0748  0.0037
  273MPD2    C5 4180   2.285   2.782  11.167 -0.3445 -0.0217  0.2166
  273MPD2     H 4181   2.388   3.125  11.295  1.9192 -1.5908 -0.7435
  273MPD2    H1 4182   2.295   2.858  10.973 -1.9338 -0.7983  0.4006
  273MPD2    H2 4183   2.258   2.729  11.376  0.2222 -1.0180 -0.8447
  273MPD2    H3 4184   2.274   2.684  11.123  0.1819 -0.1893  0.4536
  273MPD2     N 4185   2.368   3.106  11.021  0.6815  0.5377  0.5644
  273MPD2    H5 4186   2.358   3.089  10.921  1.1765 -1.7443  0.9077
  273MPD2    N1 4187   2.313   2.950  11.484  0.5335  0.4633 -0.1556
  273MPD2    H7 4188   2.314   2.867  11.544 -0.4147  0.7357  0.2518
  274TMC3    C1 4189   2.435   3.318  10.925 -0.2039 -0.0339  0.5436
  274TMC3    C2 4190   2.371   3.297  10.805 -0.2046  0.1130  0.6380
  274TMC3    C3 4191   2.372   3.399  10.713 -0.5115  0.7859 -0.6344
  274TMC3    C4 4192   2.483   3.437  10.962  0.7213 -0.1207  0.7846
  274TMC3    C5 4193   2.491   3.535  10.868  0.2982  0.2745 -0.1823
  274TMC3    C6 4194   2.427   3.520  10.748 -0.3731  0.8952 -0.4241
  274TMC3     C 4195   2.398   3.239  11.041  0.4422 -0.1843 -0.6270
  274TMC3     O 4196   2.414   3.296  11.146  0.4908 -0.3811 -0.3785
  274TMC3     H 4197   2.318   3.205  10.783  0.9197 -0.6998  1.3148
  274TMC3    H1 4198   2.545   3.455  11.048 -0.1868 -2.1621  1.8476
  274TMC3    H2 4199   2.397   3.615  10.704  0.9134  0.6870 -1.7599
  274TMC3    C7 4200   2.520   3.663  10.916  0.0872 -0.3496 -0.5060
  274TMC3    C8 4201   2.246   3.409  10.657 -0.5299  0.6756  0.7412
  274TMC3    O1 4202   2.583   3.743  10.848 -0.2458  0.2609 -0.1254
  274TMC3    O2 4203   2.161   3.331  10.698 -0.4897  0.1839  0.1915
  275MPD2     C 4204   2.081   1.370  14.552  0.3702  0.4387 -0.8947
  275MPD2    C1 4205   2.087   1.245  14.605 -0.8500  0.3037  0.6185
  275MPD2    C2 4206   1.971   1.170  14.615  0.3243 -0.3085  0.1798
  275MPD2    C3 4207   1.852   1.211  14.559 -0.0886  0.0941 -0.1550
  275MPD2    C4 4208   1.839   1.335  14.506  0.0134 -0.4192 -0.0392
  275MPD2    C5 4209   1.957   1.418  14.512  0.2733  0.4593  0.0776
  275MPD2     H 4210   1.982   1.080  14.674 -2.0919 -1.3637 -0.9828
  275MPD2    H1 4211   1.745   1.379  14.474  1.4357  1.7802 -1.1975
  275MPD2    H2 4212   2.167   1.436  14.555 -1.0920  2.2844  0.3073
  275MPD2    H3 4213   1.948   1.515  14.463 -0.9089  1.2164  1.8061
  275MPD2     N 4214   1.730   1.131  14.566  0.1065  0.4319 -0.2955
  275MPD2    H5 4215   1.650   1.167  14.515 -0.2378 -0.7528 -0.5907
  275MPD2    N1 4216   2.206   1.189  14.664  0.3864  0.7454  0.0499
  275MPD2    H7 4217   2.199   1.098  14.709 -1.7623  0.8148 -0.1434
  276TMC3    C1 4218   2.410   1.197  14.778 -0.6267 -0.7888  0.0305
  276TMC3    C2 4219   2.346   1.140  14.885 -0.1229 -0.1533  0.3729
  276TMC3    C3 4220   2.434   1.092  14.973  0.1592  0.4119  0.4404
  276TMC3    C4 4221   2.544   1.230  14.771 -0.4419  0.5199  0.0524
  276TMC3    C5 4222   2.625   1.178  14.868 -0.7389  0.0190 -0.0023
  276TMC3    C6 4223   2.567   1.114  14.968  0.0206 -0.1466  0.6865
  276TMC3     C 4224   2.324   1.254  14.679 -0.3726  0.1329  0.0936
  276TMC3     O 4225   2.369   1.341  14.610 -0.0213 -0.0359 -0.3326
  276TMC3     H 4226   2.240   1.150  14.906 -0.2439  2.3274 -1.4361
  276TMC3    H1 4227   2.582   1.291  14.690  2.4409 -0.0187  1.0278
  276TMC3    H2 4228   2.624   1.090  15.057 -0.3337 -0.7331  0.7547
  276TMC3    C7 4229   2.767   1.224  14.893 -0.2733  0.4768 -0.4037
  276TMC3    C8 4230   2.381   1.042  15.099  0.6153 -0.5365  0.2063
  276TMC3    O1 4231   2.802   1.214  15.012 -0.2453 -0.3027  0.0545
  276TMC3    O2 4232   2.290   1.107  15.147 -0.1893  0.1059  0.1469
  277MPD2     C 4233   4.010   4.733  13.193  0.1050  0.4658  0.0055
  277MPD2    C1 4234   3.891   0.056  13.242 -0.2052  0.4539 -0.2513
  277MPD2    C2 4235   3.880   0.048  13.382  0.4543  0.2608  0.3809
  277MPD2    C3 4236   3.972   4.713  13.461 -0.4415 -0.1766 -0.3952
  277MPD2    C4 4237   4.077   4.644  13.403  0.8792  0.5586 -0.1679
  277MPD2    C5 4238   4.095   4.660  13.269 -0.2639 -0.1027 -0.1072
  277MPD2     H 4239   3.789   0.083  13.430 -0.3319 -1.3721  0.0602
  277MPD2    H1 4240   4.146   4.585  13.463  1.4531  0.3779 -1.0098
  277MPD2    H2 4241   4.040   0.016  13.091  0.0306 -0.5940 -0.2300
  277MPD2    H3 4242   4.175   4.604  13.222  0.7672  0.0573  1.4838
  277MPD2     N 4243   3.943   4.703  13.595 -0.0256  0.0112 -0.3787
  277MPD2    H5 4244   3.860   0.015  13.624  0.8522  0.8009  0.7474
  277MPD2    N1 4245   3.814   0.138  13.156 -0.7636 -0.1252 -0.0311
  277MPD2    H7 4246   3.838   0.139  13.058  0.2692  1.2402  0.2262
  278TMC3    C1 4247   3.948   4.638  13.827 -0.0318  0.3082 -0.0745
  278TMC3    C2 4248   3.938   4.518  13.879 -0.0647  0.2115 -0.3327
  278TMC3    C3 4249   3.826   4.491  13.956  0.3544 -0.2007 -0.7343
  278TMC3    C4 4250   3.852   4.730  13.840 -0.5481  0.7276 -0.5254
  278TMC3    C5 4251   3.743   4.715  13.920  0.1101 -0.3131 -0.0964
  278TMC3    C6 4252   3.731   4.595  13.983 -0.0968  0.5246  0.0795
  278TMC3     C 4253   4.024   4.649  13.702  0.0962 -0.4212  0.2439
  278TMC3     O 4254   4.125   4.585  13.694 -0.6005 -0.2736  0.0318
  278TMC3     H 4255   4.011   4.441  13.859 -0.0457 -0.2601  1.4968
  278TMC3    H1 4256   3.871   0.092  13.800  0.6183  0.7207 -0.0101
  278TMC3    H2 4257   3.646   4.570  14.045 -1.8969  2.1775 -1.7015
  278TMC3    C7 4258   3.625   0.037  13.867  0.5328 -0.0941 -0.0315
  278TMC3    C8 4259   3.791   4.351  13.977  0.6385 -0.0561  0.0754
  278TMC3    O1 4260   3.642   0.140  13.807 -0.6815 -0.2817  0.3932
  278TMC3    O2 4261   3.706   4.328  14.065  0.2462 -0.2508  0.8843
  279MPD2     C 4262   3.591   4.548   0.357  0.2045  0.0472 -0.2343
  279MPD2    C1 4263   3.522   4.660   0.327  0.0903  0.6824 -0.9723
  279MPD2    C2 4264   3.471   4.662   0.196  0.0649  0.9231  0.3150
  279MPD2    C3 4265   3.470   4.558   0.109  0.3430 -0.4542  0.2723
  279MPD2    C4 4266   3.543   4.445   0.143  0.1289 -0.2230 -0.0587
  279MPD2    C5 4267   3.604   4.451   0.267  0.1769  0.0169  0.3938
  279MPD2     H 4268   3.433   0.020   0.163  1.0148  0.8624 -0.9842
  279MPD2    H1 4269   3.549   4.355   0.082 -0.8685 -0.2774 -0.0696
  279MPD2    H2 4270   3.641   4.525   0.450 -0.6656  1.2511  0.5271
  279MPD2    H3 4271   3.660   4.366   0.305 -0.2270 -0.1067  0.7110
  279MPD2     N 4272   3.402   4.564  17.734  0.0984  0.2932 -0.5195
  279MPD2    H5 4273   3.388   4.482  17.675 -1.2908  0.1491  0.0007
  279MPD2    N1 4274   3.489   0.021   0.425 -0.4645 -0.1773  0.1226
  279MPD2    H7 4275   3.532   0.007   0.516 -1.7098 -0.0862  0.7189
  280TMC3    C1 4276   3.337   0.166   0.308 -0.7252  0.5279  0.1675
  280TMC3    C2 4277   3.217   0.096   0.298  0.4387  0.3547 -0.7584
  280TMC3    C3 4278   3.128   0.134   0.205  0.2394 -0.5203  0.2539
  280TMC3    C4 4279   3.360   0.282   0.236  0.2634 -0.0433 -0.6107
  280TMC3    C5 4280   3.257   0.324   0.154  0.3623 -0.2069 -0.2537
  280TMC3    C6 4281   3.137   0.255   0.132  0.9097  0.5980 -0.5418
  280TMC3     C 4282   3.416   0.134   0.421  0.9072  0.5918 -0.0430
  280TMC3     O 4283   3.411   0.228   0.500 -0.0630 -0.0437  0.2139
  280TMC3     H 4284   3.200   0.014   0.368 -0.5437  0.9615 -0.2702
  280TMC3    H1 4285   3.455   0.334   0.242 -0.7578  1.6245  0.8398
  280TMC3    H2 4286   3.061   0.279   0.059 -0.1066  1.3979  0.7685
  280TMC3    C7 4287   3.257   0.465   0.128 -0.0801 -0.4395 -0.3046
  280TMC3    C8 4288   3.052   0.023   0.144 -0.9204 -0.3996  0.3036
  280TMC3    O1 4289   3.305   0.543   0.208 -0.4804  0.7072 -0.2463
  280TMC3    O2 4290   2.977   0.052   0.053 -0.1409 -0.0967 -0.4536
  281TMC3    C1 4291   2.036   0.040  13.504  1.0399  0.0694  0.3906
  281TMC3    C2 4292   2.074   0.149  13.438 -0.5952 -0.2716  0.2679
  281TMC3    C3 4293   2.134   0.131  13.319  0.1283 -0.0718 -0.2081
  281TMC3    C4 4294   2.084   4.650  13.480 -0.3696  0.0739 -0.3390
  281TMC3    C5 4295   2.156   4.642  13.365 -0.3608 -0.2267 -0.3599
  281TMC3    C6 4296   2.180   0.013  13.286  0.4708  0.7394 -0.0718
  281TMC3     C 4297   1.929   0.052  13.602 -0.7413 -0.1903  0.5171
  281TMC3     O 4298   1.927   4.711  13.696 -0.0984  0.5108  0.0513
  281TMC3     H 4299   2.044   0.247  13.472  0.5775  0.2730 -0.2666
  281TMC3    H1 4300   2.081   4.570  13.553  0.7977 -0.3887 -0.7945
  281TMC3    H2 4301   2.240   0.005  13.196  0.2236 -1.1628 -0.0559
  281TMC3    C7 4302   2.203   4.514  13.326 -0.0273 -0.4336  0.0371
  281TMC3    C8 4303   2.214   0.236  13.257  0.0653 -0.2237 -0.1815
  281TMC3    O1 4304   2.318   4.512  13.284 -0.0723 -0.1607  0.1193
  281TMC3    O2 4305   2.335   0.205  13.262 -0.6335 -0.6781 -0.6962
  282MPD2     C 4306   4.046   1.538  15.118  0.1536 -0.1729  0.3363
  282MPD2    C1 4307   3.919   1.595  15.110  0.7401  0.1347 -0.0745
  282MPD2    C2 4308   3.889   1.673  15.002 -0.5474  0.5960  0.5143
  282MPD2    C3 4309   3.978   1.685  14.891 -0.6124  0.2945 -0.2625
  282MPD2    C4 4310   4.102   1.624  14.902  0.2331  0.6279 -0.2395
  282MPD2    C5 4311   4.136   1.550  15.008  0.2610  0.1492  0.3899
  282MPD2     H 4312   3.792   1.719  14.992 -1.3577 -1.3084 -0.3049
  282MPD2    H1 4313   4.164   1.632  14.814  0.9461  1.6160  0.3659
  282MPD2    H2 4314   4.068   1.483  15.208 -1.7427 -1.4096  0.0320
  282MPD2    H3 4315   4.235   1.506  15.008 -0.5407 -1.6724 -0.8589
  282MPD2     N 4316   3.931   1.738  14.760  0.0574 -0.2246  0.4388
  282MPD2    H5 4317   3.831   1.755  14.754 -0.0447 -1.2366 -0.7078
  282MPD2    N1 4318   3.831   1.579  15.221  0.0627 -0.2239  0.0055
  282MPD2    H7 4319   3.744   1.628  15.204  1.2876  1.4149 -1.4028
  283TMC3    C1 4320   3.760   1.540  15.435  0.2948 -0.0815 -0.2978
  283TMC3    C2 4321   3.720   1.669  15.456  0.4021 -0.6842 -0.3191
  283TMC3    C3 4322   3.683   1.707  15.578 -0.0459  0.2134 -0.2288
  283TMC3    C4 4323   3.746   1.452  15.538  0.5843 -0.9841 -0.1519
  283TMC3    C5 4324   3.711   1.498  15.663 -0.8674 -0.0258  0.7053
  283TMC3    C6 4325   3.667   1.627  15.682  0.4839  0.0481  0.3608
  283TMC3     C 4326   3.852   1.498  15.328  0.3353 -0.5287  0.0518
  283TMC3     O 4327   3.912   1.392  15.343 -0.5256  0.0186 -0.3907
  283TMC3     H 4328   3.710   1.742  15.376 -2.2674 -0.9168 -0.1990
  283TMC3    H1 4329   3.768   1.347  15.519 -1.4468 -1.7047  1.6266
  283TMC3    H2 4330   3.638   1.664  15.779  1.2775 -2.4351  1.5475
  283TMC3    C7 4331   3.652   1.400  15.758  0.6796  0.6992 -0.2996
  283TMC3    C8 4332   3.607   1.831  15.587 -0.6000  0.0343  0.2974
  283TMC3    O1 4333   3.584   1.441  15.851 -0.8143  0.0043 -0.4713
  283TMC3    O2 4334   3.523   1.844  15.674  0.2344 -0.5132 -0.0164
  284MPD2     C 4335   1.608   0.471  11.681  0.0342  0.8236  0.2101
  284MPD2    C1 4336   1.719   0.519  11.741 -0.1729  0.5996 -0.0051
  284MPD2    C2 4337   1.739   0.485  11.874 -0.6940  0.0942 -0.6751
  284MPD2    C3 4338   1.665   0.391  11.939  0.2312 -0.2282  0.6411
  284MPD2    C4 4339   1.556   0.345  11.872 -0.2883  0.6442  0.4201
  284MPD2    C5 4340   1.525   0.383  11.747  0.1096  0.2229  0.0881
  284MPD2     H 4341   1.824   0.530  11.924  0.6425 -1.4019 -1.5639
  284MPD2    H1 4342   1.493   0.262  11.900 -0.9814  1.3239  0.8935
  284MPD2    H2 4343   1.577   0.483  11.578  0.0791  0.5851  0.1686
  284MPD2    H3 4344   1.449   0.332  11.690 -0.9162  1.7281  0.1233
  284MPD2     N 4345   1.698   0.351  12.065  0.5150  0.5973 -0.4662
  284MPD2    H5 4346   1.788   0.386  12.096  2.2218 -2.2180 -2.2744
  284MPD2    N1 4347   1.826   0.586  11.678 -0.6446 -0.1486 -0.1703
  284MPD2    H7 4348   1.901   0.619  11.737 -1.1114 -1.5036  1.1769
  285TMC3    C1 4349   1.916   0.738  11.534  0.7645 -0.2547  0.5182
  285TMC3    C2 4350   2.040   0.714  11.594  0.1237  0.1595 -0.3112
  285TMC3    C3 4351   2.114   0.815  11.649 -0.3007 -0.0700 -0.1818
  285TMC3    C4 4352   1.867   0.864  11.529  0.0688 -0.3989 -0.9082
  285TMC3    C5 4353   1.940   0.959  11.602  0.1191 -0.7622  0.9337
  285TMC3    C6 4354   2.064   0.941  11.662 -0.7625 -0.3501  0.6745
  285TMC3     C 4355   1.815   0.638  11.552  0.8506  0.0177 -0.5244
  285TMC3     O 4356   1.729   0.612  11.462  0.2800  0.0058  0.7521
  285TMC3     H 4357   2.079   0.615  11.574 -0.2928  0.1248 -0.9390
  285TMC3    H1 4358   1.770   0.883  11.484  0.0983  0.3166 -0.6676
  285TMC3    H2 4359   2.127   1.023  11.694 -0.7780 -1.1158  2.6974
  285TMC3    C7 4360   1.885   1.092  11.586  0.6326  0.5468  0.2680
  285TMC3    C8 4361   2.241   0.773  11.705 -0.0817 -0.1765 -0.2383
  285TMC3    O1 4362   1.839   1.112  11.472  0.0082  0.1992 -0.6236
  285TMC3    O2 4363   2.269   0.655  11.691 -0.3421 -0.5090  0.6242
  286MPD2     C 4364   2.204   4.076   1.597 -0.3677 -0.4930 -0.0156
  286MPD2    C1 4365   2.185   4.099   1.462 -0.5554 -1.1195  0.7708
  286MPD2    C2 4366   2.289   4.080   1.371  0.3911  0.1755 -0.2230
  286MPD2    C3 4367   2.407   4.032   1.407 -0.2493  0.3124 -0.0692
  286MPD2    C4 4368   2.425   4.009   1.540 -0.3607  0.4425 -0.0755
  286MPD2    C5 4369   2.326   4.036   1.632 -0.6841  0.8224 -0.1333
  286MPD2     H 4370   2.261   4.095   1.267 -2.0556  1.6157  0.6516
  286MPD2    H1 4371   2.514   3.959   1.575 -0.8466 -1.3128 -1.3592
  286MPD2    H2 4372   2.135   4.096   1.679  1.9732  1.7007  1.4239
  286MPD2    H3 4373   2.346   4.009   1.735  0.3741  1.9383 -0.0543
  286MPD2     N 4374   2.504   3.987   1.318 -0.1319 -0.0952  0.0638
  286MPD2    H5 4375   2.583   3.935   1.353 -0.3348  0.6676  1.6335
  286MPD2    N1 4376   2.067   4.152   1.416  0.0739 -0.4617  0.0358
  286MPD2    H7 4377   2.061   4.162   1.315  2.4002  2.4571  0.1735
  287TMC3    C1 4378   2.597   3.899   1.120  0.5716  0.4268 -0.3035
  287TMC3    C2 4379   2.577   3.877   0.985  0.8180 -0.8093 -0.0167
  287TMC3    C3 4380   2.642   3.774   0.924 -0.8697 -0.1291 -0.1234
  287TMC3    C4 4381   2.684   3.824   1.196 -0.1721  0.8719 -0.3067
  287TMC3    C5 4382   2.756   3.732   1.126  0.2242 -1.0094  0.2836
  287TMC3    C6 4383   2.732   3.706   0.998  0.0964  0.8528  0.1848
  287TMC3     C 4384   2.506   3.995   1.185 -0.2918 -1.1928  0.1105
  287TMC3     O 4385   2.421   4.041   1.111 -0.0972 -0.0167 -0.3102
  287TMC3     H 4386   2.513   3.941   0.926  0.3787  1.1031  2.5230
  287TMC3    H1 4387   2.710   3.859   1.295 -1.8862  2.2208 -0.3374
  287TMC3    H2 4388   2.786   3.623   0.954  0.9413  0.2843  2.2858
  287TMC3    C7 4389   2.872   3.667   1.183 -0.1564  0.0687  0.0007
  287TMC3    C8 4390   2.572   3.698   0.821  0.2378 -0.7570 -0.4559
  287TMC3    O1 4391   2.912   3.720   1.288 -0.4140 -0.3624  0.1895
  287TMC3    O2 4392   2.597   3.580   0.810  0.3559  0.5715 -0.2072
  288TMC3    C1 4393   4.267   4.250  14.470  0.1246 -0.2166 -0.2091
  288TMC3    C2 4394   4.168   4.209  14.559  0.5847 -0.6941 -0.3968
  288TMC3    C3 4395   4.046   4.270  14.540  0.0953 -0.3310 -0.6038
  288TMC3    C4 4396   4.254   4.339  14.370 -0.3449  0.3756  0.2681
  288TMC3    C5 4397   4.129   4.390  14.366  0.3593 -0.0148  0.7847
  288TMC3    C6 4398   4.028   4.363  14.452  0.8033  0.0576 -0.2427
  288TMC3     C 4399   4.404   4.212  14.508  0.0358 -0.6676 -0.8247
  288TMC3     O 4400   4.421   4.188  14.630  0.0527 -0.4355 -0.5132
  288TMC3     H 4401   4.192   4.141  14.640 -0.5864  0.3443  0.8103
  288TMC3    H1 4402   4.324   4.381  14.299  1.6189  0.0414  1.9835
  288TMC3    H2 4403   3.935   4.420  14.457  0.8872  0.0256  1.7709
  288TMC3    C7 4404   4.099   4.504  14.274  0.5201  0.0902  1.2632
  288TMC3    C8 4405   3.961   4.285  14.659 -0.2013  0.6890 -0.3260
  288TMC3    O1 4406   3.990   4.560  14.294 -0.1983 -0.0339 -0.1709
  288TMC3    O2 4407   3.916   4.394  14.681  0.8383 -0.3123 -0.3813
  289MPD2     C 4408   4.116   3.161  14.638 -0.1528  0.4082  0.0966
  289MPD2    C1 4409   4.129   3.274  14.556 -0.1015 -0.1899  1.2603
  289MPD2    C2 4410   4.020   3.300  14.476 -0.7191 -0.9541  0.1802
  289MPD2    C3 4411   3.904   3.224  14.488  0.8386  0.0712 -0.0955
  289MPD2    C4 4412   3.903   3.110  14.561  0.5096  0.0220  0.0763
  289MPD2    C5 4413   4.012   3.079  14.638 -0.5178  0.7964 -0.4147
  289MPD2     H 4414   4.021   3.381  14.404 -1.9673 -0.5143  0.6490
  289MPD2    H1 4415   3.822   3.039  14.572  1.2457 -0.7330  0.6584
  289MPD2    H2 4416   4.201   3.133  14.699 -0.7230  0.4899  0.9315
  289MPD2    H3 4417   4.008   2.993  14.704 -0.7104  0.4643 -0.8664
  289MPD2     N 4418   3.787   3.249  14.418  0.3247 -0.0777 -0.3289
  289MPD2    H5 4419   3.720   3.175  14.402  0.7341 -0.4138 -0.5027
  289MPD2    N1 4420   4.250   3.340  14.564 -0.4399 -0.0969  0.2115
  289MPD2    H7 4421   4.323   3.309  14.626 -0.3020  1.3465  0.7748
  290TMC3    C1 4422   3.619   3.390  14.335 -0.4442  0.8201 -0.1955
  290TMC3    C2 4423   3.578   3.509  14.277 -0.6500  0.5458 -0.2136
  290TMC3    C3 4424   3.445   3.507  14.234  0.6470 -0.5256 -0.4924
  290TMC3    C4 4425   3.535   3.280  14.371 -0.4852  0.4028 -0.3338
  290TMC3    C5 4426   3.404   3.290  14.335 -0.2396  0.5607  0.5785
  290TMC3    C6 4427   3.364   3.398  14.261  0.2189 -0.2718  0.0073
  290TMC3     C 4428   3.758   3.375  14.364  0.7794 -0.2719  0.3721
  290TMC3     O 4429   3.828   3.473  14.360 -0.1638 -0.0457 -0.1608
  290TMC3     H 4430   3.655   3.585  14.267  2.2127 -2.1596  1.2080
  290TMC3    H1 4431   3.558   3.203  14.444  1.2484 -0.5206 -1.8524
  290TMC3    H2 4432   3.258   3.404  14.237  0.4131  2.8468 -0.1101
  290TMC3    C7 4433   3.319   3.171  14.328  0.0699  0.1813 -0.4268
  290TMC3    C8 4434   3.379   3.610  14.160  0.5526 -0.1984 -0.0146
  290TMC3    O1 4435   3.204   3.193  14.353 -0.3898  0.1895  0.4563
  290TMC3    O2 4436   3.262   3.602  14.125 -0.1493  0.4645  0.0033
  291MPD2     C 4437   3.342   2.746   0.437 -0.1640  0.0933 -0.2149
  291MPD2    C1 4438   3.350   2.645   0.342 -0.8376  0.1958 -0.0366
  291MPD2    C2 4439   3.472   2.626   0.273  0.1396 -0.3132  0.0636
  291MPD2    C3 4440   3.577   2.718   0.280  0.4389  0.2604  0.5384
  291MPD2    C4 4441   3.555   2.830   0.364 -0.7007 -0.4846 -0.1931
  291MPD2    C5 4442   3.441   2.840   0.434 -0.0094  0.3609  0.1066
  291MPD2     H 4443   3.486   2.535   0.216  0.8331  0.4400 -0.9628
  291MPD2    H1 4444   3.629   2.909   0.365  0.2284 -1.3808  1.8593
  291MPD2    H2 4445   3.260   2.769   0.504  0.9749  1.0962  0.8197
  291MPD2    H3 4446   3.419   2.926   0.497 -1.2558  0.0823  0.0444
  291MPD2     N 4447   3.699   2.713   0.207 -0.0774  0.5026  0.2720
  291MPD2    H5 4448   3.765   2.784   0.236  0.8827 -1.0549  1.9048
  291MPD2    N1 4449   3.253   2.549   0.316 -0.3065  0.8440  0.1290
  291MPD2    H7 4450   3.257   2.485   0.238 -1.0755  1.1362 -0.1478
  292TMC3    C1 4451   3.034   2.454   0.353 -0.1130 -0.1900 -0.1225
  292TMC3    C2 4452   2.920   2.462   0.422 -0.0049 -0.3687 -0.6752
  292TMC3    C3 4453   2.825   2.372   0.395 -0.4509 -0.1035  0.5636
  292TMC3    C4 4454   3.048   2.377   0.242 -0.3854  0.1446  0.1696
  292TMC3    C5 4455   2.947   2.286   0.220  0.6888 -0.0897  0.2264
  292TMC3    C6 4456   2.831   2.280   0.298  0.1071 -0.1631 -0.0931
  292TMC3     C 4457   3.142   2.540   0.398  0.4374  0.1374 -0.3632
  292TMC3     O 4458   3.105   2.623   0.480  0.5620  0.3609 -0.6442
  292TMC3     H 4459   2.913   2.531   0.506  1.9621 -1.2371  0.2099
  292TMC3    H1 4460   3.146   2.357   0.199 -0.2359  2.5689 -0.5912
  292TMC3    H2 4461   2.750   2.216   0.266 -1.1804  1.1649  0.5337
  292TMC3    C7 4462   2.952   2.211   0.093 -0.8521 -0.5382 -0.0580
  292TMC3    C8 4463   2.720   2.355   0.491  0.0682  0.1051 -0.1171
  292TMC3    O1 4464   3.056   2.190   0.043  0.1108  0.2714  0.7365
  292TMC3    O2 4465   2.706   2.451   0.567  0.4915 -0.2337  0.1674
  293MPD2     C 4466   0.333   4.215  12.628 -0.1603 -0.5048 -0.2121
  293MPD2    C1 4467   0.231   4.164  12.712 -0.1494 -0.3377  0.5725
  293MPD2    C2 4468   0.246   4.189  12.847  0.3890  0.4170 -0.3347
  293MPD2    C3 4469   0.336   4.282  12.893 -0.6355 -0.0663  0.6934
  293MPD2    C4 4470   0.433   4.333  12.809  0.3648  0.6491 -0.1105
  293MPD2    C5 4471   0.431   4.295  12.674  0.1957 -0.3185  0.2664
  293MPD2     H 4472   0.179   4.155  12.926 -1.4316 -1.5086 -2.6997
  293MPD2    H1 4473   0.500   4.412  12.839 -0.7691  1.0084  1.4713
  293MPD2    H2 4474   0.337   4.196  12.521 -0.6334 -2.9916  0.2284
  293MPD2    H3 4475   0.499   4.337  12.600  0.3398  1.0245  1.1467
  293MPD2     N 4476   0.334   4.312  13.031  0.8349 -0.2814  0.0090
  293MPD2    H5 4477   0.262   4.267  13.086  1.4658  2.1552  2.8513
  293MPD2    N1 4478   0.134   4.090  12.645  0.2173  0.6330 -0.3697
  293MPD2    H7 4479   0.133   4.091  12.543  1.4919  0.3341 -0.3900
  294TMC3    C1 4480   4.644   4.014  12.626  0.2649 -0.6756 -0.0768
  294TMC3    C2 4481   4.540   3.932  12.673  0.3369 -0.7844  0.4422
  294TMC3    C3 4482   4.426   3.920  12.594  0.4761  0.0689 -0.0853
  294TMC3    C4 4483   4.627   4.083  12.508 -0.7793  0.1850  0.0305
  294TMC3    C5 4484   4.514   4.066  12.433 -0.0727  0.7030 -0.5245
  294TMC3    C6 4485   4.413   3.988  12.480 -0.2016  0.7384 -0.5339
  294TMC3     C 4486   0.022   4.041  12.710 -0.0252 -0.6236 -0.4723
  294TMC3     O 4487   0.016   4.006  12.830 -0.1587  0.4993 -0.2232
  294TMC3     H 4488   4.557   3.871  12.761  0.7457  1.2163  1.7513
  294TMC3    H1 4489   4.694   4.164  12.481  1.6331 -1.9454 -0.3671
  294TMC3    H2 4490   4.327   3.966  12.417  0.2452 -2.0940 -0.1367
  294TMC3    C7 4491   4.501   4.117  12.302 -0.2101 -0.5197  0.4931
  294TMC3    C8 4492   4.353   3.795  12.593 -0.5015 -1.0093 -0.8397
  294TMC3    O1 4493   4.387   4.111  12.251 -0.4284  0.0758 -0.5662
  294TMC3    O2 4494   4.364   3.723  12.695 -0.1760 -0.1013 -0.2787
  295MPD2     C 4495   1.357   3.018   0.814 -0.0354  0.1376 -0.0865
  295MPD2    C1 4496   1.257   2.983   0.727 -0.0707 -0.5567  0.0776
  295MPD2    C2 4497   1.166   2.881   0.768  0.1792  0.2441 -1.1226
  295MPD2    C3 4498   1.181   2.805   0.883  0.1809  0.1308  0.0909
  295MPD2    C4 4499   1.290   2.839   0.958 -0.4996  0.1279 -0.0001
  295MPD2    C5 4500   1.377   2.940   0.922 -0.1033  0.2441  0.0892
  295MPD2     H 4501   1.086   2.848   0.703 -0.1398 -3.1173  0.9943
  295MPD2    H1 4502   1.316   2.787   1.050  0.6047  0.2890 -0.2226
  295MPD2    H2 4503   1.428   3.095   0.789 -1.0796  1.6347  1.5615
  295MPD2    H3 4504   1.460   2.958   0.989 -0.3541 -1.2758  0.8046
  295MPD2     N 4505   1.098   2.696   0.923  0.0089  0.1900 -0.3898
  295MPD2    H5 4506   1.121   2.651   1.011 -4.3245  1.5280  1.4298
  295MPD2    N1 4507   1.244   3.044   0.602  0.1467  0.0321 -0.9246
  295MPD2    H7 4508   1.166   3.000   0.554 -0.1192  1.2281 -1.5657
  296TMC3    C1 4509   0.943   2.519   0.915  0.4302  0.0134 -0.3233
  296TMC3    C2 4510   0.844   2.452   0.842  0.3023  0.4257 -0.1069
  296TMC3    C3 4511   0.805   2.327   0.883 -0.0519  0.1246  0.1563
  296TMC3    C4 4512   0.997   2.455   1.030  0.2996 -0.4099  0.2010
  296TMC3    C5 4513   0.962   2.326   1.056  0.9455  0.4800  0.2374
  296TMC3    C6 4514   0.864   2.254   0.980 -0.1749 -0.2529  0.1202
  296TMC3     C 4515   0.996   2.645   0.853 -0.5311 -0.2808 -0.3788
  296TMC3     O 4516   0.956   2.676   0.742  0.1436  0.2706  0.4552
  296TMC3     H 4517   0.803   2.494   0.751 -1.0704  0.7133  0.6354
  296TMC3    H1 4518   1.088   2.492   1.076  0.9392  0.1562 -1.5362
  296TMC3    H2 4519   0.824   2.157   1.007  0.3891  0.4469  3.4679
  296TMC3    C7 4520   1.017   2.262   1.171 -0.1114 -0.2785  0.0690
  296TMC3    C8 4521   0.672   2.293   0.851  0.1172 -0.3287  0.2224
  296TMC3    O1 4522   1.070   2.330   1.259  0.1813  0.2296  0.3105
  296TMC3    O2 4523   0.650   2.171   0.855 -0.0737 -0.7340 -0.3093
  297MPD2     C 4524   2.819   0.504  16.580 -0.2134  0.1597  0.4525
  297MPD2    C1 4525   2.770   0.554  16.459  0.3057  0.0532  0.4508
  297MPD2    C2 4526   2.843   0.646  16.382 -0.0781 -0.4775 -0.2304
  297MPD2    C3 4527   2.975   0.659  16.422  0.5582  0.2346  0.3251
  297MPD2    C4 4528   3.027   0.602  16.539  0.3526 -0.5657 -1.0926
  297MPD2    C5 4529   2.945   0.529  16.625 -0.2707  0.1315  0.3272
  297MPD2     H 4530   2.801   0.707  16.302 -0.6326 -1.6463 -0.8302
  297MPD2    H1 4531   3.130   0.609  16.571 -0.0137  1.2683 -0.2817
  297MPD2    H2 4532   2.756   0.446  16.647 -0.4051  0.2109  0.3187
  297MPD2    H3 4533   2.978   0.488  16.719 -0.0086  0.4784  0.3823
  297MPD2     N 4534   3.050   0.754  16.347  0.3821  0.0411  0.9094
  297MPD2    H5 4535   3.002   0.821  16.287 -1.4734 -0.6040  1.6738
  297MPD2    N1 4536   2.641   0.530  16.414  0.5120 -0.1606  0.8735
  297MPD2    H7 4537   2.602   0.594  16.346 -2.8170 -3.1515 -0.0455
  298TMC3    C1 4538   2.438   0.427  16.367 -0.1551 -0.3933  0.1229
  298TMC3    C2 4539   2.392   0.316  16.301  0.6849  0.5589  0.2726
  298TMC3    C3 4540   2.290   0.335  16.207 -0.4272  0.0243  0.1074
  298TMC3    C4 4541   2.388   0.555  16.348  0.1448  0.2327  0.5117
  298TMC3    C5 4542   2.282   0.565  16.262 -0.2822  0.1322  0.5571
  298TMC3    C6 4543   2.233   0.461  16.187 -0.1024 -0.7063  0.0759
  298TMC3     C 4544   2.570   0.415  16.431  0.4103  0.0222 -0.1985
  298TMC3     O 4545   2.597   0.313  16.492 -0.0527  0.4456 -0.5690
  298TMC3     H 4546   2.461   0.234  16.315  0.0963  0.0242  0.0120
  298TMC3    H1 4547   2.417   0.647  16.396 -1.6775  0.0441  1.9747
  298TMC3    H2 4548   2.154   0.471  16.113  0.1304 -0.5793 -0.1551
  298TMC3    C7 4549   2.206   0.688  16.268  0.4620  0.9659 -0.2473
  298TMC3    C8 4550   2.233   0.214  16.152 -0.6797  0.3300 -0.3584
  298TMC3    O1 4551   2.224   0.755  16.368  0.0913  0.1266 -0.4891
  298TMC3    O2 4552   2.169   0.221  16.046  0.0579 -0.1582  0.0366
  299MPD2     C 4553   3.456   4.672  10.825 -0.0195 -0.0711 -0.0475
  299MPD2    C1 4554   3.440   0.055  10.893 -0.8561 -0.8740  0.5259
  299MPD2    C2 4555   3.347   0.149  10.846 -0.2957  0.2878 -0.7532
  299MPD2    C3 4556   3.258   0.117  10.742 -0.5917  0.3860 -0.2271
  299MPD2    C4 4557   3.271   0.001  10.682 -0.0197  0.6732 -0.1903
  299MPD2    C5 4558   3.369   4.648  10.723 -0.0761 -0.1856 -0.4330
  299MPD2     H 4559   3.338   0.240  10.905  1.4114  0.3581 -0.6209
  299MPD2    H1 4560   3.206   4.704  10.602  1.4678  1.5183 -1.7723
  299MPD2    H2 4561   3.535   4.602  10.849 -0.5642 -0.5059  0.5135
  299MPD2    H3 4562   3.384   4.568  10.652 -0.0100 -1.4342  0.9908
  299MPD2     N 4563   3.158   0.201  10.682 -0.2653 -0.0474 -0.0385
  299MPD2    H5 4564   3.106   0.158  10.607  0.1653  0.0822 -0.4178
  299MPD2    N1 4565   3.519   0.079  11.011 -0.3548 -0.0292 -0.0372
  299MPD2    H7 4566   3.576   0.000  11.042  0.2667 -0.0448 -1.2145
  300TMC3    C1 4567   3.026   0.389  10.671 -0.5756  0.2984 -0.6986
  300TMC3    C2 4568   3.022   0.518  10.709 -0.1174 -0.0138  0.6633
  300TMC3    C3 4569   2.911   0.565  10.773 -0.5092  0.1084  0.4288
  300TMC3    C4 4570   2.917   0.306  10.690  0.1662 -0.5140  0.4847
  300TMC3    C5 4571   2.817   0.351  10.769 -0.2631  0.1479 -0.0823
  300TMC3    C6 4572   2.808   0.475  10.816 -0.3336 -0.5678  0.5358
  300TMC3     C 4573   3.154   0.334  10.711  0.2690  0.1267 -0.7832
  300TMC3     O 4574   3.229   0.398  10.785  0.7822 -0.1163 -0.1487
  300TMC3     H 4575   3.108   0.576  10.680 -0.3806 -0.6448 -1.3542
  300TMC3    H1 4576   2.925   0.199  10.678  1.3772 -0.4340  0.5684
  300TMC3    H2 4577   2.721   0.498  10.876  1.0180 -0.2485  2.3744
  300TMC3    C7 4578   2.739   0.249  10.837  0.4895  0.3817  0.9048
  300TMC3    C8 4579   2.942   0.685  10.851  0.2370  0.3757  0.1729
  300TMC3    O1 4580   2.698   0.153  10.771  0.5923 -0.2380  0.3189
  300TMC3    O2 4581   3.060   0.719  10.860 -0.5334  0.2168  0.5079
  301MPD2     C 4582   1.121   1.248   0.776 -0.2484 -0.5670  0.2218
  301MPD2    C1 4583   1.005   1.195   0.724  0.1293 -0.1330  0.4105
  301MPD2    C2 4584   1.005   1.066   0.675 -0.5568 -0.7290 -0.0451
  301MPD2    C3 4585   1.110   0.978   0.688 -0.1617  0.3311  0.0337
  301MPD2    C4 4586   1.219   1.028   0.749  0.1148  0.6430 -0.6576
  301MPD2    C5 4587   1.220   1.157   0.794 -0.1093 -0.2416 -0.3305
  301MPD2     H 4588   0.915   1.028   0.628 -0.9186  1.3128 -1.0121
  301MPD2    H1 4589   1.312   0.978   0.774  0.2113  1.0363 -0.2222
  301MPD2    H2 4590   1.134   1.347   0.819 -0.7784 -0.2742 -0.3101
  301MPD2    H3 4591   1.315   1.186   0.838  1.3792 -3.4037 -1.4606
  301MPD2     N 4592   1.102   0.845   0.648  0.3608 -0.5196  0.1765
  301MPD2    H5 4593   1.180   0.791   0.686  1.6728  0.3863 -1.2069
  301MPD2    N1 4594   0.880   1.264   0.715  0.4011  0.4893 -0.0575
  301MPD2    H7 4595   0.796   1.225   0.675  0.4514  0.0990  0.2120
  302TMC3    C1 4596   1.002   0.663   0.527  0.5993 -1.2455  0.1590
  302TMC3    C2 4597   1.017   0.582   0.631 -0.2409  0.0634  0.6291
  302TMC3    C3 4598   0.991   0.450   0.624 -0.1637 -0.2612  0.8058
  302TMC3    C4 4599   0.946   0.617   0.408  0.0541  0.6767  0.9014
  302TMC3    C5 4600   0.908   0.487   0.411 -0.3782  0.3889  0.3336
  302TMC3    C6 4601   0.937   0.400   0.510 -0.1336 -0.8586 -0.7309
  302TMC3     C 4602   1.018   0.809   0.548  0.4910  0.4071 -0.1171
  302TMC3     O 4603   0.950   0.868   0.463  0.3335  0.7721 -0.8712
  302TMC3     H 4604   1.057   0.618   0.725  1.6782 -0.3698 -0.0371
  302TMC3    H1 4605   0.938   0.685   0.324  0.8606  0.9847  1.0784
  302TMC3    H2 4606   0.907   0.297   0.492 -1.3113 -0.3338 -1.8303
  302TMC3    C7 4607   0.799   0.456   0.322  0.8451 -0.1257 -0.7411
  302TMC3    C8 4608   0.997   0.361   0.738 -0.6163  0.4880  0.5486
  302TMC3    O1 4609   0.786   0.339   0.284  0.5051 -0.6649 -0.4938
  302TMC3    O2 4610   0.971   0.245   0.715  0.2606  0.0793 -0.0009
  303MPD2     C 4611   0.461   4.710  10.337 -0.0582 -0.3102  0.1644
  303MPD2    C1 4612   0.392   4.596  10.300  0.0227 -0.5051  0.0170
  303MPD2    C2 4613   0.285   4.607  10.203 -0.3124 -0.4503  0.2863
  303MPD2    C3 4614   0.265   4.728  10.140 -0.4459  0.2580 -0.0519
  303MPD2    C4 4615   0.339   0.099  10.173  0.1462  0.4987 -0.8824
  303MPD2    C5 4616   0.431   0.093  10.276  0.0571  0.5993 -0.2313
  303MPD2     H 4617   0.225   4.519  10.183 -1.5926  0.3294  0.6695
  303MPD2    H1 4618   0.309   0.191  10.123  1.4610  1.5039  0.1856
  303MPD2    H2 4619   0.522   4.723  10.426 -1.1219  1.1499  0.6746
  303MPD2    H3 4620   0.483   0.182  10.311  0.9785  0.4582 -1.2736
  303MPD2     N 4621   0.168   0.016  10.039  0.5812 -0.1445 -0.4734
  303MPD2    H5 4622   0.178   0.102   9.986 -0.8558  0.6835  0.5606
  303MPD2    N1 4623   0.433   4.474  10.360  0.1343 -0.2072  0.6981
  303MPD2    H7 4624   0.496   4.476  10.439  0.4173  0.7052  0.4446
  304TMC3    C1 4625   0.446   4.251  10.389  1.0508  0.1435  0.2027
  304TMC3    C2 4626   0.406   4.257  10.520 -0.2740 -0.1266 -0.0875
  304TMC3    C3 4627   0.417   4.134  10.585  0.4285  0.0297  0.2291
  304TMC3    C4 4628   0.494   4.136  10.330  0.3838 -0.9591 -0.2764
  304TMC3    C5 4629   0.526   4.026  10.404  0.2484  0.5801  0.0154
  304TMC3    C6 4630   0.485   4.024  10.535  0.6048  0.2099 -0.1434
  304TMC3     C 4631   0.411   4.354  10.303  0.5904  0.0905  0.1413
  304TMC3     O 4632   0.376   4.323  10.191  0.3354 -0.7202  0.1319
  304TMC3     H 4633   0.360   4.350  10.551  0.5701  0.7766 -1.6012
  304TMC3    H1 4634   0.510   4.128  10.223  0.4558  0.8521 -0.4070
  304TMC3    H2 4635   0.492   3.934  10.595 -0.5281 -1.0146 -1.8513
  304TMC3    C7 4636   0.504   3.903  10.328 -0.4214 -0.4905  0.6624
  304TMC3    C8 4637   0.289   4.090  10.632  0.0535  0.2665 -0.0717
  304TMC3    O1 4638   0.551   3.898  10.211 -1.0097 -0.2905 -0.2059
  304TMC3    O2 4639   0.271   3.976  10.587 -0.6788 -0.3215  0.4596
  305MPD2     C 4640   3.823   2.145  13.884 -0.2383  1.0347  0.0441
  305MPD2    C1 4641   3.887   2.026  13.921 -0.5609  0.2809  0.9339
  305MPD2    C2 4642   3.861   1.915  13.844  0.0574 -0.2920 -0.9272
  305MPD2    C3 4643   3.782   1.915  13.729 -0.4701  0.3641 -0.1906
  305MPD2    C4 4644   3.702   2.027  13.711 -0.1733 -0.2766 -0.0504
  305MPD2    C5 4645   3.730   2.142  13.779  0.6274 -0.9356  0.3392
  305MPD2     H 4646   3.921   1.827  13.864 -0.8852 -1.5531 -3.5724
  305MPD2    H1 4647   3.625   2.029  13.636 -1.2038  0.1236  1.0152
  305MPD2    H2 4648   3.844   2.224  13.955  1.2454 -0.6318  1.4694
  305MPD2    H3 4649   3.657   2.221  13.762  0.7770 -0.6959  0.8314
  305MPD2     N 4650   3.765   1.813  13.639 -0.0741  0.0149 -0.3380
  305MPD2    H5 4651   3.695   1.824  13.566 -1.1166 -0.0619  0.6475
  305MPD2    N1 4652   3.967   2.017  14.037 -0.5146  0.1907  0.5701
  305MPD2    H7 4653   3.983   2.103  14.087 -0.3827  0.5112 -0.0257
  306TMC3    C1 4654   4.115   1.930  14.198  0.3924 -0.0883 -0.5071
  306TMC3    C2 4655   4.196   1.828  14.201  0.1169  0.7272 -0.0342
  306TMC3    C3 4656   4.281   1.822  14.309  0.8877  0.1603 -0.4156
  306TMC3    C4 4657   4.096   2.020  14.302 -0.2406 -0.7679 -0.6313
  306TMC3    C5 4658   4.198   2.030  14.391 -1.2858 -0.3545  0.6436
  306TMC3    C6 4659   4.292   1.930  14.390  0.3400 -0.9534  0.2457
  306TMC3     C 4660   4.009   1.902  14.104  0.2932  0.4176  0.2410
  306TMC3     O 4661   3.980   1.786  14.078 -0.0510 -0.2482  0.3269
  306TMC3     H 4662   4.193   1.743  14.133 -0.8894 -0.5863  1.6400
  306TMC3    H1 4663   4.012   2.088  14.309  0.2364  0.0290 -2.4362
  306TMC3    H2 4664   4.383   1.933  14.448 -0.5509  0.0362  1.6013
  306TMC3    C7 4665   4.170   2.081  14.525  0.2741 -0.5438 -0.0734
  306TMC3    C8 4666   4.373   1.710  14.327 -1.1631  0.0882  0.8182
  306TMC3    O1 4667   4.052   2.100  14.545 -0.5528  0.0953  0.5349
  306TMC3    O2 4668   4.384   1.646  14.220  0.8208 -0.1372  0.5377
  307MPD2     C 4669   1.714   4.128   0.238 -0.9226  0.6256  0.2030
  307MPD2    C1 4670   1.695   4.268   0.225 -0.1669  0.4351 -0.0339
  307MPD2    C2 4671   1.593   4.318   0.306 -0.1748  0.1280  0.0701
  307MPD2    C3 4672   1.508   4.240   0.384  0.3821  0.2122  0.3330
  307MPD2    C4 4673   1.529   4.103   0.383 -0.1798  0.0534 -0.6975
  307MPD2    C5 4674   1.627   4.047   0.306  0.2892  0.3185 -0.0088
  307MPD2     H 4675   1.576   4.425   0.311  0.5644  0.3656 -2.4822
  307MPD2    H1 4676   1.474   4.038   0.450  0.6711 -1.3949 -1.3949
  307MPD2    H2 4677   1.791   4.079   0.180 -2.8572 -0.0405 -1.7705
  307MPD2    H3 4678   1.641   3.940   0.299  0.9355  0.3372  0.9460
  307MPD2     N 4679   1.409   4.302   0.466  0.0830 -0.3145 -0.5490
  307MPD2    H5 4680   1.413   4.403   0.460 -0.5634 -0.4015 -2.4176
  307MPD2    N1 4681   1.784   4.358   0.158 -0.0765  0.1885  0.2779
  307MPD2    H7 4682   1.772   4.452   0.193  1.2357  0.0316  1.1780
  308TMC3    C1 4683   1.001   4.309   0.715 -0.6288  0.4733 -0.0163
  308TMC3    C2 4684   1.021   4.442   0.755 -0.2169 -0.8942  0.3952
  308TMC3    C3 4685   1.139   4.506   0.720 -0.6056  0.0136  0.1824
  308TMC3    C4 4686   1.099   4.249   0.638 -0.3140  0.0930 -0.1626
  308TMC3    C5 4687   1.209   4.319   0.599 -0.0813 -0.0970  0.1749
  308TMC3    C6 4688   1.234   4.445   0.640 -0.2503 -0.6308 -0.7119
  308TMC3     C 4689   0.877   4.271   0.668 -0.8118 -0.4373  0.2147
  308TMC3     O 4690   0.841   4.154   0.666 -0.1374 -0.2651  0.2883
  308TMC3     H 4691   0.948   4.498   0.813  0.5907  0.9301 -0.3252
  308TMC3    H1 4692   1.077   4.161   0.578  0.0055  0.1833 -0.4158
  308TMC3    H2 4693   1.332   4.489   0.630  0.3165 -1.1557  2.4275
  308TMC3    C7 4694   1.317   4.237   0.543  0.2742 -0.7533  0.4267
  308TMC3    C8 4695   1.146   4.643   0.768  0.0947 -0.2053  0.6849
  308TMC3    O1 4696   1.310   4.119   0.572 -0.4100  0.3740 -0.0648
  308TMC3    O2 4697   1.095   4.663   0.880  0.4142 -0.1834  0.3125
  309MPD2     C 4698   0.995   0.275  16.970 -0.3947 -0.5315 -0.2217
  309MPD2    C1 4699   0.960   0.227  16.847  0.3796 -0.4420 -0.3347
  309MPD2    C2 4700   0.829   0.208  16.830 -0.1976  0.3680 -0.3430
  309MPD2    C3 4701   0.730   0.235  16.926 -0.1718 -0.1816 -0.8405
  309MPD2    C4 4702   0.766   0.274  17.053  0.1515 -0.6766 -0.3335
  309MPD2    C5 4703   0.906   0.291  17.070 -0.3299 -0.1599 -0.0061
  309MPD2     H 4704   0.791   0.177  16.733  0.0297 -2.9210  0.6425
  309MPD2    H1 4705   0.693   0.278  17.133  0.1358  0.8305 -0.4216
  309MPD2    H2 4706   1.100   0.290  16.995 -0.6576  2.5063 -1.0196
  309MPD2    H3 4707   0.951   0.310  17.166  0.4567 -0.0247 -0.4017
  309MPD2     N 4708   0.590   0.229  16.897 -0.3035 -0.0422  0.4891
  309MPD2    H5 4709   0.535   0.261  16.975 -1.5325 -2.1381  0.4772
  309MPD2    N1 4710   1.045   0.210  16.735  0.4143 -0.2539  0.5684
  309MPD2    H7 4711   1.004   0.184  16.646  1.3528 -2.6316  0.8356
  310TMC3    C1 4712   1.223   0.243  16.604 -0.3900  0.2610  0.3058
  310TMC3    C2 4713   1.258   0.350  16.537  0.7613  0.7630 -0.5784
  310TMC3    C3 4714   1.328   0.338  16.424  0.2140  0.0057  0.3501
  310TMC3    C4 4715   1.271   0.120  16.577 -0.3397  0.4126 -0.3185
  310TMC3    C5 4716   1.350   0.109  16.466 -0.6052  0.1905  0.1610
  310TMC3    C6 4717   1.371   0.217  16.384  0.1981  0.2243  0.1855
  310TMC3     C 4718   1.167   0.265  16.734 -0.1190  0.0134  0.5952
  310TMC3     O 4719   1.216   0.353  16.808 -0.1045  0.1089 -0.1621
  310TMC3     H 4720   1.211   0.442  16.570 -1.0559 -0.6637  0.7844
  310TMC3    H1 4721   1.241   0.036  16.639  0.7094  0.4316  0.2116
  310TMC3    H2 4722   1.430   0.198  16.295 -0.2945  0.4894 -0.1983
  310TMC3    C7 4723   1.381   4.713  16.421 -0.1788  0.3152 -0.1178
  310TMC3    C8 4724   1.260   0.418  16.328  0.2026  0.2938  0.4334
  310TMC3    O1 4725   1.406   4.699  16.303  0.6098  0.0757  0.1308
  310TMC3    O2 4726   1.151   0.463  16.367 -0.3552 -0.0071  0.0446
  311MPD2     C 4727   2.706   1.766  12.481  0.6322 -0.0335 -1.0522
  311MPD2    C1 4728   2.771   1.782  12.601  0.7202  0.2759  0.0548
  311MPD2    C2 4729   2.697   1.776  12.716 -0.0496 -0.4841 -0.1661
  311MPD2    C3 4730   2.570   1.723  12.711  0.3919  0.3207 -1.3076
  311MPD2    C4 4731   2.512   1.701  12.591  0.3260  0.2848 -0.2883
  311MPD2    C5 4732   2.577   1.720  12.475 -0.1980  0.2484 -0.3203
  311MPD2     H 4733   2.743   1.814  12.806 -0.2354  0.3355 -0.4232
  311MPD2    H1 4734   2.408   1.669  12.586  0.1727  0.9744 -1.6183
  311MPD2    H2 4735   2.754   1.784  12.385  0.3123  1.7724 -0.8644
  311MPD2    H3 4736   2.524   1.695  12.384  0.5910 -2.9758  0.0993
  311MPD2     N 4737   2.507   1.696  12.832 -0.2274  0.1712  0.0206
  311MPD2    H5 4738   2.542   1.727  12.922 -1.6108 -0.5258  0.8044
  311MPD2    N1 4739   2.908   1.823  12.605 -0.6153  0.2578  0.0393
  311MPD2    H7 4740   2.953   1.842  12.694  0.2518 -0.4596 -0.2461
  312TMC3    C1 4741   2.359   1.605  12.988 -0.1766 -0.0522 -0.1627
  312TMC3    C2 4742   2.242   1.544  13.017  0.0743  0.1446 -0.1586
  312TMC3    C3 4743   2.223   1.488  13.142  0.5381  0.7235 -0.5883
  312TMC3    C4 4744   2.452   1.616  13.086  0.3266 -0.3231  1.0346
  312TMC3    C5 4745   2.436   1.541  13.199 -0.3213  1.2162  0.1711
  312TMC3    C6 4746   2.322   1.479  13.236  0.1128 -0.4131  0.4653
  312TMC3     C 4747   2.391   1.625  12.850 -0.0871  0.2422  1.3901
  312TMC3     O 4748   2.323   1.571  12.763  0.2241  0.1205 -0.1565
  312TMC3     H 4749   2.155   1.558  12.955  1.3223 -1.6154 -2.3237
  312TMC3    H1 4750   2.542   1.676  13.083 -0.8141  1.3444 -0.0771
  312TMC3    H2 4751   2.302   1.453  13.340 -0.9207  2.3853  0.9549
  312TMC3    C7 4752   2.502   1.612  13.308  0.5191  0.1787  0.4802
  312TMC3    C8 4753   2.088   1.464  13.182  0.0960 -0.3482 -0.2230
  312TMC3    O1 4754   2.508   1.734  13.300  0.6235 -0.0143  0.0638
  312TMC3    O2 4755   2.073   1.356  13.233 -0.6571  0.8439 -0.0203
  313MPD2     C 4756   1.865   0.535  10.711 -0.2717 -0.1557  0.3628
  313MPD2    C1 4757   1.776   0.489  10.798  0.3121  0.3243  0.1845
  313MPD2    C2 4758   1.671   0.404  10.759  0.1409 -0.0063 -0.2345
  313MPD2    C3 4759   1.656   0.358  10.631  0.3663  0.3832  0.5648
  313MPD2    C4 4760   1.752   0.411  10.541  0.0068 -0.0810 -0.0059
  313MPD2    C5 4761   1.847   0.496  10.581 -0.0808 -0.1720  0.1295
  313MPD2     H 4762   1.591   0.367  10.822  0.3057  0.3517  0.1857
  313MPD2    H1 4763   1.760   0.385  10.437 -1.6679  0.1434 -0.1962
  313MPD2    H2 4764   1.956   0.591  10.733 -0.6167 -0.1214  1.7127
  313MPD2    H3 4765   1.913   0.529  10.501 -0.6823 -2.4357 -1.2803
  313MPD2     N 4766   1.549   0.283  10.589 -0.1562 -0.1358 -0.5591
  313MPD2    H5 4767   1.480   0.252  10.657 -0.4765  0.5787 -0.5532
  313MPD2    N1 4768   1.789   0.523  10.939  0.3329  0.3411  0.4027
  313MPD2    H7 4769   1.711   0.501  11.001  1.4848 -1.2701  1.2995
  314TMC3    C1 4770   1.871   0.655  11.122  0.3535 -0.4290  0.1800
  314TMC3    C2 4771   1.977   0.735  11.153 -0.9702 -0.2191  0.3728
  314TMC3    C3 4772   1.953   0.859  11.198  0.4924  0.3105  0.1779
  314TMC3    C4 4773   1.745   0.708  11.141  0.1210  0.3505 -0.2892
  314TMC3    C5 4774   1.723   0.837  11.169  0.0066 -0.3858 -0.2049
  314TMC3    C6 4775   1.832   0.915  11.198 -0.1935 -0.0992  0.7028
  314TMC3     C 4776   1.902   0.587  10.995 -0.1962  0.3280 -0.0693
  314TMC3     O 4777   2.009   0.613  10.940  0.2252  0.1039 -0.1107
  314TMC3     H 4778   2.076   0.695  11.139 -1.4627 -1.4285  0.3889
  314TMC3    H1 4779   1.654   0.661  11.105 -0.2002  0.7105  0.0608
  314TMC3    H2 4780   1.819   1.019  11.225 -0.1160  0.2334 -0.5360
  314TMC3    C7 4781   1.608   0.895  11.104 -0.0322 -0.2423  0.2889
  314TMC3    C8 4782   2.066   0.956  11.240 -0.0228  0.9072  0.5078
  314TMC3    O1 4783   1.498   0.873  11.148  0.3122  0.1612 -0.3624
  314TMC3    O2 4784   2.051   1.076  11.228  0.2024  0.1411 -0.1049
  315MPD2     C 4785   2.329   0.196  17.363  0.2196 -0.0206  0.2556
  315MPD2    C1 4786   2.397   0.259  17.469 -0.1159  0.4296 -0.0773
  315MPD2    C2 4787   2.447   0.380  17.446  0.4473 -0.2597 -0.0932
  315MPD2    C3 4788   2.454   0.445  17.320 -0.6643 -0.6298 -0.0770
  315MPD2    C4 4789   2.386   0.389  17.216 -0.1057  0.5830  0.5811
  315MPD2    C5 4790   2.327   0.263  17.242 -0.2947  0.0868  0.6740
  315MPD2     H 4791   2.496   0.430  17.528 -0.4248 -0.4765  0.5526
  315MPD2    H1 4792   2.399   0.409  17.110  0.3868  1.2597  0.7716
  315MPD2    H2 4793   2.270   0.105  17.373  0.1154  0.2268  1.8169
  315MPD2    H3 4794   2.302   0.210  17.150 -1.6034  2.2039 -0.1798
  315MPD2     N 4795   2.537   0.561  17.306  0.5526  0.4558 -0.1574
  315MPD2    H5 4796   2.604   0.578  17.381  1.4526 -1.3163 -0.5575
  315MPD2    N1 4797   2.412   0.202  17.607  0.4400 -0.0267  0.0082
  315MPD2    H7 4798   2.450   0.260  17.680  0.1581 -0.7160  0.7050
  316TMC3    C1 4799   2.597   0.769  17.214  0.1510 -0.4261 -0.5128
  316TMC3    C2 4800   2.708   0.766  17.300  0.6443  0.4327  0.1477
  316TMC3    C3 4801   2.756   0.885  17.350  0.6094  0.2888 -0.5754
  316TMC3    C4 4802   2.526   0.885  17.186 -0.6219 -0.4674 -0.4613
  316TMC3    C5 4803   2.583   1.002  17.238 -0.0427 -0.0982  0.3612
  316TMC3    C6 4804   2.696   1.007  17.321 -0.4021  0.4777  0.4188
  316TMC3     C 4805   2.525   0.646  17.200  0.1827  0.5376  0.5256
  316TMC3     O 4806   2.447   0.636  17.106 -0.3355  0.3600 -0.6273
  316TMC3     H 4807   2.769   0.677  17.298  1.7686  1.1913  0.6535
  316TMC3    H1 4808   2.440   0.877  17.119 -0.9158 -0.8948 -0.0316
  316TMC3    H2 4809   2.738   1.095  17.369 -1.3414  0.3379  1.4845
  316TMC3    C7 4810   2.497   1.112  17.245 -0.4826  0.3708  0.2191
  316TMC3    C8 4811   2.867   0.898  17.448 -0.1130 -0.0385 -0.2687
  316TMC3    O1 4812   2.508   1.171  17.352  0.3186 -0.1478  0.4444
  316TMC3    O2 4813   2.896   1.010  17.490 -0.4522 -0.3617  0.3477
  317MPD2     C 4814   4.042   3.035  12.280 -0.6879  0.2089  0.1595
  317MPD2    C1 4815   4.168   2.981  12.282  0.3185 -0.5345  0.6803
  317MPD2    C2 4816   4.241   2.982  12.397  0.3683 -0.5768 -0.5795
  317MPD2    C3 4817   4.201   3.047  12.510 -0.0351  0.4579 -0.0436
  317MPD2    C4 4818   4.073   3.104  12.514  0.3186 -0.4442 -0.0971
  317MPD2    C5 4819   3.999   3.092  12.402  0.6157  0.3127 -0.5254
  317MPD2     H 4820   4.339   2.935  12.390  1.1059  0.8083  0.5608
  317MPD2    H1 4821   4.037   3.145  12.608  1.4633 -2.2731  1.1448
  317MPD2    H2 4822   3.973   3.026  12.197  0.9775 -0.7805 -1.1262
  317MPD2    H3 4823   3.900   3.136  12.407 -0.4111 -1.9253 -0.8416
  317MPD2     N 4824   4.293   3.054  12.617  0.4044  0.0379  0.1519
  317MPD2    H5 4825   4.373   2.992  12.621  0.8717  0.5730 -0.7137
  317MPD2    N1 4826   4.221   2.921  12.161  0.0919  0.8676 -0.1390
  317MPD2    H7 4827   4.318   2.891  12.163 -0.4080 -0.8360 -1.7316
  318TMC3    C1 4828   4.365   3.064  12.830  0.3592 -0.0983  0.3162
  318TMC3    C2 4829   4.423   2.940  12.821 -0.1570 -0.3869  0.3688
  318TMC3    C3 4830   4.501   2.910  12.929 -0.6549 -0.1776  0.1510
  318TMC3    C4 4831   4.387   3.145  12.934 -0.4041  0.4195  0.1646
  318TMC3    C5 4832   4.483   3.115  13.029  0.4647 -0.0731 -0.0298
  318TMC3    C6 4833   4.539   2.995  13.028 -0.1448  0.2017 -0.4416
  318TMC3     C 4834   4.267   3.112  12.736  0.7398 -0.5762  0.5083
  318TMC3     O 4835   4.190   3.205  12.768  0.2169  0.1956  0.3081
  318TMC3     H 4836   4.403   2.865  12.746  0.0519 -0.2306  0.1597
  318TMC3    H1 4837   4.333   3.237  12.956 -0.1363  0.3123  1.2840
  318TMC3    H2 4838   4.599   2.957  13.110 -1.8995 -0.2647  0.6122
  318TMC3    C7 4839   4.452   3.158  13.162  0.3723  0.4805  0.3849
  318TMC3    C8 4840   4.446   2.793  12.984  0.5532  0.3500  0.1903
  318TMC3    O1 4841   4.344   3.213  13.185 -0.4425  0.0026  0.1781
  318TMC3    O2 4842   4.517   2.743  13.071 -0.6188 -0.3116 -0.1865
  319MPD2     C 4843   0.413   4.338  16.377  0.3926  0.3864  0.5792
  319MPD2    C1 4844   0.320   4.310  16.473  0.0655  0.5133  0.1318
  319MPD2    C2 4845   0.192   4.268  16.427  1.0245 -0.5824  0.3914
  319MPD2    C3 4846   0.165   4.241  16.290 -0.2537  0.7227 -0.0851
  319MPD2    C4 4847   0.260   4.273  16.199 -0.1498  0.6261  0.1844
  319MPD2    C5 4848   0.380   4.323  16.243 -0.1746 -0.0923  0.6636
  319MPD2     H 4849   0.111   4.273  16.498  0.5754  1.0881 -0.2453
  319MPD2    H1 4850   0.245   4.250  16.094 -0.2660 -1.7737  0.7376
  319MPD2    H2 4851   0.515   4.366  16.402  0.2349  0.7252  0.8473
  319MPD2    H3 4852   0.462   4.335  16.173 -0.0353  0.4802  0.9201
  319MPD2     N 4853   0.041   4.207  16.243  0.5801  1.3439  0.2824
  319MPD2    H5 4854   0.033   4.191  16.143 -1.0489  4.0295 -0.0214
  319MPD2    N1 4855   0.347   4.324  16.614  0.1221  0.0316 -0.4096
  319MPD2    H7 4856   0.277   4.294  16.681  0.1459  2.9850  0.9114
  320TMC3    C1 4857   4.560   4.142  16.232 -0.4668 -0.2850 -0.0655
  320TMC3    C2 4858   4.532   4.221  16.127  0.1733  0.1698  0.6456
  320TMC3    C3 4859   4.407   4.228  16.079  0.2057  0.1398  0.1409
  320TMC3    C4 4860   4.461   4.067  16.291 -0.6238 -0.2124  0.6748
  320TMC3    C5 4861   4.341   4.073  16.234  0.0168 -0.2030  0.0504
  320TMC3    C6 4862   4.303   4.150  16.130  0.2663  0.0237 -0.0196
  320TMC3     C 4863   4.673   4.170  16.322  0.1905  0.7524  0.0949
  320TMC3     O 4864   4.662   4.143  16.441 -0.1809  0.2589 -0.2016
  320TMC3     H 4865   4.598   4.291  16.076  1.4836 -0.3657  1.5856
  320TMC3    H1 4866   4.487   3.982  16.353  0.8391 -2.0230 -2.4018
  320TMC3    H2 4867   4.202   4.155  16.091  0.3617  1.7013 -0.0617
  320TMC3    C7 4868   4.243   3.969  16.272  0.2998  0.4412  0.1281
  320TMC3    C8 4869   4.368   4.353  16.010  0.0546 -0.2259 -0.0304
  320TMC3    O1 4870   4.167   3.933  16.184  0.7042 -0.5477  0.3574
  320TMC3    O2 4871   4.447   4.446  16.011 -0.4251 -0.2013 -0.1174
  321TMC3    C1 4872   0.444   4.404  16.803  0.7404 -0.4729  0.3375
  321TMC3    C2 4873   0.418   4.279  16.858 -0.0388  0.2434 -0.7898
  321TMC3    C3 4874   0.390   4.285  16.990  0.5128 -0.3866  0.4369
  321TMC3    C4 4875   0.434   4.525  16.870 -0.7027 -1.1215 -0.5610
  321TMC3    C5 4876   0.402   4.524  17.005 -0.1130 -0.5808 -0.0981
  321TMC3    C6 4877   0.371   4.405  17.057  0.2448  0.0362 -0.1452
  321TMC3     C 4878   0.451   4.405  16.661 -0.5491 -0.0042 -0.1058
  321TMC3     O 4879   0.489   4.513  16.617  0.3240  0.3796 -0.8938
  321TMC3     H 4880   0.434   4.189  16.800 -1.6829 -0.5115 -0.0602
  321TMC3    H1 4881   0.429   4.616  16.812  0.9279 -0.6895 -0.0253
  321TMC3    H2 4882   0.358   4.396  17.164 -1.2895  1.2347 -0.2479
  321TMC3    C7 4883   0.481   4.612  17.084 -1.0352  0.6292  0.0321
  321TMC3    C8 4884   0.469   4.199  17.071  0.2620  0.9156 -0.3159
  321TMC3    O1 4885   0.505   4.724  17.044  0.0249 -0.3376  0.1279
  321TMC3    O2 4886   0.506   4.249  17.174  0.2388 -0.1439 -0.0692
  322MPD2     C 4887   4.179   1.000  13.158 -0.0317 -0.7260 -0.8724
  322MPD2    C1 4888   4.137   0.978  13.284 -0.5663  0.0744 -0.1324
  322MPD2    C2 4889   4.100   0.854  13.322  0.2168 -0.0761 -0.8471
  322MPD2    C3 4890   4.087   0.751  13.232 -0.3372  0.2583 -0.0090
  322MPD2    C4 4891   4.128   0.773  13.106 -0.0705  0.0630 -0.1241
  322MPD2    C5 4892   4.171   0.894  13.068 -0.2014 -0.2432  0.0810
  322MPD2     H 4893   4.076   0.835  13.426  1.1839  0.0391 -0.6032
  322MPD2    H1 4894   4.110   0.695  13.032  0.9179 -0.3939  0.1129
  322MPD2    H2 4895   4.225   1.094  13.127 -0.9625 -0.3355 -1.0595
  322MPD2    H3 4896   4.200   0.918  12.966 -1.0779 -0.5312 -0.2399
  322MPD2     N 4897   4.048   0.615  13.279  0.2828 -0.2559 -0.1999
  322MPD2    H5 4898   4.024   0.608  13.377  1.5111  1.7376  0.2330
  322MPD2    N1 4899   4.145   1.087  13.372  0.3607 -0.2108 -0.4821
  322MPD2    H7 4900   4.177   1.181  13.350  2.2550 -0.7663 -0.1537
  323TMC3    C1 4901   4.158   1.199  13.588 -0.3684 -0.1272 -0.4447
  323TMC3    C2 4902   4.266   1.270  13.538 -0.0209  0.4059 -0.3420
  323TMC3    C3 4903   4.350   1.330  13.637 -0.7951 -0.0818 -0.4762
  323TMC3    C4 4904   4.124   1.201  13.721  0.4886  0.4606  0.5327
  323TMC3    C5 4905   4.212   1.246  13.815 -0.3217 -0.6225 -0.0400
  323TMC3    C6 4906   4.320   1.316  13.768 -0.3509  0.1765 -0.2663
  323TMC3     C 4907   4.095   1.091  13.511 -0.0215 -0.0420 -0.5297
  323TMC3     O 4908   4.021   1.014  13.572  0.0907 -0.9635  0.2662
  323TMC3     H 4909   4.297   1.255  13.436  0.9129  1.1462 -0.1661
  323TMC3    H1 4910   4.039   1.142  13.752 -0.5880  1.8217  0.1772
  323TMC3    H2 4911   4.386   1.373  13.832 -0.2663 -0.9360  0.6245
  323TMC3    C7 4912   4.218   1.180  13.947  0.0747  0.2074 -0.1613
  323TMC3    C8 4913   4.472   1.393  13.604 -0.0986 -0.4199 -0.0295
  323TMC3    O1 4914   4.153   1.073  13.944 -0.5056 -0.0754 -0.4521
  323TMC3    O2 4915   4.556   1.414  13.687  0.0712 -0.1971  0.2552
  324MPD2     C 4916   0.815   1.959  14.349 -0.5362  0.0513  0.6859
  324MPD2    C1 4917   0.832   2.093  14.355 -0.2929  0.5655  0.1691
  324MPD2    C2 4918   0.718   2.164  14.358  0.2400  0.2351  0.7180
  324MPD2    C3 4919   0.587   2.114  14.346 -0.1917 -0.2311  0.2547
  324MPD2    C4 4920   0.581   1.977  14.339  0.5000 -0.4076 -0.0294
  324MPD2    C5 4921   0.690   1.898  14.342 -0.2083 -0.0205  0.6117
  324MPD2     H 4922   0.733   2.271  14.365  0.3764  0.5138 -3.8473
  324MPD2    H1 4923   0.495   1.916  14.314  1.5669 -1.2024 -1.7956
  324MPD2    H2 4924   0.904   1.898  14.350  0.3268  1.3134  1.6219
  324MPD2    H3 4925   0.693   1.790  14.329  0.2116 -0.0900  1.2523
  324MPD2     N 4926   0.470   2.188  14.349  0.9245 -1.0599  0.0779
  324MPD2    H5 4927   0.384   2.135  14.354 -0.8434  1.8718  0.9829
  324MPD2    N1 4928   0.957   2.158  14.373  0.1084 -0.3631 -0.5752
  324MPD2    H7 4929   0.948   2.259  14.370  0.5686 -0.2866  1.0541
  325TMC3    C1 4930   0.320   2.380  14.309 -0.2435  0.0651 -0.5360
  325TMC3    C2 4931   0.216   2.288  14.287  0.0621  0.0544 -0.0725
  325TMC3    C3 4932   0.101   2.339  14.240 -0.5391  0.0576  0.0512
  325TMC3    C4 4933   0.307   2.514  14.276  0.4172 -0.5204 -0.6286
  325TMC3    C5 4934   0.189   2.556  14.224  0.0560 -0.2316  0.2344
  325TMC3    C6 4935   0.081   2.473  14.214  0.5188  0.5966  0.9113
  325TMC3     C 4936   0.464   2.330  14.333  0.4813 -0.2243  0.6182
  325TMC3     O 4937   0.551   2.415  14.305 -0.4431  0.0946 -0.5357
  325TMC3     H 4938   0.232   2.182  14.302  0.0137  0.1443  0.6307
  325TMC3    H1 4939   0.387   2.583  14.300 -0.0547  0.2600 -1.2831
  325TMC3    H2 4940   4.728   2.509  14.169  0.9227  0.5953  0.1048
  325TMC3    C7 4941   0.185   2.705  14.220  0.4973  0.3938  0.1777
  325TMC3    C8 4942   0.001   2.245  14.198 -0.2794  0.9515  0.6797
  325TMC3    O1 4943   0.292   2.766  14.222  0.3838  0.1739 -0.0962
  325TMC3    O2 4944   0.025   2.126  14.207  0.0319  0.2160 -0.2880
  326MPD2     C 4945   1.478   3.729  10.981 -0.0288 -0.3514  0.4595
  326MPD2    C1 4946   1.566   3.661  10.902 -0.2015  0.2112 -0.1443
  326MPD2    C2 4947   1.701   3.702  10.900  0.0834  0.3605 -0.2922
  326MPD2    C3 4948   1.749   3.806  10.973  1.1714 -0.4476 -0.5910
  326MPD2    C4 4949   1.665   3.860  11.064  0.4400  0.4282  0.0468
  326MPD2    C5 4950   1.527   3.829  11.068 -0.3212 -0.7439  0.0453
  326MPD2     H 4951   1.770   3.648  10.835 -1.1689 -1.5572 -0.0071
  326MPD2    H1 4952   1.704   3.916  11.148 -1.0738  0.0965  0.9830
  326MPD2    H2 4953   1.374   3.699  10.980  0.3166 -1.5518  0.5512
  326MPD2    H3 4954   1.460   3.877  11.138  0.9330 -1.2905  1.6076
  326MPD2     N 4955   1.883   3.842  10.974  0.0273  0.3476  0.3565
  326MPD2    H5 4956   1.905   3.927  11.024  1.0589 -0.0398  0.5731
  326MPD2    N1 4957   1.539   3.567  10.807 -0.8110  0.2197 -0.4888
  326MPD2    H7 4958   1.619   3.535  10.753 -0.6216 -0.8506  0.4396
  327TMC3    C1 4959   1.427   3.456  10.629 -0.9289  0.0430 -1.0112
  327TMC3    C2 4960   1.309   3.421  10.563 -0.0512 -0.5803  0.1710
  327TMC3    C3 4961   1.303   3.418  10.421  0.0591  0.1694  0.0803
  327TMC3    C4 4962   1.542   3.457  10.559 -0.2242 -0.2684  0.1265
  327TMC3    C5 4963   1.539   3.452  10.424 -0.0332  0.0459  0.3120
  327TMC3    C6 4964   1.419   3.434  10.347  0.8253 -0.2348  0.0022
  327TMC3     C 4965   1.415   3.523  10.758  0.1728 -0.2762 -0.2682
  327TMC3     O 4966   1.303   3.555  10.794  0.0497 -0.1149 -0.2323
  327TMC3     H 4967   1.218   3.412  10.621  0.5646 -1.6620  0.9681
  327TMC3    H1 4968   1.639   3.476  10.604 -1.4238 -0.0270  2.5654
  327TMC3    H2 4969   1.430   3.455  10.241  1.2776 -0.0120  0.0915
  327TMC3    C7 4970   1.657   3.488  10.352 -0.0034 -0.3742  0.1113
  327TMC3    C8 4971   1.188   3.472  10.356 -0.1330 -0.5163 -0.1639
  327TMC3    O1 4972   1.646   3.534  10.242 -0.2048 -0.1577 -0.0132
  327TMC3    O2 4973   1.222   3.548  10.273 -0.7490  0.4913 -0.3787
  328MPD2     C 4974   4.490   2.801  17.095 -1.1463 -0.0803 -0.6084
  328MPD2    C1 4975   4.415   2.760  16.989 -0.4299 -0.3581 -0.1710
  328MPD2    C2 4976   4.318   2.847  16.937 -0.2860 -0.5921 -0.1493
  328MPD2    C3 4977   4.311   2.983  16.984 -0.4172  0.1746 -0.0343
  328MPD2    C4 4978   4.394   3.020  17.086  0.1399  0.3755  0.1102
  328MPD2    C5 4979   4.471   2.926  17.145 -0.0627  0.0465  0.3296
  328MPD2     H 4980   4.268   2.825  16.843 -0.1412  0.6098 -0.5151
  328MPD2    H1 4981   4.392   3.115  17.139 -2.4375  0.9435 -0.9957
  328MPD2    H2 4982   4.557   2.734  17.147 -3.2721 -2.9413 -1.5895
  328MPD2    H3 4983   4.531   2.964  17.227 -1.1515  0.3461  0.9859
  328MPD2     N 4984   4.223   3.079  16.942  0.5443  0.1793 -0.9164
  328MPD2    H5 4985   4.221   3.170  16.987  1.7863  0.4147 -1.3391
  328MPD2    N1 4986   4.424   2.624  16.953  0.1229 -0.1339  1.3916
  328MPD2    H7 4987   4.485   2.560  17.002  1.7260 -1.5156 -2.3840
  329TMC3    C1 4988   4.376   2.431  16.832 -0.1529  0.1303  0.7753
  329TMC3    C2 4989   4.354   2.354  16.940 -0.5207  0.1533  0.5126
  329TMC3    C3 4990   4.337   2.217  16.920  0.2893  0.5596 -0.7683
  329TMC3    C4 4991   4.388   2.384  16.708  0.4641  0.3462 -0.6356
  329TMC3    C5 4992   4.370   2.248  16.693  0.2914 -0.1025  0.6049
  329TMC3    C6 4993   4.345   2.163  16.799 -1.0225 -0.2306 -0.3165
  329TMC3     C 4994   4.352   2.570  16.846  0.2314 -0.5508 -0.0112
  329TMC3     O 4995   4.285   2.624  16.758  0.4346 -0.5819  0.1625
  329TMC3     H 4996   4.347   2.401  17.037 -1.5473  0.8523  0.0960
  329TMC3    H1 4997   4.392   2.442  16.616 -1.3515 -1.7088 -2.0225
  329TMC3    H2 4998   4.341   2.055  16.786 -1.0107 -0.1141 -1.3285
  329TMC3    C7 4999   4.372   2.204  16.555  0.3107  0.3503  0.0420
  329TMC3    C8 5000   4.265   2.144  17.020  0.1901  0.6813  0.4657
  329TMC3    O1 5001   4.421   2.276  16.468  0.3051 -0.2638  0.1209
  329TMC3    O2 5002   4.276   2.020  17.019  0.3777 -0.1930  0.0023
  330TMC3    C1 5003   1.924   2.382   9.308 -0.1822 -0.5483 -0.1841
  330TMC3    C2 5004   1.845   2.377   9.420 -0.3276 -0.6084 -0.0874
  330TMC3    C3 5005   1.804   2.490   9.491  0.6487  0.4754  0.8218
  330TMC3    C4 5006   1.966   2.506   9.264 -0.8826 -0.2336 -0.6637
  330TMC3    C5 5007   1.926   2.619   9.336 -0.1978 -0.5743 -0.0432
  330TMC3    C6 5008   1.848   2.610   9.451 -0.4489 -0.0663 -0.0482
  330TMC3     C 5009   1.992   2.268   9.249 -0.2928 -0.7591  0.6897
  330TMC3     O 5010   2.005   2.254   9.126  0.3989 -0.3731  0.0902
  330TMC3     H 5011   1.827   2.276   9.457 -1.3845 -0.5631 -0.4729
  330TMC3    H1 5012   2.021   2.522   9.172 -1.0289  0.8620 -0.5559
  330TMC3    H2 5013   1.803   2.696   9.498  0.5128  1.3261 -1.6509
  330TMC3    C7 5014   1.955   2.755   9.275 -0.1993 -0.7284  0.0622
  330TMC3    C8 5015   1.776   2.476   9.631 -0.0672 -0.0024  0.2503
  330TMC3    O1 5016   2.042   2.766   9.187 -1.0624  0.3781 -0.2449
  330TMC3    O2 5017   1.787   2.571   9.707  0.2118 -0.3778  0.2290
  331MPD2     C 5018   0.181   1.601  12.918  0.5268 -0.1358  0.3419
  331MPD2    C1 5019   0.296   1.633  12.846 -0.3786 -0.3576 -0.1836
  331MPD2    C2 5020   0.341   1.547  12.753  0.1734  1.1600  0.2052
  331MPD2    C3 5021   0.277   1.430  12.721  0.0142  0.0052 -0.5592
  331MPD2    C4 5022   0.164   1.397  12.796 -0.1081  0.3856  0.3749
  331MPD2    C5 5023   0.112   1.482  12.884  0.6978 -0.3475 -0.0512
  331MPD2     H 5024   0.433   1.566  12.700 -0.4982  0.5106 -1.2231
  331MPD2    H1 5025   0.113   1.304  12.774  2.7673 -1.1047 -0.0503
  331MPD2    H2 5026   0.136   1.674  12.984  0.7942 -1.2551  1.7449
  331MPD2    H3 5027   0.022   1.455  12.938 -0.5548  1.6562 -1.1400
  331MPD2     N 5028   0.339   1.346  12.626 -0.1127  0.5070  0.4713
  331MPD2    H5 5029   0.416   1.389  12.575  0.3547  1.4858  1.9939
  331MPD2    N1 5030   0.346   1.768  12.876 -0.6539 -0.3515 -0.1125
  331MPD2    H7 5031   0.293   1.826  12.941  0.9239  0.8193  0.1369
  332TMC3    C1 5032   0.380   1.169  12.485  0.0755  0.3153 -0.2583
  332TMC3    C2 5033   0.385   1.250  12.378  0.3673  0.0030  0.2296
  332TMC3    C3 5034   0.497   1.239  12.294 -0.6270  0.2345 -0.4054
  332TMC3    C4 5035   0.478   1.080  12.520  0.9295 -0.7926 -0.3625
  332TMC3    C5 5036   0.577   1.070  12.433 -0.2400  0.6112 -0.5029
  332TMC3    C6 5037   0.587   1.140  12.317  0.5233  0.2077 -0.0002
  332TMC3     C 5038   0.296   1.217  12.590 -0.4374  0.1902 -0.7348
  332TMC3     O 5039   0.245   1.125  12.658 -0.0040  0.6212 -0.0771
  332TMC3     H 5040   0.313   1.331  12.374 -1.1274 -1.4226 -1.6023
  332TMC3    H1 5041   0.494   1.044  12.621  0.7436  2.8013  0.9331
  332TMC3    H2 5042   0.661   1.118  12.241 -0.4757 -1.2187 -0.5532
  332TMC3    C7 5043   0.663   0.959  12.442  0.3906  0.5119  0.0754
  332TMC3    C8 5044   0.536   1.338  12.198  0.1095 -0.0565 -0.4312
  332TMC3    O1 5045   0.623   0.856  12.386  0.2772 -0.1512 -0.3284
  332TMC3    O2 5046   0.659   1.344  12.169  0.0383 -0.0885  0.0427
  333MPD2     C 5047   0.108   1.645  11.007  0.0115 -0.4848  0.3031
  333MPD2    C1 5048   0.233   1.584  10.996  0.0278  0.3005  0.2801
  333MPD2    C2 5049   0.258   1.471  11.072 -0.4340  0.2944  0.5329
  333MPD2    C3 5050   0.162   1.425  11.152 -0.2590 -0.0504 -0.2025
  333MPD2    C4 5051   0.036   1.474  11.145  1.0085  0.1679 -0.4261
  333MPD2    C5 5052   0.009   1.601  11.093 -0.0223  0.5370  0.5779
  333MPD2     H 5053   0.342   1.406  11.049  1.0466  2.6306 -0.6641
  333MPD2    H1 5054   4.694   1.430  11.204 -2.1141  2.3264 -3.0785
  333MPD2    H2 5055   0.080   1.730  10.946 -0.3599 -0.2740  0.7652
  333MPD2    H3 5056   4.651   1.651  11.087 -1.1990 -1.6605  0.7447
  333MPD2     N 5057   0.191   1.305  11.225 -0.3611  0.3025 -0.2166
  333MPD2    H5 5058   0.282   1.263  11.207  0.0957  1.0877  0.2755
  333MPD2    N1 5059   0.335   1.647  10.919 -0.3944 -0.2562 -0.1827
  333MPD2    H7 5060   0.324   1.746  10.898 -2.8391 -0.1922  1.4839
  334TMC3    C1 5061   0.540   1.667  10.820  0.1230 -0.5041 -0.3893
  334TMC3    C2 5062   0.658   1.608  10.855 -0.1231  1.5208  0.2020
  334TMC3    C3 5063   0.765   1.682  10.890 -0.0608  0.2272  0.1454
  334TMC3    C4 5064   0.532   1.803  10.808  0.7038  0.7588 -0.1276
  334TMC3    C5 5065   0.644   1.876  10.834  1.2038 -0.1329 -0.4114
  334TMC3    C6 5066   0.758   1.817  10.877 -0.0792  0.6689  0.1081
  334TMC3     C 5067   0.438   1.580  10.865  0.1228 -0.5223  0.7040
  334TMC3     O 5068   0.467   1.461  10.859  0.2225 -0.4867  0.8413
  334TMC3     H 5069   0.671   1.503  10.879 -0.7776  1.1105 -1.3003
  334TMC3    H1 5070   0.441   1.858  10.785 -0.5830 -1.0200  0.6571
  334TMC3    H2 5071   0.845   1.876  10.903  0.8915  0.0387 -1.7835
  334TMC3    C7 5072   0.650   2.018  10.796  0.0076  0.3397  0.9797
  334TMC3    C8 5073   0.882   1.616  10.951  0.3131 -0.5469  0.0257
  334TMC3    O1 5074   0.713   2.094  10.863 -0.0463 -0.0409 -0.3171
  334TMC3    O2 5075   0.854   1.534  11.035  0.1056  0.3677  0.1595
  335TMC3    C1 5076   0.195   2.920  17.393 -0.7713  0.0342 -1.0302
  335TMC3    C2 5077   0.138   2.881  17.275  0.4664  0.9494  0.0372
  335TMC3    C3 5078   0.214   2.916  17.167  0.4810 -0.8323  0.3498
  335TMC3    C4 5079   0.326   2.963  17.407  0.0438  0.4893 -0.7959
  335TMC3    C5 5080   0.403   2.987  17.298  0.3531  0.5774  0.8830
  335TMC3    C6 5081   0.349   2.962  17.180 -0.7493 -0.3728 -0.0505
  335TMC3     C 5082   0.116   2.896  17.515  0.0410 -0.3467  0.1464
  335TMC3     O 5083   0.007   2.839  17.500  0.4056 -0.3708  0.0820
  335TMC3     H 5084   0.032   2.857  17.266  0.2555  1.6757  0.5572
  335TMC3    H1 5085   0.366   2.975  17.507 -0.0609 -0.0443 -0.6879
  335TMC3    H2 5086   0.405   2.974  17.088 -0.7531  1.0608  0.1337
  335TMC3    C7 5087   0.548   2.992  17.308  0.2869 -0.4689 -0.3128
  335TMC3    C8 5088   0.180   2.853  17.040  0.3217 -0.2399  0.2583
  335TMC3    O1 5089   0.606   2.964  17.203  1.0103 -0.2100 -0.1717
  335TMC3    O2 5090   0.239   2.890  16.940  0.4894 -0.9083  0.0780
  336MPD2     C 5091   0.188   0.904  15.893  0.6152 -0.3376 -0.0917
  336MPD2    C1 5092   0.095   0.814  15.839 -0.1352 -0.6171  0.4519
  336MPD2    C2 5093   0.118   0.677  15.860  0.5704  0.8074  0.3490
  336MPD2    C3 5094   0.222   0.632  15.937  0.5443  0.5722  0.3956
  336MPD2    C4 5095   0.310   0.719  15.990  0.6666 -0.7334 -0.3812
  336MPD2    C5 5096   0.293   0.854  15.963  0.4557  0.0821  0.0440
  336MPD2     H 5097   0.052   0.603  15.818  0.7053  0.4585  0.7475
  336MPD2    H1 5098   0.397   0.692  16.049 -0.3228  0.1397  1.4851
  336MPD2    H2 5099   0.169   1.009  15.874 -1.7447 -0.3551  2.1721
  336MPD2    H3 5100   0.364   0.915  16.016 -1.1794  0.9793  1.1999
  336MPD2     N 5101   0.246   0.494  15.949 -0.0214 -0.2712  0.4693
  336MPD2    H5 5102   0.313   0.469  16.021 -0.4934 -1.6428  0.4338
  336MPD2    N1 5103   4.734   0.871  15.759  0.9304  0.1647 -0.2136
  336MPD2    H7 5104   4.727   0.972  15.746  1.7880 -0.0975 -2.6848
  337TMC3    C1 5105   4.527   0.907  15.650  1.0533  1.0396  0.3152
  337TMC3    C2 5106   4.401   0.864  15.640  1.5640 -0.1080 -0.5301
  337TMC3    C3 5107   4.317   0.925  15.554 -0.5730 -0.1442 -0.0889
  337TMC3    C4 5108   4.564   1.016  15.571 -0.9817 -0.3365  0.2431
  337TMC3    C5 5109   4.478   1.079  15.495  0.4111 -0.4833 -0.0695
  337TMC3    C6 5110   4.351   1.034  15.479  0.4154 -0.4569  0.1852
  337TMC3     C 5111   4.624   0.813  15.705  0.0048 -0.3444  0.7158
  337TMC3     O 5112   4.585   0.704  15.735  0.1484 -0.1269 -0.1463
  337TMC3     H 5113   4.365   0.772  15.684 -0.0084  0.3829 -0.7886
  337TMC3    H1 5114   4.666   1.052  15.568  0.1982 -3.7986 -0.8424
  337TMC3    H2 5115   4.288   1.080  15.404 -1.6465 -1.0274  1.5730
  337TMC3    C7 5116   4.542   1.158  15.387  0.4645 -0.5074 -0.4158
  337TMC3    C8 5117   4.175   0.880  15.551 -0.1590 -0.5263  0.8619
  337TMC3    O1 5118   4.649   1.109  15.346 -0.1271 -0.4352  0.0173
  337TMC3    O2 5119   4.143   0.801  15.640 -0.0372  0.3380 -0.0970
  338MPD2     C 5120   0.143   0.426   0.581  0.2537 -0.0796 -0.3540
  338MPD2    C1 5121   0.087   0.389   0.462  0.0992 -0.1370  0.3216
  338MPD2    C2 5122   4.687   0.388   0.448  0.9575 -0.1040 -0.6461
  338MPD2    C3 5123   4.605   0.425   0.548 -0.2301  0.0086 -0.1139
  338MPD2    C4 5124   4.665   0.457   0.669  0.2352  0.0476  0.0437
  338MPD2    C5 5125   0.063   0.466   0.688 -0.3134 -0.4132  0.4645
  338MPD2     H 5126   4.643   0.359   0.353  0.3450  0.2342 -0.4666
  338MPD2    H1 5127   4.609   0.494   0.754  0.2436  0.9752 -0.3587
  338MPD2    H2 5128   0.251   0.437   0.576  0.4484 -1.6663  0.3618
  338MPD2    H3 5129   0.117   0.506   0.772  1.5659  0.8300 -1.3185
  338MPD2     N 5130   4.464   0.422   0.534  0.1581 -0.1081  0.5380
  338MPD2    H5 5131   4.432   0.408   0.439 -2.4719  0.8693  1.2782
  338MPD2    N1 5132   0.164   0.356   0.353 -0.2264 -0.3644  0.4800
  338MPD2    H7 5133   0.108   0.338   0.271  1.0885 -0.6474 -0.3632
  339TMC3    C1 5134   4.244   0.407   0.580  0.5515  0.9027 -0.0746
  339TMC3    C2 5135   4.171   0.297   0.616 -0.3703  0.1711  0.0914
  339TMC3    C3 5136   4.077   0.254   0.519  0.0974  0.4490 -0.3685
  339TMC3    C4 5137   4.227   0.473   0.462 -0.2051  0.2201  0.0952
  339TMC3    C5 5138   4.131   0.431   0.371 -0.7341 -0.3069  0.2240
  339TMC3    C6 5139   4.063   0.316   0.398  0.6484 -0.1147 -0.3485
  339TMC3     C 5140   4.373   0.408   0.636 -0.5903 -0.0231 -0.4243
  339TMC3     O 5141   4.378   0.386   0.753 -0.2340 -0.1069 -0.1855
  339TMC3     H 5142   4.191   0.236   0.704 -0.1830  1.5967  1.0435
  339TMC3    H1 5143   4.273   0.570   0.457 -0.3256  0.3258  1.0223
  339TMC3    H2 5144   3.983   0.274   0.337 -0.5591 -0.7576  1.6380
  339TMC3    C7 5145   4.114   0.517   0.258  0.0043  0.7855 -0.0992
  339TMC3    C8 5146   3.998   0.137   0.534 -0.5183  0.2871  0.1049
  339TMC3    O1 5147   4.172   0.624   0.265  0.0188  0.3949  0.0319
  339TMC3    O2 5148   3.880   0.134   0.508  0.5642 -0.0868  0.6262
  340MPD2     C 5149   0.620   1.124   8.905  0.1438 -0.4464 -0.0226
  340MPD2    C1 5150   0.688   1.092   9.018  0.3449 -1.0577 -0.2069
  340MPD2    C2 5151   0.805   1.165   9.040  0.3686  0.7699  0.0542
  340MPD2    C3 5152   0.852   1.266   8.959 -0.0262 -0.1205 -0.3962
  340MPD2    C4 5153   0.773   1.299   8.850  0.1732 -0.1907  0.8020
  340MPD2    C5 5154   0.659   1.229   8.825 -0.3636 -0.1795 -0.7839
  340MPD2     H 5155   0.859   1.148   9.133 -0.2816  1.1793  0.5037
  340MPD2    H1 5156   0.805   1.379   8.785  0.2159 -0.2659  0.7307
  340MPD2    H2 5157   0.535   1.065   8.871  0.6478 -0.2932 -1.5666
  340MPD2    H3 5158   0.601   1.258   8.738  1.7127  0.7497 -1.8357
  340MPD2     N 5159   0.969   1.344   8.981 -0.0340  0.6339  0.0763
  340MPD2    H5 5160   0.969   1.422   8.916 -0.3445  0.3536 -0.2627
  340MPD2    N1 5161   0.646   0.995   9.116 -0.6338  0.1087 -0.4871
  340MPD2    H7 5162   0.719   0.981   9.186 -0.4196 -0.6213 -0.8488
  341TMC3    C1 5163   0.509   0.832   9.215 -0.2136  0.5184 -1.2111
  341TMC3    C2 5164   0.410   0.739   9.196  0.2822  0.6069 -0.1376
  341TMC3    C3 5165   0.310   0.736   9.288 -0.2283 -0.3013  0.1959
  341TMC3    C4 5166   0.526   0.886   9.336 -0.5775  0.4819  0.4157
  341TMC3    C5 5167   0.436   0.863   9.430 -0.1133  0.5215  0.1979
  341TMC3    C6 5168   0.322   0.798   9.409 -0.3822 -0.4852 -0.1264
  341TMC3     C 5169   0.530   0.917   9.108 -0.2929 -0.3422 -0.2783
  341TMC3     O 5170   0.442   0.922   9.027 -0.7429  0.0617  0.0044
  341TMC3     H 5171   0.400   0.693   9.099 -0.9542 -1.4420  0.9604
  341TMC3    H1 5172   0.600   0.961   9.360 -0.3885  1.0080 -1.7873
  341TMC3    H2 5173   0.240   0.798   9.480  0.3660 -0.7842  0.7445
  341TMC3    C7 5174   0.463   0.921   9.558 -0.1778 -0.1174 -0.3585
  341TMC3    C8 5175   0.182   0.698   9.233 -0.0959  0.3340 -0.3424
  341TMC3    O1 5176   0.519   1.030   9.555 -0.2785  0.0909 -0.4294
  341TMC3    O2 5177   0.092   0.767   9.281  0.0112  0.1740 -0.7133
  342MPD2     C 5178   3.246   1.225  16.624  0.3566 -0.1716  0.1996
  342MPD2    C1 5179   3.189   1.186  16.740  0.0573 -0.5094 -0.4572
  342MPD2    C2 5180   3.185   1.278  16.843  0.2993  0.0143  0.4334
  342MPD2    C3 5181   3.238   1.408  16.824 -0.2549 -0.8630  0.1357
  342MPD2    C4 5182   3.309   1.440  16.708 -0.6374 -0.4545 -0.2223
  342MPD2    C5 5183   3.315   1.345  16.607  0.7141  0.1023  0.3889
  342MPD2     H 5184   3.137   1.248  16.935 -1.2462  0.5542 -0.1980
  342MPD2    H1 5185   3.342   1.542  16.691  0.9258 -1.1200 -1.2508
  342MPD2    H2 5186   3.233   1.154  16.543 -1.4555 -0.5999  0.8696
  342MPD2    H3 5187   3.372   1.368  16.518  0.0926  2.2920  0.5570
  342MPD2     N 5188   3.216   1.511  16.915 -0.5027 -0.2021  0.4646
  342MPD2    H5 5189   3.262   1.600  16.899 -1.3429  0.2654  0.6728
  342MPD2    N1 5190   3.166   1.053  16.765 -0.3452  0.1049 -0.2751
  342MPD2    H7 5191   3.124   1.030  16.854 -2.3632 -1.2578 -1.5868
  343TMC3    C1 5192   3.205   0.822  16.741 -0.1353 -0.7803 -0.2709
  343TMC3    C2 5193   3.332   0.773  16.730 -0.4325 -0.0551  0.3116
  343TMC3    C3 5194   3.387   0.694  16.825  0.3988 -0.5415  0.2311
  343TMC3    C4 5195   3.126   0.790  16.846 -0.6219  0.2320  1.1720
  343TMC3    C5 5196   3.179   0.711  16.939 -1.1747  0.4345 -0.6149
  343TMC3    C6 5197   3.309   0.663  16.926  0.1672  0.1671 -0.5968
  343TMC3     C 5198   3.187   0.947  16.675  0.1285 -0.3026  0.0557
  343TMC3     O 5199   3.214   0.940  16.556 -0.1438  0.4557  1.0377
  343TMC3     H 5200   3.392   0.813  16.649  1.6502  0.6792  2.1831
  343TMC3    H1 5201   3.020   0.812  16.843 -0.9543 -1.6300 -0.0002
  343TMC3    H2 5202   3.355   0.588  16.989 -0.6810 -0.0442 -0.2306
  343TMC3    C7 5203   3.101   0.654  17.043  0.6958 -0.5918 -0.4607
  343TMC3    C8 5204   3.531   0.726  16.845 -0.4327 -0.2428 -0.9667
  343TMC3    O1 5205   2.979   0.679  17.040  0.1305 -0.1492  0.2372
  343TMC3    O2 5206   3.569   0.755  16.960  0.0597 -0.1685  0.9753
  344MPD2     C 5207   4.226   0.260  11.071  0.4690  0.7559 -0.3847
  344MPD2    C1 5208   4.098   0.282  11.027  0.2505 -0.0148  0.3843
  344MPD2    C2 5209   4.083   0.391  10.937  0.1762 -0.1388  0.4529
  344MPD2    C3 5210   4.185   0.481  10.904  0.7547 -0.0635  0.2316
  344MPD2    C4 5211   4.311   0.451  10.952 -0.6527  0.3329  0.2258
  344MPD2    C5 5212   4.323   0.350  11.041  0.4242 -0.1038 -0.1967
  344MPD2     H 5213   3.980   0.413  10.909 -0.2823 -0.1600  2.1113
  344MPD2    H1 5214   4.394   0.520  10.951  0.3771 -0.9235 -0.1585
  344MPD2    H2 5215   4.251   0.183  11.142  0.4300  0.9977 -0.1090
  344MPD2    H3 5216   4.414   0.340  11.099  1.8234 -3.0811 -2.9031
  344MPD2     N 5217   4.167   0.606  10.851  0.3196 -0.2725 -0.2157
  344MPD2    H5 5218   4.254   0.658  10.844 -0.4093  0.7908 -1.4346
  344MPD2    N1 5219   3.986   0.213  11.074 -0.2885 -0.2040 -0.4102
  344MPD2    H7 5220   3.900   0.237  11.027 -0.7518  0.1866  0.6405
  345TMC3    C1 5221   4.081   0.773  10.714 -1.0093 -0.5539  0.8613
  345TMC3    C2 5222   4.181   0.858  10.753  0.1257 -0.9498  0.8668
  345TMC3    C3 5223   4.214   0.961  10.665 -0.1637  0.2084 -0.4029
  345TMC3    C4 5224   4.008   0.791  10.598 -0.5671  0.0053  0.2320
  345TMC3    C5 5225   4.048   0.886  10.512  0.2263  0.4175 -0.4741
  345TMC3    C6 5226   4.152   0.975  10.542 -0.1021 -0.0224 -0.7241
  345TMC3     C 5227   4.051   0.648  10.790 -0.6485 -0.5110  0.0056
  345TMC3     O 5228   3.952   0.583  10.750  0.3457  0.7017  0.8049
  345TMC3     H 5229   4.217   0.851  10.855 -0.2377 -2.7208  0.8852
  345TMC3    H1 5230   3.917   0.735  10.579 -0.1228 -0.4973 -0.4214
  345TMC3    H2 5231   4.178   1.052  10.471 -3.8212  1.1751 -0.8006
  345TMC3    C7 5232   3.962   0.939  10.409 -0.3827  0.1893  0.3349
  345TMC3    C8 5233   4.233   1.089  10.723 -0.7896  0.0277 -0.2967
  345TMC3    O1 5234   3.976   1.060  10.391 -0.1361  1.0826  0.3646
  345TMC3    O2 5235   4.284   1.173  10.645  0.2808  0.0963  0.8009
  346MPD2     C 5236   4.031   2.454  13.833  0.1331 -0.0804 -0.5110
  346MPD2    C1 5237   4.156   2.506  13.847 -0.5280 -0.1068 -0.2911
  346MPD2    C2 5238   4.181   2.589  13.954  0.3669 -0.5362 -0.4916
  346MPD2    C3 5239   4.082   2.601  14.051 -0.1736  0.3098 -0.2288
  346MPD2    C4 5240   3.956   2.542  14.042 -0.4340 -0.2888 -0.5338
  346MPD2    C5 5241   3.934   2.473  13.928 -0.0885  1.4488  0.2331
  346MPD2     H 5242   4.271   2.648  13.966  0.6267 -0.8440 -0.9438
  346MPD2    H1 5243   3.875   2.554  14.113 -1.0797 -0.2096 -1.2865
  346MPD2    H2 5244   4.015   2.396  13.743 -0.4437  1.2757 -1.2972
  346MPD2    H3 5245   3.842   2.418  13.913 -1.2576  3.0545  1.4190
  346MPD2     N 5246   4.118   2.690  14.159 -0.0575  0.2967  0.8228
  346MPD2    H5 5247   4.202   2.744  14.142  0.3332 -0.6915 -0.4394
  346MPD2    N1 5248   4.241   2.502  13.736  0.2318 -0.2918  0.1878
  346MPD2    H7 5249   4.207   2.453  13.654  1.6308  0.1106 -0.6361
  347TMC3    C1 5250   4.069   2.860  14.310  0.0577 -0.5135 -0.5025
  347TMC3    C2 5251   4.125   2.943  14.213  0.2036 -0.4349 -0.1436
  347TMC3    C3 5252   4.235   3.014  14.243 -0.4587 -1.1085  0.4075
  347TMC3    C4 5253   4.118   2.852  14.438  0.2899  0.3117  0.1734
  347TMC3    C5 5254   4.232   2.919  14.463  0.6019  0.0794 -0.1906
  347TMC3    C6 5255   4.285   3.008  14.370  0.5330  0.2539 -0.2509
  347TMC3     C 5256   4.029   2.737  14.256  0.4320 -0.0426 -0.3599
  347TMC3     O 5257   3.912   2.707  14.285 -0.0395  0.2411 -0.1212
  347TMC3     H 5258   4.088   2.939  14.112  2.9213 -0.8114 -1.1102
  347TMC3    H1 5259   4.095   2.770  14.504 -2.4841 -0.1276 -1.3473
  347TMC3    H2 5260   4.368   3.075  14.388 -0.1380  0.6864  1.2365
  347TMC3    C7 5261   4.319   2.853  14.554  0.2763 -0.0394 -0.2569
  347TMC3    C8 5262   4.341   2.972  14.156  0.2687  0.1251  0.9260
  347TMC3    O1 5263   4.275   2.781  14.642 -0.2917 -0.2371  0.0017
  347TMC3    O2 5264   4.330   2.860  14.108  0.3100 -0.2950 -0.0280
  348MPD2     C 5265   2.742   2.355  11.789  0.5491  0.6521  0.3555
  348MPD2    C1 5266   2.784   2.295  11.673 -0.2259  0.0719 -0.4257
  348MPD2    C2 5267   2.754   2.357  11.548  0.8065  0.1028  0.1637
  348MPD2    C3 5268   2.692   2.479  11.545 -0.6975  0.3420 -0.0211
  348MPD2    C4 5269   2.649   2.533  11.663  0.4263  0.3470 -0.9392
  348MPD2    C5 5270   2.677   2.470  11.783 -0.6781 -0.5592  0.2247
  348MPD2     H 5271   2.785   2.331  11.448  0.0912  1.3746 -0.3879
  348MPD2    H1 5272   2.606   2.631  11.677 -2.2052 -0.8306 -0.8447
  348MPD2    H2 5273   2.765   2.314  11.887  0.5474 -1.6199 -0.6043
  348MPD2    H3 5274   2.653   2.521  11.876  0.2247  0.3398 -0.0407
  348MPD2     N 5275   2.674   2.537  11.421 -0.6073  0.0128 -0.1743
  348MPD2    H5 5276   2.710   2.495  11.336 -1.4125  0.6690 -0.8386
  348MPD2    N1 5277   2.844   2.167  11.664  0.0769  0.1566 -0.8021
  348MPD2    H7 5278   2.875   2.137  11.572  0.6118  0.1473 -0.6179
  349TMC3    C1 5279   2.834   1.953  11.717  0.3752  0.3591  0.8368
  349TMC3    C2 5280   2.851   1.864  11.822 -0.0195 -0.3055  0.4632
  349TMC3    C3 5281   2.773   1.753  11.826 -0.5815 -0.1245 -0.2609
  349TMC3    C4 5282   2.745   1.931  11.616  0.1436 -0.2887  0.1981
  349TMC3    C5 5283   2.662   1.819  11.634  0.2888  0.6585  0.4221
  349TMC3    C6 5284   2.672   1.730  11.737 -0.4091 -0.3285 -0.6575
  349TMC3     C 5285   2.840   2.078  11.769  0.9271 -0.0730 -0.2657
  349TMC3     O 5286   2.819   2.089  11.886  0.3193 -0.0587 -0.0301
  349TMC3     H 5287   2.927   1.886  11.897  0.6920  0.8889 -0.6182
  349TMC3    H1 5288   2.725   2.005  11.540 -1.0102 -1.1202 -0.3169
  349TMC3    H2 5289   2.615   1.638  11.731 -0.1045 -0.5492 -0.0927
  349TMC3    C7 5290   2.556   1.802  11.538  0.2738  0.1777 -0.7364
  349TMC3    C8 5291   2.790   1.677  11.946  0.7170  0.2431  0.9639
  349TMC3    O1 5292   2.475   1.716  11.561 -0.1312  0.0275  0.3533
  349TMC3    O2 5293   2.903   1.666  11.984 -0.2475 -0.0131 -0.2058
  350MPD2     C 5294   0.689   0.106   9.979 -0.7683 -0.2555 -0.0060
  350MPD2    C1 5295   0.750   4.719   9.966  0.0792 -0.6733  0.3263
  350MPD2    C2 5296   0.873   4.699  10.029 -0.6725  0.1462  0.4201
  350MPD2    C3 5297   0.932   0.063  10.098  0.2085 -0.1252  0.7251
  350MPD2    C4 5298   0.874   0.188  10.107 -0.2852  0.0695 -0.5745
  350MPD2    C5 5299   0.756   0.202  10.048  0.0574  0.2062  0.3151
  350MPD2     H 5300   0.918   4.600  10.034  1.5055  1.1093 -0.0029
  350MPD2    H1 5301   0.916   0.274  10.157  1.9630 -0.7063 -1.1529
  350MPD2    H2 5302   0.596   0.135   9.932 -0.7586 -0.6317 -0.2621
  350MPD2    H3 5303   0.710   0.299  10.062 -0.0943  0.1168  0.4408
  350MPD2     N 5304   1.056   0.031  10.158  0.4525 -0.2540 -0.2082
  350MPD2    H5 5305   1.075   4.672  10.181  3.4147  0.5608  0.7019
  350MPD2    N1 5306   0.683   4.609   9.917 -0.1708 -0.3467  0.1213
  350MPD2    H7 5307   0.726   4.517   9.927 -0.5253 -0.4610  0.5618
  351TMC3    C1 5308   0.533   4.466   9.828 -0.0732  0.1106 -0.1581
  351TMC3    C2 5309   0.637   4.389   9.778 -0.4348  0.0703 -0.0925
  351TMC3    C3 5310   0.602   4.262   9.743  0.2744 -0.0771 -0.5834
  351TMC3    C4 5311   0.399   4.418   9.823  0.4956 -0.1052  0.0293
  351TMC3    C5 5312   0.382   4.288   9.808  0.2921 -0.4832  0.1585
  351TMC3    C6 5313   0.481   4.202   9.765 -0.7105  0.2781  0.1108
  351TMC3     C 5314   0.561   4.601   9.852  0.2909  0.0466 -0.3459
  351TMC3     O 5315   0.475   4.683   9.829  0.6434  0.0668  0.2585
  351TMC3     H 5316   0.736   4.427   9.758 -1.2118  1.7598 -0.7422
  351TMC3    H1 5317   0.319   4.484   9.854  1.0205  0.7043 -0.3499
  351TMC3    H2 5318   0.465   4.099   9.737  0.7117  0.4459 -1.3140
  351TMC3    C7 5319   0.244   4.243   9.793 -0.1169 -0.0859 -0.2236
  351TMC3    C8 5320   0.703   4.187   9.667 -0.3309  0.2226 -0.1013
  351TMC3    O1 5321   0.162   4.331   9.785  0.1415 -0.0046 -0.6932
  351TMC3    O2 5322   0.711   4.066   9.680  0.0712 -0.3430 -0.5607
  352MPD2     C 5323   0.467   2.095   1.140  0.5679  0.7990 -0.1885
  352MPD2    C1 5324   0.362   2.037   1.072  0.2489  0.5588  0.4495
  352MPD2    C2 5325   0.374   1.905   1.020 -0.1678  0.1917 -0.1397
  352MPD2    C3 5326   0.499   1.848   1.021 -0.3593 -0.9416  0.1304
  352MPD2    C4 5327   0.600   1.906   1.100  0.0091 -0.6328  0.2432
  352MPD2    C5 5328   0.578   2.023   1.158 -0.1565  0.6026  0.2811
  352MPD2     H 5329   0.286   1.856   0.979  0.5118  0.4426 -1.9174
  352MPD2    H1 5330   0.699   1.863   1.105 -0.0952 -0.7951  1.0250
  352MPD2    H2 5331   0.455   2.195   1.181  1.0422  0.7798 -0.0051
  352MPD2    H3 5332   0.661   2.069   1.212 -1.5077  2.3115  0.9148
  352MPD2     N 5333   0.530   1.726   0.962 -0.1658 -0.2250 -0.6556
  352MPD2    H5 5334   0.621   1.689   0.988 -0.2354  2.3659  3.2874
  352MPD2    N1 5335   0.249   2.124   1.056  0.2038  1.2107  0.7489
  352MPD2    H7 5336   0.254   2.219   1.092 -0.5176  0.7953  1.9501
  353TMC3    C1 5337   0.522   1.527   0.848 -0.2403 -0.3552 -0.8505
  353TMC3    C2 5338   0.661   1.522   0.833 -0.0279 -0.2494  0.3373
  353TMC3    C3 5339   0.705   1.396   0.791  0.0638  0.3985  0.0245
  353TMC3    C4 5340   0.431   1.428   0.824  0.5434  0.4550 -0.4850
  353TMC3    C5 5341   0.489   1.307   0.788 -0.1825  0.4522 -0.2241
  353TMC3    C6 5342   0.622   1.285   0.760 -0.7386 -0.9079 -0.2292
  353TMC3     C 5343   0.455   1.649   0.875 -0.1184 -0.0751 -0.6458
  353TMC3     O 5344   0.342   1.664   0.829  0.8518 -0.8308  0.1057
  353TMC3     H 5345   0.726   1.608   0.840 -1.0236  0.5481 -0.1467
  353TMC3    H1 5346   0.324   1.434   0.841  0.8266  1.8240  0.8310
  353TMC3    H2 5347   0.667   1.189   0.736  0.3586 -1.0099  2.1700
  353TMC3    C7 5348   0.407   1.189   0.775 -0.0737 -0.1273  0.3472
  353TMC3    C8 5349   0.852   1.383   0.779 -0.2950  0.4858  0.6693
  353TMC3    O1 5350   0.446   1.098   0.702 -0.0561  0.2050  0.1685
  353TMC3    O2 5351   0.925   1.453   0.852  0.1380  0.9732 -0.1329
  354TMC3    C1 5352   1.896   3.493  13.500  0.8690 -0.1422 -0.1116
  354TMC3    C2 5353   1.800   3.588  13.485  0.1146  0.1009  0.2222
  354TMC3    C3 5354   1.761   3.624  13.355  0.3130  0.2427 -1.0058
  354TMC3    C4 5355   1.938   3.425  13.394  1.1221 -0.3738  0.5031
  354TMC3    C5 5356   1.885   3.452  13.272 -0.6366  0.2144 -0.2698
  354TMC3    C6 5357   1.796   3.550  13.251  0.6888 -0.5228 -0.7466
  354TMC3     C 5358   1.893   3.446  13.630 -0.3927  0.0371 -0.1910
  354TMC3     O 5359   1.801   3.475  13.704 -1.1950  0.3263  0.1368
  354TMC3     H 5360   1.768   3.645  13.571 -0.3785  0.5313 -0.2430
  354TMC3    H1 5361   1.991   3.333  13.417 -2.6778 -2.8858 -0.8075
  354TMC3    H2 5362   1.755   3.586  13.158  2.1933 -1.8452 -1.9150
  354TMC3    C7 5363   1.948   3.412  13.154 -0.0935 -0.8593 -0.1399
  354TMC3    C8 5364   1.689   3.755  13.342  0.0900  0.2283  0.3538
  354TMC3    O1 5365   1.904   3.440  13.043  0.0976 -0.4554 -0.1520
  354TMC3    O2 5366   1.619   3.787  13.440 -0.0381  0.1185  0.4453
  355MPD2     C 5367   1.769   4.315  11.856 -0.5241 -0.6191 -0.1080
  355MPD2    C1 5368   1.855   4.383  11.780 -0.3004  0.3569 -0.4113
  355MPD2    C2 5369   1.992   4.367  11.792  0.6199 -0.1121 -0.1077
  355MPD2    C3 5370   2.046   4.297  11.899  0.3407  0.5541  0.0948
  355MPD2    C4 5371   1.955   4.219  11.975 -0.1911  0.2603  0.5976
  355MPD2    C5 5372   1.818   4.232  11.953 -0.0613 -0.3449 -0.7234
  355MPD2     H 5373   2.057   4.413  11.719 -0.3558  1.2980 -0.0888
  355MPD2    H1 5374   1.988   4.134  12.033 -1.9999 -0.9031 -0.0873
  355MPD2    H2 5375   1.662   4.311  11.842 -0.5672  0.9941 -0.1728
  355MPD2    H3 5376   1.753   4.171  12.015  0.1478  1.1013  0.9154
  355MPD2     N 5377   2.185   4.279  11.922  0.5459  0.0069 -0.3713
  355MPD2    H5 5378   2.218   4.234  12.006 -2.1928 -0.8323  0.2481
  355MPD2    N1 5379   1.795   4.471  11.688 -0.2422  0.4486  0.1687
  355MPD2    H7 5380   1.701   4.449  11.659 -0.8489  2.8053  0.3685
  356TMC3    C1 5381   2.410   4.350  11.889  0.0045  0.2179 -0.4111
  356TMC3    C2 5382   2.504   4.415  11.802  0.5963  0.3546  0.2665
  356TMC3    C3 5383   2.623   4.463  11.861 -0.0592  0.1430 -0.4714
  356TMC3    C4 5384   2.431   4.338  12.023 -0.4513 -0.1555  0.7749
  356TMC3    C5 5385   2.558   4.370  12.068 -0.3252  0.4053 -0.1673
  356TMC3    C6 5386   2.652   4.433  11.993 -0.4508  0.8225 -0.1616
  356TMC3     C 5387   2.277   4.330  11.838 -0.0691  0.7520 -0.0536
  356TMC3     O 5388   2.269   4.366  11.722 -0.5037 -0.2864  0.8928
  356TMC3     H 5389   2.477   4.424  11.697  1.0361  0.2657  0.1450
  356TMC3    H1 5390   2.354   4.301  12.090  0.8166  0.9521  2.8325
  356TMC3    H2 5391   2.754   4.453  12.024 -0.7809 -0.0678  1.4516
  356TMC3    C7 5392   2.592   4.345  12.207  0.2749  0.0563 -0.6750
  356TMC3    C8 5393   2.715   4.532  11.770 -0.2371 -0.7675  0.2930
  356TMC3    O1 5394   2.547   4.247  12.261  0.1476 -0.1574  0.7285
  356TMC3    O2 5395   2.689   4.516  11.649 -0.3239 -0.6747 -0.5594
  357MPD2     C 5396   1.478   3.638   1.087 -0.1167 -0.2647  0.1855
  357MPD2    C1 5397   1.591   3.715   1.088 -0.3715  0.5920  0.3173
  357MPD2    C2 5398   1.636   3.774   1.203  0.2799  0.3339 -0.3269
  357MPD2    C3 5399   1.574   3.742   1.324 -0.1256  0.1506 -1.2025
  357MPD2    C4 5400   1.457   3.668   1.322 -0.6723  0.6177 -0.3373
  357MPD2    C5 5401   1.416   3.618   1.204  0.4480 -0.4971 -0.0186
  357MPD2     H 5402   1.722   3.840   1.202 -0.5765  1.4570 -0.0808
  357MPD2    H1 5403   1.399   3.652   1.412  0.5375 -1.3276  0.1110
  357MPD2    H2 5404   1.428   3.582   1.009 -0.6596  0.9031 -0.3024
  357MPD2    H3 5405   1.329   3.554   1.214  0.7573 -1.3983 -3.0767
  357MPD2     N 5406   1.627   3.790   1.447  0.4558 -0.0122  0.3090
  357MPD2    H5 5407   1.571   3.768   1.529 -1.6228  1.0021 -0.8432
  357MPD2    N1 5408   1.665   3.717   0.972  0.4008  0.0884 -0.3781
  357MPD2    H7 5409   1.642   3.649   0.901  0.1725  0.7750 -0.9645
  358TMC3    C1 5410   1.872   3.703   0.879  0.2436  0.1999 -0.4104
  358TMC3    C2 5411   1.833   3.589   0.810 -0.0864 -0.0551 -0.0690
  358TMC3    C3 5412   1.922   3.487   0.792 -0.0300 -0.2135  0.2376
  358TMC3    C4 5413   1.991   3.696   0.947 -0.0594  0.0883  0.4567
  358TMC3    C5 5414   2.070   3.593   0.927 -0.0259 -0.5067 -0.2705
  358TMC3    C6 5415   2.048   3.491   0.840 -0.1919 -0.8228 -0.1315
  358TMC3     C 5416   1.785   3.785   0.952 -0.4776  0.1369  0.2272
  358TMC3     O 5417   1.819   3.889   1.007 -0.6181 -0.4890 -0.3180
  358TMC3     H 5418   1.736   3.579   0.762 -0.7463 -0.6907  1.3970
  358TMC3    H1 5419   2.013   3.777   1.017 -0.4977  1.8401 -1.4428
  358TMC3    H2 5420   2.121   3.412   0.831 -1.8755 -2.2824 -0.9488
  358TMC3    C7 5421   2.188   3.577   1.021 -0.1037  0.5189 -0.3013
  358TMC3    C8 5422   1.881   3.366   0.724  0.2819 -0.3449  0.3286
  358TMC3    O1 5423   2.276   3.497   0.988  0.2908  1.0708 -0.5255
  358TMC3    O2 5424   1.793   3.388   0.642 -0.3004 -0.3527  0.2951
  359MPD2     C 5425   2.066   3.354  12.213 -0.2884  0.5984 -0.5902
  359MPD2    C1 5426   2.061   3.218  12.179 -0.3706 -1.2127  0.5952
  359MPD2    C2 5427   1.983   3.129  12.249  0.0550  0.0145  0.1658
  359MPD2    C3 5428   1.893   3.182  12.346 -0.2725 -0.6803  0.7084
  359MPD2    C4 5429   1.892   3.314  12.374 -0.2225  0.4879  0.4322
  359MPD2    C5 5430   1.979   3.402  12.307 -0.3668  0.2025 -0.6798
  359MPD2     H 5431   1.993   3.024  12.224  0.9094 -0.1412  1.1317
  359MPD2    H1 5432   1.831   3.345  12.458 -0.4270 -0.0369  0.4808
  359MPD2    H2 5433   2.143   3.414  12.166  0.0428  1.4768  1.0806
  359MPD2    H3 5434   1.986   3.508  12.329 -1.2135  0.3585 -1.1740
  359MPD2     N 5435   1.801   3.100  12.421 -0.5298 -0.0068 -0.5271
  359MPD2    H5 5436   1.735   3.150  12.480  0.7972  2.4742 -1.1515
  359MPD2    N1 5437   2.136   3.164  12.074  0.2557  0.5975  0.0841
  359MPD2    H7 5438   2.140   3.063  12.076 -0.2952  0.5854  0.8877
  360TMC3    C1 5439   2.261   3.145  11.886 -0.0593 -0.0559 -0.2436
  360TMC3    C2 5440   2.344   3.057  11.947  0.2501  0.7288 -0.2531
  360TMC3    C3 5441   2.425   2.979  11.869 -0.0931  0.4047 -0.1617
  360TMC3    C4 5442   2.255   3.174  11.755 -0.6822 -0.1456  0.2950
  360TMC3    C5 5443   2.327   3.081  11.684 -0.2121 -0.6601 -0.2593
  360TMC3    C6 5444   2.423   2.991  11.731  0.2941  0.6582 -0.1598
  360TMC3     C 5445   2.192   3.235  11.970  0.2802 -0.3937 -0.0589
  360TMC3     O 5446   2.181   3.355  11.938 -0.4529 -0.1058 -0.8088
  360TMC3     H 5447   2.337   3.049  12.055 -0.5996 -1.5107 -0.4855
  360TMC3    H1 5448   2.182   3.242  11.713 -1.9491 -1.4311  0.4288
  360TMC3    H2 5449   2.482   2.928  11.665  0.1194  0.2512  0.0702
  360TMC3    C7 5450   2.313   3.081  11.535 -0.5140 -0.1747 -0.2050
  360TMC3    C8 5451   2.548   2.927  11.933  0.1146  1.0001 -0.0927
  360TMC3    O1 5452   2.292   3.198  11.488  0.0268 -0.0514  0.2164
  360TMC3    O2 5453   2.544   2.920  12.054  0.3507  0.0603  0.0226
  361MPD2     C 5454   3.949   1.463  16.572 -0.7582 -0.7381 -0.0151
  361MPD2    C1 5455   4.008   1.560  16.643 -0.5962  0.2339 -0.3907
  361MPD2    C2 5456   4.148   1.554  16.661  0.0307 -0.4440 -0.5930
  361MPD2    C3 5457   4.219   1.445  16.621  0.3291 -0.1278 -0.3981
  361MPD2    C4 5458   4.153   1.354  16.541  0.0880  0.9726 -0.1373
  361MPD2    C5 5459   4.017   1.356  16.524 -0.5515  0.1853  0.1400
  361MPD2     H 5460   4.197   1.634  16.715 -1.9137  1.1358 -1.1618
  361MPD2    H1 5461   4.199   1.261  16.511  0.6905  1.2248  0.0029
  361MPD2    H2 5462   3.842   1.471  16.552 -0.0875  1.0483 -2.8396
  361MPD2    H3 5463   3.974   1.265  16.483 -2.1700  1.2066 -0.3901
  361MPD2     N 5464   4.346   1.406  16.667 -0.4868  0.1001 -0.2678
  361MPD2    H5 5465   4.368   1.315  16.626  3.0696  0.3827  0.9683
  361MPD2    N1 5466   3.939   1.673  16.692 -0.1207 -0.2534 -0.0371
  361MPD2    H7 5467   3.994   1.755  16.715  0.4943 -1.1129  1.5869
  362TMC3    C1 5468   3.751   1.802  16.770 -0.1544 -0.2155  0.1183
  362TMC3    C2 5469   3.617   1.784  16.801  0.1666  0.1058  0.7034
  362TMC3    C3 5470   3.532   1.878  16.770  0.4081 -0.4525 -0.0819
  362TMC3    C4 5471   3.785   1.914  16.692 -0.2508  0.9030 -0.4561
  362TMC3    C5 5472   3.694   2.010  16.665 -0.3263 -0.4293 -0.2351
  362TMC3    C6 5473   3.555   1.998  16.706 -0.1902 -0.3139  0.4636
  362TMC3     C 5474   3.804   1.672  16.721  0.1474 -0.1762  0.1930
  362TMC3     O 5475   3.733   1.572  16.710  0.0131  0.6622  0.0007
  362TMC3     H 5476   3.593   1.696  16.859  0.9126  0.2606  1.2514
  362TMC3    H1 5477   3.892   1.921  16.674 -0.1191 -3.8754 -1.6282
  362TMC3    H2 5478   3.487   2.072  16.665  0.1222  0.3088  1.0720
  362TMC3    C7 5479   3.721   2.097  16.559 -0.2871 -0.2509 -0.1532
  362TMC3    C8 5480   3.393   1.846  16.805 -0.4737 -0.2106 -0.7701
  362TMC3    O1 5481   3.643   2.189  16.550  0.2599 -0.0594  0.2226
  362TMC3    O2 5482   3.379   1.727  16.834  0.2205  0.3253  0.0141
  363TMC3    C1 5483   1.777   3.157   8.990 -0.1743 -0.3188 -0.0759
  363TMC3    C2 5484   1.894   3.223   8.975  0.1112 -0.3407  0.1142
  363TMC3    C3 5485   1.884   3.360   8.977 -0.0079  0.2355 -0.2709
  363TMC3    C4 5486   1.660   3.215   9.012  0.8827 -0.3127  0.5333
  363TMC3    C5 5487   1.660   3.345   9.042 -0.2316  0.2492 -0.0487
  363TMC3    C6 5488   1.766   3.420   9.022 -0.4192 -0.6211 -0.7024
  363TMC3     C 5489   1.769   3.016   8.961  0.1767  0.5032 -0.9055
  363TMC3     O 5490   1.875   2.974   8.909 -0.8719  0.4797  0.1367
  363TMC3     H 5491   1.985   3.165   8.964  1.5895  2.0977 -0.7322
  363TMC3    H1 5492   1.568   3.159   9.000  1.0079 -0.8796  2.1039
  363TMC3    H2 5493   1.750   3.522   9.054  1.5989 -0.2997 -0.7287
  363TMC3    C7 5494   1.533   3.417   9.060 -0.5521 -0.3766 -0.4722
  363TMC3    C8 5495   1.998   3.447   9.008 -0.4927 -1.2592 -0.0956
  363TMC3    O1 5496   1.529   3.532   9.023 -0.4201 -0.1710 -0.0160
  363TMC3    O2 5497   1.989   3.564   8.972 -0.4589 -0.4621  0.1180
  364MPD2     C 5498   0.692   3.594  10.314 -0.0410 -0.9470  0.4330
  364MPD2    C1 5499   0.805   3.645  10.260  0.3031  0.0258  0.3702
  364MPD2    C2 5500   0.923   3.588  10.289 -0.5043 -0.0038 -0.9417
  364MPD2    C3 5501   0.942   3.481  10.364 -0.0571  0.2278 -0.5117
  364MPD2    C4 5502   0.826   3.417  10.397  0.4160  0.6503 -0.2166
  364MPD2    C5 5503   0.701   3.477  10.382 -0.3631  0.2881  0.1086
  364MPD2     H 5504   1.007   3.649  10.259 -0.0559  0.0844  0.4696
  364MPD2    H1 5505   0.835   3.325  10.453  1.0782  0.0422 -1.3462
  364MPD2    H2 5506   0.591   3.634  10.304 -0.4419 -2.3853 -1.5005
  364MPD2    H3 5507   0.611   3.432  10.421  0.1584 -0.7362  0.1272
  364MPD2     N 5508   1.066   3.427  10.406 -0.1746  0.2686  0.4057
  364MPD2    H5 5509   1.059   3.342  10.463  2.5847 -1.5105 -1.9196
  364MPD2    N1 5510   0.800   3.759  10.174 -0.2200 -0.3760  0.1883
  364MPD2    H7 5511   0.709   3.802  10.161 -1.3808 -2.6964  0.6799
  365TMC3    C1 5512   0.850   3.903  10.007 -0.2784 -0.6166 -0.0242
  365TMC3    C2 5513   0.927   3.915   9.897 -0.0704  0.4025 -0.0197
  365TMC3    C3 5514   0.972   4.035   9.857 -0.9066  0.3903 -0.2217
  365TMC3    C4 5515   0.827   4.022  10.081 -0.3239 -0.0198 -0.3161
  365TMC3    C5 5516   0.876   4.147  10.037  0.3544  0.8236 -0.2252
  365TMC3    C6 5517   0.947   4.154   9.922 -0.4025  0.3093  0.3230
  365TMC3     C 5518   0.893   3.796  10.086  0.3106 -0.3222 -0.4541
  365TMC3     O 5519   1.004   3.756  10.065  0.2235 -0.8653 -0.1116
  365TMC3     H 5520   0.932   3.835   9.825 -0.3494  0.9327 -0.6281
  365TMC3    H1 5521   0.784   4.024  10.180 -1.4949 -0.0190 -0.8210
  365TMC3    H2 5522   0.991   4.248   9.890 -0.5386 -0.4983 -2.2052
  365TMC3    C7 5523   0.844   4.269  10.115  0.3080 -0.3333  0.8306
  365TMC3    C8 5524   1.116   4.026   9.818  0.7892  0.3777  0.2764
  365TMC3    O1 5525   0.830   4.375  10.062  0.2884 -0.1849 -0.1206
  365TMC3    O2 5526   1.179   4.130   9.786 -0.1110  0.3269 -0.0958
  366MPD2     C 5527   4.178   0.246  15.431  0.2174  0.1242  0.3211
  366MPD2    C1 5528   4.262   0.281  15.328 -0.7276  0.0347 -0.6242
  366MPD2    C2 5529   4.305   0.178  15.250 -0.4925  0.2123 -0.1714
  366MPD2    C3 5530   4.282   0.047  15.273  0.5508 -0.2132 -0.5256
  366MPD2    C4 5531   4.202   0.014  15.377 -0.4241  0.3935  0.0387
  366MPD2    C5 5532   4.158   0.117  15.458 -0.8018  0.5313  0.5151
  366MPD2     H 5533   4.379   0.205  15.176  1.0288 -2.3377  0.4039
  366MPD2    H1 5534   4.176   4.648  15.397  0.0356  0.0299 -1.2551
  366MPD2    H2 5535   4.137   0.321  15.498 -4.7199 -2.9844  0.7918
  366MPD2    H3 5536   4.088   0.092  15.537  0.2176 -0.4796  1.1131
  366MPD2     N 5537   4.357   4.701  15.190 -1.0199  0.1594 -0.4135
  366MPD2    H5 5538   4.417   0.009  15.123 -1.4785  1.5425  0.0940
  366MPD2    N1 5539   4.312   0.410  15.300 -0.1655  0.3244  0.0427
  366MPD2    H7 5540   4.370   0.421  15.217 -0.8552  0.9346 -0.3646
  367TMC3    C1 5541   4.349   0.626  15.333 -0.5015  0.1357  0.6390
  367TMC3    C2 5542   4.486   0.614  15.355 -0.8926 -0.2824 -0.2230
  367TMC3    C3 5543   4.561   0.720  15.315 -0.1918 -0.4639  0.4927
  367TMC3    C4 5544   4.293   0.731  15.267 -0.0728  0.1704  0.2777
  367TMC3    C5 5545   4.372   0.828  15.216 -0.1608  0.1789  0.5370
  367TMC3    C6 5546   4.510   0.825  15.239 -0.1229  0.5082 -0.0634
  367TMC3     C 5547   4.261   0.521  15.356  0.1174  0.2699 -0.4240
  367TMC3     O 5548   4.165   0.544  15.427  0.2301  0.2016  0.3992
  367TMC3     H 5549   4.534   0.529  15.402 -1.5438 -0.8084 -0.4997
  367TMC3    H1 5550   4.186   0.722  15.256  0.4383 -2.0081 -3.0308
  367TMC3    H2 5551   4.572   0.909  15.207  0.9936 -0.6098 -0.8368
  367TMC3    C7 5552   4.299   0.931  15.144 -0.2712  0.3821 -0.7991
  367TMC3    C8 5553   4.703   0.730  15.365  0.2404  0.0151  0.1959
  367TMC3    O1 5554   4.183   0.937  15.177 -0.3593  0.2613  0.4965
  367TMC3    O2 5555   4.730   0.632  15.430  0.7611 -0.4280 -0.3979
  368MPD2     C 5556   0.617   2.413  13.625  0.5764  0.1707  0.8087
  368MPD2    C1 5557   0.658   2.437  13.496  0.0770  1.0454  0.1532
  368MPD2    C2 5558   0.800   2.442  13.477  0.4236 -1.4227  0.2050
  368MPD2    C3 5559   0.887   2.433  13.579  0.0421 -0.1480 -0.2028
  368MPD2    C4 5560   0.837   2.422  13.714  0.5059  0.4734 -0.0840
  368MPD2    C5 5561   0.704   2.399  13.733  0.6177 -0.9677  0.9011
  368MPD2     H 5562   0.844   2.453  13.378  0.2474  0.3310  0.3163
  368MPD2    H1 5563   0.904   2.403  13.797  1.0811  1.1010 -0.4075
  368MPD2    H2 5564   0.510   2.412  13.645  0.5561  1.3228  0.7596
  368MPD2    H3 5565   0.671   2.382  13.834  0.6424 -0.3454  1.0109
  368MPD2     N 5566   1.028   2.429  13.565  0.0892 -0.3687 -0.2225
  368MPD2    H5 5567   1.077   2.447  13.653  0.7719 -0.3696 -0.5978
  368MPD2    N1 5568   0.564   2.442  13.391  0.0258 -0.0517 -0.2446
  368MPD2    H7 5569   0.469   2.433  13.424 -0.8484 -0.2789 -2.8200
  369TMC3    C1 5570   0.499   2.429  13.166 -0.1361  0.2155  0.2158
  369TMC3    C2 5571   0.526   2.477  13.041 -0.3508  1.0394 -0.1899
  369TMC3    C3 5572   0.440   2.434  12.940  0.5904 -0.4663 -0.2796
  369TMC3    C4 5573   0.397   2.351  13.192  0.3926  0.2156  0.2715
  369TMC3    C5 5574   0.305   2.319  13.096  0.1510 -0.5407 -0.5801
  369TMC3    C6 5575   0.325   2.358  12.963 -0.0874 -0.4603  0.4482
  369TMC3     C 5576   0.596   2.464  13.260 -0.4912  0.7187 -0.5859
  369TMC3     O 5577   0.701   2.495  13.204 -0.5023  0.3595 -0.7163
  369TMC3     H 5578   0.609   2.543  13.016 -0.1290  0.2200 -1.6174
  369TMC3    H1 5579   0.381   2.320  13.294 -0.2351  0.7485  0.3378
  369TMC3    H2 5580   0.262   2.319  12.884  2.4861  0.1264 -1.8780
  369TMC3    C7 5581   0.216   2.208  13.127  0.4652 -0.2632 -0.3849
  369TMC3    C8 5582   0.475   2.475  12.811  0.4504  0.4628  0.2202
  369TMC3    O1 5583   0.245   2.149  13.230  0.3708  0.2704  0.9329
  369TMC3    O2 5584   0.386   2.521  12.737 -0.3304 -0.1887  0.1518
  370TMC3    C1 5585   0.449   2.541  16.139  0.3955  0.0423  0.1284
  370TMC3    C2 5586   0.364   2.457  16.205 -0.1557  0.4927 -0.6776
  370TMC3    C3 5587   0.358   2.324  16.149  0.1900  1.2986 -0.3741
  370TMC3    C4 5588   0.510   2.522  16.014  0.6042  0.3332 -0.1895
  370TMC3    C5 5589   0.502   2.393  15.968  0.3069 -0.2593 -1.3888
  370TMC3    C6 5590   0.444   2.292  16.041  0.1748  0.0869  0.7717
  370TMC3     C 5591   0.514   2.637  16.223 -0.0512 -0.2889 -0.1978
  370TMC3     O 5592   0.538   2.606  16.336  0.1682  0.5019 -0.3569
  370TMC3     H 5593   0.328   2.497  16.299  1.1534  0.2980 -0.0846
  370TMC3    H1 5594   0.567   2.595  15.957  0.5460 -0.4393 -1.2276
  370TMC3    H2 5595   0.429   2.189  16.011  1.2073  1.0063 -2.8093
  370TMC3    C7 5596   0.564   2.357  15.840 -0.5481 -0.3567 -0.5221
  370TMC3    C8 5597   0.329   2.209  16.240  0.1239 -0.0545 -0.0630
  370TMC3    O1 5598   0.580   2.446  15.753  0.2438 -0.0502 -0.0419
  370TMC3    O2 5599   0.339   2.093  16.202 -0.0622  0.0250  0.1339
  371TMC3    C1 5600   1.898   1.033  15.106  0.2971 -0.1110  0.0994
  371TMC3    C2 5601   1.794   1.025  15.196 -0.2768  0.2705  0.8249
  371TMC3    C3 5602   1.732   1.145  15.237 -0.4010  0.3664  0.1996
  371TMC3    C4 5603   1.950   1.151  15.074  0.4650 -0.6831 -0.6235
  371TMC3    C5 5604   1.896   1.264  15.127  0.0305  0.0544  0.6131
  371TMC3    C6 5605   1.790   1.266  15.211  0.0773  0.0486  0.7816
  371TMC3     C 5606   1.986   0.920  15.094  0.4141  0.6034 -0.0016
  371TMC3     O 5607   2.072   0.923  15.010 -0.0800 -0.1335  0.0374
  371TMC3     H 5608   1.750   0.926  15.207 -1.2533  0.7107  0.9069
  371TMC3    H1 5609   2.040   1.150  15.013  1.4074  0.1256  0.7438
  371TMC3    H2 5610   1.769   1.364  15.253  0.3445  0.4637 -0.0533
  371TMC3    C7 5611   1.962   1.386  15.114 -0.4534  0.4884 -0.6650
  371TMC3    C8 5612   1.665   1.131  15.365 -0.4074  0.8473 -0.7218
  371TMC3    O1 5613   1.897   1.490  15.103  0.3064  0.5349  0.2115
  371TMC3    O2 5614   1.633   1.018  15.396  0.5218  0.4494  0.0640
  372MPD2     C 5615   1.226   2.089  13.306 -0.5922 -0.0448  0.0180
  372MPD2    C1 5616   1.330   2.033  13.375 -0.4204 -1.2257 -0.0748
  372MPD2    C2 5617   1.296   1.963  13.489 -0.7001  0.2279  0.3879
  372MPD2    C3 5618   1.164   1.944  13.536 -0.5434  0.6378 -0.3518
  372MPD2    C4 5619   1.064   2.005  13.460 -0.2559  0.0690 -0.0568
  372MPD2    C5 5620   1.094   2.078  13.348 -0.2465 -0.8700  0.7463
  372MPD2     H 5621   1.383   1.917  13.534 -1.1085 -0.9675 -0.0251
  372MPD2    H1 5622   0.959   1.990  13.485  0.4542 -2.2131  1.5702
  372MPD2    H2 5623   1.248   2.154  13.222  1.2076 -0.5362  0.1135
  372MPD2    H3 5624   1.018   2.132  13.294  0.3392 -0.9940 -0.2029
  372MPD2     N 5625   1.146   1.855  13.642  0.2272 -0.2860 -0.0546
  372MPD2    H5 5626   1.232   1.819  13.683  1.0635 -0.4541 -1.9319
  372MPD2    N1 5627   1.469   2.048  13.342  0.6385  0.2269  0.3950
  372MPD2    H7 5628   1.537   2.007  13.405  0.8150 -1.0062 -0.5943
  373TMC3    C1 5629   1.054   1.719  13.805 -0.1155  0.2747  0.8360
  373TMC3    C2 5630   1.098   1.780  13.913 -0.4580 -0.4475 -0.0089
  373TMC3    C3 5631   1.144   1.705  14.020 -0.2877  0.3390  0.1869
  373TMC3    C4 5632   1.033   1.583  13.797 -0.6991 -0.1012 -0.3857
  373TMC3    C5 5633   1.074   1.510  13.904 -0.0306 -0.7273 -0.3646
  373TMC3    C6 5634   1.125   1.570  14.020 -0.2418  0.0979  0.9775
  373TMC3     C 5635   1.035   1.796  13.689  0.2142  0.0453  0.0242
  373TMC3     O 5636   0.922   1.794  13.639 -0.5236  0.0673 -0.0140
  373TMC3     H 5637   1.099   1.888  13.925 -0.4398 -0.4491  0.0039
  373TMC3    H1 5638   0.990   1.540  13.707 -0.1352  0.6226 -0.9986
  373TMC3    H2 5639   1.134   1.514  14.113 -1.4239 -2.5886 -0.5243
  373TMC3    C7 5640   1.090   1.365  13.895  0.6908  0.1203 -0.2740
  373TMC3    C8 5641   1.248   1.762  14.112 -0.1159 -0.0565 -0.1793
  373TMC3    O1 5642   1.056   1.319  13.790 -0.1271  0.6555  0.3322
  373TMC3    O2 5643   1.297   1.863  14.067  0.1538 -0.1249 -0.1149
  374TMC3    C1 5644   1.287   2.314   9.791 -0.3934 -0.2848  0.9872
  374TMC3    C2 5645   1.303   2.445   9.816 -0.1593  0.2770  0.9175
  374TMC3    C3 5646   1.381   2.509   9.724  0.3278  1.4807  0.6937
  374TMC3    C4 5647   1.318   2.256   9.670  0.3536 -0.2634 -0.1055
  374TMC3    C5 5648   1.389   2.324   9.575  0.6631 -0.3188  0.0272
  374TMC3    C6 5649   1.418   2.453   9.601 -0.0579 -0.8322  0.2097
  374TMC3     C 5650   1.182   2.249   9.867 -0.2203 -0.7253  0.4566
  374TMC3     O 5651   1.106   2.177   9.807 -0.4085 -0.0846  0.6920
  374TMC3     H 5652   1.272   2.489   9.910  1.3759 -1.7663  2.3543
  374TMC3    H1 5653   1.272   2.161   9.648  0.0305  0.2782 -1.8071
  374TMC3    H2 5654   1.481   2.512   9.536  1.5557 -1.1926  1.4684
  374TMC3    C7 5655   1.462   2.262   9.469  0.1811  0.5609 -0.3587
  374TMC3    C8 5656   1.417   2.649   9.738  0.0862 -0.1776  0.0286
  374TMC3    O1 5657   1.506   2.339   9.389  0.3513 -0.3310 -0.2659
  374TMC3    O2 5658   1.397   2.717   9.637  0.0213  0.0456 -0.3919
  375MPD2     C 5659   1.700   2.544  17.161 -0.1939  0.4213  0.7835
  375MPD2    C1 5660   1.682   2.616  17.045 -0.4386  0.0229 -0.5408
  375MPD2    C2 5661   1.763   2.601  16.936 -0.1847 -0.5168 -0.4834
  375MPD2    C3 5662   1.845   2.493  16.936  0.4977 -0.5582 -0.0334
  375MPD2    C4 5663   1.846   2.403  17.050  0.6355 -0.3459  0.0960
  375MPD2    C5 5664   1.782   2.436  17.164 -0.0383  0.5587  0.8424
  375MPD2     H 5665   1.753   2.663  16.848 -0.8046 -0.8230 -0.6291
  375MPD2    H1 5666   1.905   2.312  17.047  2.5563  0.9226 -0.5442
  375MPD2    H2 5667   1.643   2.573  17.249 -0.3528 -0.8280  1.0897
  375MPD2    H3 5668   1.790   2.371  17.251  3.2021 -2.9357 -2.0800
  375MPD2     N 5669   1.927   2.461  16.833  0.3371  0.0602 -0.1568
  375MPD2    H5 5670   1.988   2.380  16.835 -3.5686 -2.9520 -3.5961
  375MPD2    N1 5671   1.588   2.723  17.037  0.6775 -0.3348  0.3316
  375MPD2    H7 5672   1.582   2.761  16.944 -1.3483 -2.2546 -0.3172
  376TMC3    C1 5673   2.052   2.506  16.631 -0.4419 -0.8684  0.7276
  376TMC3    C2 5674   2.168   2.461  16.691 -0.1712 -0.2773 -0.4279
  376TMC3    C3 5675   2.277   2.427  16.613 -0.0369  0.1536 -0.0645
  376TMC3    C4 5676   2.036   2.522  16.493  0.1280  0.1690 -0.0653
  376TMC3    C5 5677   2.149   2.489  16.424  0.0293  0.3730 -0.4680
  376TMC3    C6 5678   2.263   2.437  16.475  0.0847 -0.6688  0.0111
  376TMC3     C 5679   1.935   2.536  16.713 -0.2853  0.6720  0.9884
  376TMC3     O 5680   1.837   2.586  16.659  0.0484 -0.4218  0.7366
  376TMC3     H 5681   2.184   2.453  16.798  0.6688  0.9977 -0.4624
  376TMC3    H1 5682   1.942   2.567  16.463  0.6539 -0.4918 -2.6999
  376TMC3    H2 5683   2.342   2.400  16.412  1.1057 -0.0696  0.9334
  376TMC3    C7 5684   2.150   2.521  16.286  0.2979  0.0209  0.0679
  376TMC3    C8 5685   2.406   2.420  16.669 -0.1148 -0.0699  0.3415
  376TMC3    O1 5686   2.212   2.446  16.210  0.1924  0.4104 -0.0198
  376TMC3    O2 5687   2.417   2.374  16.782 -0.0005  0.0589  0.0671
  377MPD2     C 5688   0.106   2.553  12.886 -1.2782 -0.2580  0.0720
  377MPD2    C1 5689   0.045   2.535  12.760  0.6966  0.5383 -0.4392
  377MPD2    C2 5690   4.658   2.486  12.762 -0.0688 -0.2409  0.3556
  377MPD2    C3 5691   4.599   2.430  12.876  0.9389 -0.8545  0.6577
  377MPD2    C4 5692   4.658   2.449  12.997 -0.0242  0.2549 -0.0154
  377MPD2    C5 5693   0.038   2.520  13.003 -0.3783  0.3832 -0.1233
  377MPD2     H 5694   4.609   2.476  12.666  3.3557  0.5823 -1.4682
  377MPD2    H1 5695   4.610   2.422  13.090 -0.8213 -1.5282 -0.9368
  377MPD2    H2 5696   0.202   2.604  12.891 -1.4592  0.3524 -2.7710
  377MPD2    H3 5697   0.072   2.543  13.103 -0.0375  1.5395 -0.5052
  377MPD2     N 5698   4.473   2.356  12.878  0.1994  0.4803 -0.1079
  377MPD2    H5 5699   4.437   2.310  12.961 -2.1850  0.8047 -0.9812
  377MPD2    N1 5700   0.110   2.564  12.640 -0.4312 -0.0874  0.3697
  377MPD2    H7 5701   0.211   2.552  12.647 -0.1205  1.9445 -0.8689
  378TMC3    C1 5702   0.081   2.555  12.166  0.3086  0.4478 -0.4373
  378TMC3    C2 5703   0.056   2.617  12.286 -0.7062 -0.1087  0.0988
  378TMC3    C3 5704   0.126   2.575  12.398 -0.2462 -0.0241  1.0885
  378TMC3    C4 5705   0.172   2.447  12.159  0.3564  0.4603  1.3343
  378TMC3    C5 5706   0.240   2.413  12.272  0.6860  0.2839 -0.3799
  378TMC3    C6 5707   0.223   2.475  12.391  0.7859  0.4336 -0.0901
  378TMC3     C 5708   4.698   2.545  12.086 -0.8251  0.2399  0.0037
  378TMC3     O 5709   4.599   2.610  12.121  0.1102  0.1253 -0.3402
  378TMC3     H 5710   4.725   2.701  12.284 -2.2610 -1.3942 -0.7060
  378TMC3    H1 5711   0.183   2.389  12.069 -0.2562  1.7711  0.4101
  378TMC3    H2 5712   0.266   2.438  12.483 -3.2858  1.4322  2.2207
  378TMC3    C7 5713   0.370   2.350  12.255 -0.0927  0.1580 -0.9905
  378TMC3    C8 5714   0.050   2.586  12.521 -0.8331  0.2655  0.2226
  378TMC3    O1 5715   0.408   2.287  12.350  0.6225 -0.1181  0.3829
  378TMC3    O2 5716   4.671   2.627  12.501 -0.5291 -0.1891  0.8318
  379MPD2     C 5717   1.164   0.611  15.854  0.2324  0.4935 -0.2054
  379MPD2    C1 5718   1.079   0.590  15.959  0.1881 -0.2013  0.3462
  379MPD2    C2 5719   1.130   0.542  16.083 -0.0856  0.3151  0.0330
  379MPD2    C3 5720   1.264   0.512  16.097  0.0870 -0.5140 -0.0219
  379MPD2    C4 5721   1.343   0.544  15.991 -0.0188  0.0136  0.5953
  379MPD2    C5 5722   1.298   0.587  15.872 -0.2746  0.2165  0.1834
  379MPD2     H 5723   1.059   0.519  16.161  1.6805 -0.0604  1.5419
  379MPD2    H1 5724   1.450   0.528  16.000  0.5445  3.3922 -0.0953
  379MPD2    H2 5725   1.130   0.638  15.754 -1.0655 -2.1931 -0.4849
  379MPD2    H3 5726   1.367   0.601  15.790  1.4277 -0.5656  1.4922
  379MPD2     N 5727   1.323   0.446  16.206 -0.1100 -0.1822  0.0366
  379MPD2    H5 5728   1.422   0.424  16.203  0.1453  1.0764 -1.0108
  379MPD2    N1 5729   0.940   0.622  15.940  0.1103  0.1928 -0.2645
  379MPD2    H7 5730   0.915   0.659  15.848  1.3842  3.0769  0.5276
  380TMC3    C1 5731   0.704   0.586  15.960 -0.5106 -0.1062  0.2582
  380TMC3    C2 5732   0.655   0.457  15.930 -0.2466  0.5793 -0.4678
  380TMC3    C3 5733   0.575   0.441  15.824 -0.0438 -0.3000 -0.3627
  380TMC3    C4 5734   0.669   0.694  15.884 -0.1798  0.5640 -0.1163
  380TMC3    C5 5735   0.574   0.682  15.784  0.3153 -0.6199  0.4969
  380TMC3    C6 5736   0.534   0.555  15.755  0.5532  0.0928  0.4487
  380TMC3     C 5737   0.835   0.584  16.023  0.6691 -0.1730  0.9788
  380TMC3     O 5738   0.837   0.517  16.129  0.2833  0.3492  0.2145
  380TMC3     H 5739   0.675   0.373  15.995 -0.2878  0.4502 -0.6224
  380TMC3    H1 5740   0.715   0.785  15.919  2.2023 -0.4380 -0.6775
  380TMC3    H2 5741   0.475   0.525  15.670 -1.6187  1.4143  1.4692
  380TMC3    C7 5742   0.525   0.788  15.706 -0.4724  0.1238 -0.1883
  380TMC3    C8 5743   0.644   0.353  15.731  0.4029 -0.1874  0.0246
  380TMC3    O1 5744   0.589   0.892  15.708  0.0961 -0.1605  0.2101
  380TMC3    O2 5745   0.625   0.375  15.611  0.1909 -0.8098  0.3091
  381TMC3    C1 5746   0.432   1.630  15.900 -0.2925  0.5623 -0.5290
  381TMC3    C2 5747   0.505   1.741  15.924 -0.0362  0.5884  0.3885
  381TMC3    C3 5748   0.497   1.793  16.049  0.5120  0.3214  0.0154
  381TMC3    C4 5749   0.353   1.573  15.991 -0.5164 -0.9045 -0.0367
  381TMC3    C5 5750   0.332   1.642  16.110  0.3123  0.4198 -0.1199
  381TMC3    C6 5751   0.407   1.753  16.142 -0.3426  0.9164 -0.1380
  381TMC3     C 5752   0.409   1.607  15.757 -0.1514 -0.9289  0.1487
  381TMC3     O 5753   0.430   1.689  15.671 -0.5825 -0.5845  0.0535
  381TMC3     H 5754   0.559   1.784  15.840 -1.6808  0.4475 -0.7359
  381TMC3    H1 5755   0.289   1.490  15.964 -0.5393 -0.6445 -0.7876
  381TMC3    H2 5756   0.392   1.794  16.241 -1.0593 -0.9710  0.5412
  381TMC3    C7 5757   0.285   1.564  16.216 -0.4535  0.0650  0.0465
  381TMC3    C8 5758   0.616   1.864  16.080 -0.1254 -0.5062  0.9728
  381TMC3    O1 5759   0.302   1.443  16.207 -0.0727  0.0860  0.4480
  381TMC3    O2 5760   0.714   1.829  16.015  0.1140 -0.2932  0.5448
  382MPD2     C 5761   4.518   4.175  17.350  0.0146  0.0244 -0.1527
  382MPD2    C1 5762   4.478   4.097  17.239  0.0611 -0.1940  0.2818
  382MPD2    C2 5763   4.440   3.959  17.261  0.1895 -0.2221 -0.3734
  382MPD2    C3 5764   4.435   3.912  17.391 -0.6527  0.8914  0.3247
  382MPD2    C4 5765   4.479   3.994  17.498  0.7988 -0.2425  0.5679
  382MPD2    C5 5766   4.525   4.120  17.475  0.0147  1.2759 -0.2131
  382MPD2     H 5767   4.414   3.889  17.182  1.7625 -2.3821  1.0277
  382MPD2    H1 5768   4.478   3.960  17.601 -0.2824  2.1930  1.3561
  382MPD2    H2 5769   4.535   4.282  17.343  1.7403 -0.1896  0.7271
  382MPD2    H3 5770   4.558   4.187  17.553 -0.0497 -1.9026  2.5763
  382MPD2     N 5771   4.367   3.789  17.422 -0.1227 -0.6638 -0.2663
  382MPD2    H5 5772   4.325   3.778  17.514 -0.8195 -0.7826 -0.5995
  382MPD2    N1 5773   4.468   4.158  17.110  0.3698 -1.1681  0.2164
  382MPD2    H7 5774   4.426   4.104  17.035  1.7294 -0.4595 -1.0679
  383TMC3    C1 5775   4.229   3.599  17.380 -0.0990 -0.5663  0.0363
  383TMC3    C2 5776   4.208   3.483  17.307 -0.1845 -0.2297 -0.4003
  383TMC3    C3 5777   4.095   3.402  17.336  0.4874  0.4454  0.6619
  383TMC3    C4 5778   4.130   3.635  17.469  0.2179 -0.2757 -0.2177
  383TMC3    C5 5779   4.017   3.561  17.485 -0.2556 -0.1091 -0.5766
  383TMC3    C6 5780   4.001   3.437  17.426  0.2710 -1.0542 -0.6149
  383TMC3     C 5781   4.346   3.682  17.334  0.4432 -0.5092 -0.4011
  383TMC3     O 5782   4.391   3.659  17.223 -0.0779 -0.1682  0.3439
  383TMC3     H 5783   4.278   3.456  17.228 -1.3181 -2.0570 -0.7784
  383TMC3    H1 5784   4.140   3.728  17.524 -0.6759 -0.6721  0.6024
  383TMC3    H2 5785   3.915   3.372  17.440 -0.5718  0.7393  2.3792
  383TMC3    C7 5786   3.935   3.587  17.598 -0.0384  0.2153 -0.2196
  383TMC3    C8 5787   4.067   3.293  17.243 -0.1267 -0.0577 -0.4438
  383TMC3    O1 5788   3.941   3.703  17.636 -0.8773  0.0530  0.6834
  383TMC3    O2 5789   4.166   3.249  17.186  0.4222  0.7529  0.6890
  384MPD2     C 5790   0.724   0.222  11.981  0.4352 -0.5713 -0.1801
  384MPD2    C1 5791   0.848   0.227  12.038  0.3514  0.2433 -0.0193
  384MPD2    C2 5792   0.949   0.144  11.985 -0.1817 -0.2539 -0.0343
  384MPD2    C3 5793   0.921   0.052  11.881 -0.0453  0.0382 -0.0277
  384MPD2    C4 5794   0.796   0.051  11.828 -0.0440  0.9655 -0.1545
  384MPD2    C5 5795   0.702   0.136  11.880  0.2343  0.4051 -0.2659
  384MPD2     H 5796   1.044   0.137  12.036 -0.3581  0.4450  0.3902
  384MPD2    H1 5797   0.772   4.732  11.739 -0.4375  1.3000 -0.2607
  384MPD2    H2 5798   0.653   0.281  12.037 -1.6155 -1.8738 -1.4050
  384MPD2    H3 5799   0.599   0.132  11.847 -0.1110  0.0450  0.8575
  384MPD2     N 5800   1.009   4.686  11.829  0.4355  0.7062 -0.3154
  384MPD2    H5 5801   0.963   4.631  11.758  1.2513 -0.4113  0.0122
  384MPD2    N1 5802   0.857   0.299  12.163 -0.7444  0.2031 -0.1475
  384MPD2    H7 5803   0.770   0.336  12.199 -0.7358 -0.2069  0.2963
  385TMC3    C1 5804   1.199   4.557  11.833 -0.1239  0.7098 -0.7904
  385TMC3    C2 5805   1.112   4.454  11.835 -0.0273 -0.4762  0.4007
  385TMC3    C3 5806   1.161   4.335  11.880 -0.6948 -0.3489  0.1980
  385TMC3    C4 5807   1.322   4.546  11.877  0.6355  0.4209  0.5674
  385TMC3    C5 5808   1.365   4.433  11.943  0.0063 -0.0647 -0.1313
  385TMC3    C6 5809   1.278   4.321  11.940 -0.0896 -0.5062  0.0056
  385TMC3     C 5810   1.138   4.682  11.869  0.0513 -0.7637 -0.2858
  385TMC3     O 5811   1.206   0.015  11.939 -0.2560 -0.0841  0.4376
  385TMC3     H 5812   1.007   4.465  11.812 -0.3977 -1.3213  1.6729
  385TMC3    H1 5813   1.396   4.626  11.876  1.0284  0.0625  0.7572
  385TMC3    H2 5814   1.302   4.235  12.002  0.0668  0.0949  0.7700
  385TMC3    C7 5815   1.406   4.465  12.077  0.2191  0.0676 -0.0336
  385TMC3    C8 5816   1.117   4.217  11.814 -0.3785 -0.2313 -0.2721
  385TMC3    O1 5817   1.443   4.366  12.139 -1.0655  0.1157  0.1619
  385TMC3    O2 5818   1.187   4.117  11.832 -0.2605  0.1542  0.1920
  386TMC3    C1 5819   1.433   2.405  11.686  0.4295 -0.0007 -0.5029
  386TMC3    C2 5820   1.466   2.422  11.554 -0.1205 -0.1657  0.6861
  386TMC3    C3 5821   1.480   2.549  11.512  0.3203 -0.3902  0.4725
  386TMC3    C4 5822   1.412   2.515  11.774 -0.0416 -0.6362 -1.0685
  386TMC3    C5 5823   1.402   2.642  11.716  0.2737 -0.0734 -0.0468
  386TMC3    C6 5824   1.451   2.664  11.589 -0.3981 -0.2104 -0.0817
  386TMC3     C 5825   1.465   2.275  11.752 -0.6301 -0.4581  0.3343
  386TMC3     O 5826   1.493   2.284  11.871  0.1734 -0.0727 -0.0200
  386TMC3     H 5827   1.523   2.339  11.514 -0.4856 -0.0683 -0.0477
  386TMC3    H1 5828   1.374   2.500  11.874 -1.3332  1.6554 -1.2249
  386TMC3    H2 5829   1.465   2.762  11.543 -2.3587  0.2302  0.2791
  386TMC3    C7 5830   1.274   2.702  11.734 -0.5865 -0.6804  0.4112
  386TMC3    C8 5831   1.461   2.579  11.373 -0.2520 -0.0748 -0.1336
  386TMC3    O1 5832   1.215   2.691  11.842  0.0925  0.7594 -0.0142
  386TMC3    O2 5833   1.373   2.665  11.350 -0.8916 -0.2087 -0.5479
  387MPD2     C 5834   3.203   2.103  10.325  0.2806 -0.3934 -0.4640
  387MPD2    C1 5835   3.331   2.058  10.345 -0.1121  0.1685  0.2766
  387MPD2    C2 5836   3.363   1.930  10.307  0.3533 -0.6326  0.6449
  387MPD2    C3 5837   3.270   1.857  10.242  0.7738 -0.0435  0.0834
  387MPD2    C4 5838   3.145   1.905  10.210 -0.0651  0.2895  0.7404
  387MPD2    C5 5839   3.122   2.028  10.252  0.1583 -0.2277 -0.3649
  387MPD2     H 5840   3.459   1.885  10.332  1.2707 -0.6148 -2.7767
  387MPD2    H1 5841   3.066   1.848  10.162  0.4172  0.8071 -0.6678
  387MPD2    H2 5842   3.163   2.202  10.347 -0.4203 -0.9233  0.6450
  387MPD2    H3 5843   3.018   2.058  10.247  0.7634  1.6023 -1.9135
  387MPD2     N 5844   3.314   1.730  10.197 -0.7107 -0.0113 -0.7024
  387MPD2    H5 5845   3.406   1.710  10.235 -1.4948  1.2651  1.8954
  387MPD2    N1 5846   3.422   2.139  10.414  0.3316  0.0188 -0.4964
  387MPD2    H7 5847   3.511   2.098  10.441 -0.2072 -0.9764 -0.2358
  388TMC3    C1 5848   3.527   2.350  10.448  0.0898  0.6390 -0.7659
  388TMC3    C2 5849   3.524   2.484  10.410  0.5711  0.2897  0.1309
  388TMC3    C3 5850   3.643   2.537  10.372 -0.1437 -0.0543 -0.1421
  388TMC3    C4 5851   3.642   2.287  10.457  0.1839  0.3320 -0.3906
  388TMC3    C5 5852   3.760   2.345  10.424 -0.1126 -0.1719 -0.5106
  388TMC3    C6 5853   3.758   2.473  10.382  0.3873  0.7762 -0.4960
  388TMC3     C 5854   3.403   2.273  10.439 -0.0257 -0.3145 -0.0696
  388TMC3     O 5855   3.304   2.345  10.418  0.2566  0.3469 -0.0231
  388TMC3     H 5856   3.440   2.552  10.408  1.1490  1.0648  1.9446
  388TMC3    H1 5857   3.645   2.190  10.505  1.2418  0.6745  0.2417
  388TMC3    H2 5858   3.848   2.518  10.343  2.1830 -1.6791  0.8287
  388TMC3    C7 5859   3.842   2.256  10.351 -0.0550  0.6102  0.5527
  388TMC3    C8 5860   3.648   2.672  10.321 -0.0297  0.1471  0.9838
  388TMC3    O1 5861   3.958   2.289  10.333  0.1289  0.3003 -0.5970
  388TMC3    O2 5862   3.757   2.729  10.325 -0.2777 -0.2843 -0.4340
  389MPD2     C 5863   3.134   1.068  12.080 -0.5146  0.6937 -0.7251
  389MPD2    C1 5864   3.109   0.962  11.997 -0.6509  0.4324  0.4902
  389MPD2    C2 5865   3.053   0.851  12.052  0.5225 -0.1468  0.2862
  389MPD2    C3 5866   3.022   0.843  12.188 -0.5287 -0.3651 -0.5781
  389MPD2    C4 5867   3.055   0.946  12.274  0.3433 -0.5117  0.4928
  389MPD2    C5 5868   3.109   1.055  12.217  0.6498 -0.5572  0.2385
  389MPD2     H 5869   3.028   0.767  11.989 -1.2206  2.4490 -2.5033
  389MPD2    H1 5870   3.033   0.958  12.380 -2.0431 -1.8966  0.1289
  389MPD2    H2 5871   3.176   1.164  12.052 -0.1471  0.7463 -0.0125
  389MPD2    H3 5872   3.095   1.145  12.277 -3.3326 -0.8040 -0.3410
  389MPD2     N 5873   2.948   0.734  12.245 -0.4084 -0.1457 -0.5942
  389MPD2    H5 5874   2.938   0.740  12.346 -0.6124 -0.1418 -0.6160
  389MPD2    N1 5875   3.145   0.974  11.863 -0.4576 -0.3951  0.1188
  389MPD2    H7 5876   3.162   1.065  11.821 -0.8584  0.1426  1.1263
  390TMC3    C1 5877   2.859   0.516  12.280  0.0996  0.2060 -0.6292
  390TMC3    C2 5878   2.823   0.397  12.225  0.2564  0.4426 -0.4665
  390TMC3    C3 5879   2.735   0.321  12.301 -0.2249 -0.2909 -1.4541
  390TMC3    C4 5880   2.814   0.557  12.405  0.1273  0.0492 -0.2495
  390TMC3    C5 5881   2.713   0.487  12.468  0.0764 -0.2115 -0.4186
  390TMC3    C6 5882   2.674   0.363  12.415  0.0609 -0.0658  0.3548
  390TMC3     C 5883   2.914   0.615  12.183  0.0635  0.0182  0.7394
  390TMC3     O 5884   2.918   0.576  12.067 -0.1940  0.4955  0.1558
  390TMC3     H 5885   2.860   0.357  12.131  2.2375 -0.7909  0.8259
  390TMC3    H1 5886   2.850   0.645  12.457  0.4969 -1.3691  1.9088
  390TMC3    H2 5887   2.601   0.299  12.464 -1.1248  1.0859  0.1025
  390TMC3    C7 5888   2.605   0.575  12.509  0.4950  0.0888 -0.5525
  390TMC3    C8 5889   2.676   0.201  12.226 -0.3967  0.0299  0.1879
  390TMC3    O1 5890   2.638   0.691  12.531  0.0968 -0.5186 -0.6016
  390TMC3    O2 5891   2.696   0.195  12.106 -0.2225 -0.0468  0.7062
  391MPD2     C 5892   2.334   2.319  10.874  0.0252 -0.1405  0.9702
  391MPD2    C1 5893   2.421   2.430  10.846 -0.1766  0.4109  0.1281
  391MPD2    C2 5894   2.408   2.494  10.719 -0.0768  0.0031 -0.0451
  391MPD2    C3 5895   2.322   2.446  10.623  0.6746 -0.1546 -0.5497
  391MPD2    C4 5896   2.235   2.348  10.659  0.5234 -0.0936 -0.3916
  391MPD2    C5 5897   2.245   2.280  10.777 -0.3474  0.0952 -0.4093
  391MPD2     H 5898   2.459   2.586  10.695  1.1548 -0.3483  1.2320
  391MPD2    H1 5899   2.149   2.319  10.600  0.7079 -0.4911 -0.4642
  391MPD2    H2 5900   2.334   2.268  10.970  1.2019 -1.7157  0.1326
  391MPD2    H3 5901   2.161   2.215  10.799 -1.1526  1.7468  1.4040
  391MPD2     N 5902   2.313   2.521  10.497 -0.5320  0.6046 -0.3579
  391MPD2    H5 5903   2.369   2.605  10.484 -0.9333  0.7413 -1.1771
  391MPD2    N1 5904   2.503   2.480  10.949  0.8764  0.1091 -0.4261
  391MPD2    H7 5905   2.473   2.459  11.044 -0.7286 -0.6707 -1.1191
  392TMC3    C1 5906   2.231   2.590  10.294 -0.6307  0.2496  0.0122
  392TMC3    C2 5907   2.104   2.602  10.251 -0.5188  0.3131  0.0532
  392TMC3    C3 5908   2.058   2.717  10.189  0.6697  0.6215 -0.0683
  392TMC3    C4 5909   2.316   2.699  10.295  0.1175  0.1643  0.8072
  392TMC3    C5 5910   2.264   2.820  10.247  0.8133  0.4547  0.1053
  392TMC3    C6 5911   2.138   2.831  10.196  0.0946  0.0300  0.9303
  392TMC3     C 5912   2.235   2.485  10.385 -0.2355 -0.3183 -0.6069
  392TMC3     O 5913   2.162   2.382  10.372  0.5512  0.4087  0.1484
  392TMC3     H 5914   2.039   2.516  10.256  1.4280 -1.2408 -1.0987
  392TMC3    H1 5915   2.418   2.695  10.333  0.6090  3.5975 -0.1265
  392TMC3    H2 5916   2.100   2.929  10.169  1.8641  1.0396  2.1034
  392TMC3    C7 5917   2.366   2.918  10.232  0.3839 -0.4804 -0.9301
  392TMC3    C8 5918   1.921   2.732  10.139  0.2666 -0.2413 -0.3658
  392TMC3    O1 5919   2.481   2.903  10.274 -0.1930  0.6053 -0.8790
  392TMC3    O2 5920   1.833   2.653  10.182  0.2843  0.5125  0.3018
  393TMC3    C1 5921   0.673   0.438  10.974  0.0692 -0.1337  0.6119
  393TMC3    C2 5922   0.550   0.413  11.032  0.5613 -0.6274  0.6002
  393TMC3    C3 5923   0.548   0.346  11.150  0.4543 -0.1822  0.4054
  393TMC3    C4 5924   0.792   0.383  11.020 -0.1627 -0.0022 -0.0184
  393TMC3    C5 5925   0.784   0.309  11.135 -0.2477 -0.4507 -0.5727
  393TMC3    C6 5926   0.667   0.298  11.206 -0.7325  0.2299 -0.1598
  393TMC3     C 5927   0.689   0.546  10.872  0.4281 -0.1123 -0.3338
  393TMC3     O 5928   0.593   0.555  10.794  0.2656 -0.0914  0.1512
  393TMC3     H 5929   0.462   0.442  10.974  1.4168  0.4403 -0.1619
  393TMC3    H1 5930   0.876   0.397  10.953 -0.5395  2.9778  0.1251
  393TMC3    H2 5931   0.663   0.228  11.288  2.6933 -2.6152 -2.3803
  393TMC3    C7 5932   0.894   0.214  11.159  0.3751  0.4007 -0.1861
  393TMC3    C8 5933   0.427   0.279  11.200 -0.1699 -0.2141  0.3551
  393TMC3    O1 5934   0.931   0.206  11.274  0.9204  0.4910  0.0557
  393TMC3    O2 5935   0.428   0.218  11.304 -0.9424  0.2816  0.2730
  394TMC3    C1 5936   3.221   0.893  11.659  0.3156 -0.3552 -0.1313
  394TMC3    C2 5937   3.147   0.990  11.596 -0.3425  0.4558 -0.1403
  394TMC3    C3 5938   3.170   1.024  11.463  1.1943 -0.0587 -0.3342
  394TMC3    C4 5939   3.304   0.812  11.580 -0.3078  0.0878 -0.8757
  394TMC3    C5 5940   3.329   0.845  11.447 -1.1677 -0.0365  0.5077
  394TMC3    C6 5941   3.263   0.951  11.394  0.0636 -1.1269 -0.4284
  394TMC3     C 5942   3.186   0.865  11.788  0.6779 -0.1668 -0.2659
  394TMC3     O 5943   3.202   0.746  11.823  0.3699 -0.3562  0.3460
  394TMC3     H 5944   3.070   1.047  11.646 -0.2682  2.2022 -1.9905
  394TMC3    H1 5945   3.350   0.718  11.610 -0.8078 -0.6953 -2.5576
  394TMC3    H2 5946   3.298   0.987  11.298 -2.2821  1.2749 -0.3943
  394TMC3    C7 5947   3.382   0.750  11.349  0.7043  0.3475 -0.6299
  394TMC3    C8 5948   3.058   1.064  11.376 -0.0951 -0.7767 -0.6060
  394TMC3    O1 5949   3.342   0.768  11.234  0.3245  0.5198 -0.0505
  394TMC3    O2 5950   2.993   1.161  11.409  0.1217 -0.6613  0.5219
  395TMC3    C1 5951   2.840   2.645  14.854  0.9116 -0.0796  0.1878
  395TMC3    C2 5952   2.824   2.583  14.733  0.8151  0.5529  0.3678
  395TMC3    C3 5953   2.912   2.612  14.641 -0.6389  0.3362 -0.7622
  395TMC3    C4 5954   2.926   2.743  14.887  0.5484 -0.9892  0.1315
  395TMC3    C5 5955   3.015   2.767  14.787  0.0074  0.1131  0.3881
  395TMC3    C6 5956   3.005   2.709  14.666 -0.1557 -0.1772  0.3115
  395TMC3     C 5957   2.765   2.586  14.960 -0.3482 -0.0584 -0.8209
  395TMC3     O 5958   2.701   2.484  14.928 -0.7283  0.4528  0.7982
  395TMC3     H 5959   2.730   2.534  14.707  0.8907  0.2856  0.5984
  395TMC3    H1 5960   2.929   2.798  14.980  1.6998  0.7829 -0.9566
  395TMC3    H2 5961   3.076   2.729  14.586 -1.3879  3.0487  0.0185
  395TMC3    C7 5962   3.083   2.894  14.787  0.1098 -0.2525 -0.0525
  395TMC3    C8 5963   2.858   2.631  14.509  0.2702  0.6459  0.3345
  395TMC3    O1 5964   3.014   2.991  14.818 -0.5354  0.1824  0.5160
  395TMC3    O2 5965   2.853   2.744  14.470 -0.2328 -0.0841  0.4949
  396MPD2     C 5966   2.608   3.226  17.581 -0.2871 -0.3870 -0.1604
  396MPD2    C1 5967   2.741   3.215  17.536 -0.0968 -0.6555 -0.4273
  396MPD2    C2 5968   2.784   3.286  17.421  0.6898  0.0161 -0.2546
  396MPD2    C3 5969   2.698   3.362  17.349 -0.0814 -0.2405  0.1551
  396MPD2    C4 5970   2.566   3.374  17.392  0.1044 -0.7126  0.4181
  396MPD2    C5 5971   2.525   3.314  17.505 -0.3920 -0.3076 -0.2611
  396MPD2     H 5972   2.881   3.280  17.374 -0.7583 -1.2334 -3.0359
  396MPD2    H1 5973   2.496   3.439  17.342  0.7581  1.8526  2.8353
  396MPD2    H2 5974   2.575   3.177  17.671  0.9291 -1.1666 -0.1369
  396MPD2    H3 5975   2.418   3.323  17.523 -0.5900  1.3945 -2.2437
  396MPD2     N 5976   2.745   3.435  17.237 -0.2251  0.1883 -0.1784
  396MPD2    H5 5977   2.845   3.430  17.227 -0.1302  0.6469  0.6033
  396MPD2    N1 5978   2.817   3.113  17.600  0.0953  0.3309 -0.5012
  396MPD2    H7 5979   2.781   3.080  17.689  1.1945  1.5983  0.4131
  397TMC3    C1 5980   2.918   2.922  17.520  0.2331 -0.1973  0.1333
  397TMC3    C2 5981   2.962   2.911  17.389  0.4807  0.2921 -0.1588
  397TMC3    C3 5982   2.871   2.889  17.286 -0.3442 -0.4076  0.3299
  397TMC3    C4 5983   2.787   2.875  17.552  0.4252 -0.1780 -0.0062
  397TMC3    C5 5984   2.712   2.830  17.449 -0.1915  0.9122 -0.0653
  397TMC3    C6 5985   2.744   2.846  17.317  0.1136 -0.3315  0.0733
  397TMC3     C 5986   2.937   3.056  17.557 -0.1572  0.5640 -1.1085
  397TMC3     O 5987   3.028   3.106  17.490  0.0578  0.1327  0.2345
  397TMC3     H 5988   3.067   2.925  17.364  0.5575  0.6585  0.3719
  397TMC3    H1 5989   2.767   2.845  17.654 -1.8062  1.6679  0.0849
  397TMC3    H2 5990   2.665   2.839  17.243  0.7472  0.4675 -0.6726
  397TMC3    C7 5991   2.582   2.774  17.479 -0.2581  1.0952  0.5919
  397TMC3    C8 5992   2.870   3.002  17.194 -0.3604 -0.0297  0.1277
  397TMC3    O1 5993   2.530   2.710  17.389  0.6264  0.1109  0.5642
  397TMC3    O2 5994   2.762   3.020  17.143 -0.4869  0.3142  0.1766
  398MPD2     C 5995   0.843   0.421  17.687  0.3933 -0.3728 -0.2864
  398MPD2    C1 5996   0.910   0.323   0.002  0.4938 -0.0645  0.8126
  398MPD2    C2 5997   1.028   0.365   0.061  0.0728  0.0888 -0.2157
  398MPD2    C3 5998   1.076   0.494   0.058  0.0130 -0.1135  0.5810
  398MPD2    C4 5999   1.000   0.584  17.737  0.2935  0.2017  0.6033
  398MPD2    C5 6000   0.884   0.546  17.675  0.2916  0.3213 -0.0560
  398MPD2     H 6001   1.085   0.288   0.112 -0.3931  0.9468  1.5849
  398MPD2    H1 6002   1.017   0.691  17.736 -1.6197  0.4560 -2.5550
  398MPD2    H2 6003   0.753   0.396  17.631 -1.1045  2.3571  0.8535
  398MPD2    H3 6004   0.814   0.618  17.634  1.7384  2.9336  2.0905
  398MPD2     N 6005   1.188   0.534   0.135 -0.4955 -0.3692 -0.2902
  398MPD2    H5 6006   1.234   0.456   0.181 -0.0135 -0.2498 -0.5603
  398MPD2    N1 6007   0.878   0.187   0.005 -0.3913 -0.2083  0.2043
  398MPD2    H7 6008   0.941   0.120   0.048  0.4934 -1.9790 -3.9202
  399TMC3    C1 6009   0.739   4.726  17.722 -0.0216  0.2732 -0.9724
  399TMC3    C2 6010   0.796   4.667   0.079  0.5974 -0.4019 -0.4539
  399TMC3    C3 6011   0.772   4.536   0.099 -0.0818 -0.9236  0.9637
  399TMC3    C4 6012   0.642   4.666  17.644 -0.5590 -0.7687 -0.1945
  399TMC3    C5 6013   0.622   4.531  17.663  0.4768 -0.1838  0.5435
  399TMC3    C6 6014   0.688   4.465   0.014 -0.5117 -0.1003 -0.4000
  399TMC3     C 6015   0.769   0.127  17.689  0.1290  0.1307 -0.1241
  399TMC3     O 6016   0.690   0.180  17.614  0.4090 -0.1504 -0.2985
  399TMC3     H 6017   0.875   4.718   0.134 -0.6933  0.2525  0.7648
  399TMC3    H1 6018   0.605   4.725  17.560 -2.1843  1.4173  2.0616
  399TMC3    H2 6019   0.683   4.357   0.019 -0.2685 -0.0627  0.6803
  399TMC3    C7 6020   0.508   4.471  17.600  0.3805 -0.1369 -0.7698
  399TMC3    C8 6021   0.872   4.462   0.182 -0.1395 -0.1069  0.2467
  399TMC3    O1 6022   0.483   4.354  17.630 -0.1927  0.1677  0.8658
  399TMC3    O2 6023   0.959   4.524   0.237  0.6670  0.3063 -0.0021
  400TMC3    C1 6024   4.035   3.184  16.839 -0.0139 -0.3194 -0.0707
  400TMC3    C2 6025   3.916   3.170  16.781  0.3323 -0.5696 -0.0755
  400TMC3    C3 6026   3.842   3.284  16.779 -0.4474  0.3834 -0.1475
  400TMC3    C4 6027   4.087   3.300  16.894  0.2648 -0.5787 -0.1619
  400TMC3    C5 6028   4.004   3.409  16.896  0.3092  1.3241  0.3204
  400TMC3    C6 6029   3.886   3.403  16.832  0.7341 -0.3433 -0.8266
  400TMC3     C 6030   4.116   3.062  16.855 -0.3387 -0.4124 -0.1697
  400TMC3     O 6031   4.081   2.960  16.795  0.1445 -0.1456  0.5645
  400TMC3     H 6032   3.889   3.068  16.754  0.7403 -0.5741 -0.4716
  400TMC3    H1 6033   4.185   3.307  16.941  0.4074  1.7104 -0.7795
  400TMC3    H2 6034   3.833   3.497  16.819 -2.5656 -2.4047 -2.2507
  400TMC3    C7 6035   4.057   3.531  16.944 -0.1386  0.4619  0.0295
  400TMC3    C8 6036   3.731   3.292  16.691  0.5903 -0.2414 -0.4705
  400TMC3    O1 6037   4.175   3.546  16.940  0.6686 -0.0607  0.3330
  400TMC3    O2 6038   3.661   3.394  16.692  0.4839  0.0420 -0.6442
  401MPD2     C 6039   1.861   1.354   0.539 -0.0763  0.2541  0.0796
  401MPD2    C1 6040   1.964   1.285   0.583  1.0704 -0.7149 -0.1496
  401MPD2    C2 6041   1.983   1.153   0.536 -0.5998  0.2226  0.0501
  401MPD2    C3 6042   1.888   1.087   0.465  0.2024  0.3994  0.3947
  401MPD2    C4 6043   1.780   1.160   0.427  0.1002 -0.4016 -0.2760
  401MPD2    C5 6044   1.769   1.296   0.459  0.1494  0.0125 -0.1916
  401MPD2     H 6045   2.073   1.095   0.556 -1.3713 -1.3593 -1.0651
  401MPD2    H1 6046   1.708   1.110   0.364 -0.5557  0.0196  0.1459
  401MPD2    H2 6047   1.827   1.456   0.557  0.0108  0.3714 -0.4137
  401MPD2    H3 6048   1.683   1.353   0.428  0.1646 -1.0231 -2.1704
  401MPD2     N 6049   1.919   0.959   0.419  0.0919 -0.0521  0.9862
  401MPD2    H5 6050   2.009   0.922   0.447  0.1864 -0.7471 -0.2116
  401MPD2    N1 6051   2.072   1.343   0.643 -0.4721 -0.1876  0.0416
  401MPD2    H7 6052   2.152   1.286   0.668 -0.9918 -0.9961 -0.1368
  402TMC3    C1 6053   1.940   0.770   0.297 -0.0914  0.9687 -0.6310
  402TMC3    C2 6054   2.027   0.757   0.402 -0.4565 -0.2939  0.2967
  402TMC3    C3 6055   2.153   0.710   0.370  0.1238  0.0732  0.0051
  402TMC3    C4 6056   1.982   0.760   0.163 -0.3111 -0.9007  0.2269
  402TMC3    C5 6057   2.103   0.703   0.143  0.4924 -0.2693  0.1382
  402TMC3    C6 6058   2.193   0.677   0.242  0.5827  0.1160 -0.3877
  402TMC3     C 6059   1.854   0.887   0.324  0.2141 -0.2854 -0.2411
  402TMC3     O 6060   1.737   0.900   0.292  0.1279 -0.7111  0.5183
  402TMC3     H 6061   2.003   0.759   0.508  1.4254 -0.9750  0.7257
  402TMC3    H1 6062   1.922   0.787   0.077  0.5651  1.5055  0.3703
  402TMC3    H2 6063   2.298   0.650   0.234  0.2957 -1.5611  1.3280
  402TMC3    C7 6064   2.152   0.697   0.009 -0.0555 -0.2330 -0.2241
  402TMC3    C8 6065   2.243   0.786   0.451 -1.0210 -0.0249 -0.0260
  402TMC3    O1 6066   2.238   0.611  17.749  0.7927 -0.5799 -0.5700
  402TMC3    O2 6067   2.196   0.887   0.502  0.3013  0.5894  0.2013
  403MPD2     C 6068   0.576   0.156  13.463 -0.1044 -0.9174  0.1329
  403MPD2    C1 6069   0.645   0.043  13.490  0.1447 -0.3189 -0.0659
  403MPD2    C2 6070   0.758   0.059  13.567  0.4769 -0.8528 -1.2233
  403MPD2    C3 6071   0.804   0.186  13.605 -0.1281 -0.6867  0.2540
  403MPD2    C4 6072   0.728   0.298  13.580 -0.0247 -0.0165  0.4264
  403MPD2    C5 6073   0.609   0.277  13.511 -0.4238  0.1851  0.4163
  403MPD2     H 6074   0.813   4.706  13.585  2.3519  0.6729  0.7510
  403MPD2    H1 6075   0.749   0.400  13.610 -1.8548  0.6872 -0.6657
  403MPD2    H2 6076   0.484   0.155  13.406 -0.4994  2.9606  0.6959
  403MPD2    H3 6077   0.551   0.364  13.482  1.1516  0.8574 -0.7207
  403MPD2     N 6078   0.937   0.185  13.657 -0.0235 -0.0785 -0.2738
  403MPD2    H5 6079   0.984   0.096  13.673  0.5953  0.3782  0.4821
  403MPD2    N1 6080   0.592   4.659  13.447  0.4132  0.3524 -0.1271
  403MPD2    H7 6081   0.504   4.665  13.395 -0.1582  0.7084  0.8896
  404TMC3    C1 6082   0.541   4.436  13.440 -0.8049  0.8531  0.3531
  404TMC3    C2 6083   0.435   4.392  13.511 -0.0688  0.3969  0.1401
  404TMC3    C3 6084   0.325   4.354  13.443  0.6307  0.2802  0.2194
  404TMC3    C4 6085   0.550   4.426  13.309 -0.6827  0.5918 -0.5715
  404TMC3    C5 6086   0.438   4.369  13.239 -0.1759 -0.1699 -0.1520
  404TMC3    C6 6087   0.322   4.344  13.306  0.0017  0.3845  0.5240
  404TMC3     C 6088   0.614   4.537  13.502 -0.0654 -0.2789 -0.3783
  404TMC3     O 6089   0.689   4.510  13.592  0.0858 -0.2551 -0.0658
  404TMC3     H 6090   0.441   4.389  13.619 -0.0189  0.2348  0.1330
  404TMC3    H1 6091   0.634   4.475  13.261  0.2201  0.3588  0.7644
  404TMC3    H2 6092   0.227   4.316  13.262 -0.4193  1.1575  0.9321
  404TMC3    C7 6093   0.448   4.364  13.097  0.2165  0.2551  0.7886
  404TMC3    C8 6094   0.205   4.314  13.513 -0.7201  0.0489 -0.6312
  404TMC3    O1 6095   0.553   4.404  13.052 -0.2132  0.2141 -0.4307
  404TMC3    O2 6096   0.117   4.267  13.440 -0.6794  0.1147 -0.6009
  405MPD2     C 6097   1.042   0.569  14.746  0.3571  0.5411  0.0830
  405MPD2    C1 6098   0.911   0.532  14.729  0.4173  0.4767  0.3267
  405MPD2    C2 6099   0.819   0.629  14.708 -0.7459  0.9868 -0.3565
  405MPD2    C3 6100   0.853   0.768  14.712 -0.5867  0.2599 -0.2522
  405MPD2    C4 6101   0.984   0.797  14.739  0.0715 -0.1250 -0.5991
  405MPD2    C5 6102   1.077   0.701  14.758 -0.4123 -0.2031 -0.6570
  405MPD2     H 6103   0.714   0.605  14.696  0.1340 -2.3645 -1.3271
  405MPD2    H1 6104   1.025   0.896  14.756 -0.6572  0.2714 -1.1553
  405MPD2    H2 6105   1.118   0.494  14.769 -1.3825 -1.6013 -1.1923
  405MPD2    H3 6106   1.176   0.719  14.797 -0.4999 -0.6790 -0.2175
  405MPD2     N 6107   0.748   0.864  14.689  0.0195  0.2698 -0.3176
  405MPD2    H5 6108   0.654   0.834  14.667  0.8999 -1.9835 -1.0905
  405MPD2    N1 6109   0.872   0.397  14.735 -0.4571 -0.1452 -1.1335
  405MPD2    H7 6110   0.937   0.329  14.773 -0.3044  0.0493 -1.0474
  406TMC3    C1 6111   0.483   1.162  14.544  0.7638  0.0178 -0.2636
  406TMC3    C2 6112   0.374   1.080  14.580  0.9309  0.2926 -0.5629
  406TMC3    C3 6113   0.389   0.981  14.670  0.1116 -0.1322 -0.2650
  406TMC3    C4 6114   0.604   1.129  14.590 -0.1037  0.5805 -0.0416
  406TMC3    C5 6115   0.615   1.041  14.694  0.2595  0.8789 -0.0233
  406TMC3    C6 6116   0.512   0.954  14.727  0.1844  0.6940  1.2188
  406TMC3     C 6117   0.468   1.242  14.424 -0.0358  0.1380  0.6557
  406TMC3     O 6118   0.536   1.213  14.331  0.3925 -0.0319  0.3495
  406TMC3     H 6119   0.274   1.087  14.538  0.5010 -1.0305  0.2206
  406TMC3    H1 6120   0.689   1.187  14.556 -0.1719  0.1638 -0.9387
  406TMC3    H2 6121   0.531   0.886  14.809 -0.6565  0.0082  0.8445
  406TMC3    C7 6122   0.751   0.996  14.713  0.0432 -0.5128 -0.0194
  406TMC3    C8 6123   0.288   0.885  14.684  0.6571 -0.9276  0.8785
  406TMC3    O1 6124   0.842   1.076  14.719 -0.2551  0.3219  0.7403
  406TMC3    O2 6125   0.175   0.929  14.697 -0.8008  0.3521  0.5108
  407MPD2     C 6126   2.453   2.070  10.331  0.3281 -0.5876  0.7104
  407MPD2    C1 6127   2.566   2.039  10.256 -0.4103 -0.2787  0.1035
  407MPD2    C2 6128   2.685   2.111  10.262  0.5771 -0.6895  0.4250
  407MPD2    C3 6129   2.689   2.216  10.352 -0.1110 -0.2943  0.0610
  407MPD2    C4 6130   2.576   2.257  10.427 -0.3295  0.2614  0.8766
  407MPD2    C5 6131   2.463   2.176  10.420  0.3522  0.5696  0.4809
  407MPD2     H 6132   2.765   2.084  10.194  0.3937 -0.1142 -0.0233
  407MPD2    H1 6133   2.567   2.337  10.500  1.1283  2.3731 -1.2713
  407MPD2    H2 6134   2.365   2.007  10.327  1.9553 -2.6972 -2.8700
  407MPD2    H3 6135   2.378   2.202  10.482 -0.9652  0.4769 -1.3005
  407MPD2     N 6136   2.797   2.307  10.350 -0.4304  0.1064  0.0128
  407MPD2    H5 6137   2.802   2.373  10.427 -0.8339 -0.7023  0.7271
  407MPD2    N1 6138   2.576   1.935  10.159 -0.0667  0.3116  0.8128
  407MPD2    H7 6139   2.671   1.905  10.139 -0.8084 -1.3747 -0.1328
  408TMC3    C1 6140   2.547   1.741  10.037 -0.1552  0.2586  0.6093
  408TMC3    C2 6141   2.662   1.760   9.965  1.0671 -0.2082 -0.7321
  408TMC3    C3 6142   2.681   1.690   9.849  0.0010 -0.4782  0.1061
  408TMC3    C4 6143   2.465   1.633  10.013 -0.9414  0.3350  0.2343
  408TMC3    C5 6144   2.492   1.560   9.898  0.0815 -0.6033 -0.0208
  408TMC3    C6 6145   2.598   1.591   9.818  0.6236  0.2190 -0.1361
  408TMC3     C 6146   2.480   1.852  10.106  0.3085 -0.2926  0.4854
  408TMC3     O 6147   2.359   1.854  10.127  0.1362  0.3378  0.1737
  408TMC3     H 6148   2.735   1.831  10.001  1.0501 -0.7134  0.2971
  408TMC3    H1 6149   2.378   1.614  10.074 -0.3728 -4.4190 -0.4665
  408TMC3    H2 6150   2.617   1.523   9.736 -0.6317 -0.1501 -0.1108
  408TMC3    C7 6151   2.403   1.449   9.854  0.9983  0.7355 -0.0623
  408TMC3    C8 6152   2.799   1.700   9.768  0.0502  0.0164 -0.7343
  408TMC3    O1 6153   2.395   1.403   9.740  0.4611  0.2640 -0.1005
  408TMC3    O2 6154   2.815   1.617   9.678  0.1691  0.2220 -0.0840
  409MPD2     C 6155   2.609   2.704  16.916  0.1010 -0.9425 -0.2644
  409MPD2    C1 6156   2.726   2.669  16.981  0.1717  0.1813 -0.1075
  409MPD2    C2 6157   2.838   2.736  16.947 -0.6824  0.0485 -0.4743
  409MPD2    C3 6158   2.840   2.840  16.859  0.0844 -0.5019  0.2905
  409MPD2    C4 6159   2.719   2.872  16.800 -1.1334  0.9520 -0.2806
  409MPD2    C5 6160   2.604   2.798  16.817  0.0228 -0.4310  0.8603
  409MPD2     H 6161   2.932   2.710  16.995 -1.1217  0.7281  0.7692
  409MPD2    H1 6162   2.733   2.938  16.715  0.2109  2.4993  1.1542
  409MPD2    H2 6163   2.524   2.637  16.911 -0.1762 -0.5624 -0.6175
  409MPD2    H3 6164   2.510   2.818  16.767  0.7655  2.8199  0.7617
  409MPD2     N 6165   2.956   2.914  16.823 -0.7548 -0.0583 -0.3708
  409MPD2    H5 6166   2.940   2.994  16.762  1.9803  0.0377 -0.9653
  409MPD2    N1 6167   2.736   2.560  17.065 -0.2812 -0.1550  0.1341
  409MPD2    H7 6168   2.829   2.541  17.101 -1.2640 -0.8696  2.2735
  410TMC3    C1 6169   3.192   2.974  16.821  0.1599 -0.6663 -0.2394
  410TMC3    C2 6170   3.300   2.991  16.907 -0.3235 -0.0472 -0.5274
  410TMC3    C3 6171   3.374   3.106  16.893  0.0519 -0.2388 -0.2154
  410TMC3    C4 6172   3.156   3.076  16.731  0.4235  0.2255 -0.2424
  410TMC3    C5 6173   3.233   3.192  16.726  0.4935 -0.5145  0.1551
  410TMC3    C6 6174   3.339   3.212  16.811 -0.0722 -0.0433  0.1692
  410TMC3     C 6175   3.087   2.883  16.867  0.5012  0.4537 -0.5961
  410TMC3     O 6176   3.119   2.786  16.935  0.0321  0.2098  0.0156
  410TMC3     H 6177   3.325   2.930  16.994  1.1793  0.6695 -0.4619
  410TMC3    H1 6178   3.070   3.060  16.667  1.0527 -1.4211 -0.6462
  410TMC3    H2 6179   3.408   3.297  16.809  0.3901 -0.4297 -0.6370
  410TMC3    C7 6180   3.199   3.291  16.629  0.1819  0.1678  0.0132
  410TMC3    C8 6181   3.493   3.131  16.984 -0.0564 -0.3080  0.4123
  410TMC3    O1 6182   3.117   3.248  16.551 -0.1161  0.0304  0.3832
  410TMC3    O2 6183   3.502   3.249  17.017 -0.2608 -0.0400  0.2402
  411MPD2     C 6184   3.404   3.677  14.624  0.2516 -0.4237  0.7682
  411MPD2    C1 6185   3.342   3.746  14.720 -0.6962  0.4540  0.4251
  411MPD2    C2 6186   3.223   3.703  14.775  0.4577 -0.6898 -0.1370
  411MPD2    C3 6187   3.164   3.590  14.719  1.0506  0.7038 -0.0839
  411MPD2    C4 6188   3.231   3.525  14.618 -0.3825 -0.1702 -0.7125
  411MPD2    C5 6189   3.354   3.564  14.578 -0.6430 -0.7305  0.2128
  411MPD2     H 6190   3.173   3.754  14.857 -2.5087  0.2310 -2.5209
  411MPD2    H1 6191   3.188   3.441  14.565 -1.6764 -0.6683  1.1241
  411MPD2    H2 6192   3.494   3.720  14.581  1.9993 -2.3317  2.5578
  411MPD2    H3 6193   3.394   3.513  14.491  2.4693  2.4494 -0.1876
  411MPD2     N 6194   3.036   3.536  14.747  0.1381 -0.6568 -0.2040
  411MPD2    H5 6195   3.006   3.465  14.681  2.3682  0.5933 -2.5126
  411MPD2    N1 6196   3.396   3.871  14.768  0.2771  0.0399 -0.5820
  411MPD2    H7 6197   3.472   3.911  14.714  1.9840 -0.3034  1.5346
  412TMC3    C1 6198   2.802   3.545  14.793  0.1486  0.1832  0.0461
  412TMC3    C2 6199   2.710   3.565  14.892  0.3380  0.3011 -0.0218
  412TMC3    C3 6200   2.601   3.487  14.899 -0.7380 -0.4330 -0.6175
  412TMC3    C4 6201   2.780   3.451  14.701  0.1528  0.0982  0.2250
  412TMC3    C5 6202   2.670   3.361  14.721  0.4465  0.5838  0.8525
  412TMC3    C6 6203   2.586   3.377  14.823  0.0248  0.3195 -0.2296
  412TMC3     C 6204   2.934   3.596  14.825  0.2578 -0.1399  0.2606
  412TMC3     O 6205   2.948   3.692  14.901  0.1177  0.1810 -0.7177
  412TMC3     H 6206   2.737   3.649  14.954  2.8074 -0.1057 -0.5398
  412TMC3    H1 6207   2.852   3.446  14.620 -0.4459  1.0576 -0.3684
  412TMC3    H2 6208   2.502   3.310  14.837  0.3469 -0.4272 -1.9586
  412TMC3    C7 6209   2.631   3.269  14.614 -0.8809 -0.1597 -0.8287
  412TMC3    C8 6210   2.538   3.488  15.032 -0.0506 -0.3708  0.0311
  412TMC3    O1 6211   2.520   3.216  14.617 -0.2142 -0.5139  0.1005
  412TMC3    O2 6212   2.614   3.523  15.121 -0.0712 -0.7528 -0.0632
  413MPD2     C 6213   0.704   2.351  15.147 -0.5630  0.2232 -0.6893
  413MPD2    C1 6214   0.596   2.284  15.090  0.6382  0.1109  0.1692
  413MPD2    C2 6215   0.615   2.151  15.058 -0.6705 -0.5766 -0.3051
  413MPD2    C3 6216   0.730   2.075  15.081 -0.2234 -0.2743 -0.0229
  413MPD2    C4 6217   0.826   2.148  15.134  0.1464 -0.0476 -0.3496
  413MPD2    C5 6218   0.815   2.282  15.167  0.2233 -0.5291  0.2436
  413MPD2     H 6219   0.536   2.090  15.015 -1.9664 -1.6002  3.5485
  413MPD2    H1 6220   0.924   2.103  15.143  0.6510  1.2681  0.6223
  413MPD2    H2 6221   0.701   2.456  15.173 -2.1329  0.1386 -0.5202
  413MPD2    H3 6222   0.897   2.341  15.206 -0.1614  0.4606 -0.4121
  413MPD2     N 6223   0.730   1.934  15.046  0.4011 -0.0008  0.5910
  413MPD2    H5 6224   0.657   1.893  14.988 -0.2567  1.1873  0.5571
  413MPD2    N1 6225   0.475   2.357  15.077  0.8203 -0.2203 -0.0045
  413MPD2    H7 6226   0.485   2.454  15.103 -0.0919 -0.1059 -0.0723
  414TMC3    C1 6227   0.800   1.713  15.027 -0.9164  0.1964 -0.1177
  414TMC3    C2 6228   0.856   1.601  15.076  1.0637  0.2275 -0.2440
  414TMC3    C3 6229   0.819   1.483  15.020 -0.5641 -0.5104 -0.0803
  414TMC3    C4 6230   0.721   1.703  14.911 -0.2648 -0.5632  0.1746
  414TMC3    C5 6231   0.712   1.585  14.842 -0.3159  0.0563 -0.3443
  414TMC3    C6 6232   0.757   1.469  14.898  0.0263 -0.7161 -0.1468
  414TMC3     C 6233   0.816   1.844  15.097  0.7098 -0.4549 -0.5420
  414TMC3     O 6234   0.890   1.856  15.192  0.2058  0.1043 -0.2400
  414TMC3     H 6235   0.895   1.603  15.178  1.3804  0.1192 -0.3648
  414TMC3    H1 6236   0.692   1.791  14.854  1.3580 -0.4023 -0.4181
  414TMC3    H2 6237   0.743   1.376  14.843 -2.2893 -0.3062 -0.2726
  414TMC3    C7 6238   0.628   1.588  14.723 -0.6652 -0.0935 -0.2525
  414TMC3    C8 6239   0.885   1.358  15.065 -0.3035 -1.0364  0.0736
  414TMC3    O1 6240   0.525   1.654  14.731 -0.8361  0.0202 -0.5682
  414TMC3    O2 6241   0.823   1.250  15.045  0.5861 -0.0287  0.2738
  415TMC3    C1 6242   0.011   4.673   9.882 -0.1843 -0.0126 -0.4150
  415TMC3    C2 6243   0.091   4.706   9.776 -0.7896 -0.4830 -0.7531
  415TMC3    C3 6244   0.050   4.665   9.654 -0.3372  0.1671 -0.2767
  415TMC3    C4 6245   4.635   4.604   9.875 -0.8353 -0.5360 -0.3112
  415TMC3    C5 6246   4.592   4.575   9.749  0.1593 -1.0341 -0.4604
  415TMC3    C6 6247   4.664   4.605   9.637  0.4669 -0.3838 -0.5825
  415TMC3     C 6248   0.074   4.662  10.007  0.3985 -0.1986 -0.1768
  415TMC3     O 6249   0.039   4.565  10.067  0.2464 -1.0243  0.1282
  415TMC3     H 6250   0.192   0.007   9.785 -1.5539  0.8932  1.8480
  415TMC3    H1 6251   4.576   4.591   9.965 -0.5620 -1.0080 -0.1988
  415TMC3    H2 6252   4.627   4.583   9.537  0.8998  1.6484 -1.1909
  415TMC3    C7 6253   4.480   4.486   9.734 -0.1137  0.2748 -0.3092
  415TMC3    C8 6254   0.139   4.629   9.547  0.0419 -0.3886  0.2936
  415TMC3    O1 6255   4.421   4.485   9.624  0.0163  0.2384 -0.4660
  415TMC3    O2 6256   0.113   4.541   9.468  0.1460  0.5509  0.0212
  416MPD2     C 6257   2.525   4.002  11.303  0.2884  0.1001 -0.0134
  416MPD2    C1 6258   2.420   3.920  11.319  0.2382  0.8960 -0.0457
  416MPD2    C2 6259   2.408   3.806  11.236  0.3925 -0.3009  0.0321
  416MPD2    C3 6260   2.486   3.792  11.124  0.8207  0.1297 -0.1938
  416MPD2    C4 6261   2.596   3.874  11.105 -0.2549 -0.1318  0.2628
  416MPD2    C5 6262   2.615   3.976  11.196  0.4786 -0.5570 -0.3534
  416MPD2     H 6263   2.323   3.740  11.250  1.4807 -0.9255  3.7277
  416MPD2    H1 6264   2.673   3.845  11.034 -1.6889 -0.6101 -1.1116
  416MPD2    H2 6265   2.539   4.092  11.362 -0.3115 -0.3546  0.8279
  416MPD2    H3 6266   2.701   4.042  11.191 -0.9633  1.4854  1.5692
  416MPD2     N 6267   2.469   3.676  11.042  0.2329  0.4680  0.0246
  416MPD2    H5 6268   2.405   3.604  11.074  1.8494 -1.1570 -0.4142
  416MPD2    N1 6269   2.322   3.951  11.416 -0.2154  0.3849 -0.1615
  416MPD2    H7 6270   2.345   4.036  11.466  1.0154 -0.6042  0.9523
  417TMC3    C1 6271   2.123   3.958  11.540  0.2509 -0.2554 -0.1340
  417TMC3    C2 6272   2.028   3.892  11.613  0.4852 -0.1640  0.3625
  417TMC3    C3 6273   1.916   3.960  11.652 -0.2218  0.0332 -0.1124
  417TMC3    C4 6274   2.099   4.086  11.503  0.2209  0.8714 -0.1654
  417TMC3    C5 6275   1.978   4.147  11.533 -0.1650  0.1880  0.1087
  417TMC3    C6 6276   1.886   4.085  11.612 -0.3924 -0.8724 -0.5104
  417TMC3     C 6277   2.220   3.875  11.470 -0.3217  0.4024 -0.3741
  417TMC3     O 6278   2.187   3.759  11.451  0.1027  0.0528  0.3012
  417TMC3     H 6279   2.042   3.788  11.641  1.4760  0.3048  1.5948
  417TMC3    H1 6280   2.162   4.138  11.432  2.5093  1.6201  2.3814
  417TMC3    H2 6281   1.794   4.132  11.645 -0.2260  1.3998 -3.2670
  417TMC3    C7 6282   1.939   4.255  11.453 -0.4244 -0.0754 -0.0012
  417TMC3    C8 6283   1.837   3.914  11.769 -0.4843  0.7893  0.4755
  417TMC3    O1 6284   2.025   4.334  11.412 -0.2794 -0.0644  0.0697
  417TMC3    O2 6285   1.735   3.971  11.809  0.3351  0.1774  0.5344
  418TMC3    C1 6286   1.585   0.612   0.175 -0.1783 -0.5387  0.3521
  418TMC3    C2 6287   1.467   0.666   0.138  0.3408 -0.0526 -0.2313
  418TMC3    C3 6288   1.365   0.643   0.217 -0.4561  0.0407  0.6022
  418TMC3    C4 6289   1.593   0.522   0.278  0.1301  0.6948 -0.2367
  418TMC3    C5 6290   1.481   0.500   0.351  0.0530 -0.0450  0.1061
  418TMC3    C6 6291   1.363   0.564   0.327 -0.4439  0.1249 -0.3761
  418TMC3     C 6292   1.691   0.629   0.084  0.6293  0.1404 -0.2977
  418TMC3     O 6293   1.672   0.727   0.012 -0.1038 -0.8408  0.3618
  418TMC3     H 6294   1.461   0.719   0.044  0.2804  0.1145 -0.1328
  418TMC3    H1 6295   1.683   0.466   0.299  2.4211  3.7756 -1.7764
  418TMC3    H2 6296   1.272   0.550   0.385  1.1947 -2.7066  1.5277
  418TMC3    C7 6297   1.477   0.384   0.436  0.0002 -0.0489  0.0859
  418TMC3    C8 6298   1.244   0.658   0.140 -0.7819  0.1596 -0.3438
  418TMC3    O1 6299   1.535   0.287   0.392  0.2004  0.4367  0.3177
  418TMC3    O2 6300   1.206   0.762   0.086 -0.2609 -0.5754  0.2105
  419MPD2     C 6301   4.687   3.229  12.578  0.4506  0.3727 -0.1040
  419MPD2    C1 6302   4.590   3.307  12.528  0.4429 -0.0284 -0.0822
  419MPD2    C2 6303   4.515   3.378  12.621 -0.2276 -0.0648  0.5528
  419MPD2    C3 6304   4.537   3.384  12.752  0.5110 -0.1539 -0.8857
  419MPD2    C4 6305   4.636   3.306  12.800  0.2830  0.4256 -0.1242
  419MPD2    C5 6306   4.705   3.223  12.717 -0.3362  0.3968 -0.2036
  419MPD2     H 6307   4.438   3.443  12.580 -0.0230 -1.1193 -1.5140
  419MPD2    H1 6308   4.661   3.310  12.905  0.5588 -0.2134 -0.1670
  419MPD2    H2 6309   0.010   3.162  12.518 -0.0662  0.0446 -0.2532
  419MPD2    H3 6310   0.035   3.154  12.766 -1.3716 -0.4971 -0.0161
  419MPD2     N 6311   4.450   3.463  12.823 -0.0606 -0.3509  0.3030
  419MPD2    H5 6312   4.388   3.520  12.767 -0.6340 -0.8650  0.4110
  419MPD2    N1 6313   4.539   3.290  12.399 -0.2097  0.1176  0.4318
  419MPD2    H7 6314   4.446   3.328  12.382 -0.0109  0.6938  0.6408
  420TMC3    C1 6315   4.341   3.565  13.009 -0.0716 -0.0959 -0.4627
  420TMC3    C2 6316   4.237   3.593  12.930 -0.7638  0.2211 -0.2248
  420TMC3    C3 6317   4.148   3.684  12.991 -0.2375  0.6192 -0.4894
  420TMC3    C4 6318   4.344   3.601  13.143  0.2693 -0.2421  0.0427
  420TMC3    C5 6319   4.253   3.690  13.193 -0.4763 -0.5095 -0.3763
  420TMC3    C6 6320   4.156   3.732  13.112  0.2207  0.0526 -0.0220
  420TMC3     C 6321   4.454   3.486  12.956 -0.4095  0.1221 -0.2515
  420TMC3     O 6322   4.543   3.461  13.038  0.8736  0.2098  0.3070
  420TMC3     H 6323   4.228   3.551  12.830 -0.4445 -0.1582 -0.0943
  420TMC3    H1 6324   4.413   3.550  13.209  0.1098 -0.8512 -0.2598
  420TMC3    H2 6325   4.077   3.797  13.147  0.2131 -0.8645  1.6871
  420TMC3    C7 6326   4.242   3.698  13.331  0.3656 -0.0333 -0.2430
  420TMC3    C8 6327   4.039   3.738  12.917 -0.2584  0.1611 -0.3430
  420TMC3    O1 6328   4.284   3.605  13.400 -0.5899 -0.5119 -0.2340
  420TMC3    O2 6329   4.010   3.852  12.955 -0.5144 -0.5253  0.0040
  421TMC3    C1 6330   1.115   0.277  13.783 -0.9022 -0.5183  0.2590
  421TMC3    C2 6331   1.168   0.383  13.853  0.2653  0.2719  0.0163
  421TMC3    C3 6332   1.292   0.375  13.911  0.3362 -0.1755  0.4770
  421TMC3    C4 6333   1.189   0.166  13.761  0.8392  0.2290  0.2294
  421TMC3    C5 6334   1.324   0.173  13.798  0.3401  0.0334 -0.5595
  421TMC3    C6 6335   1.374   0.269  13.878  0.3252  0.3356 -0.4198
  421TMC3     C 6336   0.991   0.300  13.714 -0.0244 -0.1311 -0.6648
  421TMC3     O 6337   0.933   0.404  13.736  0.4320  0.4893 -0.0397
  421TMC3     H 6338   1.107   0.472  13.863 -0.8406 -0.3847 -0.9821
  421TMC3    H1 6339   1.157   0.080  13.703  2.6841 -1.1219  1.2225
  421TMC3    H2 6340   1.478   0.281  13.904  0.3273  1.3694 -0.9342
  421TMC3    C7 6341   1.408   0.061  13.787  0.2175  0.3072 -0.4404
  421TMC3    C8 6342   1.360   0.491  13.976  0.0374  0.0907 -0.8614
  421TMC3    O1 6343   1.497   0.064  13.868  0.6090  0.7210 -0.3970
  421TMC3    O2 6344   1.328   0.601  13.944 -0.6108  0.1467  0.7509
  422TMC3    C1 6345   3.344   1.860  12.520 -0.2287  0.4020 -0.7781
  422TMC3    C2 6346   3.364   1.933  12.636 -0.5593 -0.5174 -0.5008
  422TMC3    C3 6347   3.246   1.981  12.700  0.0499  0.1548  0.7043
  422TMC3    C4 6348   3.221   1.816  12.472  0.4148  0.1659 -0.1303
  422TMC3    C5 6349   3.120   1.876  12.540 -0.3015 -0.1023  0.6080
  422TMC3    C6 6350   3.121   1.961  12.646 -0.2372 -0.2843  0.4401
  422TMC3     C 6351   3.462   1.832  12.437 -0.5258  0.5611  0.0441
  422TMC3     O 6352   3.461   1.863  12.318  0.4108  0.1738  0.0603
  422TMC3     H 6353   3.463   1.960  12.672  0.6218 -2.2934 -2.4493
  422TMC3    H1 6354   3.219   1.752  12.385 -0.9793  1.9879 -1.4468
  422TMC3    H2 6355   3.033   2.016  12.677  1.9881  3.3439  0.4180
  422TMC3    C7 6356   2.996   1.812  12.506 -0.7451  0.5158 -0.0783
  422TMC3    C8 6357   3.276   2.062  12.806 -0.4175  0.1373  0.3151
  422TMC3    O1 6358   2.987   1.738  12.407  0.5298 -0.6641 -0.1361
  422TMC3    O2 6359   3.391   2.102  12.831 -0.3947 -0.1511 -0.1738
  423MPD2     C 6360   4.467   2.397   0.501  0.0914 -0.3623  0.5246
  423MPD2    C1 6361   4.534   2.283   0.543 -0.1768  0.3615 -0.7112
  423MPD2    C2 6362   4.601   2.209   0.447  0.3539  0.1869  0.3329
  423MPD2    C3 6363   4.602   2.248   0.309 -0.3254  0.8981 -0.6772
  423MPD2    C4 6364   4.540   2.368   0.277 -0.7624  0.7140 -0.1527
  423MPD2    C5 6365   4.466   2.431   0.372 -0.0263 -0.3157 -0.7337
  423MPD2     H 6366   4.632   2.109   0.476  1.1176 -0.1179 -1.4975
  423MPD2    H1 6367   4.532   2.404   0.175  1.1805 -0.9960 -0.9002
  423MPD2    H2 6368   4.406   2.452   0.572  1.4808  2.3056 -0.3483
  423MPD2    H3 6369   4.419   2.522   0.337  2.4816  1.6833  1.1460
  423MPD2     N 6370   4.657   2.175   0.198 -0.3987 -0.0050 -0.4558
  423MPD2    H5 6371   4.641   2.208   0.104 -0.8356 -0.8238 -0.6729
  423MPD2    N1 6372   4.530   2.242   0.678 -0.0171  0.2941 -0.6215
  423MPD2    H7 6373   4.563   2.147   0.692 -0.3241  0.5515  1.8826
  424TMC3    C1 6374   4.554   2.256   0.918  0.0493 -0.1063  0.4105
  424TMC3    C2 6375   4.669   2.181   0.904 -0.0111  0.3537 -0.0101
  424TMC3    C3 6376   0.024   2.171   1.008  0.3086 -0.8926 -0.8119
  424TMC3    C4 6377   4.538   2.338   1.027  0.8371  0.2080  0.5954
  424TMC3    C5 6378   4.618   2.314   1.135  0.2036  0.5143  0.1202
  424TMC3    C6 6379   4.735   2.235   1.127  0.3878  0.5722 -1.1427
  424TMC3     C 6380   4.504   2.315   0.791 -0.0076 -0.1998 -0.4199
  424TMC3     O 6381   4.447   2.425   0.796  0.5323 -0.2467  0.5988
  424TMC3     H 6382   4.695   2.121   0.817  0.1412  0.2808  0.0849
  424TMC3    H1 6383   4.443   2.390   1.039  1.1039  1.0319 -0.8210
  424TMC3    H2 6384   0.058   2.216   1.215  1.7163  0.9737 -1.9553
  424TMC3    C7 6385   4.597   2.379   1.267  0.4886  0.1403 -0.0620
  424TMC3    C8 6386   0.138   2.081   0.985  0.6850 -0.6583  0.7253
  424TMC3    O1 6387   4.687   2.379   1.353  0.3363 -0.2626  0.8696
  424TMC3    O2 6388   0.129   1.991   0.905  0.2897  0.0080 -0.1664
  425MPD2     C 6389   3.914   1.787  17.063  0.1906 -0.3083  0.0329
  425MPD2    C1 6390   3.853   1.667  17.102  0.0309  0.0137 -0.3859
  425MPD2    C2 6391   3.716   1.664  17.142  0.5634  0.0502 -0.1687
  425MPD2    C3 6392   3.640   1.780  17.163 -0.6928  0.3873 -0.1282
  425MPD2    C4 6393   3.703   1.903  17.121 -0.8495  0.1265 -0.2022
  425MPD2    C5 6394   3.834   1.895  17.074 -0.3999 -0.0620  1.0350
  425MPD2     H 6395   3.669   1.569  17.161  1.3041 -0.5917 -1.5636
  425MPD2    H1 6396   3.653   1.999  17.111 -0.3461  0.2941 -1.1620
  425MPD2    H2 6397   4.015   1.797  17.026  1.0968  0.2423  2.7066
  425MPD2    H3 6398   3.870   1.985  17.026 -0.9508  1.3223  3.2118
  425MPD2     N 6399   3.509   1.764  17.204 -0.0298  0.5946  0.2735
  425MPD2    H5 6400   3.481   1.668  17.218 -2.0778  1.2160  0.3960
  425MPD2    N1 6401   3.928   1.544  17.101  0.3916 -0.0178  0.1186
  425MPD2    H7 6402   4.019   1.539  17.057 -1.1284 -1.8114 -2.7947
  426TMC3    C1 6403   3.936   1.306  17.125 -0.5112  0.0180 -0.5339
  426TMC3    C2 6404   3.915   1.292  16.992 -0.7686  0.4853  0.1543
  426TMC3    C3 6405   3.824   1.199  16.954 -0.3383 -0.0570  0.3676
  426TMC3    C4 6406   3.891   1.213  17.207  0.0496  0.2761 -0.4917
  426TMC3    C5 6407   3.805   1.119  17.171 -0.1908  0.0707 -0.8754
  426TMC3    C6 6408   3.775   1.107  17.040 -0.2067 -0.6722 -0.2302
  426TMC3     C 6409   3.885   1.428  17.176  0.4070 -0.0126 -0.5198
  426TMC3     O 6410   3.806   1.428  17.272 -0.2798  0.6209 -0.0025
  426TMC3     H 6411   3.942   1.365  16.916  4.2748 -0.8861  0.6461
  426TMC3    H1 6412   3.928   1.206  17.308  3.9393  1.6619 -1.8447
  426TMC3    H2 6413   3.695   1.042  17.006 -0.1153 -1.1890  0.5514
  426TMC3    C7 6414   3.708   1.080  17.268 -0.1556 -0.8500 -0.3417
  426TMC3    C8 6415   3.846   1.170  16.808  0.2400  0.4410  0.5818
  426TMC3    O1 6416   3.625   0.998  17.227 -0.6342 -0.4225  0.2911
  426TMC3    O2 6417   3.955   1.178  16.761  0.1051 -0.3726  0.2455
  427MPD2     C 6418   2.586   3.905  14.882 -0.2876 -0.4486  0.5826
  427MPD2    C1 6419   2.515   3.886  15.003 -0.2896 -1.2322  0.1804
  427MPD2    C2 6420   2.375   3.858  14.999 -0.6825 -0.0256 -0.6110
  427MPD2    C3 6421   2.304   3.856  14.873  0.0249  0.1456  0.0411
  427MPD2    C4 6422   2.379   3.886  14.766  0.2762  0.0384  0.6195
  427MPD2    C5 6423   2.509   3.912  14.769 -0.6615  0.6184  0.0951
  427MPD2     H 6424   2.323   3.840  15.092 -0.1669  1.8360  0.0364
  427MPD2    H1 6425   2.334   3.887  14.667 -1.7205  0.8473  1.5364
  427MPD2    H2 6426   2.690   3.933  14.870 -1.2464  3.7457  1.7262
  427MPD2    H3 6427   2.561   3.933  14.677 -1.7061  1.1934 -0.3579
  427MPD2     N 6428   2.168   3.826  14.858  0.4553 -0.0087  0.0366
  427MPD2    H5 6429   2.121   3.857  14.773  0.1012 -1.8114 -0.4426
  427MPD2    N1 6430   2.574   3.877  15.131  1.0407 -0.3377 -0.6134
  427MPD2    H7 6431   2.507   3.858  15.205 -0.2456  2.0417 -1.1620
  428TMC3    C1 6432   2.730   3.831  15.297  0.1704 -0.1293  0.2110
  428TMC3    C2 6433   2.629   3.790  15.382 -0.7430 -0.8155 -0.0502
  428TMC3    C3 6434   2.666   3.731  15.498 -0.1970  0.5623  0.3454
  428TMC3    C4 6435   2.863   3.824  15.335 -0.3387  1.2029 -0.2653
  428TMC3    C5 6436   2.895   3.765  15.447  0.2640  0.0916 -0.6185
  428TMC3    C6 6437   2.797   3.705  15.527  0.5390 -0.1878 -0.0364
  428TMC3     C 6438   2.709   3.873  15.159  0.7673 -0.0674 -0.4682
  428TMC3     O 6439   2.810   3.894  15.090  0.2666 -0.2351  0.9864
  428TMC3     H 6440   2.523   3.811  15.374 -0.2168  1.7590 -0.4254
  428TMC3    H1 6441   2.939   3.874  15.277  1.7274 -0.3072  1.1152
  428TMC3    H2 6442   2.820   3.655  15.620 -1.7600  1.6093  1.5139
  428TMC3    C7 6443   3.028   3.768  15.493 -0.1104  0.1112  0.7366
  428TMC3    C8 6444   2.562   3.677  15.584 -0.0671  0.3255 -0.1553
  428TMC3    O1 6445   3.043   3.750  15.614  0.4691  0.2507 -0.6959
  428TMC3    O2 6446   2.449   3.723  15.591 -0.7280  0.2421 -0.4603
  429MPD2     C 6447   3.227   3.489   0.273 -0.2849 -0.0202 -0.1201
  429MPD2    C1 6448   3.310   3.450   0.166  0.1952 -0.1944  0.5196
  429MPD2    C2 6449   3.381   3.552   0.102 -0.0261 -0.1767 -0.3891
  429MPD2    C3 6450   3.375   3.684   0.134  0.9461  0.5531 -0.0864
  429MPD2    C4 6451   3.281   3.722   0.224  0.3980 -0.3641 -0.5123
  429MPD2    C5 6452   3.209   3.626   0.291  0.2899  0.0359 -0.1793
  429MPD2     H 6453   3.458   3.529   0.030  0.0127 -1.6852  0.1259
  429MPD2    H1 6454   3.263   3.826   0.245  0.2439 -0.6750  0.8676
  429MPD2    H2 6455   3.166   3.424   0.335 -2.9243  0.8231 -1.8298
  429MPD2    H3 6456   3.125   3.657   0.351  0.7157 -1.5869  1.2570
  429MPD2     N 6457   3.454   3.773   0.056 -0.6774  0.2502  0.0831
  429MPD2    H5 6458   3.519   3.725  17.743  1.3247  1.7747  1.0210
  429MPD2    N1 6459   3.341   3.317   0.136 -0.4254  0.2395  0.0302
  429MPD2    H7 6460   3.405   3.306   0.057 -2.2141  1.3646 -1.5542
  430TMC3    C1 6461   3.525   3.955  17.699 -0.4696  0.2892  0.6301
  430TMC3    C2 6462   3.494   4.085  17.673  0.0727  0.1058 -0.1588
  430TMC3    C3 6463   3.549   4.129  17.555 -0.4029 -0.0202  0.0858
  430TMC3    C4 6464   3.615   3.873  17.617  0.1972 -0.5019  0.0852
  430TMC3    C5 6465   3.667   3.934  17.509 -0.3977  0.7276 -0.9156
  430TMC3    C6 6466   3.628   4.059  17.472  0.1206  0.1901  0.2844
  430TMC3     C 6467   3.445   3.907   0.062 -0.1133 -0.1355 -0.7284
  430TMC3     O 6468   3.373   3.988   0.121 -0.5358 -0.1905  0.6246
  430TMC3     H 6469   3.418   4.142  17.725 -0.4269  0.4062 -1.2003
  430TMC3    H1 6470   3.636   3.773  17.653 -2.2816 -0.7863  0.7476
  430TMC3    H2 6471   3.683   4.093  17.385 -3.3382  0.9070 -1.6235
  430TMC3    C7 6472   3.737   3.856  17.411 -0.0939 -0.2236 -0.6232
  430TMC3    C8 6473   3.492   4.247  17.484 -0.3969  0.5060  0.4653
  430TMC3    O1 6474   3.707   3.734  17.409  0.7904 -0.2229 -0.6493
  430TMC3    O2 6475   3.474   4.346  17.554 -0.7320 -0.1512  0.4541
  431MPD2     C 6476   4.130   3.599  12.578 -0.8533 -0.9236 -0.4706
  431MPD2    C1 6477   4.216   3.627  12.472  0.8648  0.3728 -0.2104
  431MPD2    C2 6478   4.220   3.552  12.352 -0.1360 -0.4765  0.7164
  431MPD2    C3 6479   4.140   3.447  12.339  0.5508 -0.4382  0.6931
  431MPD2    C4 6480   4.051   3.418  12.446  0.3011  0.8431  0.1218
  431MPD2    C5 6481   4.046   3.495  12.559 -0.0914 -0.0358  0.2959
  431MPD2     H 6482   4.279   3.581  12.266 -1.4185  1.8506  0.6055
  431MPD2    H1 6483   3.982   3.335  12.444  0.7706  0.4910 -1.4670
  431MPD2    H2 6484   4.127   3.675  12.655  0.3356 -0.5492 -0.7900
  431MPD2    H3 6485   3.975   3.473  12.638 -1.3168 -0.2508 -0.8693
  431MPD2     N 6486   4.152   3.344  12.240 -0.2802  0.1878 -0.0664
  431MPD2    H5 6487   4.116   3.253  12.268  0.8654 -0.5195 -0.9147
  431MPD2    N1 6488   4.304   3.746  12.475 -0.0499  0.2215 -0.5604
  431MPD2    H7 6489   4.350   3.771  12.388  3.1513  1.8815  1.6193
  432TMC3    C1 6490   4.299   3.253  12.090 -0.4078  0.2560 -0.2034
  432TMC3    C2 6491   4.354   3.260  11.958 -0.1446 -0.1225  0.0140
  432TMC3    C3 6492   4.493   3.229  11.956  0.5003  0.8910 -0.4806
  432TMC3    C4 6493   4.376   3.218  12.199  0.2792  0.1699  0.2155
  432TMC3    C5 6494   4.510   3.206  12.186 -0.2988  0.0811 -0.1981
  432TMC3    C6 6495   4.577   3.207  12.063 -0.1807  0.3044  0.1413
  432TMC3     C 6496   4.216   3.359  12.118  0.0849  0.0473 -0.5425
  432TMC3     O 6497   4.249   3.464  12.061 -0.2422  0.5127 -0.3176
  432TMC3     H 6498   4.304   3.300  11.871 -0.5711 -0.5066  0.0791
  432TMC3    H1 6499   4.332   3.200  12.296 -1.1894 -1.4601 -0.7461
  432TMC3    H2 6500   4.678   3.172  12.048  0.4637  2.2302  0.0529
  432TMC3    C7 6501   4.598   3.219  12.302  0.7067 -0.4317 -0.9330
  432TMC3    C8 6502   4.558   3.267  11.837 -0.1758 -0.1487 -0.5493
  432TMC3    O1 6503   4.716   3.187  12.292  0.3136  0.4038 -0.6363
  432TMC3    O2 6504   4.492   3.273  11.729 -0.1041 -0.1428  0.2296
  433MPD2     C 6505   2.822   2.101  10.751 -0.2233 -0.2721 -0.3405
  433MPD2    C1 6506   2.960   2.095  10.761  0.1193 -0.3467  1.0513
  433MPD2    C2 6507   3.022   2.180  10.850  1.4900 -0.2848 -0.3926
  433MPD2    C3 6508   2.949   2.256  10.945  0.1761  0.3629  0.5076
  433MPD2    C4 6509   2.809   2.252  10.933 -0.1467 -0.3965  0.6243
  433MPD2    C5 6510   2.748   2.178  10.834  0.0351  0.1756  0.0652
  433MPD2     H 6511   3.130   2.184  10.858  1.5157 -0.7199 -0.5633
  433MPD2    H1 6512   2.750   2.303  11.008  0.4431  1.9011 -0.4589
  433MPD2    H2 6513   2.777   2.053  10.665  0.6577 -1.0105 -0.3906
  433MPD2    H3 6514   2.641   2.180  10.815 -0.0582  0.1373  0.5849
  433MPD2     N 6515   3.009   2.318  11.054  0.0514  0.5741 -0.5048
  433MPD2    H5 6516   3.110   2.314  11.066 -0.2838 -0.7989  2.0494
  433MPD2    N1 6517   3.039   2.010  10.675 -0.2493  0.2471 -0.1985
  433MPD2    H7 6518   2.988   1.934  10.631 -2.6752  1.4268  0.5452
  434TMC3    C1 6519   3.233   1.883  10.631 -0.6159 -0.6114  0.6245
  434TMC3    C2 6520   3.354   1.840  10.681 -0.4730 -0.2406  0.2194
  434TMC3    C3 6521   3.382   1.707  10.676 -0.2670  0.0435  0.3279
  434TMC3    C4 6522   3.157   1.800  10.563  0.6092  0.1460  0.4376
  434TMC3    C5 6523   3.189   1.670  10.541  0.3469 -0.1643  0.0148
  434TMC3    C6 6524   3.309   1.616  10.593  0.9490  0.0642 -0.6115
  434TMC3     C 6525   3.177   1.996  10.686 -0.4462 -0.4674 -0.5772
  434TMC3     O 6526   3.264   2.063  10.742  0.0401  0.0895  0.1397
  434TMC3     H 6527   3.436   1.905  10.710 -1.8378  0.5921  2.2150
  434TMC3    H1 6528   3.080   1.849  10.503  0.7580 -0.7541 -0.4741
  434TMC3    H2 6529   3.336   1.513  10.575 -2.6005 -1.2217  1.3614
  434TMC3    C7 6530   3.098   1.601  10.452 -0.3529 -0.3032  0.1308
  434TMC3    C8 6531   3.470   1.659  10.782  0.1198  0.4509  0.1518
  434TMC3    O1 6532   3.019   1.674  10.393  0.1199  0.0814 -0.5516
  434TMC3    O2 6533   3.512   1.747  10.852  0.2193  0.2930  0.1268
  435MPD2     C 6534   0.779   2.699  15.352 -0.8300 -0.4340  0.0525
  435MPD2    C1 6535   0.730   2.648  15.474  0.1944 -0.2023 -0.6226
  435MPD2    C2 6536   0.816   2.572  15.550  0.2214 -0.9507 -0.6657
  435MPD2    C3 6537   0.948   2.536  15.520 -0.2323  0.9744  0.2251
  435MPD2    C4 6538   0.991   2.579  15.394 -0.3271  0.0054 -0.5820
  435MPD2    C5 6539   0.899   2.654  15.319  0.3061 -0.3679  0.0791
  435MPD2     H 6540   0.789   2.520  15.641  1.7430 -1.0903 -0.2988
  435MPD2    H1 6541   1.088   2.556  15.353  0.0287  0.2242  0.1309
  435MPD2    H2 6542   0.723   2.766  15.289  0.8913 -0.7020 -1.7349
  435MPD2    H3 6543   0.934   2.692  15.224 -2.1721  2.3610  0.2307
  435MPD2     N 6544   1.023   2.465  15.605  0.2187  0.3371 -0.5757
  435MPD2    H5 6545   0.991   2.470  15.701  0.0098 -1.8369 -0.5356
  435MPD2    N1 6546   0.600   2.676  15.527 -0.3554 -0.3831 -0.2095
  435MPD2    H7 6547   0.567   2.644  15.618 -0.1647  0.0914  0.0321
  436TMC3    C1 6548   0.281   2.810  15.739  0.0608 -0.2763  0.5498
  436TMC3    C2 6549   0.389   2.756  15.679  0.1049  0.0846 -0.4367
  436TMC3    C3 6550   0.384   2.754  15.543  0.2233 -0.3242 -0.2546
  436TMC3    C4 6551   0.176   2.860  15.671 -0.0623 -0.2394  0.0731
  436TMC3    C5 6552   0.175   2.855  15.533  0.5614  1.0828 -0.3321
  436TMC3    C6 6553   0.276   2.792  15.468  0.2140  1.1592  0.2242
  436TMC3     C 6554   0.292   2.828  15.881 -0.2615  0.3732 -0.0798
  436TMC3     O 6555   0.406   2.825  15.930  1.1481  0.0066  0.5775
  436TMC3     H 6556   0.470   2.722  15.742 -0.3494 -1.3917 -0.6604
  436TMC3    H1 6557   0.081   2.891  15.713  0.4065  3.8505 -1.8867
  436TMC3    H2 6558   0.279   2.799  15.360  1.2577 -1.9192  0.0619
  436TMC3    C7 6559   0.074   2.918  15.449 -0.6055  0.4839 -0.1362
  436TMC3    C8 6560   0.508   2.756  15.467  0.1374 -0.3496  0.5743
  436TMC3    O1 6561   0.059   2.890  15.333 -0.0690 -0.2383  0.5822
  436TMC3    O2 6562   0.517   2.813  15.360 -0.1598 -0.1074 -0.4182
  437TMC3    C1 6563   3.877   4.391  12.074 -0.2756 -0.7233 -0.6964
  437TMC3    C2 6564   3.853   4.366  11.940  0.5368  0.1575 -0.1681
  437TMC3    C3 6565   3.924   4.420  11.847 -0.3973  0.3252  0.1213
  437TMC3    C4 6566   3.995   4.449  12.114 -0.1766 -0.6762  0.0026
  437TMC3    C5 6567   4.066   4.508  12.014  0.1347  0.1372 -0.3499
  437TMC3    C6 6568   4.030   4.504  11.881 -0.4648 -0.1995  0.1078
  437TMC3     C 6569   3.822   4.280  12.155 -0.9988 -0.3643 -0.1399
  437TMC3     O 6570   3.702   4.249  12.135 -0.1489  0.2799 -0.0904
  437TMC3     H 6571   3.770   4.300  11.919  0.4881  0.8776 -2.2262
  437TMC3    H1 6572   4.015   4.456  12.220 -0.6393  1.2350 -0.0309
  437TMC3    H2 6573   4.097   4.541  11.805 -1.5026  2.0609  0.2944
  437TMC3    C7 6574   4.180   4.595  12.036  0.6105 -0.0127  0.2878
  437TMC3    C8 6575   3.883   4.384  11.706  0.3074 -1.0707  0.0743
  437TMC3    O1 6576   4.230   4.659  11.942 -0.1824  0.0872 -0.0836
  437TMC3    O2 6577   3.795   4.296  11.696 -0.1936 -0.0122 -0.1635
  438MPD2     C 6578   1.634   0.381  16.574 -0.2052 -0.2988 -0.0488
  438MPD2    C1 6579   1.703   0.283  16.647 -0.8785 -0.0780  0.1004
  438MPD2    C2 6580   1.713   0.305  16.787 -1.1584 -0.7087  0.1443
  438MPD2    C3 6581   1.657   0.419  16.847 -0.3989  0.1495 -0.1472
  438MPD2    C4 6582   1.572   0.500  16.774  0.7407  0.0604 -0.2517
  438MPD2    C5 6583   1.563   0.477  16.640  0.3609  0.5200 -0.3024
  438MPD2     H 6584   1.755   0.220  16.839 -0.1091  0.5377  1.3415
  438MPD2    H1 6585   1.522   0.587  16.815  0.6308 -0.4615  0.6978
  438MPD2    H2 6586   1.628   0.383  16.466 -2.5742 -1.0685  0.0724
  438MPD2    H3 6587   1.502   0.545  16.582 -1.6940 -0.5205  0.6708
  438MPD2     N 6588   1.660   0.445  16.986 -0.5818  0.3513 -0.2028
  438MPD2    H5 6589   1.609   0.529  17.014  0.7255  1.9033 -2.4348
  438MPD2    N1 6590   1.755   0.164  16.584 -0.0574 -0.2362  0.2557
  438MPD2    H7 6591   1.801   0.093  16.641 -1.3473  0.1595  1.7700
  439TMC3    C1 6592   1.827   0.019  16.425  0.0913  0.6163  0.0991
  439TMC3    C2 6593   1.754   4.649  16.387  0.8734  0.5641 -0.4044
  439TMC3    C3 6594   1.788   4.527  16.441  0.6065 -0.0537  0.4770
  439TMC3    C4 6595   1.936   0.007  16.508  0.1086 -0.0730 -0.0021
  439TMC3    C5 6596   1.974   4.622  16.550  0.2486 -0.0710  0.0621
  439TMC3    C6 6597   1.893   4.514  16.534 -0.4488  0.7879 -0.3139
  439TMC3     C 6598   1.757   0.135  16.451 -0.5281  0.7217 -0.0655
  439TMC3     O 6599   1.683   0.166  16.358 -0.1771  0.2036  0.0036
  439TMC3     H 6600   1.671   4.655  16.318 -1.2675 -1.1860  2.0177
  439TMC3    H1 6601   1.989   0.097  16.534  0.1643 -0.6152  1.7430
  439TMC3    H2 6602   1.917   4.422  16.585  0.2574  0.9820 -0.2906
  439TMC3    C7 6603   2.094   4.608  16.634 -0.8844 -0.7329 -0.9085
  439TMC3    C8 6604   1.766   4.404  16.369  0.3714  0.0568 -0.1220
  439TMC3    O1 6605   2.149   4.716  16.662  0.4998  0.0081 -0.0997
  439TMC3    O2 6606   1.822   4.311  16.422  0.5731  0.5746  0.2438
  440MPD2     C 6607   0.392   0.826  15.066  0.0455 -0.2160  0.2387
  440MPD2    C1 6608   0.503   0.902  15.079  0.3616 -0.3650  1.2981
  440MPD2    C2 6609   0.630   0.842  15.079 -0.2118  0.3016  0.0778
  440MPD2    C3 6610   0.641   0.708  15.056 -0.4256  0.2225 -0.4413
  440MPD2    C4 6611   0.530   0.639  15.032 -0.6691 -0.5067  0.4694
  440MPD2    C5 6612   0.407   0.696  15.041 -0.0325  0.3322 -0.1230
  440MPD2     H 6613   0.714   0.909  15.093  0.3306 -0.7441  1.8284
  440MPD2    H1 6614   0.523   0.536  14.998 -2.3188 -0.0877 -0.4648
  440MPD2    H2 6615   0.292   0.869  15.067  0.0290 -0.2809  1.0000
  440MPD2    H3 6616   0.322   0.630  15.034  0.3569 -0.2693  0.7442
  440MPD2     N 6617   0.768   0.647  15.054 -0.0489  0.5139  0.0392
  440MPD2    H5 6618   0.770   0.546  15.044  0.2754  0.4187  1.1266
  440MPD2    N1 6619   0.501   1.040  15.098  0.0160  0.7281 -0.0546
  440MPD2    H7 6620   0.587   1.082  15.132  0.4625  0.1655 -0.5038
  441TMC3    C1 6621   1.005   0.628  15.066  0.3252  0.0051  0.0883
  441TMC3    C2 6622   1.109   0.712  15.088  0.5815 -0.0298 -0.7895
  441TMC3    C3 6623   1.183   0.697  15.203 -0.0695  0.8895  0.2630
  441TMC3    C4 6624   0.990   0.509  15.134  0.5451  0.5760  0.2173
  441TMC3    C5 6625   1.068   0.493  15.244 -0.5911 -0.2901  0.3326
  441TMC3    C6 6626   1.164   0.582  15.282  0.1911 -0.2853 -0.1900
  441TMC3     C 6627   0.887   0.711  15.067  0.5202  0.1510 -1.0257
  441TMC3     O 6628   0.913   0.833  15.076  0.3618 -0.0253 -0.1319
  441TMC3     H 6629   1.130   0.792  15.017 -0.1235 -0.1268 -1.1130
  441TMC3    H1 6630   0.907   0.444  15.111  2.1141 -0.3605 -2.8355
  441TMC3    H2 6631   1.230   0.578  15.368 -2.1365 -1.1309  1.5616
  441TMC3    C7 6632   1.008   0.409  15.348 -0.1672  0.6657 -0.0379
  441TMC3    C8 6633   1.214   0.822  15.265  0.5142 -0.2480 -0.4955
  441TMC3    O1 6634   0.890   0.379  15.324  0.2892  0.5053 -0.3746
  441TMC3    O2 6635   1.277   0.814  15.369  0.3214 -0.7453 -0.5369
  442MPD2     C 6636   3.263   1.727  16.115  0.6489 -1.1314  0.3924
  442MPD2    C1 6637   3.155   1.651  16.149 -0.5619  0.3805  0.5572
  442MPD2    C2 6638   3.170   1.514  16.182  0.0002 -0.2123  0.8650
  442MPD2    C3 6639   3.298   1.460  16.164 -0.0698  0.1420  0.0486
  442MPD2    C4 6640   3.394   1.533  16.111 -0.4004 -0.0946 -0.8655
  442MPD2    C5 6641   3.380   1.666  16.085  0.4689  0.6731 -0.6508
  442MPD2     H 6642   3.090   1.456  16.226  1.6975 -2.1014  1.4733
  442MPD2    H1 6643   3.495   1.496  16.098 -0.3262 -0.5805  1.0803
  442MPD2    H2 6644   3.257   1.834  16.103 -2.0565 -1.4628 -1.2012
  442MPD2    H3 6645   3.464   1.722  16.046  1.5859 -0.2067  0.4874
  442MPD2     N 6646   3.324   1.323  16.179  0.3613 -0.9365 -0.0264
  442MPD2    H5 6647   3.418   1.304  16.147 -0.6973 -1.8496 -2.6128
  442MPD2    N1 6648   3.035   1.712  16.197 -0.6991  0.6820  0.0280
  442MPD2    H7 6649   2.980   1.654  16.259  0.5794 -2.3770 -1.7162
  443TMC3    C1 6650   2.859   1.874  16.241 -0.1066 -0.0236  0.5850
  443TMC3    C2 6651   2.765   1.926  16.162  0.5788 -0.8567 -0.4614
  443TMC3    C3 6652   2.633   1.916  16.202 -0.1554 -0.6259  0.4471
  443TMC3    C4 6653   2.821   1.802  16.352  0.2656 -1.3239 -0.1359
  443TMC3    C5 6654   2.697   1.820  16.400 -0.9023  0.5910  0.2727
  443TMC3    C6 6655   2.599   1.872  16.325  0.2040 -0.3550 -0.3810
  443TMC3     C 6656   2.990   1.840  16.184  0.5216  0.5536  0.8287
  443TMC3     O 6657   3.037   1.928  16.116  0.5457 -0.1690  0.1820
  443TMC3     H 6658   2.787   1.978  16.069 -1.5508  2.0643  0.6474
  443TMC3    H1 6659   2.887   1.763  16.429  0.0429  1.3585  1.3864
  443TMC3    H2 6660   2.498   1.873  16.365  0.3336 -0.0412 -0.0661
  443TMC3    C7 6661   2.678   1.816  16.546  0.1825  0.4466  0.0433
  443TMC3    C8 6662   2.536   1.991  16.125  0.4845  0.0199  0.4186
  443TMC3    O1 6663   2.734   1.716  16.591 -0.0275  0.1238 -0.1360
  443TMC3    O2 6664   2.466   2.061  16.196 -0.0399 -0.3042  0.2601
  444MPD2     C 6665   3.812   0.782  16.812  0.3164 -0.0427  0.0354
  444MPD2    C1 6666   3.749   0.673  16.758 -0.5021  0.1098 -0.3015
  444MPD2    C2 6667   3.830   0.575  16.706  0.1619  0.4888 -0.5576
  444MPD2    C3 6668   3.969   0.585  16.692 -0.1945 -0.0722  0.7976
  444MPD2    C4 6669   4.027   0.702  16.738  0.4639 -0.2138 -0.3075
  444MPD2    C5 6670   3.949   0.804  16.797  0.1057  0.0168 -0.2672
  444MPD2     H 6671   3.784   0.489  16.658  0.9249 -1.2891  1.8908
  444MPD2    H1 6672   4.132   0.708  16.764  0.6180  0.4047 -1.0982
  444MPD2    H2 6673   3.751   0.866  16.845  0.6928  0.7145 -1.1763
  444MPD2    H3 6674   4.007   0.886  16.838 -0.4337  0.4985 -0.4754
  444MPD2     N 6675   4.048   0.474  16.648  0.3935 -0.8410 -0.2350
  444MPD2    H5 6676   3.999   0.396  16.604 -0.2700 -1.3514  1.3933
  444MPD2    N1 6677   3.610   0.657  16.757 -0.0289  0.0744  0.4389
  444MPD2    H7 6678   3.566   0.589  16.695  1.8198 -0.1539 -0.6109
  445TMC3    C1 6679   4.244   0.338  16.622 -0.5483  0.4327  0.0867
  445TMC3    C2 6680   4.167   0.224  16.614 -0.1220  0.5095 -0.0366
  445TMC3    C3 6681   4.234   0.106  16.578 -0.5976  0.5471  0.8140
  445TMC3    C4 6682   4.377   0.334  16.589 -0.4401  0.0443 -0.1711
  445TMC3    C5 6683   4.440   0.217  16.571  0.3423 -0.4017  0.5322
  445TMC3    C6 6684   4.370   0.097  16.570 -0.2620  0.3658 -0.0748
  445TMC3     C 6685   4.186   0.468  16.664 -0.1879 -0.0957  0.3318
  445TMC3     O 6686   4.269   0.560  16.678 -0.0059  0.0559 -0.0608
  445TMC3     H 6687   4.065   0.222  16.649  0.3346 -1.7388  1.1183
  445TMC3    H1 6688   4.440   0.422  16.593 -0.2804 -0.0407 -0.7899
  445TMC3    H2 6689   4.424   0.004  16.559  0.2751  0.9415 -2.3567
  445TMC3    C7 6690   4.578   0.218  16.526  0.5453 -0.3299  1.0939
  445TMC3    C8 6691   4.162   4.719  16.565  0.8493  0.2141 -0.9651
  445TMC3    O1 6692   4.620   0.315  16.467  0.4716  0.2472  0.1938
  445TMC3    O2 6693   4.230   4.617  16.549 -0.1467 -0.0428 -0.4385
  446MPD2     C 6694   3.116   1.699  11.511 -0.2966 -0.3868  0.3229
  446MPD2    C1 6695   3.067   1.721  11.385 -0.9325  0.3298 -0.2452
  446MPD2    C2 6696   3.151   1.787  11.295  0.7818 -0.0708  0.4752
  446MPD2    C3 6697   3.280   1.820  11.333  0.3881 -0.4097  0.1334
  446MPD2    C4 6698   3.324   1.809  11.465  0.2484 -0.6275 -0.1849
  446MPD2    C5 6699   3.241   1.742  11.548  0.8482 -0.0316 -0.0895
  446MPD2     H 6700   3.116   1.806  11.194  0.7382 -2.3594  0.0809
  446MPD2    H1 6701   3.425   1.826  11.501  0.2099  0.5861 -0.6152
  446MPD2    H2 6702   3.045   1.667  11.586 -0.5537 -0.4099  0.0712
  446MPD2    H3 6703   3.265   1.723  11.653  0.7910 -2.3817 -0.4984
  446MPD2     N 6704   3.365   1.868  11.229  0.4895  0.0198 -0.4051
  446MPD2    H5 6705   3.329   1.906  11.142 -1.6650 -0.0636  0.4407
  446MPD2    N1 6706   2.943   1.674  11.341 -0.3226 -0.3185 -0.4788
  446MPD2    H7 6707   2.920   1.705  11.247 -0.7186 -1.3810 -0.7379
  447TMC3    C1 6708   3.565   1.938  11.124  0.5881  0.6090 -0.3061
  447TMC3    C2 6709   3.499   2.031  11.045  0.3118 -0.1536 -0.1267
  447TMC3    C3 6710   3.570   2.078  10.941  0.0520 -0.1044  0.0906
  447TMC3    C4 6711   3.684   1.889  11.093  1.0289 -0.1248 -0.4337
  447TMC3    C5 6712   3.752   1.958  10.996  0.2678  0.1148  0.7492
  447TMC3    C6 6713   3.700   2.047  10.916 -0.0004 -0.8198  0.6472
  447TMC3     C 6714   3.506   1.875  11.235  0.2316 -0.2642  0.1972
  447TMC3     O 6715   3.577   1.838  11.329 -0.2009  0.0007 -0.2548
  447TMC3     H 6716   3.399   2.067  11.066  0.4424  0.0065  0.2068
  447TMC3    H1 6717   3.735   1.813  11.152  0.8397  2.2843  2.8466
  447TMC3    H2 6718   3.758   2.104  10.844  1.8940 -1.0551  1.9817
  447TMC3    C7 6719   3.884   1.903  10.957  0.2324  0.4929 -0.2534
  447TMC3    C8 6720   3.513   2.189  10.873  0.0711 -0.2039  0.0177
  447TMC3    O1 6721   3.899   1.783  10.968  0.3214 -0.3176 -0.4630
  447TMC3    O2 6722   3.554   2.206  10.759 -0.2869 -0.2344  0.7039
  448TMC3    C1 6723   1.030   1.974  17.177 -0.2531  0.6658  0.0678
  448TMC3    C2 6724   1.075   1.898  17.073 -0.0727  0.0001  0.5494
  448TMC3    C3 6725   1.170   1.802  17.101 -0.5254 -0.1391  0.3703
  448TMC3    C4 6726   1.082   1.959  17.304  0.1155 -0.0949  0.4562
  448TMC3    C5 6727   1.171   1.858  17.329 -0.4946 -0.4831  0.2084
  448TMC3    C6 6728   1.220   1.776  17.228  0.1888  0.0351  1.4460
  448TMC3     C 6729   0.962   2.097  17.131 -0.2149 -0.4645  0.4198
  448TMC3     O 6730   0.966   2.118  17.009  0.1725 -0.1048 -0.5113
  448TMC3     H 6731   1.019   1.898  16.981  4.7177  1.6187 -2.3564
  448TMC3    H1 6732   1.048   2.025  17.384 -1.0793 -1.1898  0.8598
  448TMC3    H2 6733   1.295   1.698  17.234  1.3435  1.1396  1.4791
  448TMC3    C7 6734   1.248   1.878  17.447  0.2163 -0.5311 -0.3201
  448TMC3    C8 6735   1.233   1.729  16.994 -0.1495 -0.0202 -0.5129
  448TMC3    O1 6736   1.254   1.993  17.483 -0.7167  0.1871  0.0814
  448TMC3    O2 6737   1.312   1.643  17.032  0.2112  0.9103  0.3845
  449MPD2     C 6738   3.041   0.579  13.715  0.0225  0.1303 -0.1405
  449MPD2    C1 6739   2.906   0.571  13.697  0.2219 -0.1567  1.0635
  449MPD2    C2 6740   2.842   0.463  13.753 -0.1605  0.5663 -0.2861
  449MPD2    C3 6741   2.905   0.369  13.824 -0.7528  0.5486  0.1469
  449MPD2    C4 6742   3.041   0.372  13.841  0.2619  0.2236 -0.1955
  449MPD2    C5 6743   3.108   0.478  13.781 -0.5791  0.0530  0.2544
  449MPD2     H 6744   2.734   0.460  13.744 -0.2365 -1.2602  1.2909
  449MPD2    H1 6745   3.096   0.304  13.904 -0.0967 -0.2973 -0.4453
  449MPD2    H2 6746   3.103   0.661  13.682  0.0266 -0.2427 -1.0633
  449MPD2    H3 6747   3.216   0.481  13.795 -0.3929  2.7549 -1.8037
  449MPD2     N 6748   2.827   0.267  13.879  0.2880  0.2348  0.3206
  449MPD2    H5 6749   2.731   0.253  13.848  0.4194 -1.0423  0.4959
  449MPD2    N1 6750   2.828   0.657  13.617  0.0345 -0.5026  0.6435
  449MPD2    H7 6751   2.726   0.651  13.621 -0.0267 -1.0067 -1.6622
  450TMC3    C1 6752   2.779   0.807  13.464  0.1905 -0.3399  0.1156
  450TMC3    C2 6753   2.790   0.759  13.337  0.4940 -0.5360  0.9040
  450TMC3    C3 6754   2.683   0.699  13.279  0.2932  0.1400  1.0267
  450TMC3    C4 6755   2.660   0.796  13.528  0.1661 -0.1397 -0.4102
  450TMC3    C5 6756   2.548   0.748  13.464 -0.3532 -0.2132  0.3616
  450TMC3    C6 6757   2.561   0.697  13.341  0.0773 -0.0902 -0.2892
  450TMC3     C 6758   2.886   0.756  13.548  0.7498  0.2196 -0.0053
  450TMC3     O 6759   3.000   0.768  13.511  0.0508 -0.5449  0.1334
  450TMC3     H 6760   2.892   0.747  13.303 -0.1057 -0.1359 -1.0149
  450TMC3    H1 6761   2.651   0.827  13.631  1.3072 -0.0426 -0.3376
  450TMC3    H2 6762   2.474   0.655  13.292  0.7854  0.3951 -1.9754
  450TMC3    C7 6763   2.492   0.643  13.552  1.0489  0.6055  0.3651
  450TMC3    C8 6764   2.699   0.564  13.228 -0.2262 -0.3208 -0.0929
  450TMC3    O1 6765   2.562   0.608  13.643  0.5258  0.4695  0.5180
  450TMC3    O2 6766   2.600   0.489  13.231  0.2849 -0.0219  0.2145
  451MPD2     C 6767   4.697   3.826   0.532  0.0776 -0.2184 -0.1658
  451MPD2    C1 6768   4.585   3.745   0.536 -0.6314  0.5940  0.4734
  451MPD2    C2 6769   4.594   3.611   0.506  0.3703  0.4169  0.3709
  451MPD2    C3 6770   4.716   3.557   0.462  1.2180  0.7226 -0.0794
  451MPD2    C4 6771   0.084   3.638   0.448 -0.3228  0.5180  0.3147
  451MPD2    C5 6772   0.080   3.761   0.505 -0.1656 -0.8429  0.1481
  451MPD2     H 6773   4.501   3.555   0.512  1.9707 -2.3598 -0.7329
  451MPD2    H1 6774   0.178   3.613   0.400 -0.6909  0.5358 -0.4128
  451MPD2    H2 6775   4.690   3.931   0.559  0.3896 -0.2949  0.2001
  451MPD2    H3 6776   0.169   3.822   0.509  0.1798 -1.1411 -2.5664
  451MPD2     N 6777   4.728   3.425   0.412  0.2311 -0.1441  0.3643
  451MPD2    H5 6778   0.074   3.405   0.358  0.4816  1.8947  0.0148
  451MPD2    N1 6779   4.462   3.803   0.566  0.5661  0.2916  0.1604
  451MPD2    H7 6780   4.382   3.741   0.565 -0.3553  1.4980 -0.0713
  452TMC3    C1 6781   4.624   3.238   0.321  0.1172  0.3082 -0.1421
  452TMC3    C2 6782   4.519   3.151   0.334 -0.3322 -0.2959  0.0748
  452TMC3    C3 6783   4.458   3.103   0.220 -0.3281 -0.3663  0.3886
  452TMC3    C4 6784   4.661   3.291   0.201 -0.0025  0.2352  0.2908
  452TMC3    C5 6785   4.593   3.247   0.096  0.1818 -0.6598 -0.4507
  452TMC3    C6 6786   4.503   3.144   0.101 -0.3921 -0.2214 -0.8243
  452TMC3     C 6787   4.634   3.332   0.432  0.0875  0.1407  0.5784
  452TMC3     O 6788   4.546   3.321   0.517  0.2881 -0.0724 -0.0668
  452TMC3     H 6789   4.504   3.109   0.433  3.4908 -0.1261  0.7295
  452TMC3    H1 6790   4.722   3.381   0.195 -1.1728  1.0215  0.2962
  452TMC3    H2 6791   4.443   3.125   0.013  0.4852 -0.6084 -1.3289
  452TMC3    C7 6792   4.612   3.317  17.724 -0.8944 -0.2680  0.2378
  452TMC3    C8 6793   4.374   2.990   0.237  0.3911 -0.3259  0.4266
  452TMC3    O1 6794   4.656   3.429  17.737  0.1824  0.0117  0.0211
  452TMC3    O2 6795   4.338   2.960   0.350 -0.1963 -0.1993 -0.3585
  453TMC3    C1 6796   0.529   0.943  11.981  0.7652  0.2534 -0.7632
  453TMC3    C2 6797   0.460   0.867  12.070 -0.4069 -0.1347 -0.0329
  453TMC3    C3 6798   0.328   0.907  12.095  0.6173 -0.1769  0.5513
  453TMC3    C4 6799   0.482   1.058  11.932 -0.1936 -0.0718  0.5277
  453TMC3    C5 6800   0.348   1.088  11.957  0.0724  0.0441 -0.2884
  453TMC3    C6 6801   0.265   1.012  12.039  0.8707 -0.2738 -0.0747
  453TMC3     C 6802   0.674   0.946  11.988  0.2086 -0.6787  0.1926
  453TMC3     O 6803   0.724   1.059  11.997 -0.3474 -0.4840  0.2768
  453TMC3     H 6804   0.506   0.793  12.134  2.7414  1.0941 -0.8695
  453TMC3    H1 6805   0.544   1.098  11.853 -0.3340 -0.7415  0.0754
  453TMC3    H2 6806   0.157   1.027  12.039  0.7828 -0.9410 -0.3258
  453TMC3    C7 6807   0.275   1.171  11.858 -0.3063  0.6978  0.3112
  453TMC3    C8 6808   0.240   0.808  12.161  0.1896  0.3668  0.0623
  453TMC3    O1 6809   0.165   1.138  11.827 -0.1388 -0.9380  0.7023
  453TMC3    O2 6810   0.141   0.846  12.222  0.2046  0.0920  0.2683
  454MPD2     C 6811   4.642   0.416  16.036  0.3332  0.4705  0.4675
  454MPD2    C1 6812   4.534   0.508  16.033 -1.0318 -0.2681  0.2229
  454MPD2    C2 6813   4.532   0.617  16.126  0.1051 -0.6753  0.4145
  454MPD2    C3 6814   4.615   0.624  16.237 -0.3964  0.0039  1.2036
  454MPD2    C4 6815   4.712   0.530  16.242 -0.4261 -0.7051 -0.3585
  454MPD2    C5 6816   4.721   0.432  16.149 -1.0857  0.4430  0.6942
  454MPD2     H 6817   4.466   0.701  16.110 -1.1961 -1.5143  1.4255
  454MPD2    H1 6818   0.024   0.511  16.337  1.8442  0.4606 -1.3131
  454MPD2    H2 6819   4.648   0.335  15.965  1.0510 -1.1574  2.3766
  454MPD2    H3 6820   0.068   0.369  16.173 -1.8612 -0.9527 -0.2389
  454MPD2     N 6821   4.593   0.714  16.348  0.2328  0.4478  0.1703
  454MPD2    H5 6822   4.671   0.725  16.412 -0.1009 -2.4978  1.0725
  454MPD2    N1 6823   4.426   0.508  15.946  0.2443 -0.1740  0.6205
  454MPD2    H7 6824   4.357   0.583  15.945  1.5984  1.0715 -1.0628
  455TMC3    C1 6825   4.350   0.736  16.329 -0.4366 -0.1650 -0.2879
  455TMC3    C2 6826   4.253   0.838  16.337 -0.0833  0.0108 -0.8668
  455TMC3    C3 6827   4.122   0.795  16.340 -0.3408 -0.2522 -0.1924
  455TMC3    C4 6828   4.314   0.607  16.322  0.8245  0.1498  0.1984
  455TMC3    C5 6829   4.190   0.573  16.331 -0.0307 -0.1498  0.3237
  455TMC3    C6 6830   4.091   0.663  16.342 -0.1886 -0.4151  0.4412
  455TMC3     C 6831   4.478   0.778  16.386  0.2497  0.0560  0.3325
  455TMC3     O 6832   4.469   0.869  16.464  0.4550 -0.0741 -0.1117
  455TMC3     H 6833   4.274   0.943  16.355 -0.9617  0.2684 -1.3035
  455TMC3    H1 6834   4.392   0.537  16.347  0.8441 -0.2136 -0.8528
  455TMC3    H2 6835   3.990   0.625  16.350 -0.9340  1.3883 -0.3365
  455TMC3    C7 6836   4.154   0.427  16.299  0.2670 -0.3489  0.3787
  455TMC3    C8 6837   4.031   0.888  16.396  0.2863 -0.0437 -0.2832
  455TMC3    O1 6838   4.034   0.402  16.290  0.1269 -0.2577  0.1247
  455TMC3    O2 6839   4.066   1.006  16.419 -0.2226 -0.3522  0.2367
  456MPD2     C 6840   1.927   0.806  16.063 -0.5030 -0.5281  0.5502
  456MPD2    C1 6841   2.006   0.797  16.174  0.3048 -0.5406  0.3042
  456MPD2    C2 6842   1.964   0.870  16.283 -0.1735  0.2628 -0.6802
  456MPD2    C3 6843   1.865   0.965  16.287 -0.8365  0.5613  0.5139
  456MPD2    C4 6844   1.791   0.977  16.174 -0.4096 -0.2369 -0.1402
  456MPD2    C5 6845   1.819   0.888  16.068 -0.7590 -0.5590 -0.0349
  456MPD2     H 6846   2.014   0.855  16.378  1.6138  0.4441 -1.6115
  456MPD2    H1 6847   1.715   1.053  16.161  0.1102  0.7349  2.6652
  456MPD2    H2 6848   1.955   0.748  15.976 -2.4653  0.5407 -0.7673
  456MPD2    H3 6849   1.757   0.898  15.980  0.0187 -3.4762 -0.9018
  456MPD2     N 6850   1.842   1.047  16.401 -0.2920 -0.0443  0.5589
  456MPD2    H5 6851   1.898   1.022  16.482  0.3084 -0.9231 -0.1318
  456MPD2    N1 6852   2.113   0.712  16.172  0.4335  0.5547 -0.2512
  456MPD2    H7 6853   2.120   0.656  16.088  1.0186 -1.7310  1.3237
  457TMC3    C1 6854   1.785   1.239  16.518  0.4785  0.1674  0.2221
  457TMC3    C2 6855   1.690   1.325  16.563 -0.0117 -0.2960 -0.3314
  457TMC3    C3 6856   1.721   1.397  16.670 -0.5725 -0.3206  0.4094
  457TMC3    C4 6857   1.903   1.215  16.583  0.1978 -0.1211 -0.2673
  457TMC3    C5 6858   1.932   1.294  16.696 -0.2259  0.3962  0.1217
  457TMC3    C6 6859   1.836   1.378  16.738  0.3953  0.9990  0.0450
  457TMC3     C 6860   1.759   1.154  16.404  0.3803  0.7689 -0.4699
  457TMC3     O 6861   1.682   1.208  16.325  0.4468  0.3224  0.3177
  457TMC3     H 6862   1.591   1.327  16.518  0.0773 -1.8060 -0.5926
  457TMC3    H1 6863   1.978   1.155  16.533  0.4657  0.7409 -0.8964
  457TMC3    H2 6864   1.856   1.458  16.809  1.1474  1.6539 -0.9103
  457TMC3    C7 6865   2.035   1.248  16.795 -0.6910  0.0217  0.0495
  457TMC3    C8 6866   1.622   1.495  16.715 -0.7396 -0.7077  0.0547
  457TMC3    O1 6867   2.062   1.129  16.800  0.0572  0.5114 -0.2495
  457TMC3    O2 6868   1.619   1.531  16.832  0.4091  0.4004 -0.6605
  458MPD2     C 6869   4.576   0.041  12.300 -0.3485 -0.0354  0.4947
  458MPD2    C1 6870   4.532   4.676  12.370  0.0162  0.3344  0.3200
  458MPD2    C2 6871   4.423   4.606  12.320  0.2472 -0.3485  0.5573
  458MPD2    C3 6872   4.360   4.650  12.198 -0.0898  0.4096  0.9889
  458MPD2    C4 6873   4.407   0.027  12.140  0.0184  0.5085  0.4555
  458MPD2    C5 6874   4.517   0.094  12.187 -1.1747  0.9576  0.5617
  458MPD2     H 6875   4.383   4.521  12.374  0.5383 -1.7114 -1.3717
  458MPD2    H1 6876   4.360   0.074  12.054  1.2460  0.7788 -0.0737
  458MPD2    H2 6877   4.660   0.096  12.342 -1.0697  1.6276 -0.2115
  458MPD2    H3 6878   4.560   0.181  12.139 -1.0173  0.5900  0.0402
  458MPD2     N 6879   4.238   4.579  12.162 -0.2378  0.0924  0.2728
  458MPD2    H5 6880   4.206   4.498  12.214 -0.0032 -0.5105 -0.5203
  458MPD2    N1 6881   4.597   4.645  12.490  0.4185  0.0793  0.1762
  458MPD2    H7 6882   4.668   4.713  12.518 -0.7696  1.2160  0.4301
  459TMC3    C1 6883   4.664   4.525  12.676 -0.2747 -0.6628 -0.0254
  459TMC3    C2 6884   0.049   4.582  12.663  0.5899 -0.0059  0.2394
  459TMC3    C3 6885   0.129   4.584  12.775 -0.2337  0.0787  0.5168
  459TMC3    C4 6886   4.626   4.456  12.789  0.3211 -0.1072  0.5391
  459TMC3    C5 6887   4.716   4.454  12.894  0.4834  0.0347 -0.3495
  459TMC3    C6 6888   0.099   4.522  12.888  0.5771  0.6169 -0.4149
  459TMC3     C 6889   4.581   4.527  12.556  0.0911  0.1855  0.3601
  459TMC3     O 6890   4.516   4.426  12.532 -0.4074 -0.0526  0.4696
  459TMC3     H 6891   0.087   4.630  12.574  1.8888  0.7533  1.2046
  459TMC3    H1 6892   4.529   4.408  12.784  0.2390 -0.0090  1.3301
  459TMC3    H2 6893   0.179   4.511  12.960  0.5782 -2.5224 -0.8783
  459TMC3    C7 6894   4.697   4.370  13.005  0.2859  0.0736 -0.2045
  459TMC3    C8 6895   0.257   4.658  12.758  0.1167 -0.1295 -0.4019
  459TMC3    O1 6896   0.041   4.391  13.096 -0.0227 -0.4066 -1.2502
  459TMC3    O2 6897   0.319   4.639  12.656 -0.4803 -0.7477  0.8059
  460MPD2     C 6898   3.293   2.464  11.009  0.5939  0.0881 -0.2024
  460MPD2    C1 6899   3.346   2.377  10.911  0.1703  0.9531 -0.5845
  460MPD2    C2 6900   3.309   2.399  10.776  0.2189  0.0099  0.2171
  460MPD2    C3 6901   3.225   2.503  10.743 -0.0037 -0.5970  0.1356
  460MPD2    C4 6902   3.175   2.587  10.841  0.7346 -0.1437  0.0931
  460MPD2    C5 6903   3.207   2.563  10.969 -0.1696 -0.0175 -0.1785
  460MPD2     H 6904   3.351   2.338  10.697  0.1542  1.5601 -1.0188
  460MPD2    H1 6905   3.112   2.674  10.827  0.1184 -0.9033 -1.7404
  460MPD2    H2 6906   3.319   2.460  11.114  1.1388  0.7223 -0.3178
  460MPD2    H3 6907   3.155   2.631  11.035  0.8204 -1.0817  1.6904
  460MPD2     N 6908   3.192   2.523  10.598  0.3266  0.3674 -0.4324
  460MPD2    H5 6909   3.214   2.451  10.530  1.6588 -1.5307  1.9890
  460MPD2    N1 6910   3.435   2.270  10.956 -0.2283 -0.9395  0.9172
  460MPD2    H7 6911   3.439   2.248  11.054 -3.0078  0.4466  1.3650
  461TMC3    C1 6912   3.082   2.604  10.405 -0.0236  0.1399 -0.1884
  461TMC3    C2 6913   3.014   2.483  10.387 -0.1123  0.3349  0.2045
  461TMC3    C3 6914   2.953   2.457  10.274 -0.0125 -0.1275  0.0950
  461TMC3    C4 6915   3.072   2.705  10.314  0.4068  0.5929 -0.9223
  461TMC3    C5 6916   3.010   2.667  10.199 -0.3175  0.9075  0.3111
  461TMC3    C6 6917   2.958   2.547  10.174  0.3473 -0.1839  0.0862
  461TMC3     C 6918   3.123   2.632  10.545 -0.3152  0.4995  0.7006
  461TMC3     O 6919   3.090   2.740  10.598 -0.2982 -0.0333  0.4240
  461TMC3     H 6920   3.015   2.407  10.465  0.6804 -1.0957 -1.2104
  461TMC3    H1 6921   3.112   2.803  10.335 -1.2921  0.4820  2.8633
  461TMC3    H2 6922   2.915   2.517  10.079  1.9887 -1.6528 -0.2195
  461TMC3    C7 6923   3.029   2.755  10.080  0.3210 -0.0281 -0.8633
  461TMC3    C8 6924   2.886   2.327  10.250 -0.0024 -0.0722  0.3712
  461TMC3    O1 6925   3.003   2.703   9.967  0.4525  0.3093  0.2361
  461TMC3    O2 6926   2.894   2.287  10.134  0.1566 -0.6972  0.0646
  462TMC3    C1 6927   3.991   2.812  17.688  0.0028  0.2394  0.3199
  462TMC3    C2 6928   4.048   2.711  17.609 -0.0937 -0.1139 -0.2502
  462TMC3    C3 6929   4.001   2.582  17.622 -0.2132  0.0432  0.1238
  462TMC3    C4 6930   3.904   2.777   0.035  0.4444 -0.0231  0.0382
  462TMC3    C5 6931   3.858   2.648   0.050 -0.1693  0.5205  0.2833
  462TMC3    C6 6932   3.901   2.553  17.710  0.1767  0.6267 -0.8765
  462TMC3     C 6933   4.056   2.946  17.689  0.1353  0.1888 -0.4983
  462TMC3     O 6934   4.075   2.995  17.578 -0.2191 -0.0730  0.1737
  462TMC3     H 6935   4.127   2.737  17.540 -2.0094  1.8145 -1.6915
  462TMC3    H1 6936   3.857   2.853   0.096  0.7228  0.2973 -0.1490
  462TMC3    H2 6937   3.893   2.446  17.729 -1.0571  0.7913 -0.4462
  462TMC3    C7 6938   3.732   2.614   0.121 -0.1139  0.3747 -0.6247
  462TMC3    C8 6939   4.037   2.485  17.516  1.3341  0.0758 -0.3957
  462TMC3    O1 6940   3.671   2.515   0.080 -0.4271 -0.0470  0.5035
  462TMC3    O2 6941   4.126   2.522  17.444 -0.2011  0.4953  0.5577
  463MPD2     C 6942   0.499   0.956   1.025 -0.5596  0.4192  0.4663
  463MPD2    C1 6943   0.514   1.056   1.115 -0.2135 -0.3917  0.1474
  463MPD2    C2 6944   0.638   1.129   1.126 -0.2264  0.1954 -0.8911
  463MPD2    C3 6945   0.740   1.107   1.038 -0.1389  0.7022 -0.2937
  463MPD2    C4 6946   0.725   0.992   0.958  0.2077  0.2652 -0.0345
  463MPD2    C5 6947   0.605   0.921   0.949  0.5545  0.1521 -0.3821
  463MPD2     H 6948   0.643   1.198   1.210 -1.3199 -0.8050  0.0051
  463MPD2    H1 6949   0.802   0.952   0.893 -0.9227 -1.7031 -0.1669
  463MPD2    H2 6950   0.411   0.893   1.023 -1.0453  1.0504  1.7921
  463MPD2    H3 6951   0.594   0.829   0.893  3.2862 -0.3379 -0.1060
  463MPD2     N 6952   0.871   1.171   1.048 -0.1860  0.4039 -0.0780
  463MPD2    H5 6953   0.946   1.150   0.983 -0.2204 -1.0122  0.3444
  463MPD2    N1 6954   0.416   1.089   1.215  0.1007  0.1792  0.3090
  463MPD2    H7 6955   0.449   1.157   1.283  0.5218  0.0644  0.2214
  464TMC3    C1 6956   0.249   1.067   1.364  0.9789  0.2384  0.3995
  464TMC3    C2 6957   0.245   1.202   1.389  0.1570  0.0862  0.0864
  464TMC3    C3 6958   0.151   1.244   1.482  0.2903 -0.0395  0.4644
  464TMC3    C4 6959   0.168   0.977   1.429  0.3182 -0.5894 -0.3351
  464TMC3    C5 6960   0.081   1.023   1.523 -0.4069  0.1251 -0.6192
  464TMC3    C6 6961   0.063   1.155   1.545 -0.1005 -0.5311  0.0545
  464TMC3     C 6962   0.303   1.020   1.243 -0.2435  0.1640 -0.5190
  464TMC3     O 6963   0.252   0.920   1.192 -0.2598  0.1312  0.3308
  464TMC3     H 6964   0.296   1.276   1.328  0.6419  1.0752  1.6861
  464TMC3    H1 6965   0.170   0.870   1.409 -0.0721 -0.7524  0.4881
  464TMC3    H2 6966   4.732   1.186   1.622 -2.2616  1.5973 -2.7751
  464TMC3    C7 6967   4.695   0.953   1.524  0.0071  0.1557  0.1258
  464TMC3    C8 6968   0.117   1.382   1.500  0.5362 -0.1539 -0.0329
  464TMC3    O1 6969   4.691   0.851   1.586  0.2567  0.0158  0.1062
  464TMC3    O2 6970   0.008   1.407   1.546 -0.7607 -0.2718  0.5500
  465MPD2     C 6971   1.302   1.164  16.893  0.0304 -0.4695  0.6791
  465MPD2    C1 6972   1.315   1.031  16.853  0.3839  0.0807 -0.2832
  465MPD2    C2 6973   1.338   1.003  16.719  0.0043  0.7859  0.6755
  465MPD2    C3 6974   1.342   1.107  16.626 -0.6679 -0.0812  0.0727
  465MPD2    C4 6975   1.331   1.238  16.670 -0.2402  0.1959  0.2476
  465MPD2    C5 6976   1.326   1.265  16.802 -0.1264 -0.0121  0.2522
  465MPD2     H 6977   1.359   0.901  16.689 -1.4480  0.1624  1.7884
  465MPD2    H1 6978   1.332   1.326  16.607 -1.6747 -0.2925 -0.4539
  465MPD2    H2 6979   1.296   1.175  17.001 -1.3352 -0.0830  0.5543
  465MPD2    H3 6980   1.336   1.371  16.825  0.8711 -0.3683  1.4603
  465MPD2     N 6981   1.363   1.075  16.494 -0.2948 -0.1894 -0.5606
  465MPD2    H5 6982   1.375   0.976  16.476 -1.3394 -0.3449 -0.4117
  465MPD2    N1 6983   1.286   0.931  16.960 -0.8592  0.1668  0.3295
  465MPD2    H7 6984   1.265   0.964  17.053  0.5470  1.8403  0.0655
  466TMC3    C1 6985   1.232   0.917  16.144 -0.6609  0.1370  0.0597
  466TMC3    C2 6986   1.217   1.002  16.033  0.3530 -0.1386  0.4309
  466TMC3    C3 6987   1.271   1.128  16.036 -0.3796 -0.4011 -0.2018
  466TMC3    C4 6988   1.305   0.959  16.257  0.2323  0.7402  0.2339
  466TMC3    C5 6989   1.356   1.087  16.258  0.6005  0.5142  0.4254
  466TMC3    C6 6990   1.331   1.170  16.153 -0.1958  0.5993 -0.5560
  466TMC3     C 6991   1.112   0.867  16.198  0.3403  0.9126  0.3909
  466TMC3     O 6992   1.121   0.800  16.300 -0.2260 -0.2065 -0.1255
  466TMC3     H 6993   1.165   0.964  15.946  1.5470  0.1722 -0.4146
  466TMC3    H1 6994   1.314   0.887  16.337 -1.5297  1.3131  0.9466
  466TMC3    H2 6995   1.351   1.277  16.154  0.3553  0.4564  2.0857
  466TMC3    C7 6996   1.358   1.159  16.381 -0.2869  0.1331 -0.5048
  466TMC3    C8 6997   1.170   1.215  15.993  0.2151  0.0950 -0.5602
  466TMC3    O1 6998   1.322   1.277  16.368 -0.0504  0.2076  0.3812
  466TMC3    O2 6999   1.149   1.217  15.872 -0.1801 -0.0777  0.3937
  467TMC3    C1 7000   1.938   3.920  13.915  0.1569 -0.2111  0.3156
  467TMC3    C2 7001   1.988   3.844  13.812 -0.0014  0.2279  0.4525
  467TMC3    C3 7002   1.928   3.851  13.688 -0.5346 -0.3907  0.5074
  467TMC3    C4 7003   1.811   3.978  13.903 -0.4090  0.5755 -1.3737
  467TMC3    C5 7004   1.763   3.981  13.777  0.6643  0.3482  0.3958
  467TMC3    C6 7005   1.813   3.927  13.672  0.1135 -1.0659 -0.4110
  467TMC3     C 7006   2.044   4.017  13.944  0.5272 -0.1529  0.5230
  467TMC3     O 7007   2.132   4.030  13.859 -0.4240 -0.0932 -0.0983
  467TMC3     H 7008   2.089   3.806  13.827  0.4809  1.4864  0.3653
  467TMC3    H1 7009   1.771   4.045  13.977  0.6020 -0.2110 -0.1138
  467TMC3    H2 7010   1.766   3.940  13.575 -1.4560  0.6818  0.5794
  467TMC3    C7 7011   1.626   4.040  13.755 -0.1603 -0.7313 -0.0109
  467TMC3    C8 7012   2.022   3.866  13.578  0.1164 -0.0914 -0.4276
  467TMC3    O1 7013   1.583   4.040  13.641 -0.3450 -0.6971 -0.3084
  467TMC3    O2 7014   2.124   3.800  13.589  0.0380  0.3520  0.0650
  468MPD2     C 7015   0.590   2.391  10.455  0.2897  0.2593 -0.2212
  468MPD2    C1 7016   0.698   2.365  10.538 -0.2028 -0.3506  0.2962
  468MPD2    C2 7017   0.689   2.251  10.616 -0.3041 -0.2441 -0.0986
  468MPD2    C3 7018   0.574   2.168  10.615  0.2362  0.1334  0.4770
  468MPD2    C4 7019   0.471   2.199  10.534 -0.3529  0.3353 -0.1170
  468MPD2    C5 7020   0.485   2.303  10.445 -0.4571  0.4701 -0.0262
  468MPD2     H 7021   0.775   2.222  10.676  1.0307  1.5515 -1.1377
  468MPD2    H1 7022   0.387   2.132  10.523 -1.7103  1.5944  2.6512
  468MPD2    H2 7023   0.594   2.476  10.387 -2.5390  0.2578 -0.3619
  468MPD2    H3 7024   0.415   2.328  10.366 -0.9313 -0.1457  0.2036
  468MPD2     N 7025   0.560   2.051  10.701  0.1779  0.0920 -0.2127
  468MPD2    H5 7026   0.493   1.978  10.680  1.0812 -0.9435  0.5488
  468MPD2    N1 7027   0.819   2.444  10.536  0.4337  0.1226  0.4547
  468MPD2    H7 7028   0.905   2.418  10.583 -0.1978 -1.0254  0.9924
  469TMC3    C1 7029   0.946   2.626  10.543  0.1890  0.8076 -0.5873
  469TMC3    C2 7030   1.036   2.541  10.616  0.4528  0.6606  0.2755
  469TMC3    C3 7031   1.111   2.598  10.713 -0.0226 -0.0435 -0.3612
  469TMC3    C4 7032   0.932   2.761  10.579  0.3666 -0.8428  0.4612
  469TMC3    C5 7033   1.019   2.812  10.677  0.3731 -0.1664  1.1484
  469TMC3    C6 7034   1.105   2.729  10.750 -0.4692  0.5374 -0.0835
  469TMC3     C 7035   0.824   2.570  10.492 -0.1633  0.2399  0.2629
  469TMC3     O 7036   0.731   2.644  10.464 -0.6771  0.3224 -0.0043
  469TMC3     H 7037   1.055   2.445  10.570 -2.4972 -1.1268  2.8417
  469TMC3    H1 7038   0.862   2.818  10.520 -1.1958 -1.8716  1.3234
  469TMC3    H2 7039   1.178   2.771  10.817  1.3430 -0.5998 -1.3489
  469TMC3    C7 7040   0.971   2.929  10.748 -0.6378  0.0094  0.5275
  469TMC3    C8 7041   1.225   2.518  10.749  0.3170 -0.2694  0.5405
  469TMC3    O1 7042   0.889   2.985  10.676  0.3911  0.4169 -0.3676
  469TMC3    O2 7043   1.254   2.427  10.673 -0.1785  0.1477  0.3203
  470TMC3    C1 7044   3.221   2.360   0.788 -0.6169 -0.6414  0.1488
  470TMC3    C2 7045   3.111   2.438   0.832  0.4134  0.4050 -0.7004
  470TMC3    C3 7046   3.134   2.514   0.943 -0.3574  0.0089 -0.3404
  470TMC3    C4 7047   3.342   2.358   0.851 -0.1777  0.2512  0.0392
  470TMC3    C5 7048   3.351   2.432   0.960  0.2866 -0.3929  0.4811
  470TMC3    C6 7049   3.256   2.512   1.011 -0.4252  0.2051  0.0455
  470TMC3     C 7050   3.184   2.260   0.680  0.4666  0.2363  0.0536
  470TMC3     O 7051   3.077   2.202   0.697 -0.3783  0.1898 -0.1717
  470TMC3     H 7052   3.023   2.440   0.769 -0.0918 -0.6842 -0.0370
  470TMC3    H1 7053   3.431   2.311   0.810 -0.3814 -0.0700 -0.0394
  470TMC3    H2 7054   3.274   2.576   1.097  2.5422  0.3128 -0.6623
  470TMC3    C7 7055   3.486   2.429   1.025  0.7692 -0.4827 -0.1895
  470TMC3    C8 7056   3.066   2.644   0.961 -0.1007  0.5656  0.1134
  470TMC3    O1 7057   3.579   2.368   0.971  0.0317 -0.4379  0.1836
  470TMC3    O2 7058   3.131   2.730   1.017 -0.5162 -0.2924 -0.4110
  471MPD2     C 7059   3.469   4.506  17.054 -0.3278 -0.4260  0.4546
  471MPD2    C1 7060   3.475   4.378  17.020 -0.2889  0.1818 -0.0256
  471MPD2    C2 7061   3.458   4.280  17.125  0.7295 -0.6236 -0.0128
  471MPD2    C3 7062   3.453   4.325  17.256 -0.3437  0.0327 -0.2178
  471MPD2    C4 7063   3.446   4.458  17.286  0.2495 -0.0345  0.9854
  471MPD2    C5 7064   3.457   4.544  17.180 -0.3025  0.0334 -0.1289
  471MPD2     H 7065   3.464   4.175  17.098  0.5705 -0.4520 -0.7213
  471MPD2    H1 7066   3.447   4.489  17.390  0.0361  0.1680  0.9276
  471MPD2    H2 7067   3.477   4.585  16.980  2.4209 -1.1353 -0.0107
  471MPD2    H3 7068   3.432   4.648  17.196 -2.7088 -0.1160 -2.8838
  471MPD2     N 7069   3.483   4.225  17.352  0.6788  0.3571  1.0392
  471MPD2    H5 7070   3.497   4.133  17.313 -0.0993  0.4312  0.5966
  471MPD2    N1 7071   3.493   4.345  16.884 -0.6077 -0.0121  0.4021
  471MPD2    H7 7072   3.513   4.422  16.821  1.1767  0.6822  1.8040
  472TMC3    C1 7073   3.500   4.201  16.690 -0.1014  0.1224  0.2651
  472TMC3    C2 7074   3.410   4.271  16.620 -0.6801 -0.1023  0.0844
  472TMC3    C3 7075   3.357   4.226  16.505 -0.4330 -0.3616 -0.2356
  472TMC3    C4 7076   3.545   4.080  16.646 -0.3724  0.1235  0.1981
  472TMC3    C5 7077   3.479   4.027  16.532  0.1312  0.5092  0.4165
  472TMC3    C6 7078   3.388   4.104  16.462  0.0998  0.0670 -0.4970
  472TMC3     C 7079   3.492   4.214  16.835  0.7400 -0.0322  0.1506
  472TMC3     O 7080   3.501   4.108  16.889 -0.2024 -0.0843  0.3696
  472TMC3     H 7081   3.357   4.351  16.670 -1.8494  0.6734 -2.3893
  472TMC3    H1 7082   3.618   4.026  16.705  0.5469  1.6449  0.4582
  472TMC3    H2 7083   3.344   4.078  16.367  0.5569 -1.5232 -0.2815
  472TMC3    C7 7084   3.447   3.888  16.552 -0.5309 -0.5968 -0.0599
  472TMC3    C8 7085   3.222   4.261  16.475  0.5799  0.1233 -0.3497
  472TMC3    O1 7086   3.475   3.836  16.655 -0.2740  0.6780  0.6560
  472TMC3    O2 7087   3.183   4.377  16.460  0.3429  0.1127  0.0254
  473MPD2     C 7088   3.467   1.616  13.737 -0.2189 -0.0018 -0.1801
  473MPD2    C1 7089   3.400   1.737  13.727 -0.7404 -0.1124  0.0456
  473MPD2    C2 7090   3.411   1.838  13.821  0.5314  0.2469 -0.1497
  473MPD2    C3 7091   3.516   1.831  13.906  0.1995 -0.4419  0.1699
  473MPD2    C4 7092   3.604   1.723  13.909  0.1486 -0.3106  0.3764
  473MPD2    C5 7093   3.574   1.613  13.825 -0.2783 -0.4598 -0.4022
  473MPD2     H 7094   3.350   1.927  13.804  0.2053 -0.1213 -0.9096
  473MPD2    H1 7095   3.698   1.710  13.962  0.4336 -1.4893 -0.4104
  473MPD2    H2 7096   3.458   1.529  13.673 -1.2298 -0.8216  1.0835
  473MPD2    H3 7097   3.640   1.528  13.813  0.7181  0.2941 -0.2175
  473MPD2     N 7098   3.538   1.939  14.004  0.2546  0.1235 -0.4966
  473MPD2    H5 7099   3.633   1.950  14.039 -0.1937  0.3574  0.6341
  473MPD2    N1 7100   3.293   1.758  13.633  0.2764 -0.0090  0.0445
  473MPD2    H7 7101   3.260   1.853  13.626 -0.6336 -0.4236 -1.1695
  474TMC3    C1 7102   3.488   2.136  14.113  0.1368 -0.4749 -0.3325
  474TMC3    C2 7103   3.390   2.223  14.156 -0.1258 -0.7222 -0.1781
  474TMC3    C3 7104   3.428   2.328  14.232 -0.3008 -0.2753  0.1454
  474TMC3    C4 7105   3.625   2.150  14.150 -0.1057  0.6138 -0.4576
  474TMC3    C5 7106   3.654   2.254  14.238  0.2465  0.0079 -0.3216
  474TMC3    C6 7107   3.560   2.344  14.276 -0.8155 -0.2788 -0.2851
  474TMC3     C 7108   3.438   2.036  14.022 -0.6050 -0.2331  0.2804
  474TMC3     O 7109   3.315   2.026  14.008  0.1256  0.2246 -0.4776
  474TMC3     H 7110   3.288   2.218  14.121 -0.0749  1.1235 -0.5837
  474TMC3    H1 7111   3.699   2.075  14.122  1.0037  1.1334  1.0590
  474TMC3    H2 7112   3.587   2.430  14.335  1.5753 -1.0702 -0.2399
  474TMC3    C7 7113   3.794   2.283  14.267 -0.0175  0.2294 -0.6602
  474TMC3    C8 7114   3.336   2.433  14.265 -0.2213  0.5956  0.0865
  474TMC3    O1 7115   3.886   2.235  14.200 -0.0827  0.2925 -0.4319
  474TMC3    O2 7116   3.215   2.400  14.258  0.3095  0.1390  0.5492
  475MPD2     C 7117   1.268   4.649  10.986  0.3343  1.1194 -0.5286
  475MPD2    C1 7118   1.203   4.706  10.874 -0.0897 -0.2282 -0.0515
  475MPD2    C2 7119   1.095   0.057  10.903 -0.0824  0.3986  0.2373
  475MPD2    C3 7120   1.056   0.083  11.031 -0.5834  0.3536  0.2029
  475MPD2    C4 7121   1.128   0.041  11.139  0.9317  0.9345  0.0222
  475MPD2    C5 7122   1.232   4.690  11.116 -0.1236 -0.4714 -0.5294
  475MPD2     H 7123   1.038   0.113  10.829 -0.7283  1.5202  1.5845
  475MPD2    H1 7124   1.114   0.076  11.241 -2.0321 -0.4592  0.0967
  475MPD2    H2 7125   1.345   4.574  10.973 -0.9385 -0.2596 -0.1232
  475MPD2    H3 7126   1.303   4.665  11.194  1.0277  2.4601 -0.6266
  475MPD2     N 7127   0.948   0.174  11.040  0.2606  0.1634 -0.2475
  475MPD2    H5 7128   0.897   0.203  10.957  1.3109 -0.1454 -0.9966
  475MPD2    N1 7129   1.248   4.680  10.743 -1.0063 -0.3004  0.4406
  475MPD2    H7 7130   1.343   4.644  10.733 -2.0925 -2.3091 -2.8463
  476TMC3    C1 7131   1.270   4.720  10.514  0.5905  0.0538  0.0524
  476TMC3    C2 7132   1.201   4.738  10.401 -1.0050  0.4088  0.3402
  476TMC3    C3 7133   1.248   0.077  10.296  0.5880 -0.6947 -0.1148
  476TMC3    C4 7134   1.383   0.061  10.537  0.5004  0.7384  0.4786
  476TMC3    C5 7135   1.417   0.154  10.440 -0.7753  0.7986  0.5158
  476TMC3    C6 7136   1.351   0.155  10.317  0.4061  0.4787 -0.4166
  476TMC3     C 7137   1.188   4.718  10.627  0.2080  0.0783 -0.2830
  476TMC3     O 7138   1.076   0.030  10.613  0.1613 -0.3504 -0.0581
  476TMC3     H 7139   1.109   4.685  10.378  0.9675 -3.7315  1.8071
  476TMC3    H1 7140   1.430   0.066  10.634  0.3931  0.4744  0.5438
  476TMC3    H2 7141   1.401   0.215  10.242 -1.3432  3.6048  0.8947
  476TMC3    C7 7142   1.520   0.252  10.457 -0.0673  0.2021 -0.5139
  476TMC3    C8 7143   1.147   0.126  10.204  0.1017  0.5741 -0.2732
  476TMC3    O1 7144   1.558   0.321  10.358  0.2864 -0.2851  0.2538
  476TMC3    O2 7145   1.152   0.247  10.189  0.1559 -0.1658  0.0845
  477MPD2     C 7146   4.455   1.709  11.747 -0.3795 -0.0052  0.0417
  477MPD2    C1 7147   4.342   1.632  11.750  0.1437  0.8422  0.1046
  477MPD2    C2 7148   4.323   1.539  11.854  0.2445  0.3913  0.7650
  477MPD2    C3 7149   4.422   1.539  11.957 -0.2701  0.0445  0.2247
  477MPD2    C4 7150   4.543   1.610  11.946  0.2382 -0.3059  0.6947
  477MPD2    C5 7151   4.554   1.690  11.837  0.3502  0.0508 -0.3269
  477MPD2     H 7152   4.241   1.469  11.865  0.3347  0.2181  0.3268
  477MPD2    H1 7153   4.608   1.617  12.033  0.8476  0.5092  0.1740
  477MPD2    H2 7154   4.461   1.784  11.669 -0.2266  0.7950  0.8235
  477MPD2    H3 7155   4.641   1.755  11.831  1.0869 -0.8297  0.8694
  477MPD2     N 7156   4.398   1.458  12.063 -0.0174  0.2201 -0.2209
  477MPD2    H5 7157   4.318   1.396  12.053 -0.3357  0.3750  1.3238
  477MPD2    N1 7158   4.245   1.656  11.648  0.8720 -0.1957  0.2938
  477MPD2    H7 7159   4.269   1.732  11.586 -2.0553  0.3327 -0.1979
  478TMC3    C1 7160   4.048   1.609  11.512 -0.0952 -0.4940 -0.2356
  478TMC3    C2 7161   3.983   1.726  11.551  0.8710  0.4071  0.2612
  478TMC3    C3 7162   3.851   1.749  11.518  0.8643  0.7288 -0.8809
  478TMC3    C4 7163   3.982   1.514  11.442 -0.5439  0.2753 -0.1760
  478TMC3    C5 7164   3.854   1.544  11.401 -0.0423  0.1480 -0.5646
  478TMC3    C6 7165   3.786   1.657  11.441  0.0325 -0.1927 -0.2029
  478TMC3     C 7166   4.149   1.562  11.609 -0.1681 -0.5710 -0.2239
  478TMC3     O 7167   4.145   1.445  11.641  0.6977  0.1738  0.0957
  478TMC3     H 7168   4.037   1.787  11.623 -0.5587  2.5107 -0.4679
  478TMC3    H1 7169   4.029   1.421  11.411  0.0156  0.2002  0.8891
  478TMC3    H2 7170   3.678   1.655  11.428  0.1259  2.3762 -1.3407
  478TMC3    C7 7171   3.797   1.450  11.304 -0.1648 -0.7910  1.0374
  478TMC3    C8 7172   3.789   1.833  11.617  0.0020 -0.2763  0.0423
  478TMC3    O1 7173   3.826   1.336  11.310 -0.0397 -0.0226  0.7432
  478TMC3    O2 7174   3.835   1.824  11.727  0.0967  0.6509 -0.1544
  479MPD2     C 7175   3.312   3.956  15.350  0.0758 -0.1193  0.1911
  479MPD2    C1 7176   3.239   3.893  15.452  0.7413  0.1081  0.8423
  479MPD2    C2 7177   3.278   3.910  15.585 -0.0129  0.3896 -0.0931
  479MPD2    C3 7178   3.378   3.997  15.622  0.1873  0.1564  0.4231
  479MPD2    C4 7179   3.451   4.054  15.515  0.6135 -0.1939  0.7991
  479MPD2    C5 7180   3.425   4.033  15.381  0.6796  0.0609  0.3948
  479MPD2     H 7181   3.231   3.857  15.667 -0.1546 -2.3656 -1.9378
  479MPD2    H1 7182   3.532   4.123  15.536  1.2426 -0.3647 -0.9909
  479MPD2    H2 7183   3.270   3.955  15.250  0.7096  0.0403 -0.0724
  479MPD2    H3 7184   3.487   4.073  15.301  1.3349  0.4118  1.0750
  479MPD2     N 7185   3.401   4.034  15.759 -0.7862 -0.0502  0.2424
  479MPD2    H5 7186   3.487   4.086  15.774 -2.0126  1.3467  2.3659
  479MPD2    N1 7187   3.119   3.830  15.413  0.1354 -0.2410 -0.1116
  479MPD2    H7 7188   3.084   3.842  15.318 -0.4198  2.5942  0.4601
  480TMC3    C1 7189   3.005   3.855  15.939  0.0453 -0.9774  0.6991
  480TMC3    C2 7190   2.919   3.928  15.862  0.8436 -0.4327  0.6152
  480TMC3    C3 7191   2.965   4.029  15.791 -0.7674  0.0204 -0.1143
  480TMC3    C4 7192   3.136   3.883  15.946  0.2221 -0.2869 -0.0766
  480TMC3    C5 7193   3.182   3.986  15.863 -0.0115  0.2737  0.1171
  480TMC3    C6 7194   3.099   4.061  15.790  0.0868 -0.5918  0.1212
  480TMC3     C 7195   2.972   3.723  15.993 -0.5199 -0.6204  0.1500
  480TMC3     O 7196   3.067   3.648  16.008  0.3273 -0.0770  0.1977
  480TMC3     H 7197   2.824   3.883  15.834  0.7259  0.0341  0.2460
  480TMC3    H1 7198   3.205   3.840  16.017 -0.6463  0.5811  1.2903
  480TMC3    H2 7199   3.138   4.145  15.733 -0.4926 -0.8598 -0.6692
  480TMC3    C7 7200   3.319   4.023  15.872 -0.5204 -0.9535  0.6760
  480TMC3    C8 7201   2.878   4.067  15.680 -0.0572 -0.1436  0.0824
  480TMC3    O1 7202   3.361   4.030  15.984  0.2747 -0.1515 -0.3906
  480TMC3    O2 7203   2.774   4.005  15.664 -0.2626  0.0926 -0.0915
  481MPD2     C 7204   4.581   3.592  14.114  0.1439 -0.7855 -0.3930
  481MPD2    C1 7205   4.491   3.515  14.185 -0.4733 -0.4884  0.6442
  481MPD2    C2 7206   4.533   3.428  14.282  0.4687  0.5247  0.2027
  481MPD2    C3 7207   4.665   3.422  14.324  0.1110  0.5636 -0.2332
  481MPD2    C4 7208   0.021   3.504  14.254  0.0916  0.5478 -0.2808
  481MPD2    C5 7209   4.716   3.580  14.145  0.4370  0.0814 -0.1591
  481MPD2     H 7210   4.470   3.349  14.322  2.5171 -0.9277  0.5316
  481MPD2    H1 7211   0.127   3.491  14.274 -0.1005 -1.8319 -0.8620
  481MPD2    H2 7212   4.555   3.662  14.036  0.4208  0.4396  0.6285
  481MPD2    H3 7213   0.045   3.634  14.079 -1.5298  0.8387 -1.5403
  481MPD2     N 7214   4.720   3.349  14.431  0.5544 -0.7560  0.2565
  481MPD2    H5 7215   0.078   3.365  14.459  0.7043 -0.3812 -0.4688
  481MPD2    N1 7216   4.358   3.518  14.140 -0.3690 -0.0851 -0.7667
  481MPD2    H7 7217   4.337   3.588  14.069 -0.2263 -0.1798 -0.9022
  482TMC3    C1 7218   4.138   3.450  14.094 -0.1553 -0.1677 -0.5530
  482TMC3    C2 7219   4.061   3.357  14.033 -0.3941  0.2407  0.1844
  482TMC3    C3 7220   3.976   3.397  13.939 -0.2073 -0.6154  0.1318
  482TMC3    C4 7221   4.117   3.587  14.079  0.1679 -0.0044 -0.0754
  482TMC3    C5 7222   4.020   3.629  13.994  0.1101 -0.5307  0.9944
  482TMC3    C6 7223   3.951   3.530  13.920 -0.6374 -1.0134 -0.1841
  482TMC3     C 7224   4.265   3.419  14.152 -0.1235 -0.1629  0.0493
  482TMC3     O 7225   4.287   3.302  14.180  0.2517 -0.0338 -0.4775
  482TMC3     H 7226   4.090   3.253  14.045  0.7035  0.3198 -1.8601
  482TMC3    H1 7227   4.168   3.659  14.143  0.9371  0.9962 -1.7881
  482TMC3    H2 7228   3.875   3.556  13.847 -1.9853  0.5203  1.7692
  482TMC3    C7 7229   4.046   3.752  13.933 -0.9500  0.2394  0.5120
  482TMC3    C8 7230   3.919   3.300  13.836 -0.4295  0.0967  0.3396
  482TMC3    O1 7231   4.109   3.831  14.000  0.1335  0.6092  0.5453
  482TMC3    O2 7232   3.817   3.339  13.781 -0.0284  0.0159  0.1887
  483TMC3    C1 7233   2.217   1.501   0.719 -0.8263  0.3514 -0.4635
  483TMC3    C2 7234   2.267   1.618   0.685  0.7992  0.2637  0.1502
  483TMC3    C3 7235   2.397   1.631   0.680  0.2255  0.2652  0.3409
  483TMC3    C4 7236   2.290   1.395   0.765  0.1475  0.5926 -0.5200
  483TMC3    C5 7237   2.428   1.409   0.759 -0.4634  0.2511 -0.2299
  483TMC3    C6 7238   2.483   1.525   0.715  0.3467  0.0072  0.0790
  483TMC3     C 7239   2.077   1.473   0.677 -0.6387 -1.2125 -0.1602
  483TMC3     O 7240   1.999   1.571   0.668 -0.6031 -0.3919 -0.4670
  483TMC3     H 7241   2.204   1.691   0.635  0.5458 -0.5962 -0.8042
  483TMC3    H1 7242   2.243   1.302   0.797  1.1220 -0.0485 -0.9562
  483TMC3    H2 7243   2.589   1.541   0.727  0.1794  1.2254 -0.0946
  483TMC3    C7 7244   2.518   1.308   0.812  0.1686  0.2700  0.3217
  483TMC3    C8 7245   2.453   1.760   0.640 -0.3573  0.4159  0.4474
  483TMC3    O1 7246   2.638   1.316   0.780 -0.4732 -0.4229 -0.2049
  483TMC3    O2 7247   2.571   1.758   0.604 -0.0195  0.5508 -0.3266
  484MPD2     C 7248   0.407   0.130  13.011 -0.3646 -0.5872  0.0591
  484MPD2    C1 7249   0.409   0.066  12.894 -0.1524 -0.1427  0.4449
  484MPD2    C2 7250   0.516   0.085  12.807 -0.1357 -0.2532  0.3522
  484MPD2    C3 7251   0.622   0.168  12.843  0.1539 -0.4905  0.1167
  484MPD2    C4 7252   0.629   0.212  12.973 -0.1266  0.8040 -0.1892
  484MPD2    C5 7253   0.523   0.197  13.058 -0.2248 -0.0911  0.5378
  484MPD2     H 7254   0.510   0.020  12.721  0.9774  0.6662 -0.4294
  484MPD2    H1 7255   0.708   0.272  13.018  0.3594 -0.9889  1.3544
  484MPD2    H2 7256   0.328   0.119  13.084 -0.8452  1.4000 -0.1787
  484MPD2    H3 7257   0.518   0.237  13.159  1.0712  0.3354  0.4343
  484MPD2     N 7258   0.740   0.191  12.762 -0.2258 -0.1237 -0.5079
  484MPD2    H5 7259   0.817   0.245  12.799  0.9335 -1.0537 -1.5651
  484MPD2    N1 7260   0.290   4.730  12.876  0.1694  0.0506  0.5549
  484MPD2    H7 7261   0.222   0.006  12.949  1.3359 -0.4417  1.7235
  485TMC3    C1 7262   0.863   0.233  12.570 -0.2154 -0.6932  0.2660
  485TMC3    C2 7263   0.982   0.236  12.633 -0.0427  0.4788 -0.1525
  485TMC3    C3 7264   1.085   0.290  12.562 -0.3133  0.1297  0.0469
  485TMC3    C4 7265   0.846   0.276  12.440  0.1911  0.3084 -0.0006
  485TMC3    C5 7266   0.953   0.339  12.378  0.8967  0.2910 -0.7020
  485TMC3    C6 7267   1.078   0.350  12.443  0.2405 -0.0019 -0.9552
  485TMC3     C 7268   0.754   0.157  12.631  0.7889  0.2677 -0.0115
  485TMC3     O 7269   0.665   0.108  12.561 -0.0796  0.1730  0.1387
  485TMC3     H 7270   0.992   0.193  12.732 -4.4870 -1.8759 -0.7175
  485TMC3    H1 7271   0.754   0.270  12.384 -0.0666  0.4214  0.4079
  485TMC3    H2 7272   1.166   0.389  12.393  1.7218 -1.1616  0.7549
  485TMC3    C7 7273   0.969   0.290  12.245 -0.2420 -0.1712  0.0379
  485TMC3    C8 7274   1.213   0.211  12.563  0.6993 -0.2326  0.0137
  485TMC3    O1 7275   1.073   0.227  12.219 -0.3155 -0.3317  0.7774
  485TMC3    O2 7276   1.255   0.183  12.673 -0.1470  0.1877 -0.0617
  486MPD2     C 7277   2.940   4.001  13.045 -0.3544 -0.1528 -0.0583
  486MPD2    C1 7278   2.842   3.911  13.033 -0.2261 -0.5216 -0.8895
  486MPD2    C2 7279   2.721   3.948  12.970  0.4015  0.2790  0.6122
  486MPD2    C3 7280   2.700   4.072  12.917  0.0932 -0.6285 -0.0066
  486MPD2    C4 7281   2.802   4.161  12.928  0.1562  0.4547  0.1810
  486MPD2    C5 7282   2.917   4.126  12.989  0.5224  0.2895 -0.5493
  486MPD2     H 7283   2.642   3.876  12.950 -0.1909  0.3446  2.7282
  486MPD2    H1 7284   2.795   4.259  12.882  1.7241  0.8785  0.8386
  486MPD2    H2 7285   3.030   3.983  13.104 -0.0940  2.2106  0.2564
  486MPD2    H3 7286   2.998   4.197  12.997  0.8039 -0.0264 -0.5981
  486MPD2     N 7287   2.581   4.114  12.862  0.1725 -0.1794 -0.0776
  486MPD2    H5 7288   2.514   4.038  12.855 -1.7861  1.6003 -0.2860
  486MPD2    N1 7289   2.861   3.782  13.087  0.0394  0.1681  0.4461
  486MPD2    H7 7290   2.953   3.761  13.124  0.4083  1.8817  0.5175
  487TMC3    C1 7291   2.825   3.572  13.174  1.3699  0.1127 -0.3094
  487TMC3    C2 7292   2.779   3.454  13.129  0.2034  0.2222 -0.4898
  487TMC3    C3 7293   2.746   3.363  13.218 -0.0954  0.2511  0.2196
  487TMC3    C4 7294   2.847   3.604  13.302  0.4648  0.2663 -0.0156
  487TMC3    C5 7295   2.819   3.502  13.394  0.5042  0.2268  0.4538
  487TMC3    C6 7296   2.770   3.385  13.350 -0.8547 -0.0566  0.5815
  487TMC3     C 7297   2.776   3.680  13.086 -0.0916 -0.3430 -0.0123
  487TMC3     O 7298   2.667   3.671  13.029 -0.8633  0.3537 -0.2353
  487TMC3     H 7299   2.735   3.456  13.030  2.2422  0.9966 -1.3924
  487TMC3    H1 7300   2.867   3.704  13.336 -0.6254  0.5286 -0.1400
  487TMC3    H2 7301   2.742   3.305  13.417  0.7459 -1.7574 -0.7651
  487TMC3    C7 7302   2.794   3.525  13.540  0.7085  0.1050 -0.0818
  487TMC3    C8 7303   2.603   3.329  13.207 -0.1559 -0.3472  0.4580
  487TMC3    O1 7304   2.723   3.438  13.596 -0.6318 -0.3446  0.0411
  487TMC3    O2 7305   2.539   3.335  13.310 -0.2449  0.2176  0.3435
  488MPD2     C 7306   2.826   0.957  16.500 -0.5776  0.5055  0.1744
  488MPD2    C1 7307   2.833   1.094  16.474  0.0949 -0.2202  0.4593
  488MPD2    C2 7308   2.808   1.182  16.575 -0.6547 -0.0059 -0.6527
  488MPD2    C3 7309   2.794   1.131  16.707 -0.3617 -0.8900 -0.1797
  488MPD2    C4 7310   2.803   1.000  16.728 -0.1161 -1.0103  0.2951
  488MPD2    C5 7311   2.810   0.914  16.625  0.0591 -0.1597 -1.0822
  488MPD2     H 7312   2.818   1.289  16.564  0.7799  0.0564  1.2815
  488MPD2    H1 7313   2.803   0.966  16.831  0.5626  1.3016  1.0591
  488MPD2    H2 7314   2.808   0.881  16.425 -0.4686 -0.1858  0.8559
  488MPD2    H3 7315   2.820   0.807  16.638 -2.6757 -0.4134 -0.9182
  488MPD2     N 7316   2.769   1.225  16.809  0.4887  0.0571 -0.0456
  488MPD2    H5 7317   2.753   1.324  16.794  3.5443  0.2740 -1.8316
  488MPD2    N1 7318   2.837   1.146  16.338  0.2208  0.2990 -0.4079
  488MPD2    H7 7319   2.830   1.245  16.318  0.0448  0.3985  0.1231
  489TMC3    C1 7320   2.726   1.313  17.026 -0.0439 -0.3382  1.1250
  489TMC3    C2 7321   2.613   1.387  16.990  0.7582  0.2780  0.2175
  489TMC3    C3 7322   2.568   1.495  17.066 -0.4684 -0.3691 -0.9905
  489TMC3    C4 7323   2.792   1.334  17.146 -0.1730  0.0759  1.2269
  489TMC3    C5 7324   2.746   1.444  17.222  0.1892 -0.0550 -0.7861
  489TMC3    C6 7325   2.631   1.516  17.191 -0.5325 -0.1435 -0.2970
  489TMC3     C 7326   2.753   1.199  16.946 -0.4977  0.7585  0.2489
  489TMC3     O 7327   2.792   1.103  17.014  0.6705 -0.3606  0.0504
  489TMC3     H 7328   2.574   1.378  16.889  2.2267  1.0641 -0.4192
  489TMC3    H1 7329   2.862   1.260  17.181  1.0322  0.4150 -0.4945
  489TMC3    H2 7330   2.605   1.600  17.255  2.5346 -0.9038  1.9309
  489TMC3    C7 7331   2.812   1.472  17.346 -0.2385 -0.6271 -0.4510
  489TMC3    C8 7332   2.519   1.600  16.982 -0.3138 -0.0570 -0.0581
  489TMC3    O1 7333   2.740   1.519  17.431 -0.6757 -0.2583 -0.1280
  489TMC3    O2 7334   2.487   1.574  16.870 -0.0159 -0.0094  0.2282
  490MPD2     C 7335   3.275   0.184  16.994 -0.3793 -0.8066 -0.3886
  490MPD2    C1 7336   3.324   0.201  17.126 -0.0416 -0.5838  0.1778
  490MPD2    C2 7337   3.422   0.297  17.153 -0.2843  0.0998 -0.2952
  490MPD2    C3 7338   3.492   0.357  17.049  0.0815  0.5840 -0.1323
  490MPD2    C4 7339   3.448   0.330  16.918 -0.1034 -1.1684 -0.0099
  490MPD2    C5 7340   3.349   0.244  16.896 -0.1030 -0.3754 -0.5589
  490MPD2     H 7341   3.457   0.314  17.254 -1.8856 -0.3514  0.3409
  490MPD2    H1 7342   3.500   0.380  16.837 -0.0591 -0.4079  0.4830
  490MPD2    H2 7343   3.196   0.116  16.964  0.1610 -1.6434  0.1069
  490MPD2    H3 7344   3.325   0.211  16.795 -1.5551  0.2922 -0.4397
  490MPD2     N 7345   3.601   0.443  17.060 -0.7993  0.5128  0.3123
  490MPD2    H5 7346   3.673   0.453  16.989 -2.7076 -1.9077 -1.9148
  490MPD2    N1 7347   3.274   0.123  17.233  0.5690 -0.4352 -0.1362
  490MPD2    H7 7348   3.334   0.122  17.315  1.2250 -0.3732 -0.6142
  491TMC3    C1 7349   3.167   4.687  17.345 -1.0065  0.6146  0.1545
  491TMC3    C2 7350   3.227   4.735  17.458  0.0668 -0.1869 -0.0843
  491TMC3    C3 7351   3.250   4.640  17.559  0.2654 -0.5690  0.0932
  491TMC3    C4 7352   3.116   4.559  17.333 -0.4974  0.5259  0.1961
  491TMC3    C5 7353   3.136   4.467  17.430 -0.1178  0.1376  0.4453
  491TMC3    C6 7354   3.202   4.507  17.547  0.2755  0.5959  0.3209
  491TMC3     C 7355   3.171   0.031  17.226 -0.4301  0.1259 -0.0175
  491TMC3     O 7356   3.097   4.729  17.135  0.0354 -0.0202 -0.2017
  491TMC3     H 7357   3.260   0.098  17.476 -1.0027 -0.0583  1.1633
  491TMC3    H1 7358   3.082   4.541  17.231 -1.2687  0.7360  0.4148
  491TMC3    H2 7359   3.227   4.436  17.624 -2.0334 -0.0484  0.4806
  491TMC3    C7 7360   3.115   4.326  17.383  0.0686  0.0744 -0.4240
  491TMC3    C8 7361   3.331   4.671  17.678 -0.0358 -0.6508 -0.0914
  491TMC3    O1 7362   3.090   4.306  17.265  0.0742  0.3396 -0.4263
  491TMC3    O2 7363   3.329   0.053  17.704  0.2100  0.2076  0.1016
  492MPD2     C 7364   3.843   0.046  11.848 -0.1788  1.0641 -0.3338
  492MPD2    C1 7365   3.738   0.022  11.764  0.0265 -0.0624 -0.1186
  492MPD2    C2 7366   3.629   4.691  11.814 -0.5182 -0.2393  0.4684
  492MPD2    C3 7367   3.625   4.651  11.948 -0.3298 -0.1701  0.2631
  492MPD2    C4 7368   3.732   4.682  12.028 -0.8429  0.1488  0.0133
  492MPD2    C5 7369   3.844   0.009  11.977 -0.0638 -0.3480  0.0240
  492MPD2     H 7370   3.547   4.665  11.749  0.6324 -0.9800 -0.6814
  492MPD2    H1 7371   3.739   4.649  12.130  1.1424 -0.0665 -0.2022
  492MPD2    H2 7372   3.923   0.106  11.807 -0.5889  1.8050 -0.0378
  492MPD2    H3 7373   3.928   0.045  12.036  0.9827  1.7196 -2.6781
  492MPD2     N 7374   3.513   4.586  12.009 -0.1931  0.4773 -0.2327
  492MPD2    H5 7375   3.521   4.588  12.110  0.4337 -0.1932 -0.2682
  492MPD2    N1 7376   3.758   0.063  11.629  0.1720  0.3399  0.1003
  492MPD2    H7 7377   3.844   0.115  11.611 -1.2039  2.5215 -0.2050
  493TMC3    C1 7378   3.703   0.104  11.400 -0.3866 -0.3530 -0.4877
  493TMC3    C2 7379   3.828   0.083  11.348 -0.1338 -0.3097 -0.0667
  493TMC3    C3 7380   3.849   0.094  11.217 -0.2815 -0.5176 -0.0101
  493TMC3    C4 7381   3.604   0.152  11.316  0.0009  0.0507  0.2048
  493TMC3    C5 7382   3.627   0.166  11.182 -0.6133 -0.1086 -0.2132
  493TMC3    C6 7383   3.753   0.144  11.135  0.2536  0.0332  0.0349
  493TMC3     C 7384   3.668   0.045  11.525  0.3800 -0.4039 -0.3910
  493TMC3     O 7385   3.551   0.017  11.536 -0.1961  0.8983 -0.2706
  493TMC3     H 7386   3.910   0.064  11.417 -0.8223  2.4854  1.5652
  493TMC3    H1 7387   3.503   0.170  11.352 -1.6775 -0.6124 -4.1450
  493TMC3    H2 7388   3.769   0.156  11.029 -2.0922 -2.2366 -0.5845
  493TMC3    C7 7389   3.525   0.190  11.088 -0.0922 -0.2275 -0.4138
  493TMC3    C8 7390   3.981   0.126  11.181 -0.2083 -0.4055  0.4238
  493TMC3    O1 7391   3.428   0.267  11.111  0.0268  0.4734  0.1609
  493TMC3    O2 7392   4.074   0.100  11.252 -0.0585  0.3737  0.5534
  494TMC3    C1 7393   4.408   1.774   0.410 -0.4397  0.3865 -0.0314
  494TMC3    C2 7394   4.404   1.638   0.416  0.0710  0.5416  0.7051
  494TMC3    C3 7395   4.429   1.567   0.299 -0.4141  0.4480  0.0954
  494TMC3    C4 7396   4.430   1.839   0.294 -0.4138 -0.0121  0.7908
  494TMC3    C5 7397   4.452   1.771   0.183  0.4568 -0.0693 -0.4325
  494TMC3    C6 7398   4.465   1.635   0.184  0.5601 -0.4421 -0.0583
  494TMC3     C 7399   4.385   1.851   0.532 -0.0549  0.0407  0.3893
  494TMC3     O 7400   4.402   1.776   0.630 -0.3402  0.2332 -0.9458
  494TMC3     H 7401   4.384   1.589   0.510 -0.1326  0.2412  0.5064
  494TMC3    H1 7402   4.448   1.945   0.293 -0.0474 -0.0852 -1.1091
  494TMC3    H2 7403   4.507   1.583   0.099  0.7575 -2.6054  1.3896
  494TMC3    C7 7404   4.460   1.828   0.055 -0.4041  0.6266  0.1876
  494TMC3    C8 7405   4.399   1.424   0.281 -0.1406  0.6909 -0.4359
  494TMC3    O1 7406   4.508   1.760  17.719 -0.4718  0.7001 -0.3769
  494TMC3    O2 7407   4.376   1.375   0.392 -0.0561  0.0369  0.0833
  495TMC3    C1 7408   3.402   4.080  14.881  0.0665 -0.0195 -0.0716
  495TMC3    C2 7409   3.356   4.134  14.762 -0.2763  0.1525  0.0784
  495TMC3    C3 7410   3.249   4.222  14.753 -0.3721 -1.0145 -0.1119
  495TMC3    C4 7411   3.349   4.135  14.997 -0.3309  0.0590 -0.0631
  495TMC3    C5 7412   3.240   4.218  14.991 -0.1873 -0.5092  0.3804
  495TMC3    C6 7413   3.182   4.254  14.866  0.6416 -0.2865 -0.0227
  495TMC3     C 7414   3.362   3.940  14.883 -0.1921  0.0459  0.7165
  495TMC3     O 7415   3.294   3.905  14.976  0.1820  0.5035 -0.6283
  495TMC3     H 7416   3.404   4.106  14.669 -2.2475  1.0946 -1.2092
  495TMC3    H1 7417   3.368   4.079  15.088  1.4957  1.1622  0.2380
  495TMC3    H2 7418   3.090   4.311  14.871 -0.6964 -2.6792  2.6049
  495TMC3    C7 7419   3.171   4.244  15.118  0.9816  0.0561 -0.1175
  495TMC3    C8 7420   3.154   4.200  14.649  0.9576 -1.0993 -0.0123
  495TMC3    O1 7421   3.245   4.240  15.217 -0.2391 -0.7352  0.0632
  495TMC3    O2 7422   3.052   4.272  14.634  0.2027 -0.1985 -0.1532
  496MPD2     C 7423   4.737   4.181  15.160  0.0603  0.3481  0.7539
  496MPD2    C1 7424   0.047   4.119  15.274  0.0412 -0.4740 -0.3047
  496MPD2    C2 7425   4.700   4.044  15.357 -0.3304 -0.1242  0.7737
  496MPD2    C3 7426   4.565   4.031  15.321 -0.6382 -0.1302  0.1228
  496MPD2    C4 7427   4.519   4.098  15.210  0.6927 -0.4258 -0.7739
  496MPD2    C5 7428   4.604   4.161  15.126  0.4219 -0.8720 -0.0097
  496MPD2     H 7429   4.734   3.993  15.447 -0.0748  3.1814  2.5268
  496MPD2    H1 7430   4.413   4.096  15.189  0.3195  0.2538  1.1105
  496MPD2    H2 7431   0.054   4.242  15.089 -1.1450  2.1135  1.3659
  496MPD2    H3 7432   4.557   4.214  15.044 -3.9515 -1.8086  1.8985
  496MPD2     N 7433   4.471   3.955  15.393  0.3456  0.5354 -0.5394
  496MPD2    H5 7434   4.372   3.973  15.376 -0.0142 -0.0716  0.9372
  496MPD2    N1 7435   0.186   4.137  15.302  0.0921 -0.5070 -0.1759
  496MPD2    H7 7436   0.243   4.203  15.249 -0.5850  2.0261  2.2021
  497TMC3    C1 7437   4.389   3.809  15.554  0.4853  1.2751 -0.0479
  497TMC3    C2 7438   4.288   3.762  15.479 -0.0180 -0.9122 -0.0832
  497TMC3    C3 7439   4.201   3.668  15.531  0.9723  0.3365  1.3124
  497TMC3    C4 7440   4.417   3.756  15.675 -0.9599 -0.6251 -0.4873
  497TMC3    C5 7441   4.324   3.671  15.731 -1.5285  0.8159 -0.3649
  497TMC3    C6 7442   4.217   3.624  15.658  0.5701 -0.0962  0.1105
  497TMC3     C 7443   4.502   3.855  15.477  0.1144  0.8395 -0.1394
  497TMC3     O 7444   4.610   3.800  15.491  0.1657  0.2816 -0.0198
  497TMC3     H 7445   4.281   3.792  15.376  1.4749 -3.1021 -0.8428
  497TMC3    H1 7446   4.514   3.770  15.722 -0.0259 -1.5475 -2.1475
  497TMC3    H2 7447   4.156   3.541  15.694  1.7371 -1.6838 -1.5701
  497TMC3    C7 7448   4.336   3.627  15.870 -0.7082 -0.1752  0.0618
  497TMC3    C8 7449   4.075   3.640  15.453 -0.4724 -0.0621  0.4964
  497TMC3    O1 7450   4.252   3.544  15.902 -0.3446 -0.3460 -0.6047
  497TMC3    O2 7451   4.029   3.738  15.401 -0.0151  0.0635 -0.8640
  498MPD2     C 7452   0.605   4.590   9.332 -0.4535 -0.3450 -0.0628
  498MPD2    C1 7453   0.614   4.669   9.441 -0.3600  0.7442  0.1924
  498MPD2    C2 7454   0.502   4.699   9.519 -0.4138  0.1901  0.6196
  498MPD2    C3 7455   0.376   4.645   9.481 -0.9552 -0.4829  0.3526
  498MPD2    C4 7456   0.372   4.561   9.365  0.0247  0.3455  0.2750
  498MPD2    C5 7457   0.484   4.536   9.293  0.1687 -0.6523 -0.5832
  498MPD2     H 7458   0.517   0.025   9.606 -0.7663  1.6574 -0.4031
  498MPD2    H1 7459   0.279   4.517   9.330  0.0558  1.3860 -1.1113
  498MPD2    H2 7460   0.686   4.586   9.260 -2.4440  0.9600 -2.3948
  498MPD2    H3 7461   0.478   4.471   9.206  0.4829 -0.0204 -1.0750
  498MPD2     N 7462   0.266   4.684   9.559  0.1817  0.7293  0.0606
  498MPD2    H5 7463   0.282   0.019   9.629  0.6390  0.0409  0.6746
  498MPD2    N1 7464   0.739   4.731   9.456 -0.1383 -0.3861 -0.4821
  498MPD2    H7 7465   0.823   4.703   9.406 -0.8001  1.3545 -2.5383
  499TMC3    C1 7466   0.893   0.144   9.541 -0.7335 -0.0267 -0.5757
  499TMC3    C2 7467   0.956   0.042   9.604  0.0658 -1.2714 -0.3355
  499TMC3    C3 7468   1.030   0.061   9.717 -0.4852  0.6280 -0.1193
  499TMC3    C4 7469   0.900   0.269   9.596  0.2117 -0.4213  0.2190
  499TMC3    C5 7470   0.961   0.283   9.718 -0.2994  0.6219 -0.3523
  499TMC3    C6 7471   1.028   0.183   9.783  0.1915 -0.2778  0.1567
  499TMC3     C 7472   0.749   0.109   9.528 -0.4273 -0.7012 -0.2245
  499TMC3     O 7473   0.667   0.190   9.568  0.5350 -0.3314  0.7760
  499TMC3     H 7474   0.952   4.676   9.570  0.0839 -1.0948 -0.8758
  499TMC3    H1 7475   0.839   0.344   9.549 -1.0597 -2.8921 -2.0924
  499TMC3    H2 7476   1.066   0.202   9.883 -0.5410  1.2629  0.1435
  499TMC3    C7 7477   0.978   0.420   9.763 -0.8208  0.2214 -0.2102
  499TMC3    C8 7478   1.076   4.677   9.786  0.6628  0.0247 -0.2696
  499TMC3    O1 7479   0.927   0.514   9.699 -0.4863  0.5527  0.4359
  499TMC3    O2 7480   1.028   4.571   9.745  0.1354  0.8679  0.0377
  500MPD2     C 7481   2.633   1.557  10.495 -0.5054 -0.0342 -0.0665
  500MPD2    C1 7482   2.557   1.466  10.562 -0.4227  0.4376 -0.8218
  500MPD2    C2 7483   2.419   1.465  10.542 -0.1233 -0.1194  0.1797
  500MPD2    C3 7484   2.355   1.568  10.465 -0.6895  0.1480  0.2904
  500MPD2    C4 7485   2.437   1.660  10.408  0.1368 -0.4778  0.6376
  500MPD2    C5 7486   2.570   1.657  10.424 -0.7410  0.1906  0.1634
  500MPD2     H 7487   2.371   1.384  10.597 -1.2917  0.0734 -0.5706
  500MPD2    H1 7488   2.392   1.746  10.359 -0.1824 -0.7608  0.4276
  500MPD2    H2 7489   2.741   1.562  10.500 -0.4216  0.2572 -2.1123
  500MPD2    H3 7490   2.618   1.746  10.385 -1.6565  1.0210  0.9389
  500MPD2     N 7491   2.213   1.581  10.459  0.4440  0.7601 -0.2655
  500MPD2    H5 7492   2.186   1.651  10.391  1.3203 -0.0839 -1.4925
  500MPD2    N1 7493   2.615   1.377  10.662  0.0976 -0.0982 -0.2949
  500MPD2    H7 7494   2.558   1.301  10.698  0.3952 -0.3297 -0.3162
  501TMC3    C1 7495   2.791   1.254  10.754 -0.1278 -0.6819 -0.2343
  501TMC3    C2 7496   2.767   1.154  10.665 -0.5317 -0.1917 -0.4624
  501TMC3    C3 7497   2.862   1.055  10.660  0.1310 -0.5253 -0.1373
  501TMC3    C4 7498   2.896   1.242  10.840  0.3924  0.3007  0.2037
  501TMC3    C5 7499   2.977   1.124  10.835 -0.5183 -0.4183 -0.3569
  501TMC3    C6 7500   2.955   1.019  10.753 -0.2486 -0.2306  0.5014
  501TMC3     C 7501   2.750   1.387  10.707  0.5787 -0.5727  0.6184
  501TMC3     O 7502   2.828   1.483  10.708  0.0916 -0.1591 -0.4388
  501TMC3     H 7503   2.687   1.150  10.592  0.2733 -0.8423 -1.3032
  501TMC3    H1 7504   2.922   1.323  10.907 -0.1583 -0.1260  0.9201
  501TMC3    H2 7505   3.023   0.935  10.745 -1.0436 -0.6900 -1.3449
  501TMC3    C7 7506   3.091   1.127  10.920  0.1055  0.4536 -0.8196
  501TMC3    C8 7507   2.888   0.981  10.536 -0.7035  0.1684 -0.3886
  501TMC3    O1 7508   3.087   1.206  11.011 -0.4552 -0.2459 -0.5809
  501TMC3    O2 7509   2.924   0.866  10.551 -0.0012  0.2758 -0.1619
  502TMC3    C1 7510   2.627   0.195  15.568 -0.4044  0.2950 -0.0333
  502TMC3    C2 7511   2.612   0.321  15.516  0.2677 -0.2277 -0.1224
  502TMC3    C3 7512   2.590   0.328  15.381  0.3726 -0.2644 -0.1213
  502TMC3    C4 7513   2.592   0.082  15.490  0.6056 -0.1262  0.4525
  502TMC3    C5 7514   2.561   0.099  15.357  0.4074  0.4284 -0.1147
  502TMC3    C6 7515   2.562   0.220  15.295 -0.4126 -0.4083  0.2777
  502TMC3     C 7516   2.627   0.188  15.708 -0.0933  0.5639  0.2403
  502TMC3     O 7517   2.647   0.289  15.775  0.2278 -0.2948 -0.4728
  502TMC3     H 7518   2.642   0.406  15.576 -0.3860 -1.0280  1.3530
  502TMC3    H1 7519   2.630   4.724  15.524 -0.4741 -1.1024 -1.0824
  502TMC3    H2 7520   2.546   0.241  15.189 -0.8389 -2.8565 -0.1475
  502TMC3    C7 7521   2.443   0.020  15.319 -0.1015 -0.9136  0.0986
  502TMC3    C8 7522   2.573   0.460  15.319 -0.1526  0.5919 -0.2260
  502TMC3    O1 7523   2.438   4.643  15.362 -0.2477 -0.6169 -0.3355
  502TMC3    O2 7524   2.601   0.483  15.202  0.5360 -0.5374 -0.0542
  503MPD2     C 7525   0.134   0.925  16.446 -0.6119  0.0024 -0.5418
  503MPD2    C1 7526   0.096   0.907  16.577  0.4565  0.1880 -1.1009
  503MPD2    C2 7527   0.101   0.773  16.623  0.1361  0.1131 -0.0711
  503MPD2    C3 7528   0.170   0.669  16.558 -0.1389  0.1865  0.0254
  503MPD2    C4 7529   0.211   0.701  16.428  0.2653  0.3893 -0.3509
  503MPD2    C5 7530   0.191   0.825  16.369 -0.7139  0.5829 -0.4462
  503MPD2     H 7531   0.057   0.745  16.718  1.6876 -2.4029 -0.1061
  503MPD2    H1 7532   0.243   0.615  16.370 -1.1839 -0.9358  0.8275
  503MPD2    H2 7533   0.109   1.017  16.395 -1.5411 -1.3086 -2.4458
  503MPD2    H3 7534   0.215   0.852  16.267  0.5421  2.4161  0.3294
  503MPD2     N 7535   0.174   0.536  16.613 -0.2971 -0.4368  0.2436
  503MPD2    H5 7536   0.129   0.525  16.704  1.2460 -0.5672  0.9921
  503MPD2    N1 7537   0.031   0.996  16.666 -0.1564 -0.2036 -0.0834
  503MPD2    H7 7538   0.023   0.961  16.761 -0.1570 -0.9159 -0.3431
  504TMC3    C1 7539   0.228   0.320  16.652  0.0880 -0.6231 -0.4855
  504TMC3    C2 7540   0.154   0.339  16.765 -0.2604 -0.3417  0.5415
  504TMC3    C3 7541   0.197   0.280  16.876  0.1675 -0.0992  0.1525
  504TMC3    C4 7542   0.341   0.241  16.655 -0.0085  0.4191  0.4679
  504TMC3    C5 7543   0.392   0.212  16.777  0.2054  0.3042  0.1649
  504TMC3    C6 7544   0.314   0.215  16.890 -0.6725  0.3669  0.3186
  504TMC3     C 7545   0.240   0.427  16.567 -0.1880 -0.2861 -0.0870
  504TMC3     O 7546   0.304   0.427  16.464 -0.1200 -0.9207  0.1756
  504TMC3     H 7547   0.055   0.382  16.768 -0.3335 -0.4240 -0.6866
  504TMC3    H1 7548   0.409   0.233  16.571 -0.1994  0.0694  0.3441
  504TMC3    H2 7549   0.358   0.179  16.982  0.7075  1.1184 -0.0338
  504TMC3    C7 7550   0.534   0.180  16.778 -0.4871  0.7463 -0.3084
  504TMC3    C8 7551   0.159   0.354  16.998  0.2831 -0.0832 -0.0705
  504TMC3    O1 7552   0.586   0.125  16.677 -0.6733 -0.1361  0.5937
  504TMC3    O2 7553   0.132   0.469  16.988 -0.2083  0.0016 -0.2351
  505MPD2     C 7554   4.541   4.206  10.635  0.3911  0.8039  0.1277
  505MPD2    C1 7555   4.601   4.099  10.574  0.0505  0.6539 -0.1098
  505MPD2    C2 7556   4.737   4.092  10.587  0.5018 -0.2251  0.0654
  505MPD2    C3 7557   0.069   4.167  10.680  0.0293  0.1875  1.0833
  505MPD2    C4 7558   0.000   4.265  10.749 -0.0773 -0.1973 -0.3785
  505MPD2    C5 7559   4.609   4.281  10.724 -0.1196 -0.0868  0.1829
  505MPD2     H 7560   0.055   4.028  10.519 -1.4543 -1.0237 -0.7566
  505MPD2    H1 7561   0.049   4.326  10.825  1.3589 -0.9984 -0.6651
  505MPD2    H2 7562   4.438   4.234  10.622 -0.0633 -0.7502  0.3624
  505MPD2    H3 7563   4.559   4.367  10.768 -1.2139 -0.3933 -0.4435
  505MPD2     N 7564   0.206   4.183  10.674  0.2518 -0.3662 -0.9703
  505MPD2    H5 7565   0.250   4.255  10.730 -0.3171 -1.3342  0.7053
  505MPD2    N1 7566   4.527   4.009  10.492 -0.1169  0.2527  0.4522
  505MPD2    H7 7567   4.428   4.031  10.492 -0.3493 -0.8027  2.5435
  506TMC3    C1 7568   4.466   3.809  10.377 -0.7202  0.0615  0.9662
  506TMC3    C2 7569   4.405   3.868  10.271  0.0090 -1.2059  0.0447
  506TMC3    C3 7570   4.372   3.797  10.159 -0.8417 -0.5332  0.6989
  506TMC3    C4 7571   4.499   3.677  10.367 -0.2241  0.4827 -1.2398
  506TMC3    C5 7572   4.489   3.611  10.242  0.4253  0.5791  0.3561
  506TMC3    C6 7573   4.418   3.671  10.145 -0.4583 -0.7564  0.7548
  506TMC3     C 7574   4.575   3.885  10.442 -0.2953  0.1649 -0.3112
  506TMC3     O 7575   4.681   3.827  10.460 -0.2603  0.5705 -0.2198
  506TMC3     H 7576   4.392   3.975  10.276  2.0923 -0.9987  1.0046
  506TMC3    H1 7577   4.538   3.621  10.452 -0.3329  4.1179  1.2221
  506TMC3    H2 7578   4.416   3.616  10.051  0.3727  0.0617  0.2637
  506TMC3    C7 7579   4.609   3.553  10.192  0.1119  0.8537 -0.2191
  506TMC3    C8 7580   4.324   3.864  10.036 -0.6612 -0.9858  0.1281
  506TMC3    O1 7581   4.616   3.496  10.087 -0.0082 -0.0734  0.4129
  506TMC3    O2 7582   4.274   3.792   9.948 -0.2713  0.6853  0.0613
  507TMC3    C1 7583   0.669   0.145  14.964  0.5034 -0.1135  0.1750
  507TMC3    C2 7584   0.555   0.086  14.923  0.4980  0.1589 -0.2969
  507TMC3    C3 7585   0.521   0.108  14.789  0.0118  0.1913  0.0761
  507TMC3    C4 7586   0.756   0.197  14.873 -0.2222 -0.4134  0.8111
  507TMC3    C5 7587   0.723   0.213  14.742 -0.0637 -0.2781  0.8447
  507TMC3    C6 7588   0.603   0.169  14.696  0.0286 -0.9234  0.4723
  507TMC3     C 7589   0.653   0.244  15.071  0.2478 -0.3868  0.2213
  507TMC3     O 7590   0.694   0.350  15.025 -1.0735  0.2904 -0.5813
  507TMC3     H 7591   0.483   0.060  15.000  1.9730 -0.5349  0.8429
  507TMC3    H1 7592   0.846   0.241  14.915  0.5591  0.2352 -1.5306
  507TMC3    H2 7593   0.565   0.181  14.596 -3.0555  0.5877  1.8513
  507TMC3    C7 7594   0.755   0.346  14.684 -0.2845  0.3734  0.1620
  507TMC3    C8 7595   0.390   0.171  14.784 -0.5252  0.1584  0.4874
  507TMC3    O1 7596   0.671   0.395  14.607  0.1455  0.2158 -0.5645
  507TMC3    O2 7597   0.302   0.130  14.860 -0.2091 -0.1479 -0.1710
  508MPD2     C 7598   2.074   2.597  16.001 -0.3222  0.1134  0.3655
  508MPD2    C1 7599   2.053   2.674  16.112  0.9295  0.7918  0.4165
  508MPD2    C2 7600   2.016   2.809  16.089  0.0601 -0.0891  0.2862
  508MPD2    C3 7601   1.984   2.861  15.964 -0.0429 -0.2810  0.1329
  508MPD2    C4 7602   2.005   2.782  15.852 -0.2044  0.6580 -0.1621
  508MPD2    C5 7603   2.049   2.654  15.877 -0.9637  0.1848  0.0214
  508MPD2     H 7604   2.003   2.875  16.174  0.9918  0.2027  0.1932
  508MPD2    H1 7605   1.992   2.812  15.748 -4.0154 -1.6768 -0.3571
  508MPD2    H2 7606   2.101   2.493  16.005  1.0668  0.4857  0.5970
  508MPD2    H3 7607   2.061   2.583  15.796 -0.8629  0.5371 -0.2763
  508MPD2     N 7608   1.934   2.991  15.962 -0.6287  0.1361 -0.7805
  508MPD2    H5 7609   1.929   3.039  16.052  1.8004 -0.0262 -0.5849
  508MPD2    N1 7610   2.076   2.632  16.246  0.1493  0.9058  0.3776
  508MPD2    H7 7611   2.039   2.684  16.325 -0.7689 -0.9865  1.2111
  509TMC3    C1 7612   1.727   3.390  15.849 -0.4025 -0.0870  0.2403
  509TMC3    C2 7613   1.778   3.445  15.967 -0.7220  0.4109 -0.1213
  509TMC3    C3 7614   1.878   3.377  16.020 -0.2062  0.2354  0.4734
  509TMC3    C4 7615   1.753   3.262  15.807 -0.1124 -0.2310  0.2533
  509TMC3    C5 7616   1.851   3.194  15.878 -0.2602 -0.4620 -0.5998
  509TMC3    C6 7617   1.917   3.254  15.982 -0.2019 -0.1362 -0.3160
  509TMC3     C 7618   1.615   3.461  15.796 -0.3116  0.0988 -0.1837
  509TMC3     O 7619   1.563   3.547  15.870  0.0666  0.5353 -0.4608
  509TMC3     H 7620   1.746   3.542  16.002 -3.0033 -1.0045  1.6814
  509TMC3    H1 7621   1.703   3.215  15.723  0.8298  0.2273 -0.5746
  509TMC3    H2 7622   2.001   3.205  16.031  0.7333  0.1161 -1.6730
  509TMC3    C7 7623   1.883   3.057  15.849 -0.8002 -0.0072  0.3851
  509TMC3    C8 7624   1.980   3.437  16.104 -0.5399 -0.4634 -0.0023
  509TMC3    O1 7625   1.842   3.002  15.745  0.2964 -0.2793 -0.0521
  509TMC3    O2 7626   2.028   3.380  16.202 -0.0145 -0.4083  0.0428
  510MPD2     C 7627   4.080   4.543  14.930  0.8009 -0.7049 -0.4095
  510MPD2    C1 7628   4.164   4.440  14.915  0.2934 -0.3831 -0.0432
  510MPD2    C2 7629   4.262   4.437  14.817 -0.0577  0.3267 -0.3017
  510MPD2    C3 7630   4.259   4.538  14.716 -0.0165 -0.2739 -0.2750
  510MPD2    C4 7631   4.163   4.637  14.728 -0.2945 -0.9666 -0.1819
  510MPD2    C5 7632   4.070   4.637  14.834  0.2694  0.3179 -0.8502
  510MPD2     H 7633   4.332   4.355  14.809 -2.7368 -2.0331  0.4448
  510MPD2    H1 7634   4.155   4.715  14.653  0.4443 -0.7028  0.0082
  510MPD2    H2 7635   3.988   4.531  14.987  1.0181 -0.8797 -0.0985
  510MPD2    H3 7636   3.993   4.713  14.824 -0.2768  0.2301  2.7802
  510MPD2     N 7637   4.357   4.540  14.617 -0.9017 -0.5990 -0.0013
  510MPD2    H5 7638   4.431   4.471  14.629  0.9163  1.1292 -1.1865
  510MPD2    N1 7639   4.150   4.339  15.009 -0.6273  0.3835  1.0549
  510MPD2    H7 7640   4.079   4.362  15.078  0.8043 -0.0282  2.6785
  511TMC3    C1 7641   4.155   4.119  15.099 -0.1104 -0.0476  0.5020
  511TMC3    C2 7642   4.055   4.145  15.190 -0.1946 -0.2319  1.0315
  511TMC3    C3 7643   3.977   4.044  15.238  0.4947 -0.0519  0.6634
  511TMC3    C4 7644   4.173   3.989  15.054  0.7138 -0.0832 -0.1487
  511TMC3    C5 7645   4.083   3.895  15.091 -0.4322  0.2471  0.4623
  511TMC3    C6 7646   3.980   3.918  15.182 -0.1773 -0.1820 -0.1883
  511TMC3     C 7647   4.224   4.225  15.020  0.0230 -0.3929  0.6763
  511TMC3     O 7648   4.321   4.181  14.958 -0.7260 -0.4271  0.0606
  511TMC3     H 7649   4.047   4.243  15.237  0.4900  0.6866 -0.7987
  511TMC3    H1 7650   4.246   3.966  14.976 -0.9964  2.4765 -2.5125
  511TMC3    H2 7651   3.909   3.839  15.206 -0.6706  0.3440  0.0753
  511TMC3    C7 7652   4.061   3.787  14.997 -0.3748  0.0161 -0.3620
  511TMC3    C8 7653   3.890   4.070  15.351 -0.3795  0.1098 -0.2264
  511TMC3    O1 7654   4.101   3.803  14.883  0.2381  0.1096  0.5191
  511TMC3    O2 7655   3.854   4.181  15.375  0.3343  0.3393 -0.3970
  512TMC3    C1 7656   3.772   3.956  13.183 -0.8268 -0.4148  0.2384
  512TMC3    C2 7657   3.809   3.902  13.302  0.8540 -0.4086 -0.4384
  512TMC3    C3 7658   3.767   3.784  13.357 -0.5165  0.9959  0.5351
  512TMC3    C4 7659   3.685   3.882  13.106  0.0765  0.8526  0.8193
  512TMC3    C5 7660   3.640   3.758  13.158 -0.2801 -0.3029  0.3500
  512TMC3    C6 7661   3.674   3.705  13.282 -0.2719  0.2070 -0.7191
  512TMC3     C 7662   3.827   4.083  13.138 -0.4839  0.0934 -0.2869
  512TMC3     O 7663   3.929   4.123  13.196  0.1501  0.6685 -0.4708
  512TMC3     H 7664   3.880   3.964  13.357  1.5178  0.9522 -2.8461
  512TMC3    H1 7665   3.658   3.908  13.005  3.5015 -0.4048 -0.4293
  512TMC3    H2 7666   3.627   3.620  13.330  1.0135 -1.2905 -2.1270
  512TMC3    C7 7667   3.564   3.683  13.064 -0.7327  1.0080 -0.3575
  512TMC3    C8 7668   3.743   3.779  13.497  0.4552  0.8673 -0.0797
  512TMC3    O1 7669   3.487   3.744  12.992  0.2011 -0.2856  0.0434
  512TMC3    O2 7670   3.686   3.682  13.544 -0.2997 -0.5424  0.4808
  513MPD2     C 7671   0.187   3.348  13.446 -0.0548  0.2819  0.3795
  513MPD2    C1 7672   0.300   3.356  13.372 -0.5435  0.3042 -0.4583
  513MPD2    C2 7673   0.408   3.439  13.400 -0.6717  0.7154 -0.5647
  513MPD2    C3 7674   0.394   3.526  13.501 -0.5403  0.0601  0.1804
  513MPD2    C4 7675   0.284   3.521  13.586 -0.1216  0.7314  0.4562
  513MPD2    C5 7676   0.182   3.429  13.555 -0.3177 -0.3953 -0.0243
  513MPD2     H 7677   0.496   3.437  13.336 -0.1033  0.0496  0.2348
  513MPD2    H1 7678   0.275   3.591  13.669 -2.6075  0.6928  0.2076
  513MPD2    H2 7679   0.105   3.284  13.417  0.8805 -0.1422 -1.3131
  513MPD2    H3 7680   0.089   3.426  13.610 -1.5381  1.5327 -1.9889
  513MPD2     N 7681   0.506   3.616  13.517 -0.1168  0.4479  0.1160
  513MPD2    H5 7682   0.585   3.604  13.454  0.2535  0.8178  0.5104
  513MPD2    N1 7683   0.323   3.273  13.260  0.7422  0.1430  0.3030
  513MPD2    H7 7684   0.416   3.278  13.219 -1.4989 -1.5202 -4.8780
  514TMC3    C1 7685   0.297   3.175  13.057 -0.2349  0.0764 -0.3117
  514TMC3    C2 7686   0.250   3.229  12.945 -0.5160 -0.0757  0.7427
  514TMC3    C3 7687   0.346   3.246  12.843  0.4717  0.6087  0.3137
  514TMC3    C4 7688   0.426   3.147  13.080 -0.0015 -0.1166  0.0702
  514TMC3    C5 7689   0.519   3.161  12.976  0.6592  0.2876 -0.1514
  514TMC3    C6 7690   0.477   3.199  12.852  0.3818 -0.4467 -0.0853
  514TMC3     C 7691   0.229   3.223  13.175  0.0707 -0.6139 -0.2716
  514TMC3     O 7692   0.108   3.229  13.178 -0.2501  0.2968 -0.0017
  514TMC3     H 7693   0.150   3.272  12.944 -0.3737  0.2552  0.5416
  514TMC3    H1 7694   0.452   3.089  13.168  0.4211 -0.0640 -0.0212
  514TMC3    H2 7695   0.542   3.209  12.766  0.5125 -1.6472 -0.1135
  514TMC3    C7 7696   0.625   3.241  13.029 -0.3864 -0.0348 -0.2221
  514TMC3    C8 7697   0.331   3.338  12.730 -0.2051  0.3699  0.3267
  514TMC3    O1 7698   0.584   3.298  13.132  0.0788  0.0794 -0.3069
  514TMC3    O2 7699   0.413   3.324  12.643  0.0249 -0.1281  0.0092
  515MPD2     C 7700   3.810   0.573  14.480 -0.2838 -0.2523 -0.3426
  515MPD2    C1 7701   3.688   0.637  14.467  0.2554  0.4281  0.0862
  515MPD2    C2 7702   3.656   0.760  14.536 -0.0066  0.4488 -0.4073
  515MPD2    C3 7703   3.758   0.813  14.615 -0.0643  0.0821  0.4588
  515MPD2    C4 7704   3.878   0.755  14.617 -0.1133  0.4909  0.0703
  515MPD2    C5 7705   3.906   0.637  14.556  0.3949 -0.2838  0.0280
  515MPD2     H 7706   3.560   0.809  14.543 -0.1138  0.0763  0.6885
  515MPD2    H1 7707   3.954   0.798  14.682  0.9360  0.8025 -1.3658
  515MPD2    H2 7708   3.831   0.471  14.447 -0.9308 -0.8345  1.0335
  515MPD2    H3 7709   4.002   0.587  14.568 -0.0040 -0.1286  4.0139
  515MPD2     N 7710   3.745   0.935  14.682 -0.0035  0.6902  0.4872
  515MPD2    H5 7711   3.825   0.966  14.736  1.2372 -1.9303  0.1664
  515MPD2    N1 7712   3.595   0.559  14.393 -0.1487 -0.5320 -0.9899
  515MPD2    H7 7713   3.627   0.472  14.354  0.2914 -0.3249 -1.0922
  516TMC3    C1 7714   3.405   0.499  14.280 -0.1833 -0.3270  0.4250
  516TMC3    C2 7715   3.312   0.548  14.191 -0.7248  0.5720  0.0058
  516TMC3    C3 7716   3.201   0.468  14.164 -0.2155  0.0581 -0.6648
  516TMC3    C4 7717   3.382   0.393  14.357  0.4853 -0.2808  0.6619
  516TMC3    C5 7718   3.266   0.323  14.335 -0.1608 -0.1977  0.2760
  516TMC3    C6 7719   3.177   0.354  14.242 -0.1275  0.3999 -0.0788
  516TMC3     C 7720   3.476   0.607  14.352 -0.4257 -0.8282 -0.0691
  516TMC3     O 7721   3.417   0.715  14.365 -0.2256  0.5262 -0.0426
  516TMC3     H 7722   3.329   0.645  14.147  0.5640 -0.9157 -2.7631
  516TMC3    H1 7723   3.451   0.346  14.427  0.0771 -0.1955  1.1164
  516TMC3    H2 7724   3.085   0.298  14.236  1.3758 -1.8673 -2.1464
  516TMC3    C7 7725   3.228   0.257  14.459  0.0577  0.3394 -0.7157
  516TMC3    C8 7726   3.074   0.540  14.155 -0.0702 -0.2048 -0.2534
  516TMC3    O1 7727   3.289   0.298  14.554 -0.6108  0.0798 -0.4095
  516TMC3    O2 7728   2.975   0.511  14.220  0.0551  0.1796  0.9407
  517MPD2     C 7729   2.724   1.949  17.455 -0.8062  0.4343 -0.2147
  517MPD2    C1 7730   2.853   1.974  17.494 -0.4786  0.0155  0.2099
  517MPD2    C2 7731   2.889   2.057  17.599 -0.3274 -0.2336 -0.3088
  517MPD2    C3 7732   2.788   2.112  17.681  0.4538 -0.2327 -0.2728
  517MPD2    C4 7733   2.660   2.090  17.646  0.0725 -0.4430 -0.1077
  517MPD2    C5 7734   2.630   2.013  17.534  0.6042  0.6450 -0.8057
  517MPD2     H 7735   2.995   2.061  17.619 -0.6399 -0.7792  1.4634
  517MPD2    H1 7736   2.580   2.128  17.709 -1.8271 -0.5463 -2.5013
  517MPD2    H2 7737   2.686   1.889  17.374 -0.1239  1.4342 -1.2731
  517MPD2    H3 7738   2.526   2.008  17.504  0.8643 -3.1842 -1.0002
  517MPD2     N 7739   2.824   2.183   0.054 -0.2527 -0.4139 -0.2357
  517MPD2    H5 7740   2.757   2.232   0.112 -1.7335 -0.4321 -1.9397
  517MPD2    N1 7741   2.955   1.921  17.414 -0.0777 -0.2665 -0.0400
  517MPD2    H7 7742   3.050   1.948  17.437 -0.5857  0.6448  1.0495
  518TMC3    C1 7743   3.053   1.796  17.239  0.0990 -0.2275 -0.1310
  518TMC3    C2 7744   3.044   1.675  17.178  0.4597  0.7223 -0.2153
  518TMC3    C3 7745   3.150   1.635  17.100 -0.1551  0.5236  0.2856
  518TMC3    C4 7746   3.173   1.854  17.262  0.4097  0.7106 -0.0149
  518TMC3    C5 7747   3.278   1.802  17.195 -0.0698 -0.0838 -0.1329
  518TMC3    C6 7748   3.271   1.691  17.113  0.7532  0.0451  0.0806
  518TMC3     C 7749   2.933   1.837  17.306  0.0241  0.6720 -0.3966
  518TMC3     O 7750   2.829   1.793  17.262  0.6489  0.1040 -0.3105
  518TMC3     H 7751   2.953   1.621  17.157 -0.7057  3.1603 -1.5105
  518TMC3    H1 7752   3.189   1.947  17.315 -0.5968 -0.4692  2.3538
  518TMC3    H2 7753   3.356   1.633  17.080  0.5298  0.1899 -0.7434
  518TMC3    C7 7754   3.407   1.861  17.217  0.3418 -0.4878  0.7025
  518TMC3    C8 7755   3.140   1.511  17.033 -0.2514  0.4483 -0.1440
  518TMC3    O1 7756   3.416   1.982  17.217  0.2061  0.5293 -0.1280
  518TMC3    O2 7757   3.074   1.422  17.086 -0.3634  0.3683  0.1124
  519MPD2     C 7758   0.090   0.601  14.296  0.3937  1.0703  0.2950
  519MPD2    C1 7759   0.084   0.626  14.157 -0.6089 -0.3587 -0.4098
  519MPD2    C2 7760   0.148   0.530  14.077 -0.2115  0.2807 -0.3871
  519MPD2    C3 7761   0.217   0.417  14.126 -0.3961  0.4124  0.0274
  519MPD2    C4 7762   0.218   0.395  14.259  0.1714 -0.0344 -0.9904
  519MPD2    C5 7763   0.166   0.490  14.340 -0.2086  0.0481  0.0746
  519MPD2     H 7764   0.133   0.544  13.971  1.1631 -0.9190 -0.7254
  519MPD2    H1 7765   0.269   0.310  14.304  0.4391  0.6729  0.0351
  519MPD2    H2 7766   0.056   0.675  14.367  0.1024  1.9999 -0.7998
  519MPD2    H3 7767   0.178   0.473  14.446 -1.0594 -0.3128  0.1161
  519MPD2     N 7768   0.270   0.315  14.041 -0.0544  0.6338 -0.2429
  519MPD2    H5 7769   0.321   0.241  14.087 -0.5805  1.4678  1.6810
  519MPD2    N1 7770   0.026   0.753  14.109 -0.1015 -0.8108  0.5171
  519MPD2    H7 7771   4.724   0.818  14.175  1.1267  0.0186  0.4380
  520TMC3    C1 7772   0.310   0.186  13.845 -0.5592  0.9336 -0.1677
  520TMC3    C2 7773   0.285   0.169  13.709 -0.5741  0.4821  0.5219
  520TMC3    C3 7774   0.323   0.056  13.653  0.7766  0.3449 -0.3403
  520TMC3    C4 7775   0.394   0.095  13.913 -0.4909  0.1376  0.2501
  520TMC3    C5 7776   0.426   4.716  13.837 -0.2563 -0.2790 -0.2819
  520TMC3    C6 7777   0.400   4.701  13.711 -0.5879 -0.0123  0.2413
  520TMC3     C 7778   0.253   0.307  13.904 -0.5642  0.4010 -0.8885
  520TMC3     O 7779   0.205   0.393  13.830 -0.2127  0.7372 -0.4125
  520TMC3     H 7780   0.254   0.256  13.652 -3.9700  0.9888  3.1300
  520TMC3    H1 7781   0.420   0.094  14.018 -0.9329  0.1160  0.3583
  520TMC3    H2 7782   0.410   4.601  13.671  0.7268 -0.8754  2.7059
  520TMC3    C7 7783   0.439   4.583  13.900  0.2761 -0.2648 -0.3018
  520TMC3    C8 7784   0.255   0.014  13.535  0.8314  0.5784  0.0679
  520TMC3    O1 7785   0.379   4.488  13.852 -0.5027 -0.4905  0.3904
  520TMC3    O2 7786   0.306   4.662  13.472  0.5844  0.2881 -0.5752
  521MPD2     C 7787   0.789   3.142  17.553 -0.5180 -0.3569  0.0875
  521MPD2    C1 7788   0.742   3.086  17.441 -0.6025  0.1250  0.6972
  521MPD2    C2 7789   0.839   3.085  17.340 -0.3792 -0.5729 -0.3906
  521MPD2    C3 7790   0.972   3.116  17.361 -0.5645  0.5675 -0.2200
  521MPD2    C4 7791   1.008   3.178  17.478  0.5168  0.1567  0.1766
  521MPD2    C5 7792   0.915   3.185  17.584  0.5287  0.6959  0.0908
  521MPD2     H 7793   0.808   3.057  17.240 -1.1962  0.0422 -0.3043
  521MPD2    H1 7794   1.106   3.219  17.494  0.2383  0.2710  1.5542
  521MPD2    H2 7795   0.717   3.158  17.633 -2.9220 -0.7870 -2.0184
  521MPD2    H3 7796   0.942   3.220  17.683  3.2997  0.9556 -0.7500
  521MPD2     N 7797   1.063   3.090  17.255  0.1786 -0.7965  0.1014
  521MPD2    H5 7798   1.025   3.049  17.171  0.2394  1.3415 -0.9752
  521MPD2    N1 7799   0.603   3.052  17.427 -0.0650  0.8668  0.6519
  521MPD2    H7 7800   0.535   3.077  17.499  2.2799 -0.3157  3.2846
  522TMC3    C1 7801   1.257   3.045  17.150 -0.5178 -0.2942  0.7943
  522TMC3    C2 7802   1.355   2.961  17.195  0.1852  0.5785  0.7275
  522TMC3    C3 7803   1.428   2.885  17.097  0.2713 -0.8536  0.0495
  522TMC3    C4 7804   1.204   3.043  17.027 -0.2367 -0.3805  0.2722
  522TMC3    C5 7805   1.274   2.970  16.937  0.8796 -0.0845 -0.4124
  522TMC3    C6 7806   1.386   2.894  16.964 -0.3571 -0.3336  0.1456
  522TMC3     C 7807   1.198   3.122  17.254  0.3300  0.7945 -0.3419
  522TMC3     O 7808   1.281   3.145  17.344 -0.2569 -0.6192 -0.1104
  522TMC3     H 7809   1.365   2.936  17.300  0.8143 -1.9349  0.0775
  522TMC3    H1 7810   1.130   3.119  17.006 -0.5503 -0.5740  0.6783
  522TMC3    H2 7811   1.435   2.840  16.884 -0.1018 -0.2666  0.2554
  522TMC3    C7 7812   1.256   2.999  16.800  0.2938  0.4587  0.6456
  522TMC3    C8 7813   1.524   2.784  17.135 -0.2199  0.1717  0.1279
  522TMC3    O1 7814   1.355   3.008  16.732 -1.1687 -0.0946 -0.1236
  522TMC3    O2 7815   1.541   2.780  17.258 -0.2939 -0.3771  0.0775
  523MPD2     C 7816   3.020   3.117  10.071  0.7236 -0.1880  0.9660
  523MPD2    C1 7817   3.005   2.993  10.019 -0.3438  0.6199 -0.9262
  523MPD2    C2 7818   2.975   2.982   9.885 -0.3807  0.1552  0.0003
  523MPD2    C3 7819   2.952   3.097   9.809  0.3414 -0.7037  0.1001
  523MPD2    C4 7820   2.965   3.220   9.866  0.3217  0.2192  0.5791
  523MPD2    C5 7821   2.991   3.229   9.998 -0.1890  0.2067 -0.2178
  523MPD2     H 7822   2.968   2.887   9.834 -1.2000  0.1818  0.0744
  523MPD2    H1 7823   2.964   3.312   9.808 -0.6222 -0.1480  0.0156
  523MPD2    H2 7824   3.045   3.129  10.176  0.4203 -1.9801  1.2366
  523MPD2    H3 7825   3.018   3.325  10.042  1.2021  0.3067 -1.2988
  523MPD2     N 7826   2.932   3.094   9.669 -0.1141 -0.8364  0.1028
  523MPD2    H5 7827   2.931   3.186   9.626 -0.6042 -2.1946 -2.7326
  523MPD2    N1 7828   3.012   2.883  10.111  0.1482  0.0745 -0.0246
  523MPD2    H7 7829   3.033   2.915  10.206 -0.2293 -0.6876  0.3107
  524TMC3    C1 7830   2.838   2.998   9.460 -0.1576 -0.0494  0.0096
  524TMC3    C2 7831   2.813   2.882   9.387  0.2162 -0.0744 -0.1116
  524TMC3    C3 7832   2.739   2.900   9.275 -0.6039 -0.1323 -0.1024
  524TMC3    C4 7833   2.778   3.117   9.426  0.3961  0.6090 -0.2912
  524TMC3    C5 7834   2.705   3.122   9.313  0.2188 -0.1854  0.2118
  524TMC3    C6 7835   2.689   3.019   9.228 -0.3604  0.2272  0.3551
  524TMC3     C 7836   2.906   2.982   9.589  0.3961  0.2285 -0.6289
  524TMC3     O 7837   2.927   2.864   9.612 -0.1105  0.0668 -0.0975
  524TMC3     H 7838   2.807   2.788   9.440 -0.2496  0.3257  0.5581
  524TMC3    H1 7839   2.775   3.203   9.492 -2.0440 -1.9046  2.8572
  524TMC3    H2 7840   2.629   3.016   9.138 -0.1648  1.7819  0.1584
  524TMC3    C7 7841   2.636   3.245   9.281 -0.0125 -0.4988  0.6950
  524TMC3    C8 7842   2.697   2.773   9.217 -0.2250  0.2834 -0.7422
  524TMC3    O1 7843   2.663   3.343   9.350  0.1657  0.5033 -0.1521
  524TMC3    O2 7844   2.757   2.674   9.264  0.4286  0.0674  0.0937
  525MPD2     C 7845   1.172   0.192  14.502 -0.4291  0.2131  0.0533
  525MPD2    C1 7846   1.291   0.215  14.564 -0.4739 -0.2124 -0.6375
  525MPD2    C2 7847   1.354   0.332  14.539  0.0086 -0.3000  0.5845
  525MPD2    C3 7848   1.292   0.437  14.472 -0.6613 -0.0545  0.0217
  525MPD2    C4 7849   1.168   0.412  14.413  0.1061  0.4951 -0.4208
  525MPD2    C5 7850   1.106   0.292  14.431  0.3063  0.1388  0.3608
  525MPD2     H 7851   1.458   0.352  14.562 -0.3951 -0.5145  2.5589
  525MPD2    H1 7852   1.128   0.485  14.343  2.6563  1.6648 -0.6345
  525MPD2    H2 7853   1.125   0.094  14.506  0.6224 -0.3785 -1.9418
  525MPD2    H3 7854   1.011   0.274  14.383  0.3774  1.7112 -0.3829
  525MPD2     N 7855   1.350   0.568  14.463 -0.2769 -0.4819  0.0648
  525MPD2    H5 7856   1.291   0.638  14.420  1.6562  0.8857 -0.3339
  525MPD2    N1 7857   1.359   0.116  14.633  0.0311 -0.0230  0.1384
  525MPD2    H7 7858   1.450   0.141  14.669  0.0906 -0.5151  0.3246
  526TMC3    C1 7859   1.428   4.663  14.747 -0.1818  0.1910  0.3920
  526TMC3    C2 7860   1.426   4.625  14.877 -0.4116  0.2053 -0.1265
  526TMC3    C3 7861   1.541   4.595  14.937 -0.2091  0.7430 -0.5575
  526TMC3    C4 7862   1.536   4.651  14.672  0.1515  0.2187 -0.0678
  526TMC3    C5 7863   1.657   4.617  14.729 -0.0961  0.0913  0.4732
  526TMC3    C6 7864   1.661   4.600  14.868 -0.4701  0.3565 -0.5753
  526TMC3     C 7865   1.310   4.730  14.677  0.0443 -0.3593  0.8461
  526TMC3     O 7866   1.196   4.692  14.701 -0.0204  0.4731 -0.0160
  526TMC3     H 7867   1.332   4.623  14.930  0.8066 -1.0950  1.9836
  526TMC3    H1 7868   1.524   4.687  14.570  0.5494  2.3695  0.6412
  526TMC3    H2 7869   1.752   4.567  14.916 -0.5329  2.8436  1.2094
  526TMC3    C7 7870   1.774   4.664  14.660  0.0744  0.6112  0.5518
  526TMC3    C8 7871   1.553   4.601  15.080  0.0602  0.4042 -0.2113
  526TMC3    O1 7872   1.754   0.031  14.597 -0.1208  0.0053 -0.1106
  526TMC3    O2 7873   1.657   4.645  15.127  0.1023 -0.3536 -0.1062
  527MPD2     C 7874   4.282   2.627   1.581 -1.0044  0.3649  0.5887
  527MPD2    C1 7875   4.256   2.663   1.453  0.1319 -0.7344  0.0329
  527MPD2    C2 7876   4.326   2.601   1.353  0.2508 -0.3232  0.5599
  527MPD2    C3 7877   4.423   2.516   1.385  0.0600  0.6354  0.4063
  527MPD2    C4 7878   4.468   2.496   1.513  0.4057 -0.3391  0.3693
  527MPD2    C5 7879   4.394   2.551   1.611  0.3669 -0.2824 -0.1948
  527MPD2     H 7880   4.302   2.625   1.250 -0.4270  1.9380  1.2364
  527MPD2    H1 7881   4.542   2.420   1.538  0.6292 -0.2596 -0.0365
  527MPD2    H2 7882   4.220   2.664   1.662 -0.5518  2.6112 -0.1167
  527MPD2    H3 7883   4.427   2.538   1.714  0.2342 -3.0307 -0.4987
  527MPD2     N 7884   4.485   2.455   1.269  0.6726  0.0656 -0.3408
  527MPD2    H5 7885   4.436   2.461   1.180 -1.0616  1.6081  0.7144
  527MPD2    N1 7886   4.151   2.745   1.416 -0.3406 -0.3399  0.3673
  527MPD2    H7 7887   4.135   2.762   1.317 -0.5757 -2.7388 -0.0076
  528TMC3    C1 7888   3.957   2.870   1.425 -0.6627 -0.4171 -0.0196
  528TMC3    C2 7889   3.917   2.815   1.313  0.5018  0.0915 -1.0362
  528TMC3    C3 7890   3.798   2.863   1.252 -0.4920 -0.3902 -1.0058
  528TMC3    C4 7891   3.883   2.964   1.486 -0.5118  0.2685  0.2677
  528TMC3    C5 7892   3.766   3.012   1.425 -0.1883 -0.6794 -0.4457
  528TMC3    C6 7893   3.718   2.962   1.306 -0.2240  0.4964 -0.0562
  528TMC3     C 7894   4.067   2.814   1.502  0.9537 -0.7206  1.1203
  528TMC3     O 7895   4.067   2.823   1.622 -0.5200 -0.2754 -0.1761
  528TMC3     H 7896   3.965   2.730   1.265  1.5908 -0.1859  0.5445
  528TMC3    H1 7897   3.908   2.986   1.589 -1.5089 -0.8539  0.7498
  528TMC3    H2 7898   3.631   2.998   1.251 -1.0633 -1.6383 -0.1416
  528TMC3    C7 7899   3.684   3.113   1.485  0.2728  0.1519  0.6013
  528TMC3    C8 7900   3.770   2.804   1.122 -0.3834 -0.2304 -0.4805
  528TMC3    O1 7901   3.572   3.124   1.438 -0.5763  0.0650 -0.3791
  528TMC3    O2 7902   3.849   2.721   1.080 -0.4986  0.3288  0.1162
  529MPD2     C 7903   1.812   0.940   0.818 -0.0189 -0.2876  0.2743
  529MPD2    C1 7904   1.760   0.859   0.728 -0.3925 -0.0255  0.0785
  529MPD2    C2 7905   1.653   0.896   0.647 -0.0273 -0.2017 -0.1950
  529MPD2    C3 7906   1.602   1.027   0.673 -0.1150 -0.0112  1.0626
  529MPD2    C4 7907   1.661   1.106   0.771 -0.0241 -0.0540  0.1053
  529MPD2    C5 7908   1.763   1.060   0.843  1.2230 -0.2137  0.0911
  529MPD2     H 7909   1.617   0.837   0.563  1.6774 -0.0443 -1.0281
  529MPD2    H1 7910   1.640   1.212   0.784  0.1731 -0.1817  1.4165
  529MPD2    H2 7911   1.893   0.905   0.880 -0.8080 -2.1712  0.2583
  529MPD2    H3 7912   1.817   1.124   0.912 -1.4691  0.2983  1.7167
  529MPD2     N 7913   1.506   1.089   0.587  0.2309 -0.1142  0.5180
  529MPD2    H5 7914   1.485   1.184   0.616  2.7849 -0.0136  1.9987
  529MPD2    N1 7915   1.814   0.728   0.738  1.2173  0.5600 -0.4893
  529MPD2    H7 7916   1.903   0.716   0.785  1.1392  1.1272 -0.1992
  530TMC3    C1 7917   1.825   0.506   0.683  0.1900 -0.4920  0.0234
  530TMC3    C2 7918   1.960   0.524   0.664  0.7264  0.0539 -0.2058
  530TMC3    C3 7919   2.040   0.421   0.691 -0.5399  0.7184 -0.2600
  530TMC3    C4 7920   1.766   0.378   0.704  0.5275 -0.0701 -0.3134
  530TMC3    C5 7921   1.850   0.276   0.731 -0.4376 -0.5154  0.2395
  530TMC3    C6 7922   1.986   0.300   0.733  0.0413 -0.6427 -0.1428
  530TMC3     C 7923   1.741   0.621   0.693  0.0936 -0.0097  0.6181
  530TMC3     O 7924   1.621   0.608   0.678  0.0254  0.1604  0.0826
  530TMC3     H 7925   2.006   0.621   0.650  0.0251  0.0061 -2.9548
  530TMC3    H1 7926   1.658   0.370   0.692  0.7856 -0.8437 -2.1823
  530TMC3    H2 7927   2.056   0.219   0.751  1.1176  0.3164 -0.0081
  530TMC3    C7 7928   1.810   0.143   0.710  0.3095  0.1615 -0.1395
  530TMC3    C8 7929   2.180   0.464   0.710  0.6491  0.1865 -0.5396
  530TMC3    O1 7930   1.903   0.068   0.685  0.5187  0.7914  0.1775
  530TMC3    O2 7931   2.212   0.560   0.638  0.0738  0.7203 -0.0031
  531MPD2     C 7932   1.052   3.494  13.063  0.4749 -0.6614  0.3400
  531MPD2    C1 7933   0.945   3.491  13.144 -0.3165  0.3067 -0.0676
  531MPD2    C2 7934   0.847   3.394  13.123  0.0674 -0.2608 -0.0585
  531MPD2    C3 7935   0.852   3.322  13.004  0.5875 -0.2165  0.1686
  531MPD2    C4 7936   0.955   3.338  12.913  0.0774 -0.7097 -0.9423
  531MPD2    C5 7937   1.059   3.420  12.946  0.2674  0.1567  0.0607
  531MPD2     H 7938   0.769   3.366  13.192  0.3271 -1.3509 -0.2078
  531MPD2    H1 7939   0.964   3.288  12.817 -1.3381 -0.8515 -1.0055
  531MPD2    H2 7940   1.124   3.574  13.074 -0.0720  0.0065 -0.8894
  531MPD2    H3 7941   1.151   3.434  12.892  0.4044  1.0289  0.5211
  531MPD2     N 7942   0.745   3.238  12.966 -0.2037 -0.5171 -0.1525
  531MPD2    H5 7943   0.753   3.180  12.883 -0.8273 -0.4899 -0.2326
  531MPD2    N1 7944   0.938   3.590  13.247  0.8285  0.1117  0.7061
  531MPD2    H7 7945   1.019   3.645  13.271  1.5743 -2.1842  3.4627
  532TMC3    C1 7946   0.816   3.708  13.424  0.0046 -0.0822 -0.1668
  532TMC3    C2 7947   0.691   3.744  13.458 -0.6398  0.2527  0.4564
  532TMC3    C3 7948   0.663   3.760  13.595  0.2511  0.1338 -0.3229
  532TMC3    C4 7949   0.912   3.689  13.515 -0.2716  0.3461 -0.2255
  532TMC3    C5 7950   0.888   3.708  13.645 -0.3138  0.4592  0.8628
  532TMC3    C6 7951   0.760   3.749  13.687 -0.5128  0.1120 -0.7854
  532TMC3     C 7952   0.816   3.626  13.303  0.6218 -0.3865  0.3189
  532TMC3     O 7953   0.702   3.593  13.263 -0.4809  0.2923  0.6580
  532TMC3     H 7954   0.626   3.777  13.378 -2.9599  0.7626  2.5348
  532TMC3    H1 7955   1.010   3.656  13.481 -1.1458 -2.9757  0.5140
  532TMC3    H2 7956   0.741   3.770  13.792  1.3945  0.2076 -0.4562
  532TMC3    C7 7957   0.999   3.723  13.732  0.4268  0.5997 -0.0466
  532TMC3    C8 7958   0.535   3.698  13.625  0.1028  0.2101 -0.2325
  532TMC3    O1 7959   1.021   3.836  13.783  1.1132 -0.3245  0.1582
  532TMC3    O2 7960   0.477   3.711  13.732 -0.1992 -0.3423 -0.6611
  533TMC3    C1 7961   1.472   0.757  14.515  0.8249  0.8412  0.7443
  533TMC3    C2 7962   1.590   0.816  14.560  0.0817  0.0090 -0.3597
  533TMC3    C3 7963   1.597   0.955  14.576 -0.4320  0.1314  0.5463
  533TMC3    C4 7964   1.356   0.832  14.533  0.5353 -0.1419  0.3085
  533TMC3    C5 7965   1.368   0.966  14.568  0.2846  0.6852  0.0268
  533TMC3    C6 7966   1.481   1.032  14.581 -0.3821  0.0173  0.7512
  533TMC3     C 7967   1.457   0.615  14.536 -0.1309  0.1676  0.4182
  533TMC3     O 7968   1.532   0.564  14.617 -0.5808  0.2882  0.0358
  533TMC3     H 7969   1.683   0.761  14.548  0.1066 -0.1064  0.3282
  533TMC3    H1 7970   1.257   0.790  14.543  1.1352 -1.7599 -0.6016
  533TMC3    H2 7971   1.489   1.133  14.621 -0.1975 -0.2696  1.4353
  533TMC3    C7 7972   1.256   1.034  14.621 -0.5927  0.3990 -0.7607
  533TMC3    C8 7973   1.721   1.008  14.617 -0.5302  0.5864 -0.0490
  533TMC3    O1 7974   1.154   1.034  14.554  0.5327  0.1560  0.2495
  533TMC3    O2 7975   1.811   0.935  14.655 -0.0003  0.3217 -0.0219
  534MPD2     C 7976   4.416   0.863   1.525  0.3550  0.4629 -0.0988
  534MPD2    C1 7977   4.464   0.960   1.436 -0.3013 -0.1669  0.5284
  534MPD2    C2 7978   4.376   1.012   1.345 -0.3272 -0.0372  0.3195
  534MPD2    C3 7979   4.235   0.973   1.346 -0.4552  0.0252 -0.6855
  534MPD2    C4 7980   4.196   0.878   1.438 -0.4820 -0.5886 -0.4496
  534MPD2    C5 7981   4.283   0.827   1.527  0.3198  0.5808 -1.0832
  534MPD2     H 7982   4.406   1.091   1.277  2.0280 -0.6182  0.6836
  534MPD2    H1 7983   4.090   0.857   1.444 -0.2213 -0.9609  2.8201
  534MPD2    H2 7984   4.473   0.816   1.605 -0.2925  1.4770  0.9613
  534MPD2    H3 7985   4.243   0.764   1.606  2.8509 -1.6739 -1.5988
  534MPD2     N 7986   4.138   1.024   1.254  0.2932  0.4080  0.2951
  534MPD2    H5 7987   4.045   0.985   1.270  0.1156  0.2781 -1.0481
  534MPD2    N1 7988   4.597   1.008   1.446  0.4614  0.1790  0.0712
  534MPD2    H7 7989   4.625   1.083   1.384 -0.0717  0.4435  0.1441
  535TMC3    C1 7990   4.037   1.108   1.058  0.2332  0.3510  0.3848
  535TMC3    C2 7991   3.929   1.020   1.078  0.2263  0.3717  0.6084
  535TMC3    C3 7992   3.816   1.028   0.992 -0.1249 -0.5366 -0.7889
  535TMC3    C4 7993   4.039   1.202   0.958  0.5869  0.3261 -0.7522
  535TMC3    C5 7994   3.929   1.218   0.885 -0.4523 -0.4694  0.3617
  535TMC3    C6 7995   3.819   1.130   0.899 -0.5137 -0.0265  0.2549
  535TMC3     C 7996   4.152   1.109   1.150  0.5480 -0.2585 -0.8563
  535TMC3     O 7997   4.250   1.174   1.118 -0.4764  0.4093  0.0181
  535TMC3     H 7998   3.933   0.938   1.149 -0.1767 -0.6518 -0.5658
  535TMC3    H1 7999   4.131   1.256   0.939  0.1374  1.0747 -0.7923
  535TMC3    H2 8000   3.731   1.141   0.837 -0.0534  1.4133 -0.1459
  535TMC3    C7 8001   3.939   1.285   0.761 -0.5438 -0.2229 -0.5950
  535TMC3    C8 8002   3.705   0.944   1.004  0.1738 -0.0425  0.1594
  535TMC3    O1 8003   3.902   1.227   0.661 -0.2376  0.1827 -0.1633
  535TMC3    O2 8004   3.643   0.905   0.904 -0.0513  0.2210  0.4457
  536MPD2     C 8005   2.805   4.189  16.796 -0.0225 -0.4788  0.7716
  536MPD2    C1 8006   2.748   4.068  16.753  0.0244 -0.5283 -0.2352
  536MPD2    C2 8007   2.660   4.079  16.639 -0.3355  0.5432 -0.2580
  536MPD2    C3 8008   2.631   4.198  16.569 -0.1211 -0.2708  0.0744
  536MPD2    C4 8009   2.691   4.311  16.623  0.3739  0.3929 -0.0829
  536MPD2    C5 8010   2.769   4.308  16.739  0.3176 -0.2381 -0.0318
  536MPD2     H 8011   2.613   3.991  16.596 -0.0463 -0.2151  0.9706
  536MPD2    H1 8012   2.687   4.409  16.577 -2.8995  0.6574  0.7955
  536MPD2    H2 8013   2.867   4.184  16.885  1.8413  1.4878 -0.4532
  536MPD2    H3 8014   2.803   4.402  16.781 -0.6143  0.8172 -1.6733
  536MPD2     N 8015   2.548   4.203  16.454 -0.0911  0.3171 -0.4316
  536MPD2    H5 8016   2.526   4.295  16.416 -0.6283  0.7055  0.8286
  536MPD2    N1 8017   2.774   3.952  16.829  0.7951 -0.6447  0.3148
  536MPD2    H7 8018   2.847   3.962  16.899 -0.2789 -0.5073  1.4178
  537TMC3    C1 8019   2.777   3.735  16.893 -0.4902  0.1565  0.4776
  537TMC3    C2 8020   2.895   3.776  16.946  0.3541  0.7096  0.3500
  537TMC3    C3 8021   2.933   3.742  17.072  0.3337 -0.3688 -0.3354
  537TMC3    C4 8022   2.707   3.632  16.951 -0.0281  0.4742 -0.0773
  537TMC3    C5 8023   2.755   3.580  17.067 -0.2714 -0.0179 -0.3228
  537TMC3    C6 8024   2.857   3.642  17.138  0.2798  0.1844  0.7195
  537TMC3     C 8025   2.704   3.834  16.821 -0.3333  0.2892  0.2185
  537TMC3     O 8026   2.604   3.803  16.767 -0.4727 -0.4667 -0.3622
  537TMC3     H 8027   2.970   3.840  16.901  2.0835 -1.9093 -0.4930
  537TMC3    H1 8028   2.615   3.600  16.903 -0.8324  2.2867  0.2549
  537TMC3    H2 8029   2.861   3.635  17.246 -1.0145  2.0040  0.8910
  537TMC3    C7 8030   2.671   3.505  17.153  0.4898 -0.0300 -0.5885
  537TMC3    C8 8031   2.980   3.854  17.153 -0.2958  0.2591 -0.2639
  537TMC3    O1 8032   2.547   3.507  17.140 -0.1351 -0.0289 -0.4863
  537TMC3    O2 8033   2.980   3.958  17.096 -0.3146 -0.3812  0.0838
  538TMC3    C1 8034   3.424   2.761  11.131 -0.2368  0.5816 -0.1576
  538TMC3    C2 8035   3.510   2.666  11.085 -0.5349  1.0248  0.1282
  538TMC3    C3 8036   3.558   2.671  10.958  0.3660  0.2208 -0.6401
  538TMC3    C4 8037   3.373   2.856  11.048 -0.4990  0.6893 -0.3348
  538TMC3    C5 8038   3.407   2.843  10.916  0.0447 -0.3483  0.8995
  538TMC3    C6 8039   3.503   2.752  10.866  0.5315  0.0716 -0.2167
  538TMC3     C 8040   3.379   2.762  11.269  0.1962 -0.4332  0.3895
  538TMC3     O 8041   3.282   2.834  11.299  0.1131  0.1014 -0.1847
  538TMC3     H 8042   3.553   2.591  11.151 -1.3599 -0.8908 -1.4837
  538TMC3    H1 8043   3.307   2.936  11.082 -1.1193  0.0605 -0.0490
  538TMC3    H2 8044   3.527   2.737  10.762 -1.3372 -2.4824 -0.2792
  538TMC3    C7 8045   3.352   2.941  10.826  0.1385  0.0784  0.4226
  538TMC3    C8 8046   3.668   2.582  10.928  0.5923  0.5154 -0.9441
  538TMC3    O1 8047   3.242   2.985  10.864 -0.4670 -0.1854  0.0850
  538TMC3    O2 8048   3.693   2.489  11.006  0.6269  0.0280  0.1856
  539MPD2     C 8049   3.667   2.055  11.761  0.2153  0.2597 -0.3748
  539MPD2    C1 8050   3.635   2.023  11.630 -0.5088 -0.4507  0.1964
  539MPD2    C2 8051   3.534   2.098  11.565  0.8687  0.1818 -0.1338
  539MPD2    C3 8052   3.472   2.197  11.631  0.5473  0.6110  0.3543
  539MPD2    C4 8053   3.501   2.228  11.768  0.1447 -1.0271 -0.8401
  539MPD2    C5 8054   3.603   2.156  11.826  0.0390 -0.0967  0.5239
  539MPD2     H 8055   3.508   2.070  11.463  0.6361 -2.4417  0.6492
  539MPD2    H1 8056   3.445   2.300  11.826  0.5145 -0.6708 -0.9248
  539MPD2    H2 8057   3.742   2.001  11.817  0.1881 -0.3966 -0.9740
  539MPD2    H3 8058   3.639   2.186  11.924  1.2534  0.4011 -0.0669
  539MPD2     N 8059   3.366   2.274  11.576 -0.5073 -0.0669 -0.2183
  539MPD2    H5 8060   3.321   2.327  11.649  0.3772 -0.0993  0.3481
  539MPD2    N1 8061   3.704   1.922  11.558 -0.2432  0.4522  0.9348
  539MPD2    H7 8062   3.669   1.896  11.467 -0.9816 -0.4435  1.4785
  540TMC3    C1 8063   3.200   2.355  11.425  0.2287  0.8210 -0.1672
  540TMC3    C2 8064   3.152   2.344  11.298  0.0154 -0.0218 -0.3695
  540TMC3    C3 8065   3.044   2.427  11.265  0.4597 -0.9271 -0.8751
  540TMC3    C4 8066   3.161   2.449  11.511 -0.0555 -0.4262  0.1209
  540TMC3    C5 8067   3.061   2.533  11.467  0.3909 -0.0316  0.4122
  540TMC3    C6 8068   2.998   2.527  11.346  0.0934  0.0382  0.1116
  540TMC3     C 8069   3.311   2.267  11.450  0.2975  1.1996  0.1874
  540TMC3     O 8070   3.362   2.220  11.348 -0.0043 -0.0911  0.3301
  540TMC3     H 8071   3.157   2.249  11.246  0.6557  0.2906 -0.8861
  540TMC3    H1 8072   3.217   2.480  11.599  1.2373 -1.4149 -0.3505
  540TMC3    H2 8073   2.922   2.601  11.323  0.4256  0.1194 -0.7354
  540TMC3    C7 8074   3.006   2.633  11.558 -0.8456 -0.0030 -0.0353
  540TMC3    C8 8075   2.951   2.387  11.155 -0.2743  0.4159  0.3504
  540TMC3    O1 8076   2.951   2.728  11.501  0.1298  0.2348 -0.0092
  540TMC3    O2 8077   2.837   2.429  11.167 -0.4337  0.3905  0.7312
  541MPD2     C 8078   1.586   4.019  13.261 -0.1697 -0.3711 -1.0066
  541MPD2    C1 8079   1.650   3.931  13.177  0.3414  0.7598  1.1096
  541MPD2    C2 8080   1.664   3.964  13.043 -0.4488  0.0114 -0.0417
  541MPD2    C3 8081   1.600   4.081  12.992  1.0157 -0.3996 -0.2219
  541MPD2    C4 8082   1.520   4.155  13.080 -0.4918  0.3779  0.2784
  541MPD2    C5 8083   1.513   4.114  13.210  0.9237  0.6649  0.6770
  541MPD2     H 8084   1.711   3.889  12.979 -0.2309 -1.3832  1.7385
  541MPD2    H1 8085   1.470   4.242  13.039  0.8748  0.9172 -0.2532
  541MPD2    H2 8086   1.585   4.009  13.368  0.0411 -2.2126 -1.1856
  541MPD2    H3 8087   1.454   4.175  13.277  0.6053  0.3173  0.7160
  541MPD2     N 8088   1.597   4.120  12.856 -0.2415  0.1615 -0.1923
  541MPD2    H5 8089   1.520   4.180  12.827 -0.8182 -0.2012  0.5800
  541MPD2    N1 8090   1.707   3.810  13.222  0.1949  0.4940  0.8398
  541MPD2    H7 8091   1.769   3.753  13.166 -3.0094 -0.4757 -1.7099
  542TMC3    C1 8092   1.652   4.109  12.626  0.2125  0.5307 -0.1130
  542TMC3    C2 8093   1.667   4.015  12.530 -0.0727 -0.5094 -0.0790
  542TMC3    C3 8094   1.602   4.034  12.408 -0.2916  0.3479 -1.3323
  542TMC3    C4 8095   1.561   4.211  12.614  0.4374 -0.3925  1.0255
  542TMC3    C5 8096   1.484   4.219  12.501 -0.1035  0.0273  0.9224
  542TMC3    C6 8097   1.509   4.135  12.397  0.3008  0.4471 -0.0222
  542TMC3     C 8098   1.691   4.079  12.765 -0.3446 -0.2489  0.3959
  542TMC3     O 8099   1.791   4.008  12.775  0.2189  0.4247 -0.1836
  542TMC3     H 8100   1.747   3.943  12.541 -0.7087 -1.0255  1.0949
  542TMC3    H1 8101   1.552   4.285  12.693 -1.0678 -0.6687  1.1119
  542TMC3    H2 8102   1.471   4.154  12.297 -1.2877 -0.8807  0.3236
  542TMC3    C7 8103   1.367   4.313  12.512  0.0593  0.5869  0.1885
  542TMC3    C8 8104   1.643   3.963  12.282  0.3940  0.1917 -0.3220
  542TMC3    O1 8105   1.354   4.364  12.620  0.7926 -0.5135  0.0979
  542TMC3    O2 8106   1.576   3.981  12.181  0.2887  0.3351  0.1332
  543TMC3    C1 8107   1.693   0.364  17.214  0.1946  0.3274  0.7217
  543TMC3    C2 8108   1.698   0.236  17.264  0.3967  0.8464  0.0778
  543TMC3    C3 8109   1.635   0.217  17.384  0.0433 -0.5959 -0.4604
  543TMC3    C4 8110   1.632   0.469  17.282 -0.2865 -0.4808 -0.5889
  543TMC3    C5 8111   1.582   0.441  17.407 -0.0760  0.5594  0.3515
  543TMC3    C6 8112   1.588   0.316  17.461  0.1771 -0.7390  0.8102
  543TMC3     C 8113   1.731   0.367  17.075  0.0001  0.1991  0.3820
  543TMC3     O 8114   1.807   0.279  17.046 -0.3129  0.0385 -0.2797
  543TMC3     H 8115   1.740   0.154  17.208 -3.7804 -0.1742 -1.5697
  543TMC3    H1 8116   1.636   0.564  17.229  1.2356 -1.4891 -2.2845
  543TMC3    H2 8117   1.568   0.314  17.567 -0.6997 -0.6838  0.6441
  543TMC3    C7 8118   1.494   0.534  17.472 -0.2648 -0.7849  0.6109
  543TMC3    C8 8119   1.641   0.082  17.439  0.0161  0.2503  0.4148
  543TMC3    O1 8120   1.423   0.499  17.566 -0.1882 -0.2616 -0.3340
  543TMC3    O2 8121   1.716   0.008  17.372 -0.2253  0.5877 -0.1271
  544MPD2     C 8122   1.457   4.427  17.721 -0.0253 -0.1521 -0.8354
  544MPD2    C1 8123   1.562   4.430  17.632  0.3000 -0.0343 -0.0161
  544MPD2    C2 8124   1.606   4.552  17.582  0.0500  0.3717  0.2459
  544MPD2    C3 8125   1.530   4.666  17.603  0.6299  0.3311 -0.1494
  544MPD2    C4 8126   1.430   4.664  17.696 -0.2825  0.1394 -0.1665
  544MPD2    C5 8127   1.391   4.542   0.004 -0.0389  0.2615 -0.2305
  544MPD2     H 8128   1.691   4.554  17.515  0.1737  2.4249  0.4800
  544MPD2    H1 8129   1.381   0.016  17.733  0.1139  0.3567 -0.1777
  544MPD2    H2 8130   1.432   4.333   0.020  1.6164  0.0961  0.5132
  544MPD2    H3 8131   1.305   4.534   0.070  0.3140 -0.2325  0.1653
  544MPD2     N 8132   1.560   0.059  17.551 -0.2135  0.4449  0.3666
  544MPD2    H5 8133   1.513   0.144  17.581 -0.6037  0.7425 -1.0688
  544MPD2    N1 8134   1.616   4.301  17.601  0.2739  0.6417  0.0912
  544MPD2    H7 8135   1.582   4.215  17.644 -0.8329  0.1492 -1.7729
  545TMC3    C1 8136   1.767   4.131  17.514 -0.2762  0.1432  0.3499
  545TMC3    C2 8137   1.878   4.108  17.435 -0.2276 -0.1001  0.2406
  545TMC3    C3 8138   1.900   3.972  17.394 -0.5374  0.3247 -0.3243
  545TMC3    C4 8139   1.699   4.034  17.573 -0.5949  0.5559  0.5955
  545TMC3    C5 8140   1.720   3.908  17.527  0.6920 -0.0698  0.1180
  545TMC3    C6 8141   1.818   3.878  17.441 -0.1718  0.3075  0.0696
  545TMC3     C 8142   1.725   4.278  17.523 -0.8220 -0.1843 -0.7011
  545TMC3     O 8143   1.789   4.355  17.453  0.2531  0.7460  0.4175
  545TMC3     H 8144   1.939   4.196  17.415 -1.0956  0.4578  0.0519
  545TMC3    H1 8145   1.619   4.051  17.645 -0.1240  0.8158  1.0592
  545TMC3    H2 8146   1.841   3.776  17.413 -1.9461 -0.3358  1.0016
  545TMC3    C7 8147   1.602   3.828  17.529  0.9012 -0.6980  0.7499
  545TMC3    C8 8148   2.005   3.933  17.299 -0.0203 -0.9989  0.2098
  545TMC3    O1 8149   1.499   3.884  17.481  0.2734 -0.1121 -0.0785
  545TMC3    O2 8150   2.009   3.820  17.260  0.4108  0.5576  0.0781
  546MPD2     C 8151   3.083   0.329  17.430 -0.4717  0.9572  0.0039
  546MPD2    C1 8152   2.987   0.360  17.336  0.2899 -0.0032  0.4610
  546MPD2    C2 8153   3.007   0.462  17.244  0.4938 -0.4832 -0.2468
  546MPD2    C3 8154   3.132   0.530  17.251 -0.4307 -0.3422  0.5170
  546MPD2    C4 8155   3.221   0.501  17.352 -0.5211  0.2247  0.1465
  546MPD2    C5 8156   3.207   0.398  17.437  0.0767 -0.1171  0.0921
  546MPD2     H 8157   2.942   0.488  17.162 -1.1859 -3.7127  0.0744
  546MPD2    H1 8158   3.311   0.560  17.364  0.0610 -0.4835 -0.7094
  546MPD2    H2 8159   3.073   0.248  17.501 -0.1473  2.2941  1.5958
  546MPD2    H3 8160   3.283   0.381  17.512  0.0112 -1.2716 -0.1093
  546MPD2     N 8161   3.175   0.609  17.150 -0.6138 -0.6866  0.0206
  546MPD2    H5 8162   3.275   0.627  17.149 -0.7776  0.2185 -0.7731
  546MPD2    N1 8163   2.880   0.268  17.327 -0.0985 -0.4572 -0.4057
  546MPD2    H7 8164   2.874   0.196  17.398 -1.7732 -0.3959 -0.5061
  547TMC3    C1 8165   2.685   0.176  17.253 -0.8309 -0.4515  0.1887
  547TMC3    C2 8166   2.626   0.129  17.137  0.1505 -0.3973 -0.4424
  547TMC3    C3 8167   2.561   0.008  17.142  0.6958  0.2709  0.4378
  547TMC3    C4 8168   2.687   0.093  17.364  0.5780 -0.3197 -0.3152
  547TMC3    C5 8169   2.624   4.708  17.362 -0.4207 -0.3830  0.2050
  547TMC3    C6 8170   2.552   4.664  17.253 -0.3204 -0.3054  0.1074
  547TMC3     C 8171   2.791   0.275  17.226 -0.1192  0.0535  0.2459
  547TMC3     O 8172   2.802   0.324  17.114 -0.4767  0.0806  0.1781
  547TMC3     H 8173   2.619   0.190  17.047  1.1300  1.2650  0.5990
  547TMC3    H1 8174   2.734   0.133  17.453 -1.2262 -0.5566  0.7296
  547TMC3    H2 8175   2.480   4.583  17.253 -0.9461  0.2473 -0.0353
  547TMC3    C7 8176   2.623   4.626  17.482 -0.1228  0.5156 -0.3272
  547TMC3    C8 8177   2.491   4.702  17.017 -0.9065  0.0557 -0.1763
  547TMC3    O1 8178   2.668   4.669  17.587 -0.1598  0.1416 -0.1171
  547TMC3    O2 8179   2.450   0.057  16.950  0.1253 -0.5411 -0.6945
  548MPD2     C 8180   2.478   0.773  12.958 -0.0815 -0.5543  0.1290
  548MPD2    C1 8181   2.437   0.650  12.910 -0.4986  0.4457 -0.4952
  548MPD2    C2 8182   2.528   0.561  12.859 -0.0680 -0.7691 -0.3668
  548MPD2    C3 8183   2.664   0.589  12.866 -0.1720  0.0826 -0.3596
  548MPD2    C4 8184   2.708   0.711  12.898  0.0561 -0.5292 -0.0106
  548MPD2    C5 8185   2.612   0.803  12.940 -0.4036 -0.4493 -0.7975
  548MPD2     H 8186   2.497   0.466  12.819  0.3204 -0.7091 -0.8219
  548MPD2    H1 8187   2.813   0.735  12.884 -0.0869  0.5685  0.7792
  548MPD2    H2 8188   2.402   0.837  13.002 -0.0031 -0.0805 -0.4262
  548MPD2    H3 8189   2.661   0.896  12.968  0.2532 -1.0049 -0.0931
  548MPD2     N 8190   2.753   0.487  12.830  0.4292 -0.2781 -0.3231
  548MPD2    H5 8191   2.711   0.394  12.825  0.0021 -0.0745 -0.5062
  548MPD2    N1 8192   2.298   0.623  12.912 -0.1325  0.3911  0.1690
  548MPD2    H7 8193   2.233   0.689  12.955  1.8393  1.3989  1.5986
  549TMC3    C1 8194   2.094   0.513  12.879 -0.2935  0.2404  0.0569
  549TMC3    C2 8195   2.024   0.628  12.857 -0.4465  0.5708  0.0176
  549TMC3    C3 8196   1.885   0.615  12.838  0.2747 -0.9851 -0.2460
  549TMC3    C4 8197   2.032   0.387  12.868 -0.4663  0.5959 -0.2114
  549TMC3    C5 8198   1.898   0.376  12.841 -0.2037  0.1270  0.3824
  549TMC3    C6 8199   1.822   0.493  12.830 -0.6349 -0.1708  0.3716
  549TMC3     C 8200   2.238   0.512  12.851 -0.1072  0.2530 -0.1848
  549TMC3     O 8201   2.274   0.413  12.788 -0.3550  0.1285  0.1565
  549TMC3     H 8202   2.068   0.725  12.834  1.2856 -0.3545 -0.5798
  549TMC3    H1 8203   2.089   0.296  12.885 -0.3041  0.7391  0.0124
  549TMC3    H2 8204   1.715   0.478  12.840 -0.2056 -2.1679  1.9926
  549TMC3    C7 8205   1.825   0.252  12.854  1.1395 -1.1732 -0.5798
  549TMC3    C8 8206   1.796   0.725  12.825  0.0284 -0.3988  0.1861
  549TMC3    O1 8207   1.701   0.254  12.845  0.5048 -0.4242 -0.4312
  549TMC3    O2 8208   1.695   0.706  12.756 -0.2143 -0.2929  0.2023
  550TMC3    C1 8209   1.640   3.444  11.957  0.0343  0.6171 -0.3766
  550TMC3    C2 8210   1.717   3.451  12.070 -0.3950  0.4525  0.3782
  550TMC3    C3 8211   1.683   3.549  12.163  0.6255 -0.0640 -0.2590
  550TMC3    C4 8212   1.541   3.538  11.927  0.5710 -0.2593  0.0953
  550TMC3    C5 8213   1.514   3.636  12.020 -0.5257  0.4758  0.0611
  550TMC3    C6 8214   1.595   3.647  12.129 -0.4803 -0.1183 -0.3816
  550TMC3     C 8215   1.698   3.370  11.853 -0.3844  0.5539  0.2376
  550TMC3     O 8216   1.819   3.344  11.860  0.4214 -0.6879  0.1387
  550TMC3     H 8217   1.792   3.377  12.092 -2.0660 -1.6735 -1.0986
  550TMC3    H1 8218   1.472   3.528  11.844  0.2547  1.2042  0.1791
  550TMC3    H2 8219   1.576   3.723  12.203 -0.8953  0.4907 -1.1077
  550TMC3    C7 8220   1.383   3.684  12.031 -0.2344  0.7540 -0.7633
  550TMC3    C8 8221   1.655   3.513  12.306 -0.2710  0.5668 -1.1397
  550TMC3    O1 8222   1.302   3.631  11.956  0.5617 -0.3735 -0.0369
  550TMC3    O2 8223   1.681   3.592  12.397  0.3640 -0.0305 -0.1189
  551TMC3    C1 8224   3.696   1.535  13.352 -0.8461 -0.2979  0.2730
  551TMC3    C2 8225   3.805   1.456  13.315  0.1590  0.1296 -0.2618
  551TMC3    C3 8226   3.915   1.466  13.391  0.0587  0.0890  0.0378
  551TMC3    C4 8227   3.693   1.609  13.466 -0.5531 -0.0838 -0.6837
  551TMC3    C5 8228   3.816   1.614  13.535  0.6612 -0.1719  0.2610
  551TMC3    C6 8229   3.926   1.546  13.500 -0.5273  0.4391  0.2948
  551TMC3     C 8230   3.585   1.518  13.270  0.7363  0.1112  0.0009
  551TMC3     O 8231   3.568   1.419  13.195 -0.1389 -0.6648  0.3532
  551TMC3     H 8232   3.800   1.395  13.225  1.3773 -1.9224  1.0835
  551TMC3    H1 8233   3.602   1.657  13.501 -1.2266 -0.1861 -2.2593
  551TMC3    H2 8234   4.025   1.572  13.536  0.9269 -2.3074 -1.7674
  551TMC3    C7 8235   3.839   1.699  13.652 -0.0636  0.4522 -0.0750
  551TMC3    C8 8236   4.026   1.461  13.303 -0.9362 -0.3906 -0.2221
  551TMC3    O1 8237   3.942   1.673  13.711  0.1466 -0.0412 -0.1202
  551TMC3    O2 8238   4.089   1.358  13.293  0.1907  0.3921 -0.5059
  552MPD2     C 8239   1.109   3.649  14.075  0.3074 -0.1884 -0.1171
  552MPD2    C1 8240   1.081   3.523  14.131  0.6915 -0.1744 -0.5424
  552MPD2    C2 8241   1.189   3.441  14.163 -0.2277  0.2976 -0.4812
  552MPD2    C3 8242   1.318   3.484  14.148  0.1895 -0.1074 -0.3011
  552MPD2    C4 8243   1.338   3.613  14.101 -0.5300  0.0294 -0.6433
  552MPD2    C5 8244   1.235   3.694  14.067 -0.5745 -0.9035 -0.1594
  552MPD2     H 8245   1.166   3.338  14.190 -0.8893  0.7191  0.5667
  552MPD2    H1 8246   1.436   3.652  14.078 -0.3062  0.9251  1.8226
  552MPD2    H2 8247   1.031   3.719  14.048 -0.7710 -0.8716  1.1899
  552MPD2    H3 8248   1.256   3.789  14.019  1.0806 -0.7764  0.8392
  552MPD2     N 8249   1.425   3.415  14.206 -0.6420  0.6489  0.6663
  552MPD2    H5 8250   1.514   3.461  14.193  0.0593 -0.6225  0.9495
  552MPD2    N1 8251   0.950   3.472  14.148  0.5555  0.0513  0.2951
  552MPD2    H7 8252   0.941   3.375  14.176  0.6673  0.8340  3.0868
  553TMC3    C1 8253   0.713   3.457  14.110 -0.7429  0.3287  0.0073
  553TMC3    C2 8254   0.625   3.499  14.011 -0.1064  0.1858 -0.0875
  553TMC3    C3 8255   0.553   3.413  13.937 -0.6731  0.5163 -0.2425
  553TMC3    C4 8256   0.718   3.325  14.145 -0.1766  0.2491 -0.4763
  553TMC3    C5 8257   0.631   3.240  14.087  0.1004 -0.0926  0.1891
  553TMC3    C6 8258   0.555   3.286  13.982  0.3698  0.3161 -0.1585
  553TMC3     C 8259   0.832   3.537  14.118  0.1827  0.3884  0.0856
  553TMC3     O 8260   0.819   3.656  14.083 -0.0955  0.4758 -0.2207
  553TMC3     H 8261   0.632   3.596  13.965 -1.1252 -0.0317 -0.6960
  553TMC3    H1 8262   0.780   3.289  14.227  0.5391  1.1050 -0.6327
  553TMC3    H2 8263   0.503   3.201  13.940  0.5304  0.9428 -1.5932
  553TMC3    C7 8264   0.644   3.098  14.101 -0.1103  0.1584 -0.2080
  553TMC3    C8 8265   0.612   3.412  13.808 -0.2347  0.0280  0.0680
  553TMC3    O1 8266   0.540   3.041  14.132  0.2945  0.0039 -0.4972
  553TMC3    O2 8267   0.724   3.464  13.806 -0.0631  0.0504 -0.0938
  554TMC3    C1 8268   2.610   2.712  11.269 -0.6619 -0.2621 -0.1249
  554TMC3    C2 8269   2.601   2.623  11.167 -0.5446 -0.0905 -0.8213
  554TMC3    C3 8270   2.648   2.647  11.038  0.5011 -0.7596  0.8040
  554TMC3    C4 8271   2.658   2.838  11.241 -0.0909 -0.3290  0.7880
  554TMC3    C5 8272   2.697   2.859  11.110  0.2795 -0.0432 -0.6396
  554TMC3    C6 8273   2.691   2.768  11.009 -0.3568  0.2919  0.9024
  554TMC3     C 8274   2.624   2.665  11.406  0.1512 -0.1669 -0.0839
  554TMC3     O 8275   2.617   2.759  11.489  0.0555 -0.0051 -0.4836
  554TMC3     H 8276   2.585   2.520  11.194  2.0684  0.6355  3.5877
  554TMC3    H1 8277   2.667   2.905  11.325 -0.3325  1.8319 -0.8953
  554TMC3    H2 8278   2.726   2.794  10.910 -1.6869 -0.1076  0.3294
  554TMC3    C7 8279   2.711   2.993  11.054  0.1480  0.2243 -1.0676
  554TMC3    C8 8280   2.613   2.564  10.922 -0.5626 -0.1230 -0.0904
  554TMC3    O1 8281   2.684   3.000  10.934 -0.2579  0.0429 -0.2335
  554TMC3    O2 8282   2.666   2.580  10.815 -0.7357 -0.1377  1.0008
  555TMC3    C1 8283   1.936   2.245  15.183 -0.3426 -0.0491  1.1918
  555TMC3    C2 8284   2.016   2.281  15.284 -0.3238  0.9552 -0.2666
  555TMC3    C3 8285   2.118   2.199  15.320 -0.5825 -0.3099 -0.3186
  555TMC3    C4 8286   1.957   2.126  15.112  0.0634  0.1316 -0.3439
  555TMC3    C5 8287   2.077   2.060  15.137  0.4787 -0.0997 -0.7576
  555TMC3    C6 8288   2.147   2.084  15.253  0.4650 -0.2580  0.6838
  555TMC3     C 8289   1.861   2.349  15.127 -0.2628  0.1824  0.5212
  555TMC3     O 8290   1.865   2.455  15.183 -0.1765  0.9504 -0.5520
  555TMC3     H 8291   1.985   2.359  15.353  0.8517 -0.3828  1.7860
  555TMC3    H1 8292   1.896   2.085  15.033  0.4209 -1.3502  0.1502
  555TMC3    H2 8293   2.238   2.033  15.284  0.7614 -0.3295 -0.3168
  555TMC3    C7 8294   2.079   1.917  15.095  0.1316 -0.1232  0.4809
  555TMC3    C8 8295   2.182   2.240  15.443 -0.0751  0.4104  0.1844
  555TMC3    O1 8296   1.976   1.851  15.075  0.1551 -0.3945 -0.3106
  555TMC3    O2 8297   2.199   2.359  15.465 -0.0852  0.1602  0.2463
  556MPD2     C 8298   0.139   3.150  10.758  0.7659  0.1279 -0.1468
  556MPD2    C1 8299   0.007   3.163  10.795  0.3333  0.6428  0.3808
  556MPD2    C2 8300   4.648   3.109  10.714 -0.4387 -0.0933  0.8092
  556MPD2    C3 8301   4.682   3.042  10.601  0.0530 -0.0525 -0.5096
  556MPD2    C4 8302   0.075   3.031  10.566 -0.1301  0.3325  0.2959
  556MPD2    C5 8303   0.171   3.090  10.643 -0.6353  0.3728 -0.9122
  556MPD2     H 8304   4.544   3.135  10.733 -0.3863  0.4136  0.3958
  556MPD2    H1 8305   0.110   2.973  10.482 -1.8860 -2.3620  1.4288
  556MPD2    H2 8306   0.222   3.193  10.813  0.7817 -0.7127  0.4827
  556MPD2    H3 8307   0.274   3.056  10.632 -0.8199 -0.9418  1.5125
  556MPD2     N 8308   4.576   2.976  10.530  0.4397 -0.2077  0.5593
  556MPD2    H5 8309   4.483   2.980  10.570  0.3513  3.1122 -0.0216
  556MPD2    N1 8310   4.698   3.233  10.919  0.7072  0.9252  0.5641
  556MPD2    H7 8311   4.600   3.231  10.944  0.5596 -1.5198 -0.2016
  557TMC3    C1 8312   4.469   2.826  10.387  0.2109 -0.0663 -0.1028
  557TMC3    C2 8313   4.475   2.753  10.263 -0.1849  0.3874  0.2982
  557TMC3    C3 8314   4.372   2.668  10.238 -0.2589  0.2660  0.4563
  557TMC3    C4 8315   4.376   2.807  10.481  0.2084  0.2958 -0.0985
  557TMC3    C5 8316   4.296   2.696  10.459 -0.7810  0.6542  0.9250
  557TMC3    C6 8317   4.286   2.629  10.342 -0.5154 -0.3668 -0.0221
  557TMC3     C 8318   4.591   2.906  10.412 -0.0138  0.5859  0.5543
  557TMC3     O 8319   4.688   2.888  10.337 -0.5292  0.3937 -0.1505
  557TMC3     H 8320   4.543   2.783  10.184  0.8791 -0.5106  0.8941
  557TMC3    H1 8321   4.376   2.862  10.575  1.6887 -1.7142  1.0700
  557TMC3    H2 8322   4.206   2.558  10.327 -1.7209  0.7309  1.1478
  557TMC3    C7 8323   4.179   2.684  10.546  0.5276  0.6386 -0.4307
  557TMC3    C8 8324   4.367   2.606  10.113  0.7248 -0.2635  0.0908
  557TMC3    O1 8325   4.142   2.780  10.607  0.1505 -0.4962 -0.6874
  557TMC3    O2 8326   4.471   2.587  10.051 -0.9658  0.2321  0.5745
  558TMC3    C1 8327   1.984   1.520  10.498 -0.9082 -0.3352 -0.1200
  558TMC3    C2 8328   1.884   1.464  10.579 -0.3692  0.0882 -0.3342
  558TMC3    C3 8329   1.755   1.499  10.545  0.2054  0.9557 -0.1299
  558TMC3    C4 8330   1.954   1.604  10.395  0.4799  0.7168 -0.1460
  558TMC3    C5 8331   1.824   1.639  10.366 -0.1125 -0.1520  0.4489
  558TMC3    C6 8332   1.722   1.586  10.443  0.4836  0.2016  0.0585
  558TMC3     C 8333   2.125   1.496  10.527  0.0883  0.5450 -0.8610
  558TMC3     O 8334   2.143   1.420  10.622  0.5701 -0.0861 -0.0393
  558TMC3     H 8335   1.906   1.394  10.658 -0.1994 -1.0857 -1.4087
  558TMC3    H1 8336   2.024   1.634  10.317  2.6174 -1.8556  0.7925
  558TMC3    H2 8337   1.619   1.619  10.434  0.3092  0.1197  1.7510
  558TMC3    C7 8338   1.789   1.692  10.229 -0.3337 -0.0549  0.7714
  558TMC3    C8 8339   1.641   1.435  10.619 -0.4230  0.0187 -0.0529
  558TMC3    O1 8340   1.865   1.772  10.182  0.2894 -0.0328 -0.4492
  558TMC3    O2 8341   1.536   1.497  10.610  0.2681 -0.3227 -0.1855
  559MPD2     C 8342   2.359   1.927  10.648 -0.5488  0.3114 -0.1775
  559MPD2    C1 8343   2.282   1.831  10.715  0.0619  0.3348 -0.4826
  559MPD2    C2 8344   2.346   1.738  10.794  0.4988  0.0856 -0.5190
  559MPD2    C3 8345   2.480   1.755  10.817  0.6248 -0.0899  0.7097
  559MPD2    C4 8346   2.555   1.849  10.756 -0.0668  0.1991  0.2938
  559MPD2    C5 8347   2.497   1.933  10.663 -0.5849 -0.2574  0.0776
  559MPD2     H 8348   2.288   1.651  10.824  0.4613  0.2489 -0.1160
  559MPD2    H1 8349   2.660   1.858  10.783 -0.1689  0.4663  0.6160
  559MPD2    H2 8350   2.303   1.999  10.591  1.2043  2.5263  0.9228
  559MPD2    H3 8351   2.553   2.007  10.607  0.3654  0.9858  2.6673
  559MPD2     N 8352   2.533   1.664  10.912 -0.3952 -0.3580  0.4860
  559MPD2    H5 8353   2.465   1.603  10.958 -0.9191  0.9610  1.4373
  559MPD2    N1 8354   2.144   1.839  10.689 -0.2831  0.0322  0.4812
  559MPD2    H7 8355   2.108   1.908  10.624  1.0023 -1.2118 -1.5238
  560TMC3    C1 8356   2.658   1.597  11.102  0.0395 -0.3201  0.0390
  560TMC3    C2 8357   2.575   1.492  11.123 -0.1671 -0.3839 -0.1844
  560TMC3    C3 8358   2.579   1.429  11.240 -0.2714  0.1754  0.3005
  560TMC3    C4 8359   2.740   1.638  11.200  0.1483  0.1980 -0.7481
  560TMC3    C5 8360   2.744   1.580  11.321  0.5699  0.2966 -0.4251
  560TMC3    C6 8361   2.662   1.475  11.349  1.2583 -0.4647 -0.5734
  560TMC3     C 8362   2.661   1.671  10.968 -0.2176  0.4042 -0.0809
  560TMC3     O 8363   2.755   1.751  10.955 -0.0361  0.0636  0.1543
  560TMC3     H 8364   2.517   1.449  11.042  0.2434 -2.8879  0.8553
  560TMC3    H1 8365   2.780   1.738  11.190  0.7074  0.1590  1.1009
  560TMC3    H2 8366   2.654   1.444  11.452  1.2358 -0.3943 -0.5546
  560TMC3    C7 8367   2.856   1.600  11.406  0.1752 -0.0227  0.6046
  560TMC3    C8 8368   2.495   1.311  11.252 -1.2011 -0.5392 -0.1906
  560TMC3    O1 8369   2.863   1.543  11.513 -0.6221 -0.2839  0.1124
  560TMC3    O2 8370   2.395   1.297  11.178 -0.2560  0.3909  0.2980
  561TMC3    C1 8371   0.406   1.052  11.453  1.0901 -0.1284  0.1147
  561TMC3    C2 8372   0.348   0.938  11.491 -0.4232 -0.4377 -0.4906
  561TMC3    C3 8373   0.208   0.932  11.491  0.1912 -0.3438 -0.3356
  561TMC3    C4 8374   0.342   1.156  11.389  0.3774  0.2839 -0.3787
  561TMC3    C5 8375   0.207   1.143  11.386  0.0261 -0.2077  0.1232
  561TMC3    C6 8376   0.136   1.036  11.437 -0.1136  0.1148 -0.1116
  561TMC3     C 8377   0.534   1.078  11.512  0.2089 -0.6174  0.3743
  561TMC3     O 8378   0.568   0.999  11.597 -0.2907  0.2177  0.5506
  561TMC3     H 8379   0.402   0.855  11.533 -0.1669  0.3548  0.7612
  561TMC3    H1 8380   0.386   1.251  11.361 -2.3215  1.9761  1.1342
  561TMC3    H2 8381   0.028   1.028  11.438 -0.1685  0.8533  0.9743
  561TMC3    C7 8382   0.119   1.243  11.321 -0.5802  0.3926 -0.1839
  561TMC3    C8 8383   0.141   0.835  11.581  0.5314  0.4565  0.2832
  561TMC3    O1 8384   4.737   1.245  11.345 -0.6802  0.4720 -0.3928
  561TMC3    O2 8385   0.194   0.724  11.593  0.2241  0.5406 -0.2151
  562TMC3    C1 8386   1.813   2.208  16.180  0.3891 -0.3137  0.1243
  562TMC3    C2 8387   1.688   2.275  16.178 -0.2660  0.6258 -0.0082
  562TMC3    C3 8388   1.630   2.304  16.053  0.0215 -0.5770 -0.3284
  562TMC3    C4 8389   1.868   2.164  16.067 -0.8107 -0.4003 -0.5059
  562TMC3    C5 8390   1.800   2.178  15.950 -0.0219 -0.0385 -0.0514
  562TMC3    C6 8391   1.685   2.249  15.939 -0.4136 -0.6697  0.6811
  562TMC3     C 8392   1.855   2.191  16.316  0.6419 -0.6878  0.3842
  562TMC3     O 8393   1.780   2.243  16.395 -0.6860 -0.7596 -0.4934
  562TMC3     H 8394   1.624   2.303  16.260  0.3000 -0.4571  0.7927
  562TMC3    H1 8395   1.963   2.113  16.071 -0.7438 -0.1411  1.1408
  562TMC3    H2 8396   1.648   2.261  15.838 -0.0632  3.2072  1.0045
  562TMC3    C7 8397   1.841   2.108  15.833 -0.7531  0.0207  0.3553
  562TMC3    C8 8398   1.504   2.378  16.044  0.3020  0.3051 -0.0545
  562TMC3    O1 8399   1.819   2.152  15.723  0.1438 -0.4696 -0.2445
  562TMC3    O2 8400   1.432   2.380  16.143 -0.0935 -0.1515 -0.0244
  563MPD2     C 8401   3.632   3.470  15.707  0.2234  0.2454 -0.2052
  563MPD2    C1 8402   3.636   3.534  15.826  0.2845  0.3665  0.3310
  563MPD2    C2 8403   3.744   3.504  15.913 -0.2489  0.3758 -0.3876
  563MPD2    C3 8404   3.840   3.406  15.886  0.6380  0.2495 -0.4832
  563MPD2    C4 8405   3.825   3.341  15.766  0.0620 -0.2268 -0.5354
  563MPD2    C5 8406   3.727   3.373  15.679  0.8014 -0.9718 -0.1651
  563MPD2     H 8407   3.736   3.545  16.013 -1.2712 -0.1102 -0.2730
  563MPD2    H1 8408   3.875   3.247  15.748 -1.8097 -1.2293 -0.4086
  563MPD2    H2 8409   3.545   3.482  15.643 -0.7694  1.5941  1.4076
  563MPD2    H3 8410   3.700   3.328  15.584  1.8051 -0.3596 -0.7388
  563MPD2     N 8411   3.934   3.369  15.987 -1.2390 -0.3896  0.1858
  563MPD2    H5 8412   3.932   3.412  16.079  0.1412 -0.3012  0.1673
  563MPD2    N1 8413   3.526   3.609  15.873 -0.3797 -0.2196 -0.2489
  563MPD2    H7 8414   3.446   3.627  15.813 -0.2039 -1.0292 -0.7313
  564TMC3    C1 8415   3.434   3.583  16.074 -0.1573  0.3422  0.0790
  564TMC3    C2 8416   3.342   3.519  15.999 -0.3183  0.4999  0.3698
  564TMC3    C3 8417   3.317   3.388  16.025 -0.5666  0.3096  0.1487
  564TMC3    C4 8418   3.504   3.508  16.168 -0.2911 -0.1392  0.3027
  564TMC3    C5 8419   3.492   3.369  16.170 -0.3516  0.6517 -0.1355
  564TMC3    C6 8420   3.400   3.299  16.099 -0.8445 -0.0141  0.3175
  564TMC3     C 8421   3.515   3.671  15.990  0.5585 -0.5184 -0.3647
  564TMC3     O 8422   3.609   3.729  16.044 -0.3555  0.0932 -0.0425
  564TMC3     H 8423   3.270   3.577  15.943 -0.6345  1.2726  1.5768
  564TMC3    H1 8424   3.585   3.556  16.221  0.1106 -0.1156 -0.3328
  564TMC3    H2 8425   3.377   3.195  16.114  0.0748  0.1975  3.1027
  564TMC3    C7 8426   3.616   3.295  16.174 -0.0613  0.3328  0.2037
  564TMC3    C8 8427   3.229   3.318  15.927 -0.2765 -0.1787 -0.1634
  564TMC3    O1 8428   3.713   3.350  16.223 -0.3902 -0.4162  0.5505
  564TMC3    O2 8429   3.177   3.220  15.976  0.2288  0.0103 -0.3184
  565TMC3    C1 8430   4.092   4.344  10.141  0.6638 -0.1501  0.5024
  565TMC3    C2 8431   4.129   4.282  10.257 -0.0763  1.0913  0.2018
  565TMC3    C3 8432   4.075   4.159  10.290 -0.7093  0.2128 -0.0581
  565TMC3    C4 8433   3.990   4.289  10.064  0.1816  0.5286 -0.4596
  565TMC3    C5 8434   3.934   4.168  10.101 -0.6788 -0.3151  0.1679
  565TMC3    C6 8435   3.971   4.100  10.218 -0.0233  0.3481 -0.0530
  565TMC3     C 8436   4.154   4.472  10.094  0.2602 -0.4460  0.2313
  565TMC3     O 8437   4.085   4.527  10.005  0.1885  0.3146 -0.2098
  565TMC3     H 8438   4.184   4.336  10.333  1.5602 -1.1988  0.6624
  565TMC3    H1 8439   3.968   4.347   9.975 -1.0063  1.3390  0.3552
  565TMC3    H2 8440   3.940   3.997  10.231  1.3242  0.1901  1.9316
  565TMC3    C7 8441   3.871   4.085  10.006 -0.2412 -0.2767 -0.4001
  565TMC3    C8 8442   4.152   4.078  10.383  0.2442  0.0882 -0.2055
  565TMC3    O1 8443   3.828   3.976  10.042  0.3993 -0.3972 -0.0620
  565TMC3    O2 8444   4.260   4.112  10.416 -0.4653 -0.4056  0.4064
  566MPD2     C 8445   1.490   1.851  14.543  0.0760  0.2061 -0.5903
  566MPD2    C1 8446   1.511   1.905  14.420 -0.0590  0.7150 -0.1114
  566MPD2    C2 8447   1.423   1.855  14.322  0.5521 -0.0090 -0.3676
  566MPD2    C3 8448   1.316   1.772  14.350  0.5487  0.8267 -0.2230
  566MPD2    C4 8449   1.292   1.743  14.478  0.2138  0.3454 -0.1875
  566MPD2    C5 8450   1.376   1.783  14.575 -0.9000  0.1515  0.1057
  566MPD2     H 8451   1.438   1.896  14.222 -2.5400 -2.4777 -1.8791
  566MPD2    H1 8452   1.217   1.668  14.501  0.4057  0.6754  1.5557
  566MPD2    H2 8453   1.559   1.862  14.626 -2.0998 -1.3990  1.4413
  566MPD2    H3 8454   1.363   1.748  14.676 -2.0462 -0.5629 -0.2887
  566MPD2     N 8455   1.239   1.718  14.241 -0.4273  0.0433  0.0679
  566MPD2    H5 8456   1.158   1.664  14.267 -0.0967 -0.0073  0.9893
  566MPD2    N1 8457   1.625   1.988  14.398  0.2045  0.5038 -0.2927
  566MPD2    H7 8458   1.688   2.003  14.477 -0.1216 -1.3268  0.3077
  567TMC3    C1 8459   1.791   2.098  14.262 -0.3929 -0.5085  0.0665
  567TMC3    C2 8460   1.821   2.112  14.129  0.8239 -0.1306  0.1254
  567TMC3    C3 8461   1.946   2.086  14.081 -0.6692  0.7079 -0.0840
  567TMC3    C4 8462   1.882   2.034  14.341 -0.4858  0.0413  0.5056
  567TMC3    C5 8463   2.007   1.992  14.286  0.0240 -0.0720 -0.4785
  567TMC3    C6 8464   2.045   2.032  14.160 -0.3923  0.8379  0.2220
  567TMC3     C 8465   1.655   2.051  14.274 -0.0987  0.0565  0.0790
  567TMC3     O 8466   1.593   2.058  14.173  0.2897 -0.2227 -0.2464
  567TMC3     H 8467   1.754   2.159  14.059 -1.2546 -3.1401  0.0678
  567TMC3    H1 8468   1.887   2.048  14.449  0.3850  1.4248  0.2845
  567TMC3    H2 8469   2.130   1.979  14.120 -0.2476 -0.4972  2.2974
  567TMC3    C7 8470   2.078   1.896  14.373 -0.7369  0.1731 -0.1360
  567TMC3    C8 8471   1.967   2.089  13.935  0.0065 -0.0115 -0.0144
  567TMC3    O1 8472   2.199   1.910  14.392  0.0647  0.2831 -0.1109
  567TMC3    O2 8473   1.863   2.081  13.871 -0.0903 -0.3324  0.9945
  568MPD2     C 8474   3.996   2.132  16.323 -0.2046  0.0206  0.1604
  568MPD2    C1 8475   3.882   2.162  16.384 -0.0142 -0.6819  0.2974
  568MPD2    C2 8476   3.815   2.270  16.327 -0.3393  0.3296 -0.8793
  568MPD2    C3 8477   3.864   2.339  16.211 -0.2294 -0.3760  0.0649
  568MPD2    C4 8478   3.980   2.311  16.151  0.0075  0.1446 -0.2053
  568MPD2    C5 8479   4.042   2.204  16.212 -0.6307 -0.3370 -0.1467
  568MPD2     H 8480   3.717   2.300  16.363 -0.0930 -0.1552  0.2253
  568MPD2    H1 8481   4.028   2.366  16.071 -0.3179  0.1705 -0.3834
  568MPD2    H2 8482   4.055   2.058  16.376  1.2427  1.9776  1.2819
  568MPD2    H3 8483   4.137   2.179  16.165 -0.1203 -0.7847  1.1201
  568MPD2     N 8484   3.774   2.428  16.148 -0.1900  0.0099  0.3596
  568MPD2    H5 8485   3.679   2.439  16.182 -0.2089  0.7408  0.0880
  568MPD2    N1 8486   3.840   2.078  16.492 -0.0340  0.2441 -0.3118
  568MPD2    H7 8487   3.901   2.004  16.525  0.8366  0.8938 -0.4805
  569TMC3    C1 8488   3.686   2.596  16.000  0.5296  0.2271  0.7393
  569TMC3    C2 8489   3.633   2.670  16.105  0.0463  0.3324 -0.0033
  569TMC3    C3 8490   3.508   2.724  16.090 -0.5781 -0.3404 -1.0846
  569TMC3    C4 8491   3.631   2.594  15.877  0.0715 -0.0628 -0.1561
  569TMC3    C5 8492   3.503   2.650  15.859 -0.5287 -0.0866 -0.5922
  569TMC3    C6 8493   3.435   2.699  15.970 -0.1814  0.4260  0.1368
  569TMC3     C 8494   3.797   2.505  16.034  0.0630  0.8380  0.4738
  569TMC3     O 8495   3.874   2.481  15.943  0.7267 -0.1380  0.1625
  569TMC3     H 8496   3.693   2.674  16.195 -2.0634  1.9888  1.3294
  569TMC3    H1 8497   3.676   2.540  15.795  2.0254  0.7355  0.3820
  569TMC3    H2 8498   3.331   2.729  15.964 -0.1123  0.6720  0.1712
  569TMC3    C7 8499   3.495   2.749  15.748  0.3388  0.1362 -0.0892
  569TMC3    C8 8500   3.477   2.855  16.138  0.1858 -0.2667  0.1288
  569TMC3    O1 8501   3.542   2.714  15.643  0.6066  0.1201 -0.4527
  569TMC3    O2 8502   3.387   2.911  16.079  0.4218  0.0789  0.0309
  570TMC3    C1 8503   2.895   1.172  16.121  0.2310 -0.0445  0.1652
  570TMC3    C2 8504   2.986   1.135  16.021  0.5234  0.0428  0.4961
  570TMC3    C3 8505   3.019   1.237  15.926  0.2359 -0.1949  0.1747
  570TMC3    C4 8506   2.838   1.296  16.120 -0.0125  0.1010  0.0563
  570TMC3    C5 8507   2.869   1.383  16.024  0.2836 -0.3076 -0.5737
  570TMC3    C6 8508   2.962   1.363  15.925 -0.0396  0.8363 -0.5515
  570TMC3     C 8509   2.870   1.077  16.225 -0.4691 -0.0327 -0.7868
  570TMC3     O 8510   2.911   0.960  16.216  0.2445  0.3776  0.5004
  570TMC3     H 8511   3.035   1.039  16.024  0.1951 -0.0859  1.7230
  570TMC3    H1 8512   2.772   1.326  16.200  1.9128 -0.2621  1.7723
  570TMC3    H2 8513   2.996   1.443  15.861 -1.0899  0.9554 -0.9512
  570TMC3    C7 8514   2.785   1.504  16.023  0.2313  0.4928 -0.4322
  570TMC3    C8 8515   3.154   1.235  15.860 -0.1119 -0.1098 -0.0953
  570TMC3    O1 8516   2.749   1.550  16.129  0.6075 -0.6100  0.1481
  570TMC3    O2 8517   3.199   1.344  15.824  0.2333  0.9513  0.6766
  571MPD2     C 8518   1.021   2.673  17.470  0.3426  0.5294  1.0305
  571MPD2    C1 8519   0.995   2.651  17.602  0.2356 -0.3873 -0.4858
  571MPD2    C2 8520   1.044   2.732  17.703  0.5574 -0.3174  0.2335
  571MPD2    C3 8521   1.103   2.851  17.663  0.7877  0.3478 -0.2097
  571MPD2    C4 8522   1.115   2.878  17.532 -0.4458 -0.4938 -0.2008
  571MPD2    C5 8523   1.082   2.790  17.436  0.7515 -0.0086 -0.5437
  571MPD2     H 8524   1.053   2.709   0.060  0.0544 -2.2438 -0.1533
  571MPD2    H1 8525   1.152   2.975  17.499 -1.9564  0.4958  1.0083
  571MPD2    H2 8526   0.978   2.611  17.392  2.2648  0.5801 -0.0756
  571MPD2    H3 8527   1.088   2.820  17.332  0.3236  1.3032 -0.2015
  571MPD2     N 8528   1.146   2.948   0.013  0.4314 -0.1726 -0.7544
  571MPD2    H5 8529   1.194   3.034  17.736  2.0856 -0.7979  0.2185
  571MPD2    N1 8530   0.948   2.521  17.628 -0.4685  0.1663  0.3243
  571MPD2    H7 8531   0.944   2.451  17.555 -1.2774  1.6651 -1.0558
  572TMC3    C1 8532   1.167   3.065   0.214 -0.1989 -1.0006  0.0105
  572TMC3    C2 8533   1.208   3.039   0.343 -0.0018  0.4303 -0.1470
  572TMC3    C3 8534   1.279   3.145   0.398  0.5111  0.2761 -0.6066
  572TMC3    C4 8535   1.189   3.182   0.147 -0.3084  0.5306  0.4962
  572TMC3    C5 8536   1.261   3.283   0.204  1.0461  0.4277  0.5555
  572TMC3    C6 8537   1.302   3.263   0.333 -0.1284  0.2492 -0.0092
  572TMC3     C 8538   1.108   2.957   0.144  0.0719  0.0758 -0.1275
  572TMC3     O 8539   1.059   2.870   0.215 -0.2638 -0.1492  0.1596
  572TMC3     H 8540   1.206   2.943   0.391  1.0569 -0.2598 -1.4738
  572TMC3    H1 8541   1.144   3.204   0.051 -1.4891  1.2803  1.2152
  572TMC3    H2 8542   1.339   3.343   0.396 -0.9476  0.0827  0.6816
  572TMC3    C7 8543   1.259   3.414   0.165 -0.1952 -0.4734  0.2242
  572TMC3    C8 8544   1.318   3.141   0.537  0.0870  0.4241  0.0136
  572TMC3    O1 8545   1.161   3.435   0.097 -0.1537  0.5511  0.8376
  572TMC3    O2 8546   1.409   3.205   0.587 -0.4938  0.5652  0.0509
  573MPD2     C 8547   1.949   3.017   0.797 -0.4330  0.0652  0.1915
  573MPD2    C1 8548   1.903   3.122   0.726 -0.5643  0.7403 -0.4461
  573MPD2    C2 8549   1.825   3.101   0.610  0.0802 -0.0781  0.9125
  573MPD2    C3 8550   1.823   2.971   0.554 -0.1551 -0.3027  0.1545
  573MPD2    C4 8551   1.872   2.863   0.632  0.2660 -0.1591 -0.2424
  573MPD2    C5 8552   1.938   2.891   0.744 -0.6040  0.7492  0.6503
  573MPD2     H 8553   1.775   3.184   0.563  2.5034 -0.3961 -2.2350
  573MPD2    H1 8554   1.867   2.758   0.605  0.2474 -0.7949  2.2630
  573MPD2    H2 8555   2.009   3.052   0.880  0.1189  0.5626 -0.4082
  573MPD2    H3 8556   1.975   2.808   0.804 -0.1174  1.5274  1.4378
  573MPD2     N 8557   1.761   2.941   0.429  0.5996 -0.2087  0.0127
  573MPD2    H5 8558   1.772   2.845   0.399  1.1526 -0.3355  0.6242
  573MPD2    N1 8559   1.928   3.250   0.773  0.0075  0.0885 -0.1354
  573MPD2    H7 8560   1.996   3.258   0.849  0.8190 -1.3560 -0.7079
  574TMC3    C1 8561   1.633   2.973   0.232  0.2550 -0.6572  0.3846
  574TMC3    C2 8562   1.614   3.054   0.123  0.0980 -0.5015 -0.9954
  574TMC3    C3 8563   1.540   3.010   0.018  0.4336  0.3780  0.0544
  574TMC3    C4 8564   1.577   2.847   0.249 -0.5968 -0.9447  0.0850
  574TMC3    C5 8565   1.493   2.805   0.144  1.0619  0.2059 -0.7932
  574TMC3    C6 8566   1.477   2.885   0.030 -0.3368  0.2232  0.9659
  574TMC3     C 8567   1.706   3.032   0.343 -0.2803 -0.2719 -0.0091
  574TMC3     O 8568   1.711   3.157   0.342  0.1509 -0.2934 -0.3424
  574TMC3     H 8569   1.638   3.160   0.129 -0.9602 -0.3269  0.0825
  574TMC3    H1 8570   1.599   2.783   0.334 -2.6248 -2.7968 -0.7961
  574TMC3    H2 8571   1.394   2.856  17.714 -0.0063  0.2001  0.5521
  574TMC3    C7 8572   1.442   2.669   0.151  0.4849 -0.4427 -0.0445
  574TMC3    C8 8573   1.469   3.118  17.697  0.5019 -0.2276  0.4897
  574TMC3    O1 8574   1.446   2.614   0.257 -0.1476 -0.5770 -0.0303
  574TMC3    O2 8575   1.353   3.092  17.674 -0.2726 -0.0728  0.1933
  575TMC3    C1 8576   4.564   4.074  11.154  0.1567  0.1850  0.2341
  575TMC3    C2 8577   4.548   3.973  11.243  0.2428 -0.6737 -0.2692
  575TMC3    C3 8578   4.469   3.865  11.204 -0.4506 -0.1707  0.0046
  575TMC3    C4 8579   4.518   4.064  11.023  0.0584 -0.2984 -0.4347
  575TMC3    C5 8580   4.457   3.949  10.989  0.5316  0.0193 -0.6154
  575TMC3    C6 8581   4.415   3.856  11.081 -0.4157  0.0649  0.4344
  575TMC3     C 8582   4.657   4.176  11.184  0.4801 -0.5809  0.2267
  575TMC3     O 8583   4.727   4.162  11.283  0.2116  0.6456  0.9803
  575TMC3     H 8584   4.599   3.989  11.337  0.0187  2.2629 -0.6455
  575TMC3    H1 8585   4.531   4.147  10.954  0.7715 -0.6801 -0.7660
  575TMC3    H2 8586   4.349   3.774  11.058 -0.8503 -0.0854  2.1649
  575TMC3    C7 8587   4.389   3.947  10.857  0.1547  0.4744  0.8905
  575TMC3    C8 8588   4.387   3.804  11.313  0.4190 -0.3589  0.2135
  575TMC3    O1 8589   4.355   4.061  10.817  0.1133 -0.3198  0.3362
  575TMC3    O2 8590   4.289   3.745  11.276 -0.0481 -0.0721 -0.0972
  576MPD2     C 8591   4.141   1.247  12.802  0.8897  0.2871  0.0244
  576MPD2    C1 8592   4.150   1.335  12.700 -0.4090 -0.3645  0.1921
  576MPD2    C2 8593   4.079   1.449  12.712 -0.4626 -0.6726  0.3876
  576MPD2    C3 8594   3.995   1.473  12.819 -0.2705 -0.5064 -0.6221
  576MPD2    C4 8595   3.982   1.383  12.917  0.0852 -0.9025 -0.4319
  576MPD2    C5 8596   4.056   1.269  12.905  0.0425  0.5385  0.5522
  576MPD2     H 8597   4.088   1.519  12.631 -0.8158 -1.5794 -0.4322
  576MPD2    H1 8598   3.912   1.389  12.999  1.6149 -1.7764  0.9599
  576MPD2    H2 8599   4.205   1.160  12.814 -1.7052 -1.5445  0.5333
  576MPD2    H3 8600   4.039   1.187  12.973  1.3817  0.0215  0.2657
  576MPD2     N 8601   3.924   1.595  12.816 -0.0863 -0.4713  0.1462
  576MPD2    H5 8602   3.957   1.663  12.748 -2.0334 -0.9635 -1.2612
  576MPD2    N1 8603   4.243   1.323  12.594  0.0729 -0.1803  0.0464
  576MPD2    H7 8604   4.255   1.411  12.545 -1.6693  0.4238  0.7140
  577TMC3    C1 8605   4.407   1.219  12.450  0.0862  0.4484  0.4951
  577TMC3    C2 8606   4.445   1.101  12.393 -0.1427  0.0717 -0.0097
  577TMC3    C3 8607   4.469   1.100  12.254  0.5266 -0.3947 -0.2567
  577TMC3    C4 8608   4.421   1.336  12.383  0.2121 -0.1975  0.1023
  577TMC3    C5 8609   4.453   1.332  12.249  0.4589 -0.2112 -0.6747
  577TMC3    C6 8610   4.482   1.217  12.183  0.9438  0.2556 -0.5212
  577TMC3     C 8611   4.303   1.207  12.550 -0.2660  0.1557  0.4034
  577TMC3     O 8612   4.275   1.094  12.583 -0.1631  0.8696  0.3127
  577TMC3     H 8613   4.430   1.006  12.443 -0.8092 -1.2028 -2.6595
  577TMC3    H1 8614   4.415   1.434  12.429  1.4843 -0.3981  0.7118
  577TMC3    H2 8615   4.518   1.222  12.081  0.2456  0.8308 -0.7387
  577TMC3    C7 8616   4.466   1.463  12.180 -0.0440  0.8131  0.2405
  577TMC3    C8 8617   4.508   0.971  12.193  0.2453  0.0053 -0.6378
  577TMC3    O1 8618   4.542   1.546  12.225  0.1545  0.5516 -0.0943
  577TMC3    O2 8619   4.508   0.873  12.268 -0.2845 -0.9161  0.8354
  578MPD2     C 8620   2.479   0.923   0.571  0.6539  0.1836 -0.1879
  578MPD2    C1 8621   2.476   0.794   0.529 -0.0516 -0.3458  0.7134
  578MPD2    C2 8622   2.584   0.717   0.558  0.2854 -0.4819  0.5435
  578MPD2    C3 8623   2.696   0.767   0.623  0.1068  0.0411 -0.1422
  578MPD2    C4 8624   2.693   0.894   0.664 -0.3548  0.9666  0.0026
  578MPD2    C5 8625   2.588   0.974   0.627  0.5959  0.2862  0.3726
  578MPD2     H 8626   2.583   0.609   0.549  1.3608 -0.3177 -1.5112
  578MPD2    H1 8627   2.765   0.936   0.733  1.9942 -1.3105 -1.0655
  578MPD2    H2 8628   2.395   0.991   0.574 -0.0160 -0.7091  1.6482
  578MPD2    H3 8629   2.586   1.079   0.655  0.4643  0.4588 -0.2805
  578MPD2     N 8630   2.807   0.685   0.642  0.3348  0.5031 -0.8490
  578MPD2    H5 8631   2.799   0.586   0.619 -1.4030  0.8035 -1.5201
  578MPD2    N1 8632   2.364   0.729   0.475  0.0904  0.1098 -0.5959
  578MPD2    H7 8633   2.379   0.640   0.429 -1.8466 -0.6127  0.1867
  579TMC3    C1 8634   2.995   0.600   0.748  0.4228 -0.0864  1.2303
  579TMC3    C2 8635   3.091   0.627   0.846  0.4012 -0.2105 -0.0592
  579TMC3    C3 8636   3.109   0.534   0.939  0.6363 -0.6136  0.6583
  579TMC3    C4 8637   2.929   0.476   0.739  0.6934 -0.1237 -0.3428
  579TMC3    C5 8638   2.963   0.386   0.830 -0.2707 -0.5348  0.5210
  579TMC3    C6 8639   3.044   0.416   0.938  0.0782  0.1243  0.3525
  579TMC3     C 8640   2.922   0.721   0.705 -0.3765  0.2138  0.3615
  579TMC3     O 8641   2.963   0.828   0.740  0.3698  0.4166  0.1102
  579TMC3     H 8642   3.138   0.724   0.858  0.9468 -0.7375  1.9321
  579TMC3    H1 8643   2.882   0.444   0.647 -0.3004  0.4058 -0.0224
  579TMC3    H2 8644   3.061   0.356   1.026 -1.9608 -1.1293 -0.1069
  579TMC3    C7 8645   2.892   0.263   0.857 -0.5753 -0.4623 -0.2452
  579TMC3    C8 8646   3.175   0.565   1.066 -0.0384  0.1925  0.9413
  579TMC3    O1 8647   2.938   0.199   0.949  0.3158 -0.2290  0.0896
  579TMC3    O2 8648   3.147   0.512   1.170 -0.5603 -0.1098  0.4358
  580TMC3    C1 8649   1.672   0.258  12.279  0.3535  0.6602  0.2754
  580TMC3    C2 8650   1.712   0.376  12.332  0.1647  0.2169 -0.5003
  580TMC3    C3 8651   1.799   0.368  12.438  0.2646 -0.4099  1.0250
  580TMC3    C4 8652   1.707   0.137  12.328 -0.0149  0.5986  0.8257
  580TMC3    C5 8653   1.789   0.133  12.436  0.2461 -0.3440  0.8063
  580TMC3    C6 8654   1.842   0.251  12.487 -0.1060  0.4504  0.0714
  580TMC3     C 8655   1.627   0.261  12.141 -0.5223  0.1543 -0.1853
  580TMC3     O 8656   1.549   0.179  12.099  0.1408  0.1334  0.5937
  580TMC3     H 8657   1.702   0.473  12.283  0.8292  1.6865  2.2403
  580TMC3    H1 8658   1.666   0.056  12.270  0.2241  0.2166  1.1974
  580TMC3    H2 8659   1.913   0.249  12.569 -1.9134 -1.0564  1.6177
  580TMC3    C7 8660   1.860   0.010  12.460  0.4380 -0.7220  0.2941
  580TMC3    C8 8661   1.874   0.482  12.467  0.8993  0.1390  0.2595
  580TMC3    O1 8662   1.948   0.028  12.541  0.2909  0.9485 -0.3373
  580TMC3    O2 8663   1.814   0.592  12.473  0.3093  0.0254  0.1871
  581MPD2     C 8664   0.066   0.078  14.570 -0.6860 -0.4216 -0.3420
  581MPD2    C1 8665   4.700   0.094  14.660  0.5788 -0.6970 -0.4936
  581MPD2    C2 8666   4.597   0.180  14.615  0.5861 -0.1328 -0.4317
  581MPD2    C3 8667   4.597   0.242  14.493  1.0177  0.1635 -0.3790
  581MPD2    C4 8668   4.699   0.225  14.405 -0.0988 -0.3791  0.5323
  581MPD2    C5 8669   0.071   0.147  14.446 -0.7070 -0.9810 -0.0805
  581MPD2     H 8670   4.508   0.195  14.675 -0.0049 -1.0911 -1.0635
  581MPD2    H1 8671   4.694   0.262  14.304  0.7468 -2.3096 -0.2358
  581MPD2    H2 8672   0.153   0.017  14.589  1.0656  2.2195  0.1595
  581MPD2    H3 8673   0.156   0.136  14.380  0.4234 -0.1337  1.2304
  581MPD2     N 8674   4.494   0.323  14.450 -0.0180  0.1797 -0.5312
  581MPD2    H5 8675   4.417   0.346  14.512  0.7340  2.6627 -0.5306
  581MPD2    N1 8676   4.693   0.019  14.775 -0.1825  0.6565 -0.1750
  581MPD2    H7 8677   0.032   4.692  14.792 -0.0160  0.5684 -1.2296
  582TMC3    C1 8678   4.609   4.663  14.972  0.0239  0.2022 -0.3639
  582TMC3    C2 8679   4.729   4.636  15.040 -0.0283 -0.2414 -0.2495
  582TMC3    C3 8680   4.717   4.555  15.146  0.8147 -0.6691 -0.3414
  582TMC3    C4 8681   4.496   4.607  15.011  0.1837 -0.6555 -0.2710
  582TMC3    C5 8682   4.486   4.526  15.121 -0.0115  0.3321  0.1894
  582TMC3    C6 8683   4.604   4.495  15.184 -0.1767 -0.3492 -1.1460
  582TMC3     C 8684   4.592   0.025  14.864 -0.5388 -0.2230 -0.1247
  582TMC3     O 8685   4.483   0.080  14.864 -0.2893  0.4714 -0.1947
  582TMC3     H 8686   0.088   4.675  15.012 -0.4281 -0.6413 -2.1624
  582TMC3    H1 8687   4.406   4.636  14.958  0.5681 -1.4755 -1.3604
  582TMC3    H2 8688   4.607   4.441  15.278 -1.0095 -0.6969 -1.3125
  582TMC3    C7 8689   4.377   4.570  15.203  0.1712  0.4867  0.1900
  582TMC3    C8 8690   0.082   4.567  15.247  0.2199  0.8956 -0.1129
  582TMC3    O1 8691   4.334   4.489  15.282 -0.1400 -0.4174 -0.2491
  582TMC3    O2 8692   0.039   4.574  15.358 -0.2613 -0.2679  0.1812
  583MPD2     C 8693   0.211   1.453  16.471  0.1761 -0.1365 -0.4765
  583MPD2    C1 8694   0.184   1.584  16.429  1.5132  0.1501  0.1494
  583MPD2    C2 8695   0.145   1.671  16.532 -0.3937 -0.1730  0.3225
  583MPD2    C3 8696   0.112   1.633  16.665  0.5549 -0.5339 -0.1770
  583MPD2    C4 8697   0.140   1.508  16.696 -1.0150 -0.7137 -0.0905
  583MPD2    C5 8698   0.188   1.418  16.603  0.9558  0.3983 -0.3041
  583MPD2     H 8699   0.124   1.772  16.497 -0.9265 -0.3439  0.1574
  583MPD2    H1 8700   0.126   1.463  16.793 -0.9622 -1.4372 -0.4208
  583MPD2    H2 8701   0.252   1.375  16.407 -0.3920 -0.8338  0.0121
  583MPD2    H3 8702   0.207   1.318  16.643  3.4663  1.1315  0.3373
  583MPD2     N 8703   0.057   1.731  16.754  0.3085  0.6633  0.5295
  583MPD2    H5 8704   0.037   1.821  16.711  0.5457 -0.0461 -1.0431
  583MPD2    N1 8705   0.204   1.636  16.301  0.3835  0.4649  0.6051
  583MPD2    H7 8706   0.188   1.735  16.286  1.6461  0.7773  1.3407
  584TMC3    C1 8707   4.724   1.840  16.946 -0.2407 -0.1585  0.0022
  584TMC3    C2 8708   4.715   1.958  16.863 -0.3880  0.2688  0.1628
  584TMC3    C3 8709   4.682   2.071  16.933 -0.3938 -0.1108  0.1210
  584TMC3    C4 8710   4.701   1.845  17.078  0.4007 -0.2637 -0.1030
  584TMC3    C5 8711   4.651   1.959  17.137  0.2848 -0.4107 -0.0469
  584TMC3    C6 8712   4.643   2.075  17.066 -0.1166  0.3744 -0.2718
  584TMC3     C 8713   0.029   1.715  16.886  0.7078 -0.3605  0.0423
  584TMC3     O 8714   0.034   1.616  16.960  0.4876  0.7063 -0.9316
  584TMC3     H 8715   0.018   1.957  16.763  0.1077  2.6187  0.3505
  584TMC3    H1 8716   4.711   1.752  17.134 -0.3563 -0.5185 -0.3995
  584TMC3    H2 8717   4.600   2.166  17.104 -3.4787 -0.3359 -2.4321
  584TMC3    C7 8718   4.608   1.950  17.278 -0.0715 -0.4141 -0.7214
  584TMC3    C8 8719   4.692   2.196  16.853 -0.2556  0.1133  0.1850
  584TMC3    O1 8720   4.651   1.858  17.350  0.7884  0.1403 -0.1224
  584TMC3    O2 8721   4.686   2.181  16.731 -0.0581 -0.1728 -0.0795
  585MPD2     C 8722   3.910   0.940   0.096 -0.2133  0.5864 -0.0966
  585MPD2    C1 8723   3.933   1.013  17.729  0.2068 -0.1242  0.5326
  585MPD2    C2 8724   3.930   0.947  17.612  0.6119 -0.1722  0.1413
  585MPD2    C3 8725   3.921   0.814  17.602  0.0579 -0.4197 -0.0019
  585MPD2    C4 8726   3.901   0.745  17.719 -0.1471 -0.8025  0.1588
  585MPD2    C5 8727   3.889   0.808   0.085 -0.5052  0.5421  0.7695
  585MPD2     H 8728   3.938   1.000  17.518  0.1005  0.7798  0.6426
  585MPD2    H1 8729   3.871   0.641  17.715 -1.2591 -0.6094  3.8505
  585MPD2    H2 8730   3.911   0.986   0.194  1.6460 -0.9879  0.6236
  585MPD2    H3 8731   3.871   0.746   0.172  2.2644  0.2520  1.1627
  585MPD2     N 8732   3.919   0.741  17.481  0.1725  0.0453 -0.2237
  585MPD2    H5 8733   3.902   0.641  17.483 -1.0591  0.2383 -1.0294
  585MPD2    N1 8734   3.947   1.151   0.006  0.0663 -0.0955 -0.2020
  585MPD2    H7 8735   3.941   1.175   0.104  0.2283 -0.8182 -0.0177
  586TMC3    C1 8736   3.914   0.702  17.248 -0.2139 -0.4923 -0.2883
  586TMC3    C2 8737   4.007   0.655  17.161 -0.2925 -0.2178 -0.3360
  586TMC3    C3 8738   3.985   0.533  17.093  0.0032  0.4760 -0.2000
  586TMC3    C4 8739   3.792   0.651  17.258  0.2221 -0.4997  0.1667
  586TMC3    C5 8740   3.768   0.537  17.186  0.2364 -0.3275 -0.2528
  586TMC3    C6 8741   3.859   0.470  17.106 -0.0168  0.0160 -0.1554
  586TMC3     C 8742   3.950   0.789  17.357 -0.2193  0.4008  0.8787
  586TMC3     O 8743   3.993   0.899  17.323 -0.4476 -0.0098 -1.0204
  586TMC3     H 8744   4.111   0.684  17.172 -0.0923 -1.5414  1.2517
  586TMC3    H1 8745   3.714   0.712  17.303 -1.2897 -1.7434 -0.7723
  586TMC3    H2 8746   3.837   0.376  17.057  1.4093 -0.7225  0.6217
  586TMC3    C7 8747   3.628   0.515  17.170  0.0480 -1.1331 -0.2771
  586TMC3    C8 8748   4.081   0.436  17.042  0.8190 -0.3513  0.3507
  586TMC3    O1 8749   3.560   0.551  17.264 -0.0194 -0.1956 -0.1179
  586TMC3    O2 8750   4.046   0.319  17.042 -0.4335  0.6257 -0.4981
  587TMC3    C1 8751   1.238   4.051  15.946 -0.3839 -0.2693 -0.2369
  587TMC3    C2 8752   1.281   4.110  16.058  0.0516 -0.0197 -0.1225
  587TMC3    C3 8753   1.407   4.071  16.095 -0.7396 -0.4516  0.4168
  587TMC3    C4 8754   1.322   3.984  15.863  0.0459 -0.0648 -0.2257
  587TMC3    C5 8755   1.449   3.961  15.893 -0.0033 -0.5068 -0.5234
  587TMC3    C6 8756   1.494   4.002  16.014 -0.4640  0.9506 -0.2966
  587TMC3     C 8757   1.114   4.089  15.887 -0.5760 -0.1883 -0.7722
  587TMC3     O 8758   1.105   4.080  15.765 -0.4607 -0.3334 -0.8412
  587TMC3     H 8759   1.208   4.161  16.120 -0.7393 -0.9687 -0.2759
  587TMC3    H1 8760   1.283   3.954  15.766  0.0653 -1.1602  0.1022
  587TMC3    H2 8761   1.600   3.987  16.033 -0.4529 -0.2092 -1.2675
  587TMC3    C7 8762   1.533   3.974  15.778 -0.1173  0.2398  0.1366
  587TMC3    C8 8763   1.449   4.106  16.233  0.1827  0.3962 -0.5110
  587TMC3    O1 8764   1.483   4.041  15.687  0.3470 -0.7830 -0.3919
  587TMC3    O2 8765   1.523   4.026  16.285  1.1537  0.6276  0.1325
  588TMC3    C1 8766   3.351   1.548  10.060  0.0212  0.6895 -0.0528
  588TMC3    C2 8767   3.340   1.412  10.078 -0.3319 -0.3335 -0.3897
  588TMC3    C3 8768   3.455   1.339  10.058  0.7464  0.7205  0.5804
  588TMC3    C4 8769   3.472   1.611  10.036  0.4286  0.1918  1.3820
  588TMC3    C5 8770   3.586   1.538  10.033  0.2395 -0.3340 -0.0761
  588TMC3    C6 8771   3.578   1.403  10.038 -0.4208 -0.3688 -0.3907
  588TMC3     C 8772   3.252   1.639  10.111 -0.3668  0.2104  0.5725
  588TMC3     O 8773   3.136   1.633  10.069  0.0106 -0.2443 -0.1962
  588TMC3     H 8774   3.243   1.368  10.099  0.2197 -0.6508  1.5663
  588TMC3    H1 8775   3.465   1.712   9.999 -1.8811  0.1335  1.6579
  588TMC3    H2 8776   3.671   1.348  10.041  0.0898  0.6239  1.7913
  588TMC3    C7 8777   3.714   1.603  10.059  0.6609  0.3428  0.8419
  588TMC3    C8 8778   3.454   1.191  10.077 -0.1392  0.4130 -0.4960
  588TMC3    O1 8779   3.802   1.530  10.099  0.4862 -0.2463 -0.0904
  588TMC3    O2 8780   3.359   1.133  10.027 -0.1163  0.0520  0.6966
  589TMC3    C1 8781   3.110   3.524   0.764  0.4099 -0.6628 -0.0484
  589TMC3    C2 8782   3.230   3.560   0.829  0.1079  0.0910 -0.1235
  589TMC3    C3 8783   3.308   3.456   0.869 -0.3232 -0.7463  0.3273
  589TMC3    C4 8784   3.065   3.393   0.757  0.8489 -0.0555 -0.0060
  589TMC3    C5 8785   3.146   3.296   0.815 -0.0075  0.1165  0.2155
  589TMC3    C6 8786   3.265   3.323   0.861  0.6316  0.3654 -0.2171
  589TMC3     C 8787   3.019   3.631   0.721  0.1317 -0.1286  0.4300
  589TMC3     O 8788   2.932   3.608   0.638 -0.2593  0.5196  1.0856
  589TMC3     H 8789   3.275   3.659   0.833  0.1113  0.0402  1.1542
  589TMC3    H1 8790   2.969   3.369   0.714  0.2575 -0.2926  1.4518
  589TMC3    H2 8791   3.337   3.246   0.888 -0.4915 -0.3081  0.9203
  589TMC3    C7 8792   3.097   3.161   0.826 -0.4556 -0.1375  0.1080
  589TMC3    C8 8793   3.434   3.482   0.927 -0.2596  0.0643  0.0674
  589TMC3    O1 8794   3.178   3.080   0.865 -0.2027 -0.0634  0.2116
  589TMC3    O2 8795   3.462   3.407   1.017  0.3207 -0.1559  0.0577
  590MPD2     C 8796   2.700   2.433  16.713 -0.2471  0.7174  0.4622
  590MPD2    C1 8797   2.635   2.502  16.613  0.3323 -1.1746 -0.1879
  590MPD2    C2 8798   2.698   2.588  16.528 -0.0576 -0.5949 -0.7100
  590MPD2    C3 8799   2.838   2.617  16.555  0.0868 -0.1513 -0.0476
  590MPD2    C4 8800   2.906   2.555  16.663  0.4653 -0.9713  0.5245
  590MPD2    C5 8801   2.833   2.469  16.745 -0.2446  0.2919 -0.8197
  590MPD2     H 8802   2.664   2.633  16.435  0.3819 -0.5223 -0.8345
  590MPD2    H1 8803   3.013   2.560  16.681  0.3615  3.5224 -0.0985
  590MPD2    H2 8804   2.655   2.359  16.778 -0.8147  1.2056  0.6243
  590MPD2    H3 8805   2.887   2.432  16.830 -0.0839  1.5698 -0.3671
  590MPD2     N 8806   2.902   2.714  16.476 -0.1225  0.3242  0.4439
  590MPD2    H5 8807   2.864   2.747  16.388  0.2767 -0.0074  0.1480
  590MPD2    N1 8808   2.494   2.484  16.594  0.2316 -0.3077 -0.7853
  590MPD2    H7 8809   2.461   2.530  16.510 -2.2968 -1.5583 -0.4744
  591TMC3    C1 8810   3.059   2.872  16.389 -0.7241 -0.7983 -0.1088
  591TMC3    C2 8811   3.111   2.833  16.269  0.3727  0.3140  0.0065
  591TMC3    C3 8812   3.097   2.917  16.161  0.5668 -0.3254  0.7151
  591TMC3    C4 8813   2.995   2.987  16.398  0.0074 -0.0123  0.0693
  591TMC3    C5 8814   2.982   3.065  16.285  0.1372 -0.1799 -0.2777
  591TMC3    C6 8815   3.015   3.026  16.161  0.3139  0.1852 -0.3785
  591TMC3     C 8816   3.033   2.761  16.481  0.2411  0.5068  0.2489
  591TMC3     O 8817   3.117   2.747  16.568  0.0028  0.3027  0.0359
  591TMC3     H 8818   3.162   2.738  16.262 -1.7364 -0.9667  1.8131
  591TMC3    H1 8819   2.955   3.013  16.495  1.1972  1.8704  0.0660
  591TMC3    H2 8820   2.994   3.083  16.071  2.7995 -2.4017 -2.6016
  591TMC3    C7 8821   2.867   3.158  16.280  0.2519 -0.7889  0.2453
  591TMC3    C8 8822   3.095   2.843  16.037  0.9286 -0.6522  0.0862
  591TMC3    O1 8823   2.771   3.124  16.348 -0.2900 -0.7200  0.0348
  591TMC3    O2 8824   3.112   2.723  16.039  0.0408  0.3116 -0.0590
  592MPD2     C 8825   3.146   0.064  11.685  0.5044 -0.7047  0.1054
  592MPD2    C1 8826   3.117   0.066  11.813 -0.2861 -0.0744  0.4309
  592MPD2    C2 8827   3.000   0.012  11.859 -0.2942  0.2852 -0.5237
  592MPD2    C3 8828   2.923   4.664  11.780 -0.8945  0.3597  0.0358
  592MPD2    C4 8829   2.947   4.663  11.643  0.1308  0.0534 -0.1972
  592MPD2    C5 8830   3.056   4.737  11.598  0.2870 -0.1104 -0.2097
  592MPD2     H 8831   2.978   0.013  11.965 -0.5819 -1.5438 -0.5534
  592MPD2    H1 8832   2.887   4.605  11.574  1.4898 -2.8236  1.0442
  592MPD2    H2 8833   3.232   0.110  11.637  1.1924 -0.9575  1.0887
  592MPD2    H3 8834   3.072   4.735  11.491 -3.8353  1.8675 -0.8529
  592MPD2     N 8835   2.814   4.596  11.840 -0.5987  0.2818 -0.4255
  592MPD2    H5 8836   2.797   4.607  11.940  0.3141  0.8652 -0.3385
  592MPD2    N1 8837   3.205   0.140  11.896 -0.1619 -1.1810 -0.3624
  592MPD2    H7 8838   3.296   0.161  11.856 -0.7161  2.2670  0.2231
  593TMC3    C1 8839   3.273   0.236  12.102  0.5348  0.0346 -0.1970
  593TMC3    C2 8840   3.227   0.322  12.206 -0.8839 -0.1669  0.2829
  593TMC3    C3 8841   3.281   0.444  12.226 -0.5310 -0.0356 -0.2619
  593TMC3    C4 8842   3.396   0.263  12.041  0.4940  0.7003  0.3322
  593TMC3    C5 8843   3.447   0.388  12.063  0.0638 -0.1251 -0.5474
  593TMC3    C6 8844   3.395   0.475  12.151 -0.0522  0.0383 -0.1836
  593TMC3     C 8845   3.168   0.186  12.018 -0.5830  0.4129  0.1688
  593TMC3     O 8846   3.056   0.192  12.062 -0.2448  0.2901 -0.3712
  593TMC3     H 8847   3.153   0.277  12.271 -0.0225 -2.8144 -0.5628
  593TMC3    H1 8848   3.453   0.188  11.988 -0.4902  0.5908 -0.5764
  593TMC3    H2 8849   3.456   0.562  12.168 -0.3247  0.2076 -0.0601
  593TMC3    C7 8850   3.547   0.435  11.963  0.0852  0.0306 -0.2419
  593TMC3    C8 8851   3.240   0.529  12.339 -0.5771  0.6340  0.0297
  593TMC3    O1 8852   3.595   0.348  11.897  0.3217  0.0013 -0.1373
  593TMC3    O2 8853   3.153   0.489  12.413 -0.1001  0.1217  0.0343
  594MPD2     C 8854   2.046   3.509  14.044 -0.4310 -0.5159 -0.4824
  594MPD2    C1 8855   1.997   3.545  14.172  0.3793  0.2627  0.2741
  594MPD2    C2 8856   2.054   3.652  14.246 -0.3739 -0.2942 -0.4433
  594MPD2    C3 8857   2.151   3.721  14.177 -0.0669 -0.5052 -0.3463
  594MPD2    C4 8858   2.189   3.688  14.050  0.4229 -0.0828 -0.0108
  594MPD2    C5 8859   2.138   3.589  13.984 -0.6852 -0.6078 -0.0248
  594MPD2     H 8860   2.001   3.686  14.335  0.0949  2.5468 -1.2600
  594MPD2    H1 8861   2.261   3.745  13.994 -0.6794 -0.5526 -1.8919
  594MPD2    H2 8862   1.984   3.445  13.983 -0.0395 -1.6449  0.2905
  594MPD2    H3 8863   2.164   3.575  13.879 -2.8583  0.4719 -0.7139
  594MPD2     N 8864   2.215   3.825  14.254  0.0359  0.4865  0.1052
  594MPD2    H5 8865   2.181   3.844  14.348  1.0130 -0.6814  0.6942
  594MPD2    N1 8866   1.897   3.459  14.230  0.1026 -0.3162 -0.0858
  594MPD2    H7 8867   1.856   3.388  14.170  0.3740 -0.7418  0.2328
  595TMC3    C1 8868   2.550   4.117  14.375  0.3511 -0.4134 -0.0281
  595TMC3    C2 8869   2.508   4.034  14.281  0.6448 -0.3593  0.9290
  595TMC3    C3 8870   2.371   4.003  14.296  0.0906 -0.2686  0.1792
  595TMC3    C4 8871   2.474   4.172  14.473 -0.6804 -0.2814 -0.4755
  595TMC3    C5 8872   2.339   4.139  14.484 -0.3035 -0.6107  0.3140
  595TMC3    C6 8873   2.288   4.055  14.389  0.3899  0.5137 -0.1145
  595TMC3     C 8874   2.691   4.127  14.402  0.0270 -0.2166  0.4593
  595TMC3     O 8875   2.719   4.205  14.491 -1.0651  0.0694 -0.3961
  595TMC3     H 8876   2.571   3.992  14.204 -1.3242 -2.0422  0.2518
  595TMC3    H1 8877   2.523   4.236  14.546  1.3391 -2.3851  0.0193
  595TMC3    H2 8878   2.182   4.035  14.382  0.5827 -0.8437  0.9073
  595TMC3    C7 8879   2.244   4.235  14.544  0.3850 -0.0325  1.1520
  595TMC3    C8 8880   2.327   3.899  14.208  0.3222  0.3507  0.0985
  595TMC3    O1 8881   2.130   4.194  14.563 -0.0233 -0.0774  0.4535
  595TMC3    O2 8882   2.398   3.880  14.110  0.2457  0.1512  0.3981
  596MPD2     C 8883   0.997   1.584  16.692 -0.0145  0.3275 -0.7271
  596MPD2    C1 8884   0.949   1.684  16.609  1.1637 -0.3222 -1.3222
  596MPD2    C2 8885   0.967   1.677  16.472  0.7730  0.2230 -0.2020
  596MPD2    C3 8886   1.034   1.575  16.404  0.3929  0.6957  0.0692
  596MPD2    C4 8887   1.081   1.480  16.490  0.0659 -0.1067  0.2737
  596MPD2    C5 8888   1.067   1.484  16.627 -0.0205  0.7725 -1.3225
  596MPD2     H 8889   0.933   1.766  16.421 -0.6677 -1.1495 -1.6121
  596MPD2    H1 8890   1.149   1.400  16.461 -0.4873 -0.7930  0.8818
  596MPD2    H2 8891   0.990   1.584  16.800 -0.9288 -0.3449 -0.7931
  596MPD2    H3 8892   1.097   1.400  16.688  0.7574  1.2880 -0.9950
  596MPD2     N 8893   1.069   1.575  16.269  0.0901  0.5339 -0.0625
  596MPD2    H5 8894   1.127   1.498  16.238  0.1597  0.5264  0.0842
  596MPD2    N1 8895   0.881   1.802  16.659  0.0710 -0.8330 -0.2983
  596MPD2    H7 8896   0.879   1.884  16.599 -0.6255 -0.8373 -0.2824
  597TMC3    C1 8897   0.782   1.956  16.803  0.4190  0.7561  0.6167
  597TMC3    C2 8898   0.817   2.058  16.722 -0.1758 -0.6227 -0.1683
  597TMC3    C3 8899   0.746   2.171  16.738  0.1306 -0.6800  0.2380
  597TMC3    C4 8900   0.689   1.964  16.904 -0.4183  0.1675  0.6181
  597TMC3    C5 8901   0.618   2.081  16.914  0.3200  0.2234  0.4565
  597TMC3    C6 8902   0.643   2.185  16.827  0.8541  0.0825 -0.4224
  597TMC3     C 8903   0.842   1.820  16.787 -0.0369 -0.5008  0.3634
  597TMC3     O 8904   0.833   1.745  16.882 -0.1300 -0.1380  0.8732
  597TMC3     H 8905   0.902   2.045  16.656  0.7375  2.1667  0.4840
  597TMC3    H1 8906   0.663   1.875  16.961 -3.7354  0.7916  0.1166
  597TMC3    H2 8907   0.583   2.276  16.834  0.1375 -0.5994  2.5198
  597TMC3    C7 8908   0.535   2.094  17.032 -0.0057 -0.0488 -0.1381
  597TMC3    C8 8909   0.804   2.299  16.694  0.3890  0.8540  0.7097
  597TMC3    O1 8910   0.501   1.991  17.097 -0.1882 -0.4650  0.4028
  597TMC3    O2 8911   0.766   2.398  16.760  0.3001 -0.3424  0.4752
  598TMC3    C1 8912   3.537   2.847  15.074 -1.1173 -0.1177  0.2195
  598TMC3    C2 8913   3.417   2.891  15.126  0.3762  0.6523 -0.3593
  598TMC3    C3 8914   3.417   3.028  15.138 -0.5367  0.2592 -0.6416
  598TMC3    C4 8915   3.651   2.919  15.038 -0.9405 -0.4726  0.7374
  598TMC3    C5 8916   3.644   3.050  15.057  1.1470  0.6030  0.8800
  598TMC3    C6 8917   3.526   3.104  15.103 -0.2126  0.1977  1.0824
  598TMC3     C 8918   3.535   2.717  15.009  0.0458 -0.8631 -0.8063
  598TMC3     O 8919   3.597   2.710  14.903  0.4842 -0.2696  0.0535
  598TMC3     H 8920   3.337   2.820  15.140  1.0655 -0.1054 -0.2432
  598TMC3    H1 8921   3.735   2.867  14.992 -1.1071 -1.2754  1.3332
  598TMC3    H2 8922   3.521   3.211  15.116 -2.1256  0.3760 -1.2299
  598TMC3    C7 8923   3.732   3.131  14.980  0.4053 -0.1728  0.0798
  598TMC3    C8 8924   3.289   3.100  15.147 -0.0922  1.0365 -0.3500
  598TMC3    O1 8925   3.791   3.072  14.890  0.0387  0.1556  0.2687
  598TMC3    O2 8926   3.280   3.220  15.126  0.1878  0.0079 -0.0555
  599MPD2     C 8927   4.026   0.971  15.865 -0.8449 -0.6201  0.4246
  599MPD2    C1 8928   3.955   0.851  15.892  0.4188 -0.1051  0.2333
  599MPD2    C2 8929   3.837   0.857  15.954 -0.6843 -0.4541  0.2561
  599MPD2    C3 8930   3.768   0.978  15.978  0.4484  0.7884  0.0988
  599MPD2    C4 8931   3.832   1.099  15.949 -0.6505 -0.1455  0.0360
  599MPD2    C5 8932   3.965   1.088  15.903  0.6378 -0.0466  0.2172
  599MPD2     H 8933   3.789   0.765  15.987 -1.0466 -0.1140  0.6924
  599MPD2    H1 8934   3.785   1.194  15.975  0.5534  0.4449  0.0542
  599MPD2    H2 8935   4.129   0.972  15.832 -0.2140 -1.1597  2.3907
  599MPD2    H3 8936   4.022   1.178  15.885  2.4817 -1.0685  0.9767
  599MPD2     N 8937   3.644   0.989  16.042 -0.1666  0.2031 -0.2205
  599MPD2    H5 8938   3.608   1.083  16.055  0.6556  0.3015  1.3770
  599MPD2    N1 8939   4.032   0.732  15.871 -0.1756  0.6510  0.1209
  599MPD2    H7 8940   4.103   0.746  15.799 -0.9493 -1.3923 -1.0211
  600TMC3    C1 8941   3.434   0.917  16.132 -0.3965 -0.4814  0.0633
  600TMC3    C2 8942   3.355   0.818  16.191  0.3406  0.0285  0.3324
  600TMC3    C3 8943   3.246   0.861  16.260  0.1783  0.3394 -0.1894
  600TMC3    C4 8944   3.401   1.048  16.152  0.6174  0.1317  0.1594
  600TMC3    C5 8945   3.284   1.080  16.211 -0.7094 -0.1453  0.2450
  600TMC3    C6 8946   3.208   0.989  16.271 -0.1697 -0.1301 -0.4003
  600TMC3     C 8947   3.558   0.883  16.074  0.3972  0.2000 -1.0091
  600TMC3     O 8948   3.583   0.761  16.068 -0.0168 -0.0687  0.3550
  600TMC3     H 8949   3.372   0.711  16.182 -0.4707  0.1552 -2.9324
  600TMC3    H1 8950   3.453   1.129  16.102 -1.7937  1.3271 -0.4457
  600TMC3    H2 8951   3.131   1.016  16.344  0.6045  1.7019 -0.2589
  600TMC3    C7 8952   3.246   1.224  16.234  0.0904  0.1545  0.1017
  600TMC3    C8 8953   3.189   0.756  16.343  0.1922 -0.4125  0.6593
  600TMC3    O1 8954   3.138   1.239  16.287 -0.3504 -0.2348 -0.1110
  600TMC3    O2 8955   3.271   0.675  16.386  0.4578 -0.4256  0.5222
  601MPD2     C 8956   1.498   3.861   0.079 -0.1803 -0.6208 -0.2074
  601MPD2    C1 8957   1.367   3.827   0.059  0.7418  0.1614 -0.6312
  601MPD2    C2 8958   1.320   3.702   0.095  0.1053  0.2491  0.1675
  601MPD2    C3 8959   1.409   3.605   0.144 -0.2791  0.4817 -0.4482
  601MPD2    C4 8960   1.540   3.640   0.165 -0.3240 -0.3410  0.1925
  601MPD2    C5 8961   1.584   3.767   0.136  0.2896  0.5837  1.0934
  601MPD2     H 8962   1.215   3.677   0.089 -0.3841  2.4594 -0.6176
  601MPD2    H1 8963   1.608   3.577   0.222 -1.1519 -0.0694  1.4864
  601MPD2    H2 8964   1.534   3.962   0.062 -0.3125 -0.5274  0.0712
  601MPD2    H3 8965   1.687   3.795   0.156  1.0383 -2.5147  1.6221
  601MPD2     N 8966   1.377   3.478   0.194 -0.5433 -0.3028 -0.4419
  601MPD2    H5 8967   1.447   3.421   0.241 -0.2631  1.3873  1.1648
  601MPD2    N1 8968   1.281   3.919  17.746  0.3684  0.1184 -0.0255
  601MPD2    H7 8969   1.188   3.883  17.726  0.2171 -0.6173  1.9887
  602TMC3    C1 8970   1.201   4.088  17.610 -0.1009 -0.0876 -0.0284
  602TMC3    C2 8971   1.181   4.222  17.600 -0.0841 -0.4955  0.0754
  602TMC3    C3 8972   1.067   4.257  17.527 -0.3776  0.2296  0.3888
  602TMC3    C4 8973   1.131   3.989  17.548 -0.6913 -0.7723 -0.5108
  602TMC3    C5 8974   1.032   4.031  17.463  0.3533  0.3954 -0.4743
  602TMC3    C6 8975   0.998   4.166  17.457  0.7076  0.4949  0.7219
  602TMC3     C 8976   1.311   4.044  17.691 -0.7431  0.8879  0.1497
  602TMC3     O 8977   1.406   4.122  17.704  0.6452 -0.0952 -0.2084
  602TMC3     H 8978   1.238   4.291  17.661 -0.3011 -1.8903  1.8650
  602TMC3    H1 8979   1.169   3.888  17.537 -1.4747 -1.3168  1.9189
  602TMC3    H2 8980   0.952   4.202  17.366  1.6575  0.2881  0.1711
  602TMC3    C7 8981   0.964   3.938  17.378 -0.0648 -0.9341  0.4210
  602TMC3    C8 8982   1.021   4.393  17.525 -1.0202  0.4045  0.6917
  602TMC3    O1 8983   1.034   3.840  17.349 -0.3501  0.0500  0.0648
  602TMC3    O2 8984   1.103   4.484  17.546 -0.4471 -0.3942  0.0194
  603TMC3    C1 8985   4.078   3.964  11.137 -0.2023 -0.4807  0.2469
  603TMC3    C2 8986   4.068   3.948  11.272  0.0740  0.7777 -0.0920
  603TMC3    C3 8987   4.114   4.043  11.359  1.0364 -1.2732 -0.3078
  603TMC3    C4 8988   4.143   4.073  11.087  0.1266  0.5707  0.4852
  603TMC3    C5 8989   4.181   4.172  11.180  0.8245  0.4583  0.1244
  603TMC3    C6 8990   4.179   4.156  11.314 -0.6187  0.4927 -0.3826
  603TMC3     C 8991   4.035   3.860  11.045 -0.5687 -0.8417 -0.1132
  603TMC3     O 8992   3.984   3.899  10.938 -0.1213  0.6776 -0.8629
  603TMC3     H 8993   4.014   3.862  11.310  2.9993 -0.5661  1.0162
  603TMC3    H1 8994   4.162   4.088  10.982 -0.5537 -0.5024  0.2018
  603TMC3    H2 8995   4.177   4.241  11.381 -2.1075  0.5910 -0.5631
  603TMC3    C7 8996   4.245   4.290  11.131  0.4109 -0.2926  0.2166
  603TMC3    C8 8997   4.045   4.047  11.490 -0.2519  0.1747  0.9524
  603TMC3    O1 8998   4.346   4.318  11.199 -0.0917 -0.2903  0.2220
  603TMC3    O2 8999   3.935   3.992  11.504  0.4840 -0.0787 -0.2863
  604MPD2     C 9000   0.103   2.857  16.351  0.1370  0.0842 -0.0645
  604MPD2    C1 9001   4.732   2.830  16.269 -0.3814 -0.1155 -0.7263
  604MPD2    C2 9002   0.019   2.810  16.131  0.0824 -0.4172 -0.6064
  604MPD2    C3 9003   0.146   2.847  16.077 -0.1133 -0.5609 -0.1577
  604MPD2    C4 9004   0.245   2.891  16.164 -0.2845  0.1459  0.3319
  604MPD2    C5 9005   0.228   2.884  16.298 -0.2446  0.1754  0.0581
  604MPD2     H 9006   4.678   2.777  16.064  1.0522  0.1550 -2.0260
  604MPD2    H1 9007   0.342   2.915  16.123  0.5738 -0.3063  2.0946
  604MPD2    H2 9008   0.092   2.853  16.459 -0.9115 -0.3130 -0.1879
  604MPD2    H3 9009   0.313   2.911  16.360 -0.4878  1.2050 -0.0615
  604MPD2     N 9010   0.169   2.830  15.941 -0.6998 -0.3198  0.1944
  604MPD2    H5 9011   0.092   2.801  15.881 -0.1367 -0.9821 -0.2081
  604MPD2    N1 9012   4.606   2.791  16.323 -0.7093  0.1015 -0.2365
  604MPD2    H7 9013   4.601   2.795  16.425 -0.3794 -2.0544 -0.1385
  605TMC3    C1 9014   4.370   2.785  16.331  0.0967  0.4063 -0.4439
  605TMC3    C2 9015   4.383   2.782  16.473  0.6054  0.4651 -0.4461
  605TMC3    C3 9016   4.320   2.876  16.554 -0.4709  0.0187 -0.2855
  605TMC3    C4 9017   4.259   2.847  16.276  0.2414  0.6014  0.2950
  605TMC3    C5 9018   4.183   2.923  16.363 -0.0630  0.4490 -0.1103
  605TMC3    C6 9019   4.217   2.944  16.494 -0.3324 -0.8599 -0.2047
  605TMC3     C 9020   4.491   2.779  16.250  0.4814  0.0326 -0.4829
  605TMC3     O 9021   4.474   2.796  16.132  0.7684  0.8490 -0.1857
  605TMC3     H 9022   4.458   2.715  16.515  0.2888  1.2101  1.2985
  605TMC3    H1 9023   4.255   2.851  16.168  0.9936  4.7438  0.4017
  605TMC3    H2 9024   4.160   3.011  16.557  0.9310 -0.0438  0.0721
  605TMC3    C7 9025   4.048   2.954  16.324  0.9118  0.8815 -0.0739
  605TMC3    C8 9026   4.418   2.965  16.614 -0.5021  0.3615  0.0007
  605TMC3    O1 9027   3.972   3.005  16.407 -0.4382 -0.5199 -0.1613
  605TMC3    O2 9028   4.522   2.906  16.645  0.5514  0.0756  0.4210
  606TMC3    C1 9029   0.487   1.549  17.483 -0.3521 -0.0862  0.1092
  606TMC3    C2 9030   0.512   1.480  17.596  0.2673 -0.1282 -0.4080
  606TMC3    C3 9031   0.508   1.341  17.589  0.3835 -0.3254 -0.1469
  606TMC3    C4 9032   0.461   1.493  17.353 -0.6290 -0.2859  0.3567
  606TMC3    C5 9033   0.478   1.359  17.350  1.3127 -0.6018  0.0222
  606TMC3    C6 9034   0.495   1.280  17.468  0.1067 -0.7033  0.3285
  606TMC3     C 9035   0.464   1.693  17.487 -0.3648 -0.4757  0.6466
  606TMC3     O 9036   0.464   1.744  17.376  0.0128 -0.1837 -0.0508
  606TMC3     H 9037   0.536   1.532  17.688  0.1032  2.1610 -1.6627
  606TMC3    H1 9038   0.438   1.537  17.256 -1.4521  1.2182  1.2243
  606TMC3    H2 9039   0.498   1.172  17.458  2.2333 -0.7012  0.9910
  606TMC3    C7 9040   0.543   1.319  17.226 -0.0979 -0.0202  0.6115
  606TMC3    C8 9041   0.582   1.284  17.698  0.0002 -0.0314  0.0361
  606TMC3    O1 9042   0.594   1.412  17.164 -0.4834  0.3843  0.5856
  606TMC3    O2 9043   0.665   1.360  17.746 -1.1641  0.4524  0.3330
  607MPD2     C 9044   2.835   4.076  12.029 -0.3263 -0.1867  0.4182
  607MPD2    C1 9045   2.898   4.120  12.141 -0.1322 -0.2552 -0.1561
  607MPD2    C2 9046   2.894   4.032  12.249  0.5259 -0.1538  0.2097
  607MPD2    C3 9047   2.826   3.910  12.250  0.0295 -1.2720  0.7341
  607MPD2    C4 9048   2.762   3.867  12.131  0.6714  0.1367 -0.7356
  607MPD2    C5 9049   2.773   3.955  12.022 -0.4293 -0.0263  0.0276
  607MPD2     H 9050   2.936   4.068  12.343 -0.0303 -1.7158  1.0574
  607MPD2    H1 9051   2.703   3.776  12.127 -0.6343  0.9458 -0.0632
  607MPD2    H2 9052   2.811   4.136  11.942  0.0311 -0.9607 -0.2068
  607MPD2    H3 9053   2.740   3.914  11.927 -0.6122 -1.6023  0.7707
  607MPD2     N 9054   2.816   3.856  12.378 -0.1305 -0.1125 -0.4383
  607MPD2    H5 9055   2.859   3.899  12.459 -0.2154  0.2436 -0.5812
  607MPD2    N1 9056   2.969   4.241  12.148 -0.4804  0.0375  0.3050
  607MPD2    H7 9057   3.015   4.257  12.237 -0.3282  0.4292  0.1563
  608TMC3    C1 9058   3.080   4.437  12.079 -0.2403  0.2524  0.7312
  608TMC3    C2 9059   3.089   4.469  12.215 -0.1941 -0.2968  0.0943
  608TMC3    C3 9060   3.199   4.534  12.258  0.2284 -0.2643 -0.4985
  608TMC3    C4 9061   3.185   4.462  11.989 -0.5049 -0.2568  0.5958
  608TMC3    C5 9062   3.292   4.525  12.041 -0.2629 -0.0513 -0.0057
  608TMC3    C6 9063   3.294   4.571  12.170  0.0113  0.1855  0.4598
  608TMC3     C 9064   2.988   4.327  12.041 -0.3438  0.1947 -0.1884
  608TMC3     O 9065   2.951   4.311  11.923  0.1529  0.3236  0.6386
  608TMC3     H 9066   3.002   4.466  12.280 -0.9927 -1.8278 -1.0443
  608TMC3    H1 9067   3.194   4.421  11.890 -4.2723 -1.0313  0.5660
  608TMC3    H2 9068   3.381   4.626  12.205 -0.2529  1.0176 -0.2036
  608TMC3    C7 9069   3.391   4.551  11.948 -0.1284 -0.5487 -0.0848
  608TMC3    C8 9070   3.249   4.493  12.389  0.5407 -0.2110  0.5870
  608TMC3    O1 9071   3.362   4.552  11.829 -0.1811 -0.4057 -0.3001
  608TMC3    O2 9072   3.347   4.547  12.433  0.4152  0.5366  0.7251
  609TMC3    C1 9073   2.342   2.492   9.257  0.3457 -0.4035 -0.2190
  609TMC3    C2 9074   2.363   2.390   9.353  0.0868  0.0566 -0.4571
  609TMC3    C3 9075   2.367   2.421   9.484 -0.0070 -0.5928  0.7178
  609TMC3    C4 9076   2.339   2.625   9.288 -0.0771 -0.6513  0.1301
  609TMC3    C5 9077   2.346   2.649   9.422 -0.3056 -0.8673  0.0962
  609TMC3    C6 9078   2.354   2.552   9.523 -0.5327  0.3716 -0.0333
  609TMC3     C 9079   2.298   2.439   9.126 -0.2018 -0.6746 -0.9282
  609TMC3     O 9080   2.314   2.321   9.101 -0.3289 -0.2430 -0.0243
  609TMC3     H 9081   2.366   2.287   9.321 -0.0786  0.1619 -0.8141
  609TMC3    H1 9082   2.337   2.705   9.214 -0.2704 -0.2970  0.5197
  609TMC3    H2 9083   2.364   2.577   9.628 -2.1469  1.4013 -0.1155
  609TMC3    C7 9084   2.361   2.788   9.458  0.7438 -1.1468 -0.1713
  609TMC3    C8 9085   2.335   2.321   9.583 -0.3826  0.3313  0.1368
  609TMC3    O1 9086   2.320   2.873   9.379 -0.4208 -0.3277 -0.6520
  609TMC3    O2 9087   2.263   2.357   9.677 -0.1309  0.2684  0.4234
  610TMC3    C1 9088   3.604   4.302  12.490 -0.3986  0.7572 -0.0221
  610TMC3    C2 9089   3.517   4.268  12.386  0.2589 -0.5082 -0.5795
  610TMC3    C3 9090   3.445   4.158  12.392  0.4464  1.3424  0.2339
  610TMC3    C4 9091   3.622   4.229  12.603 -0.0631  0.2581  0.0075
  610TMC3    C5 9092   3.557   4.105  12.603 -0.0082  0.5143  0.5259
  610TMC3    C6 9093   3.474   4.068  12.494  0.0213 -0.8744  0.4334
  610TMC3     C 9094   3.698   4.403  12.450 -0.4226  0.7062 -0.1805
  610TMC3     O 9095   3.672   4.471  12.352 -0.8767 -0.3998  0.5986
  610TMC3     H 9096   3.504   4.338  12.305  0.3404 -0.2871 -0.4013
  610TMC3    H1 9097   3.689   4.260  12.683 -1.2146  0.1864  1.0016
  610TMC3    H2 9098   3.420   3.975  12.502  0.3634 -1.0485  0.7092
  610TMC3    C7 9099   3.610   4.004  12.697  0.7907  0.3898 -0.2266
  610TMC3    C8 9100   3.375   4.110  12.279  0.4134 -1.1026  1.0372
  610TMC3    O1 9101   3.679   4.050  12.786  0.2870  0.1862  0.1458
  610TMC3    O2 9102   3.256   4.101  12.304 -0.6984  0.0890 -0.2357
  611MPD2     C 9103   3.253   4.514  10.241  0.0063 -0.1300 -0.1158
  611MPD2    C1 9104   3.215   4.622  10.303 -0.6801  0.9242 -1.1051
  611MPD2    C2 9105   3.313   4.706  10.356 -0.5010 -0.1174  1.1288
  611MPD2    C3 9106   3.448   4.672  10.348  0.0854 -1.2067 -0.3741
  611MPD2    C4 9107   3.480   4.543  10.303 -0.7455  0.1338  0.0328
  611MPD2    C5 9108   3.377   4.473  10.251  0.0624 -0.7900  0.3779
  611MPD2     H 9109   3.287   0.060  10.408 -2.8980 -0.1471 -0.0311
  611MPD2    H1 9110   3.576   4.494  10.297 -1.1155 -0.5278 -0.4301
  611MPD2    H2 9111   3.180   4.451  10.191 -0.8174  0.5455  0.2421
  611MPD2    H3 9112   3.404   4.378  10.205  0.1668 -0.5475 -0.0599
  611MPD2     N 9113   3.535   0.023  10.416  0.9060 -0.1117 -0.2782
  611MPD2    H5 9114   3.511   0.117  10.445  0.9407 -0.6395  1.4149
  611MPD2    N1 9115   3.077   4.643  10.311 -0.4509  0.2883  0.4090
  611MPD2    H7 9116   3.014   4.576  10.267  0.3136 -0.2749  0.1614
  612TMC3    C1 9117   3.734   0.095  10.525 -0.3155  1.2028 -0.2083
  612TMC3    C2 9118   3.824   0.063  10.626 -0.6323 -0.1280  0.8173
  612TMC3    C3 9119   3.920   0.160  10.642 -0.3536 -0.9030 -0.1856
  612TMC3    C4 9120   3.747   0.208  10.451  0.2277 -0.5627  0.4910
  612TMC3    C5 9121   3.850   0.298  10.471 -0.6935 -0.2515 -0.0438
  612TMC3    C6 9122   3.933   0.279  10.576 -0.1620 -0.2677  0.4424
  612TMC3     C 9123   3.663   4.726  10.459  0.7692  0.4809  0.0865
  612TMC3     O 9124   3.712   4.614  10.463 -0.4635  0.2322 -0.3355
  612TMC3     H 9125   3.797   4.713  10.684  0.0343 -1.4920 -0.9501
  612TMC3    H1 9126   3.674   0.229  10.373  0.4076  0.2181  0.5362
  612TMC3    H2 9127   4.013   0.345  10.604  0.7254 -1.1315 -0.0634
  612TMC3    C7 9128   3.866   0.406  10.376  0.1979 -0.2035  0.1139
  612TMC3    C8 9129   4.039   0.124  10.720 -0.1108  0.8730 -0.4181
  612TMC3    O1 9130   3.792   0.406  10.282  0.2010  0.2828 -0.1076
  612TMC3    O2 9131   4.136   0.197  10.703 -0.1387 -0.4340 -0.6758
  613MPD2     C 9132   2.383   1.323  16.596  0.3397 -0.0446 -0.4803
  613MPD2    C1 9133   2.317   1.426  16.536  0.5492  0.3819 -0.2383
  613MPD2    C2 9134   2.221   1.391  16.446 -0.7951 -0.0923  0.3679
  613MPD2    C3 9135   2.207   1.262  16.407 -0.1228  1.0108  0.6175
  613MPD2    C4 9136   2.265   1.161  16.470 -0.4731 -0.7017 -0.7518
  613MPD2    C5 9137   2.356   1.197  16.567 -0.7059 -0.1432  0.2034
  613MPD2     H 9138   2.183   1.469  16.381  1.6079  3.2664  2.9949
  613MPD2    H1 9139   2.267   1.059  16.437 -1.1767 -1.0281  0.2058
  613MPD2    H2 9140   2.468   1.333  16.663 -1.2261  1.3328  1.2970
  613MPD2    H3 9141   2.418   1.113  16.597 -1.0051 -1.1893 -2.0639
  613MPD2     N 9142   2.124   1.223  16.298  0.6765 -0.6212  0.1358
  613MPD2    H5 9143   2.127   1.124  16.277 -0.4518 -0.2687 -1.7269
  613MPD2    N1 9144   2.357   1.559  16.560  0.1832  0.3373  0.0464
  613MPD2    H7 9145   2.408   1.570  16.647 -0.5653  1.7585  0.3089
  614TMC3    C1 9146   2.319   1.666  16.352  0.0871 -0.3689 -0.1614
  614TMC3    C2 9147   2.401   1.572  16.289  0.3512  0.0614  0.7312
  614TMC3    C3 9148   2.398   1.574  16.152 -0.3264 -0.1491  0.5975
  614TMC3    C4 9149   2.250   1.765  16.282 -0.0616 -0.3728 -0.1107
  614TMC3    C5 9150   2.252   1.754  16.142 -0.3212  0.1925 -0.2152
  614TMC3    C6 9151   2.330   1.669  16.077 -0.3042 -0.5680 -0.7113
  614TMC3     C 9152   2.311   1.669  16.493 -1.4373  0.2865 -1.0210
  614TMC3     O 9153   2.308   1.786  16.533 -0.1507 -0.1412 -0.2539
  614TMC3     H 9154   2.474   1.515  16.344  0.4941  0.8048  1.3144
  614TMC3    H1 9155   2.190   1.840  16.333  0.0251 -0.4600  0.1179
  614TMC3    H2 9156   2.330   1.665  15.969  1.1794  0.0770 -0.7304
  614TMC3    C7 9157   2.209   1.884  16.084  0.1311 -0.2507  0.3766
  614TMC3    C8 9158   2.396   1.444  16.096  0.0547 -0.1933  0.0445
  614TMC3    O1 9159   2.144   1.967  16.147 -0.0048 -0.2295 -0.8682
  614TMC3    O2 9160   2.332   1.433  15.995 -0.1794  0.1001 -0.8362
  615MPD2     C 9161   1.579   3.077  16.097  0.8039 -0.4253  0.1673
  615MPD2    C1 9162   1.515   3.190  16.102  0.2999 -0.2998  0.3452
  615MPD2    C2 9163   1.448   3.222  15.989 -1.0398  0.7165  0.1472
  615MPD2    C3 9164   1.444   3.149  15.876 -0.1342  0.6380 -0.3788
  615MPD2    C4 9165   1.514   3.037  15.877 -0.5723 -0.0105  0.4786
  615MPD2    C5 9166   1.573   2.993  15.993 -0.6304  0.1012 -0.0786
  615MPD2     H 9167   1.389   3.312  16.001  0.8137  2.0486 -0.7983
  615MPD2    H1 9168   1.507   2.971  15.791  0.1080 -1.8028  1.8135
  615MPD2    H2 9169   1.644   3.043  16.177  0.2217 -0.3749  0.6603
  615MPD2    H3 9170   1.625   2.898  15.995  0.5245  0.7532  1.3712
  615MPD2     N 9171   1.362   3.193  15.769  0.3275  0.5078 -0.0437
  615MPD2    H5 9172   1.294   3.264  15.795 -0.9956 -0.3873 -1.0077
  615MPD2    N1 9173   1.512   3.276  16.213 -0.4260  0.4248 -0.2454
  615MPD2    H7 9174   1.453   3.359  16.203  1.9514  2.1252 -0.2846
  616TMC3    C1 9175   1.585   3.399  16.392  0.8783 -0.1862 -0.5372
  616TMC3    C2 9176   1.698   3.465  16.439  0.4866 -0.4437  0.2086
  616TMC3    C3 9177   1.684   3.562  16.534 -0.0574 -0.1479 -0.6109
  616TMC3    C4 9178   1.462   3.436  16.445  0.2401  0.0423  0.5714
  616TMC3    C5 9179   1.451   3.524  16.539 -0.3060  0.9100  0.5193
  616TMC3    C6 9180   1.560   3.595  16.580  0.0745  0.6608  1.0996
  616TMC3     C 9181   1.600   3.280  16.314  0.1000 -0.6851 -0.5481
  616TMC3     O 9182   1.712   3.224  16.320  0.3477  0.3420 -0.5230
  616TMC3     H 9183   1.797   3.451  16.397  0.4730 -0.7365  0.2721
  616TMC3    H1 9184   1.373   3.377  16.427 -1.0099  2.1615 -0.0812
  616TMC3    H2 9185   1.551   3.683  16.643 -3.5628  0.8505  0.3261
  616TMC3    C7 9186   1.322   3.555  16.592  0.6557 -0.8909  0.0796
  616TMC3    C8 9187   1.785   3.664  16.557  0.9744 -0.7653  0.5044
  616TMC3    O1 9188   1.226   3.488  16.546  0.6908 -0.8521  0.1801
  616TMC3    O2 9189   1.744   3.775  16.585 -0.4839  0.0369 -0.0079
  617MPD2     C 9190   0.011   1.654  13.251  0.6814 -0.2879 -0.3108
  617MPD2    C1 9191   0.046   1.622  13.384  0.5604  0.4477  0.0585
  617MPD2    C2 9192   4.697   1.539  13.453 -0.2066  0.2623 -0.1628
  617MPD2    C3 9193   4.576   1.501  13.404 -0.1340 -0.4423  0.4695
  617MPD2    C4 9194   4.550   1.531  13.273 -1.0245 -0.7134  1.0239
  617MPD2    C5 9195   4.641   1.601  13.193 -0.9166  0.1059 -0.2633
  617MPD2     H 9196   4.715   1.517  13.558  1.7116 -0.2719 -0.6077
  617MPD2    H1 9197   4.461   1.498  13.221 -1.2482 -0.2009  1.0880
  617MPD2    H2 9198   0.085   1.709  13.194  0.0901 -2.6018 -3.3131
  617MPD2    H3 9199   4.622   1.633  13.092  2.7084 -1.1789 -1.3548
  617MPD2     N 9200   4.474   1.425  13.471 -0.4973 -0.0411 -0.3012
  617MPD2    H5 9201   4.400   1.402  13.405 -0.8823 -0.0443  0.1372
  617MPD2    N1 9202   0.168   1.679  13.432  0.1852 -0.0935  0.0856
  617MPD2    H7 9203   0.222   1.736  13.368  0.9729  0.0806  0.9033
  618TMC3    C1 9204   0.328   1.752  13.586  0.1351 -0.2461 -0.9167
  618TMC3    C2 9205   0.410   1.711  13.691  0.0888 -0.9591 -0.3821
  618TMC3    C3 9206   0.514   1.790  13.724 -0.2091  0.1870  0.1146
  618TMC3    C4 9207   0.345   1.872  13.524  0.1234 -0.2893  0.6413
  618TMC3    C5 9208   0.440   1.957  13.569 -0.0430 -0.4733 -0.5383
  618TMC3    C6 9209   0.524   1.918  13.672  0.0057  0.4234  0.1181
  618TMC3     C 9210   0.210   1.672  13.560  0.4265  0.4754  0.9041
  618TMC3     O 9211   0.164   1.615  13.660 -0.4886 -0.0932  0.0621
  618TMC3     H 9212   0.403   1.615  13.741 -0.2961  0.6949  2.6777
  618TMC3    H1 9213   0.283   1.918  13.447  0.5368  1.0845  1.1281
  618TMC3    H2 9214   0.594   1.987  13.717  0.0470 -0.7426  1.8129
  618TMC3    C7 9215   0.451   2.084  13.506 -0.1748  0.3195  0.1843
  618TMC3    C8 9216   0.605   1.750  13.824 -0.7141 -0.1154 -0.1428
  618TMC3    O1 9217   0.382   2.172  13.555 -0.6645 -0.2816 -0.7158
  618TMC3    O2 9218   0.653   1.829  13.904  0.1119 -0.3239 -0.1586
  619MPD2     C 9219   0.996   2.741  13.884  0.2515 -0.2120  0.0371
  619MPD2    C1 9220   0.939   2.821  13.789 -0.2366  0.3752 -0.4698
  619MPD2    C2 9221   0.800   2.822  13.776 -0.2091  0.4137 -0.0856
  619MPD2    C3 9222   0.718   2.740  13.855 -0.5577  0.2544 -0.2317
  619MPD2    C4 9223   0.779   2.658  13.945  0.0155 -0.5164 -0.3020
  619MPD2    C5 9224   0.916   2.657  13.959  0.4138  0.5167  0.1763
  619MPD2     H 9225   0.749   2.897  13.716 -0.9214 -1.3974 -1.7305
  619MPD2    H1 9226   0.726   2.603  14.022 -0.1644  0.8422  0.5389
  619MPD2    H2 9227   1.103   2.727  13.900  0.4962 -1.5292 -2.6656
  619MPD2    H3 9228   0.964   2.600  14.037 -2.4901 -1.4788  0.4960
  619MPD2     N 9229   0.585   2.740  13.851 -0.0359 -0.3492 -0.2200
  619MPD2    H5 9230   0.539   2.701  13.932  1.4036 -0.9053  0.3300
  619MPD2    N1 9231   1.019   2.911  13.711 -0.5016 -0.1194  0.2469
  619MPD2    H7 9232   0.970   2.951  13.631  3.4353  3.8825 -0.1556
  620TMC3    C1 9233   1.205   3.034  13.633  0.2371 -0.2161  0.8416
  620TMC3    C2 9234   1.116   3.099  13.544  0.8249  0.2832 -0.1346
  620TMC3    C3 9235   1.147   3.219  13.484 -0.1331  0.0760 -0.3084
  620TMC3    C4 9236   1.320   3.092  13.659 -0.6035  0.5925  0.5089
  620TMC3    C5 9237   1.346   3.220  13.620  0.2485 -0.0322 -0.2922
  620TMC3    C6 9238   1.264   3.279  13.524 -0.4601  0.0197 -1.3064
  620TMC3     C 9239   1.158   2.929  13.717 -0.4143  0.0567 -0.1536
  620TMC3     O 9240   1.235   2.886  13.802 -0.1302 -0.5576 -0.0373
  620TMC3     H 9241   1.029   3.047  13.504 -0.4339  0.5660  2.2286
  620TMC3    H1 9242   1.382   3.033  13.727 -0.6219 -0.9072 -0.7717
  620TMC3    H2 9243   1.286   3.376  13.481  1.0015  0.4880  0.5233
  620TMC3    C7 9244   1.478   3.265  13.671 -0.0666 -0.1865 -1.3816
  620TMC3    C8 9245   1.030   3.300  13.490  0.0269 -0.1456  0.0056
  620TMC3    O1 9246   1.556   3.178  13.701  0.0264 -0.0021  0.2008
  620TMC3    O2 9247   1.043   3.400  13.554 -0.0489  0.1992  0.3556
  621MPD2     C 9248   0.996   2.565  10.094  0.4488 -0.3920  0.4651
  621MPD2    C1 9249   1.035   2.606   9.966 -0.1860 -0.0100 -1.1281
  621MPD2    C2 9250   1.124   2.719   9.950 -0.4883 -0.0958 -0.1176
  621MPD2    C3 9251   1.178   2.777  10.060 -0.1106  0.0334  1.0899
  621MPD2    C4 9252   1.151   2.720  10.184  0.0263 -0.2732 -0.0220
  621MPD2    C5 9253   1.062   2.619  10.202 -0.1000 -0.6817  0.4633
  621MPD2     H 9254   1.137   2.763   9.852 -1.6890 -0.9266 -0.6556
  621MPD2    H1 9255   1.200   2.761  10.272 -0.2249  1.4142 -0.6761
  621MPD2    H2 9256   0.932   2.480  10.114 -1.8279  1.5726  1.4608
  621MPD2    H3 9257   1.045   2.585  10.304 -1.0110  0.2511  0.6200
  621MPD2     N 9258   1.263   2.889  10.062 -0.1170  0.2640 -0.2418
  621MPD2    H5 9259   1.283   2.925  10.155  0.8319  1.3775 -0.8742
  621MPD2    N1 9260   0.986   2.548   9.847 -0.2839  0.0271 -0.5552
  621MPD2    H7 9261   1.021   2.594   9.763  0.4279  1.3831  0.4750
  622TMC3    C1 9262   0.850   2.410   9.706 -1.0466  0.0161 -0.0920
  622TMC3    C2 9263   0.938   2.417   9.605 -0.4959  0.3080 -0.2486
  622TMC3    C3 9264   0.904   2.353   9.492  0.4177  0.4124  0.1032
  622TMC3    C4 9265   0.733   2.336   9.700 -0.2651 -0.1670 -0.0495
  622TMC3    C5 9266   0.704   2.278   9.578 -0.9981  0.0469 -0.4241
  622TMC3    C6 9267   0.785   2.287   9.470  0.2975 -0.8176  0.3071
  622TMC3     C 9268   0.894   2.446   9.838  0.3134 -0.6160  0.2650
  622TMC3     O 9269   0.832   2.392   9.923  0.3212 -0.6362  0.0440
  622TMC3     H 9270   1.028   2.478   9.615 -1.5427  1.5302  1.6028
  622TMC3    H1 9271   0.657   2.327   9.776  0.1339  1.0988  0.5151
  622TMC3    H2 9272   0.755   2.253   9.371  0.0585 -0.4121  0.2417
  622TMC3    C7 9273   0.588   2.193   9.568  0.7558 -0.3568  0.1696
  622TMC3    C8 9274   1.002   2.360   9.387 -0.3891  0.2862  0.0288
  622TMC3    O1 9275   0.531   2.184   9.457  0.2883  0.3505 -0.6703
  622TMC3    O2 9276   1.051   2.470   9.372 -0.0928 -0.4037 -0.6658
  623MPD2     C 9277   4.668   3.382  15.950  0.6237  0.0124 -0.3410
  623MPD2    C1 9278   4.637   3.291  16.056  0.4393  0.1285  0.1621
  623MPD2    C2 9279   0.005   3.256  16.140 -0.3097  0.4142  0.7844
  623MPD2    C3 9280   0.133   3.298  16.112 -0.4560  0.5091  0.5103
  623MPD2    C4 9281   0.167   3.376  16.007  0.7842 -0.6423  0.0801
  623MPD2    C5 9282   0.064   3.408  15.922  0.4480 -0.0109  0.0352
  623MPD2     H 9283   4.731   3.190  16.225  0.6821 -1.8994 -0.8529
  623MPD2    H1 9284   0.268   3.400  15.974  0.3422 -0.3850 -1.0971
  623MPD2    H2 9285   4.591   3.434  15.893  1.7740 -0.0279 -1.9184
  623MPD2    H3 9286   0.083   3.478  15.842  0.3877 -0.0629 -0.0249
  623MPD2     N 9287   0.234   3.253  16.199 -0.0372 -0.1614 -0.3052
  623MPD2    H5 9288   0.197   3.198  16.276  0.5501 -1.8210 -1.2075
  623MPD2    N1 9289   4.505   3.260  16.075  0.5101  0.4261 -0.0762
  623MPD2    H7 9290   4.432   3.303  16.019  1.1617  0.2098 -1.0877
  624TMC3    C1 9291   0.517   3.137  16.491 -0.2010 -0.4495 -0.3541
  624TMC3    C2 9292   0.414   3.135  16.585  0.1750  0.3232 -0.7806
  624TMC3    C3 9293   0.310   3.219  16.560  0.0377 -0.0453 -0.0096
  624TMC3    C4 9294   0.512   3.206  16.375  0.3848 -1.3138 -0.2005
  624TMC3    C5 9295   0.396   3.273  16.350  0.6653 -0.4103 -0.1539
  624TMC3    C6 9296   0.295   3.287  16.441  0.6028 -0.6825 -0.0758
  624TMC3     C 9297   0.647   3.097  16.540 -0.4383 -0.3487  0.0937
  624TMC3     O 9298   0.653   3.015  16.627  0.0390 -0.0095  0.5588
  624TMC3     H 9299   0.439   3.093  16.682  0.3098  1.5704 -0.2836
  624TMC3    H1 9300   0.589   3.200  16.300  0.7703  0.2435  0.0761
  624TMC3    H2 9301   0.208   3.351  16.427  1.5426  0.1706 -2.1037
  624TMC3    C7 9302   0.362   3.298  16.214 -0.3766  0.4198  0.5346
  624TMC3    C8 9303   0.187   3.196  16.628 -0.2678 -0.3991  0.4845
  624TMC3    O1 9304   0.444   3.341  16.136 -0.3753  0.7200  0.0790
  624TMC3    O2 9305   0.163   3.091  16.678 -0.3299  0.3283 -0.0925
  625MPD2     C 9306   0.481   4.389   0.371 -0.5640  0.9486 -0.5476
  625MPD2    C1 9307   0.554   4.500   0.389  0.0143 -0.0822 -0.0281
  625MPD2    C2 9308   0.660   4.504   0.479 -0.7673  0.2894  0.5156
  625MPD2    C3 9309   0.702   4.383   0.530 -0.0658  0.2603 -0.2472
  625MPD2    C4 9310   0.626   4.269   0.507  0.1931  0.8050  0.6206
  625MPD2    C5 9311   0.520   4.271   0.427  0.2059 -0.2684 -0.8340
  625MPD2     H 9312   0.715   4.595   0.499 -0.2201 -0.4936  2.5488
  625MPD2    H1 9313   0.643   4.172   0.553  1.3806  0.1853 -1.1599
  625MPD2    H2 9314   0.404   4.384   0.295 -0.2715 -1.0390 -0.7062
  625MPD2    H3 9315   0.458   4.184   0.410  0.7825 -0.7013 -0.7421
  625MPD2     N 9316   0.815   4.381   0.614  0.0836 -0.3360  0.3720
  625MPD2    H5 9317   0.862   4.471   0.624  1.1155 -0.8781  0.3896
  625MPD2    N1 9318   0.525   4.618   0.316 -0.4176 -0.0707  0.3484
  625MPD2    H7 9319   0.581   4.701   0.332 -1.1856 -0.0040  2.7219
  626TMC3    C1 9320   0.415   0.039   0.173  1.4249  0.6228  0.2359
  626TMC3    C2 9321   0.351   0.057   0.054 -0.1884 -0.2106  0.5620
  626TMC3    C3 9322   0.275   0.169   0.033  0.6918  0.2433 -0.0333
  626TMC3    C4 9323   0.415   0.139   0.267  0.4686 -0.9176  0.2732
  626TMC3    C5 9324   0.339   0.252   0.240  0.5998  0.1546  0.4897
  626TMC3    C6 9325   0.267   0.268   0.125 -0.4721 -0.1797 -0.9556
  626TMC3     C 9326   0.432   4.640   0.208  0.2254  0.0249  0.5069
  626TMC3     O 9327   0.369   4.559   0.143  0.2798  0.0553  0.1582
  626TMC3     H 9328   0.340   4.719  17.726  1.9926  0.7965 -0.7535
  626TMC3    H1 9329   0.470   0.132   0.360  1.8059  3.6148 -0.1738
  626TMC3    H2 9330   0.215   0.362   0.108  0.7623  0.7041  0.2577
  626TMC3    C7 9331   0.297   0.319   0.357 -0.3162 -0.1494 -0.3375
  626TMC3    C8 9332   0.247   0.191  17.640 -0.1995 -0.0975 -0.4920
  626TMC3    O1 9333   0.375   0.316   0.451  0.2029  1.0275 -0.0741
  626TMC3    O2 9334   0.319   0.134  17.559 -0.3208 -0.1782 -0.1284
  627MPD2     C 9335   3.750   0.399  14.138  0.1097 -0.3236  0.3955
  627MPD2    C1 9336   3.845   0.341  14.214 -0.2520  0.6548 -0.2272
  627MPD2    C2 9337   3.820   0.218  14.263  0.1846 -0.3113 -0.4117
  627MPD2    C3 9338   3.702   0.150  14.236 -1.4584 -1.0364 -0.1172
  627MPD2    C4 9339   3.608   0.212  14.157 -0.0972 -0.2428  0.3096
  627MPD2    C5 9340   3.636   0.336  14.104  0.0556 -0.1922  0.2560
  627MPD2     H 9341   3.894   0.175  14.330 -0.7873  1.6885  1.9268
  627MPD2    H1 9342   3.512   0.167  14.135  0.3329 -0.4138 -1.2047
  627MPD2    H2 9343   3.762   0.499  14.098  1.5186 -1.5929 -2.3645
  627MPD2    H3 9344   3.556   0.391  14.056 -1.4780 -1.2603  1.5706
  627MPD2     N 9345   3.681   0.032  14.307  0.4234  0.0944  0.1765
  627MPD2    H5 9346   3.758   0.010  14.370  0.0502 -0.0038  0.6005
  627MPD2    N1 9347   3.970   0.386  14.241  0.2074  0.0840  0.1137
  627MPD2    H7 9348   4.040   0.319  14.272 -0.8748 -0.8112  0.6156
  628TMC3    C1 9349   4.146   0.541  14.266  0.8289  0.0544 -0.0430
  628TMC3    C2 9350   4.246   0.446  14.265  0.2366 -0.4755 -0.1538
  628TMC3    C3 9351   4.352   0.463  14.342 -0.0477 -0.2660 -0.0430
  628TMC3    C4 9352   4.163   0.650  14.342  0.1068  0.5348  0.4612
  628TMC3    C5 9353   4.274   0.660  14.423 -0.0186  0.7124  0.1141
  628TMC3    C6 9354   4.372   0.564  14.435  0.2920  0.7962 -0.4138
  628TMC3     C 9355   4.016   0.515  14.208  0.2352 -0.4424  0.1460
  628TMC3     O 9356   3.943   0.615  14.191  0.2740  0.0045 -0.2736
  628TMC3     H 9357   4.243   0.360  14.199 -1.8397 -0.0014 -0.6999
  628TMC3    H1 9358   4.076   0.714  14.353 -0.8886 -0.8918  0.8305
  628TMC3    H2 9359   4.465   0.586  14.487 -0.8493  1.4370  1.3395
  628TMC3    C7 9360   4.327   0.794  14.429  0.5803 -0.1706 -0.0284
  628TMC3    C8 9361   4.467   0.369  14.327 -0.4010  0.9304 -0.5830
  628TMC3    O1 9362   4.432   0.819  14.490 -0.2541  0.0634 -0.3456
  628TMC3    O2 9363   4.513   0.350  14.216  0.0761 -0.2362 -0.0218
  629MPD2     C 9364   2.255   3.844  16.646  0.3144  0.2117  0.0790
  629MPD2    C1 9365   2.264   3.712  16.621 -0.1544 -0.5865 -0.5521
  629MPD2    C2 9366   2.154   3.641  16.586  0.0533 -0.7866 -0.0538
  629MPD2    C3 9367   2.030   3.701  16.583  1.0412  0.6485 -0.0242
  629MPD2    C4 9368   2.030   3.835  16.599 -0.1893  0.1582  0.1913
  629MPD2    C5 9369   2.134   3.909  16.628  0.0177 -0.0387 -0.5288
  629MPD2     H 9370   2.147   3.536  16.561  1.6241 -0.7915 -0.4234
  629MPD2    H1 9371   1.936   3.889  16.589 -1.5420 -1.9212  1.7304
  629MPD2    H2 9372   2.341   3.902  16.678  0.1290  2.2994 -3.2122
  629MPD2    H3 9373   2.122   4.015  16.646  3.0920 -0.4007  3.5678
  629MPD2     N 9374   1.917   3.624  16.555  0.3685  0.1089  0.2599
  629MPD2    H5 9375   1.941   3.528  16.533  1.9738  0.5476  0.0210
  629MPD2    N1 9376   2.396   3.663  16.636 -0.2934 -0.3403  0.3433
  629MPD2    H7 9377   2.468   3.729  16.663 -1.1490  1.3569 -1.4664
  630TMC3    C1 9378   2.580   3.507  16.607  0.3687  0.3122  0.9849
  630TMC3    C2 9379   2.661   3.604  16.559  0.1563 -0.8667 -0.0901
  630TMC3    C3 9380   2.796   3.575  16.541  0.1974  0.7070  0.4613
  630TMC3    C4 9381   2.628   3.386  16.646 -0.6828  0.1308 -0.4971
  630TMC3    C5 9382   2.764   3.374  16.654  0.9399  1.0229  0.3254
  630TMC3    C6 9383   2.847   3.463  16.591 -0.9080 -0.2588 -0.3322
  630TMC3     C 9384   2.435   3.531  16.607  0.0180  0.9225  0.1394
  630TMC3     O 9385   2.368   3.438  16.562  0.5378  0.1294 -0.2515
  630TMC3     H 9386   2.628   3.701  16.524 -0.7101  0.1119  3.3974
  630TMC3    H1 9387   2.567   3.325  16.712  2.9447 -0.5952  2.1157
  630TMC3    H2 9388   2.955   3.454  16.585 -0.7224 -0.4649  3.3031
  630TMC3    C7 9389   2.815   3.293  16.755 -0.1702  0.4573  0.3334
  630TMC3    C8 9390   2.878   3.694  16.533  0.1805  0.0157  0.4826
  630TMC3    O1 9391   2.747   3.194  16.787 -0.3470  0.0155  0.6043
  630TMC3    O2 9392   2.978   3.706  16.605  0.6279  0.1188  0.0636
  631MPD2     C 9393   0.579   3.617  15.778 -0.2393 -0.8623  0.1813
  631MPD2    C1 9394   0.639   3.680  15.674 -0.6361 -0.1581  0.2233
  631MPD2    C2 9395   0.733   3.604  15.609  0.8739 -0.2931 -0.1953
  631MPD2    C3 9396   0.769   3.475  15.648  1.1821 -0.3817  0.3009
  631MPD2    C4 9397   0.708   3.417  15.754  0.0101 -0.1884  0.1887
  631MPD2    C5 9398   0.616   3.494  15.814 -0.0198  0.4257  0.0358
  631MPD2     H 9399   0.796   3.648  15.533 -0.7368  0.9800 -0.7754
  631MPD2    H1 9400   0.730   3.317  15.791  2.4175  0.1683 -0.2348
  631MPD2    H2 9401   0.510   3.670  15.843 -1.3636  2.1743 -3.4683
  631MPD2    H3 9402   0.552   3.436  15.880  0.1583  0.2996  0.0959
  631MPD2     N 9403   0.881   3.414  15.579  0.1659  0.1839 -0.7681
  631MPD2    H5 9404   0.927   3.474  15.511  0.9293  0.0926 -0.3385
  631MPD2    N1 9405   0.603   3.817  15.641 -0.1490 -0.1457 -0.0535
  631MPD2    H7 9406   0.530   3.867  15.692  0.1847  0.5565 -0.2706
  632TMC3    C1 9407   0.586   4.019  15.531  0.0476  0.2521 -0.9868
  632TMC3    C2 9408   0.450   4.012  15.519  0.6734  0.0571  0.1647
  632TMC3    C3 9409   0.384   4.086  15.420 -0.9084 -0.5019  0.0983
  632TMC3    C4 9410   0.654   4.109  15.461  0.6549 -0.3868 -0.0071
  632TMC3    C5 9411   0.593   4.181  15.362 -0.5086 -0.1475 -0.2308
  632TMC3    C6 9412   0.462   4.177  15.338  0.1470 -0.2999 -0.3453
  632TMC3     C 9413   0.654   3.894  15.541 -0.4504 -0.4769 -0.1448
  632TMC3     O 9414   0.758   3.888  15.482  0.1531 -0.3179  0.6891
  632TMC3     H 9415   0.397   3.931  15.568  0.8484 -0.4369 -0.4586
  632TMC3    H1 9416   0.763   4.108  15.465  0.5281 -1.3489  3.1447
  632TMC3    H2 9417   0.419   4.225  15.251  0.4308 -0.3758 -0.5259
  632TMC3    C7 9418   0.660   4.173  15.244  0.4574 -1.0215  0.5361
  632TMC3    C8 9419   0.245   4.055  15.389  0.3238  0.4238 -0.7476
  632TMC3    O1 9420   0.599   4.144  15.144  0.0317  0.1160 -0.0500
  632TMC3    O2 9421   0.216   3.939  15.424  0.1884 -0.0582  0.2568
  633MPD2     C 9422   0.312   1.195  17.003  0.1465  0.0503  0.1199
  633MPD2    C1 9423   0.378   1.173  16.884 -0.3426 -0.2324 -0.0842
  633MPD2    C2 9424   0.405   1.044  16.844 -0.0008  0.2153 -0.5094
  633MPD2    C3 9425   0.365   0.933  16.921  0.0497  0.1708  0.2419
  633MPD2    C4 9426   0.300   0.955  17.040  0.4769  0.3160  0.3144
  633MPD2    C5 9427   0.266   1.083  17.076 -1.0058 -0.0885  0.2900
  633MPD2     H 9428   0.457   1.038  16.749  1.2721  0.5544  0.1806
  633MPD2    H1 9429   0.273   0.875  17.108  1.7107 -1.0253 -0.7537
  633MPD2    H2 9430   0.287   1.296  17.032  1.8566  0.1199  1.2979
  633MPD2    H3 9431   0.224   1.107  17.173 -4.9453 -1.0916 -1.1438
  633MPD2     N 9432   0.396   0.799  16.893  0.3132  0.2516 -0.9051
  633MPD2    H5 9433   0.381   0.733  16.968 -0.4830  0.1351 -1.1688
  633MPD2    N1 9434   0.434   1.277  16.803 -0.0326  0.0662  0.4183
  633MPD2    H7 9435   0.473   1.249  16.714 -0.7811 -1.8955  0.7085
  634TMC3    C1 9436   0.504   1.490  16.734  0.3608 -0.0014 -0.4258
  634TMC3    C2 9437   0.599   1.425  16.664  0.0947 -0.7888  0.0820
  634TMC3    C3 9438   0.646   1.482  16.548  0.5476  0.1483 -0.3134
  634TMC3    C4 9439   0.461   1.612  16.704  0.0695  0.0435 -0.8939
  634TMC3    C5 9440   0.518   1.670  16.592 -0.6042  0.1077 -0.0611
  634TMC3    C6 9441   0.605   1.610  16.507  0.4621 -0.4301 -0.2944
  634TMC3     C 9442   0.428   1.415  16.830  0.7223  1.0750  1.0158
  634TMC3     O 9443   0.377   1.470  16.927  0.0980  0.0308 -0.6801
  634TMC3     H 9444   0.649   1.336  16.701 -0.5111 -0.2974  2.0474
  634TMC3    H1 9445   0.375   1.656  16.754  1.9812  1.5988  0.9959
  634TMC3    H2 9446   0.655   1.672  16.434  0.3899  2.2209  1.9073
  634TMC3    C7 9447   0.475   1.805  16.543  0.5533  0.0804  0.4631
  634TMC3    C8 9448   0.723   1.401  16.457 -0.1057 -0.6825 -0.4699
  634TMC3    O1 9449   0.508   1.835  16.427 -0.3016 -0.6397  0.3102
  634TMC3    O2 9450   0.790   1.306  16.497  0.2044  0.2407  0.0502
  635TMC3    C1 9451   0.863   2.341   0.013  0.2812  0.0585 -0.8167
  635TMC3    C2 9452   0.894   2.249  17.666 -0.0629  0.3576 -0.5204
  635TMC3    C3 9453   0.843   2.122  17.694  0.1623  0.3561 -0.2110
  635TMC3    C4 9454   0.809   2.313   0.134  0.1974 -0.0012  0.5153
  635TMC3    C5 9455   0.745   2.190   0.140  0.7135  0.9051  0.0169
  635TMC3    C6 9456   0.770   2.092   0.055 -0.6169  0.5625  0.0683
  635TMC3     C 9457   0.908   2.479   0.005 -0.4424  0.4513 -0.2496
  635TMC3     O 9458   0.873   2.548   0.095  0.1309 -0.0402  0.4278
  635TMC3     H 9459   0.942   2.290  17.578 -0.2977 -1.4648 -1.4812
  635TMC3    H1 9460   0.784   2.390   0.207 -1.3443 -0.0203  0.0142
  635TMC3    H2 9461   0.714   1.999   0.059  0.2958  0.0377  0.5962
  635TMC3    C7 9462   0.648   2.173   0.248 -0.0671  0.2929 -0.2791
  635TMC3    C8 9463   0.861   2.018  17.590  0.1133  0.5607  0.4958
  635TMC3    O1 9464   0.603   2.270   0.302  0.1351 -0.0603  0.1662
  635TMC3    O2 9465   0.844   2.049  17.474 -0.1955 -0.1437  0.4348
  636MPD2     C 9466   1.908   1.898  15.629  0.4121 -0.1671  0.0345
  636MPD2    C1 9467   1.922   1.885  15.771 -0.5091 -0.0248  0.1530
  636MPD2    C2 9468   1.974   1.769  15.827  0.2293  0.1067  0.1645
  636MPD2    C3 9469   1.991   1.657  15.743  0.4108 -0.0973 -0.2444
  636MPD2    C4 9470   1.991   1.673  15.606  0.1889 -0.3176 -0.2246
  636MPD2    C5 9471   1.958   1.797  15.548  0.5433 -0.4093  0.7383
  636MPD2     H 9472   1.995   1.765  15.934 -2.0566  1.1723  0.6583
  636MPD2    H1 9473   2.014   1.595  15.534 -0.3288 -1.7446  1.1963
  636MPD2    H2 9474   1.868   1.984  15.578  1.5443  1.3855  1.7879
  636MPD2    H3 9475   1.978   1.822  15.444  2.1189 -2.2274  0.5962
  636MPD2     N 9476   1.995   1.533  15.810 -0.2302 -0.3672  0.4676
  636MPD2    H5 9477   1.983   1.541  15.910 -0.5833  1.1566  0.2908
  636MPD2    N1 9478   1.880   1.983  15.862 -0.0061  0.1805 -0.5358
  636MPD2    H7 9479   1.884   1.953  15.959 -0.7655  1.7643 -0.0108
  637TMC3    C1 9480   1.989   1.307  15.862 -0.4354 -0.2870  0.2619
  637TMC3    C2 9481   1.972   1.343  15.994 -0.4436  0.4954  0.5962
  637TMC3    C3 9482   2.008   1.251  16.085 -0.8845 -0.2505  0.0984
  637TMC3    C4 9483   2.043   1.185  15.824 -0.2464  0.1838 -0.0046
  637TMC3    C5 9484   2.084   1.100  15.924 -0.0507  0.4414 -0.5392
  637TMC3    C6 9485   2.065   1.133  16.061 -0.3116 -0.4315  0.2658
  637TMC3     C 9486   1.993   1.405  15.755  0.2066  0.2865  0.2374
  637TMC3     O 9487   2.013   1.374  15.640 -0.6129  0.4053 -0.2247
  637TMC3     H 9488   1.930   1.440  16.018 -2.4549  0.2593 -1.8818
  637TMC3    H1 9489   2.048   1.167  15.717  2.1600 -1.9608  0.4742
  637TMC3    H2 9490   2.081   1.058  16.137  0.6176  1.0073  1.4705
  637TMC3    C7 9491   2.164   0.982  15.899 -0.3895  0.0988 -0.8521
  637TMC3    C8 9492   2.048   1.308  16.212  0.1549 -0.0663 -0.3996
  637TMC3    O1 9493   2.116   0.914  15.811  0.4552  0.2366  0.5450
  637TMC3    O2 9494   2.028   1.428  16.223  0.5855 -0.3948 -0.1598
  638MPD2     C 9495   1.355   1.109  14.965 -0.1672 -0.1059 -0.7892
  638MPD2    C1 9496   1.344   1.024  14.859 -0.2475  0.1495  0.2517
  638MPD2    C2 9497   1.395   0.896  14.871 -0.3230  0.5846 -0.0315
  638MPD2    C3 9498   1.460   0.853  14.986  0.3273  0.1479  0.5287
  638MPD2    C4 9499   1.473   0.938  15.086  0.9694 -0.3873  0.2938
  638MPD2    C5 9500   1.422   1.068  15.074  0.3351  0.1804  0.1329
  638MPD2     H 9501   1.363   0.823  14.798  1.3932 -1.1778  0.9671
  638MPD2    H1 9502   1.508   0.900  15.181  0.2486 -0.3020  0.5928
  638MPD2    H2 9503   1.300   1.203  14.956  0.2770  0.1180 -1.1479
  638MPD2    H3 9504   1.445   1.135  15.156 -1.2430  0.9558 -0.0653
  638MPD2     N 9505   1.501   0.717  15.001  0.7109 -0.0890  0.2031
  638MPD2    H5 9506   1.452   0.662  14.931  2.2017 -2.1304  0.7503
  638MPD2    N1 9507   1.269   1.081  14.747 -0.0970 -0.2587 -0.0917
  638MPD2    H7 9508   1.196   1.142  14.783 -0.3884 -1.1189  0.8015
  639TMC3    C1 9509   1.551   0.522  15.121  0.4905 -0.1563 -0.4845
  639TMC3    C2 9510   1.431   0.460  15.091  0.0612 -0.3824 -0.0025
  639TMC3    C3 9511   1.423   0.327  15.124 -0.8098 -0.5767 -0.1095
  639TMC3    C4 9512   1.666   0.453  15.165 -0.0110  0.1307  0.0616
  639TMC3    C5 9513   1.654   0.318  15.164  0.3781 -0.1343 -0.0889
  639TMC3    C6 9514   1.535   0.253  15.155 -0.1483  0.2467  0.2426
  639TMC3     C 9515   1.564   0.664  15.113 -0.2904 -0.1027 -0.2718
  639TMC3     O 9516   1.639   0.717  15.195  0.3027 -0.4845 -0.7045
  639TMC3     H 9517   1.342   0.519  15.074  0.5032 -0.3083 -2.0042
  639TMC3    H1 9518   1.741   0.496  15.230 -0.0820  1.7022 -0.8956
  639TMC3    H2 9519   1.520   0.147  15.165  3.2080 -0.0074  2.3318
  639TMC3    C7 9520   1.747   0.231  15.241  0.7563 -0.2705 -0.0174
  639TMC3    C8 9521   1.329   0.244  15.065 -0.2933 -0.7578 -0.0530
  639TMC3    O1 9522   1.707   0.201  15.351  0.2493 -0.6932  0.2514
  639TMC3    O2 9523   1.339   0.228  14.946  1.0186 -0.2066  0.5853
  640MPD2     C 9524   1.123   4.154   9.369 -0.3085 -0.4554 -0.2254
  640MPD2    C1 9525   1.051   4.050   9.432 -0.1075  0.4433  0.6803
  640MPD2    C2 9526   0.940   4.086   9.510 -0.6606  1.2980  0.4563
  640MPD2    C3 9527   0.898   4.219   9.516 -0.4406  0.0330 -1.0585
  640MPD2    C4 9528   0.960   4.317   9.444 -0.5044 -1.0157 -0.4764
  640MPD2    C5 9529   1.079   4.283   9.370 -0.0265  0.4871 -0.0638
  640MPD2     H 9530   0.887   4.009   9.563  2.2927 -0.0175  1.5091
  640MPD2    H1 9531   0.921   4.418   9.436  3.2244  0.2613 -2.1901
  640MPD2    H2 9532   1.220   4.135   9.325 -0.5877 -1.0444 -0.5969
  640MPD2    H3 9533   1.143   4.355   9.320  2.0758 -0.8167  0.7452
  640MPD2     N 9534   0.788   4.268   9.598  0.4564 -0.6468 -0.2787
  640MPD2    H5 9535   0.766   4.367   9.591  2.4779 -0.2370 -0.8188
  640MPD2    N1 9536   1.115   3.924   9.446  0.4786 -0.0342  0.8702
  640MPD2    H7 9537   1.207   3.919   9.403 -0.2963  0.7153 -0.8971
  641TMC3    C1 9538   1.156   3.699   9.535 -0.3153  0.0471 -0.1829
  641TMC3    C2 9539   1.292   3.717   9.519  0.6559  0.2817 -0.3535
  641TMC3    C3 9540   1.365   3.604   9.554 -0.9440  0.0495 -0.0973
  641TMC3    C4 9541   1.099   3.581   9.566 -0.0918 -0.4643 -0.3304
  641TMC3    C5 9542   1.178   3.472   9.583  0.4931  0.1961 -0.4074
  641TMC3    C6 9543   1.309   3.480   9.571 -0.1238 -0.0878  1.3255
  641TMC3     C 9544   1.065   3.815   9.512 -0.3322 -0.4841 -0.7757
  641TMC3     O 9545   0.948   3.802   9.550 -0.2459 -0.3988 -0.9584
  641TMC3     H 9546   1.342   3.813   9.515  0.0041  0.7133  2.3660
  641TMC3    H1 9547   0.990   3.584   9.563 -0.0644  2.0287  0.8867
  641TMC3    H2 9548   1.369   3.390   9.560  1.7698  1.2025  1.0981
  641TMC3    C7 9549   1.115   3.343   9.619  0.0358 -0.2511  0.0137
  641TMC3    C8 9550   1.502   3.605   9.519  0.1176  1.0438  0.1768
  641TMC3    O1 9551   1.188   3.246   9.640  0.1394  0.7420  0.1540
  641TMC3    O2 9552   1.567   3.518   9.576  0.1694  0.0150  0.7157
  642TMC3    C1 9553   2.939   0.382  12.731  0.1892  0.4921 -0.5775
  642TMC3    C2 9554   3.075   0.380  12.737 -0.5647 -0.2324 -0.4188
  642TMC3    C3 9555   3.130   0.256  12.710 -0.3911 -0.3382  0.7803
  642TMC3    C4 9556   2.862   0.279  12.685 -0.6035 -0.7095  0.0692
  642TMC3    C5 9557   2.923   0.160  12.661 -0.3225 -0.1418  0.4546
  642TMC3    C6 9558   3.056   0.144  12.670  0.1193  0.5519 -0.5376
  642TMC3     C 9559   2.885   0.502  12.796  0.1214  0.2980 -0.6268
  642TMC3     O 9560   2.955   0.602  12.789  0.4830  0.3394  0.3994
  642TMC3     H 9561   3.124   0.469  12.775 -0.6713 -0.8086  1.0597
  642TMC3    H1 9562   2.754   0.269  12.687 -0.6837 -0.3256 -2.0874
  642TMC3    H2 9563   3.102   0.049  12.646 -0.3662  0.1604  0.0814
  642TMC3    C7 9564   2.855   0.058  12.586 -0.0475 -0.0108 -0.4767
  642TMC3    C8 9565   3.275   0.248  12.694 -0.4403 -0.0232  0.4416
  642TMC3    O1 9566   2.748   0.091  12.534  0.0623  0.0136 -0.1890
  642TMC3    O2 9567   3.327   0.137  12.695  0.7627  0.0068  0.2993
  643TMC3    C1 9568   2.533   0.015   0.215 -0.1772  1.0282  0.2416
  643TMC3    C2 9569   2.494   0.088   0.109 -0.0339  0.0740 -0.1059
  643TMC3    C3 9570   2.387   0.036   0.027  0.1067 -0.2155 -0.0502
  643TMC3    C4 9571   2.475   4.629   0.238  0.1771 -0.5776 -0.2242
  643TMC3    C5 9572   2.383   4.576   0.157  0.2445 -0.2978 -0.2169
  643TMC3    C6 9573   2.322   4.659   0.062  0.4880 -0.3119  0.0167
  643TMC3     C 9574   2.654   0.055   0.289 -0.0420 -0.4234  0.0299
  643TMC3     O 9575   2.679   0.176   0.296  0.3908 -0.6212 -0.1530
  643TMC3     H 9576   2.558   0.173   0.089 -0.0261  0.2439  0.6635
  643TMC3    H1 9577   2.496   4.565   0.324  0.0059 -0.2710  0.0474
  643TMC3    H2 9578   2.239   4.616   0.006  1.5876  1.2045 -2.7309
  643TMC3    C7 9579   2.335   4.442   0.195  0.0528  0.0625  0.2580
  643TMC3    C8 9580   2.367   0.075  17.639 -0.4817  0.3462 -0.1694
  643TMC3    O1 9581   2.300   4.426   0.313 -0.5616  0.4407  0.1923
  643TMC3    O2 9582   2.303   4.734  17.572  0.9162 -0.0136  0.1909
  644MPD2     C 9583   1.226   3.290   9.196  1.1833  0.0478  0.0472
  644MPD2    C1 9584   1.303   3.385   9.137 -0.3403  0.1870 -0.1513
  644MPD2    C2 9585   1.257   3.517   9.126 -0.0460  0.7513 -0.4626
  644MPD2    C3 9586   1.126   3.550   9.159 -0.1091 -0.3814  0.0403
  644MPD2    C4 9587   1.041   3.446   9.197 -1.2009  0.2016  0.2589
  644MPD2    C5 9588   1.092   3.318   9.227  0.2793 -0.1661  0.3000
  644MPD2     H 9589   1.316   3.589   9.070 -3.9071  1.7973 -3.2365
  644MPD2    H1 9590   0.935   3.462   9.211 -0.9754  1.1982  0.8442
  644MPD2    H2 9591   1.261   3.190   9.218  0.0872 -0.2558  0.4005
  644MPD2    H3 9592   1.033   3.241   9.277  0.9229 -1.7044 -1.3043
  644MPD2     N 9593   1.072   3.678   9.134  0.7593  0.0824 -0.4961
  644MPD2    H5 9594   1.135   3.748   9.096 -1.8018  2.6789 -0.0298
  644MPD2    N1 9595   1.432   3.337   9.106  0.3294  0.0109  0.0874
  644MPD2    H7 9596   1.444   3.237   9.120 -2.1539 -0.1913  0.7096
  645TMC3    C1 9597   0.921   3.855   9.138 -0.6297 -0.1111 -0.0328
  645TMC3    C2 9598   0.984   3.904   9.022  0.0513  0.6868 -0.9255
  645TMC3    C3 9599   0.942   4.029   8.976  0.6026  0.1233 -0.1967
  645TMC3    C4 9600   0.820   3.923   9.201  0.0036 -0.9726  0.0748
  645TMC3    C5 9601   0.787   4.046   9.153  0.1604 -0.0686  0.5932
  645TMC3    C6 9602   0.847   4.101   9.046 -0.0515  0.9593 -0.3519
  645TMC3     C 9603   0.951   3.723   9.190 -0.3524 -0.5624  0.0565
  645TMC3     O 9604   0.864   3.673   9.263 -0.0888  0.1541 -0.4559
  645TMC3     H 9605   1.054   3.844   8.966 -1.1193 -1.9013  0.4168
  645TMC3    H1 9606   0.793   3.886   9.299  1.3188  0.7258  1.0966
  645TMC3    H2 9607   0.819   4.200   9.010  0.1690  1.3568  0.5729
  645TMC3    C7 9608   0.683   4.123   9.228 -0.2050  0.2532 -0.2116
  645TMC3    C8 9609   0.971   4.066   8.841  0.2221 -0.3531 -0.1500
  645TMC3    O1 9610   0.663   4.243   9.208  0.4774 -0.1224  0.1616
  645TMC3    O2 9611   1.004   4.186   8.828  0.5190 -0.3940  0.0936
  646MPD2     C 9612   1.768   4.219  14.576 -0.4135  0.4966 -0.0690
  646MPD2    C1 9613   1.694   4.158  14.678 -0.6621  0.1803  0.0179
  646MPD2    C2 9614   1.558   4.190  14.687 -0.1428 -0.5044  0.2303
  646MPD2    C3 9615   1.499   4.280  14.602  0.0280  0.0553  0.0084
  646MPD2    C4 9616   1.573   4.346  14.506  0.3271 -0.9112 -0.1799
  646MPD2    C5 9617   1.707   4.315  14.499 -0.4821  0.6146  0.7314
  646MPD2     H 9618   1.497   4.138  14.759  1.7284 -2.4282  0.4151
  646MPD2    H1 9619   1.536   4.414  14.431 -3.2417 -1.7176  0.8599
  646MPD2    H2 9620   1.875   4.209  14.562 -0.5033  0.5364 -0.8057
  646MPD2    H3 9621   1.766   4.364  14.422 -0.9812 -0.9575 -0.6575
  646MPD2     N 9622   1.357   4.300  14.607  0.5132 -0.0535 -0.2793
  646MPD2    H5 9623   1.313   4.247  14.682 -1.4425 -1.7193 -2.5951
  646MPD2    N1 9624   1.761   4.071  14.761 -0.2179  0.1686 -0.1503
  646MPD2    H7 9625   1.862   4.071  14.759 -0.2378  0.4769 -0.9247
  647TMC3    C1 9626   1.791   3.903  14.936 -0.5025  0.2234  0.2464
  647TMC3    C2 9627   1.733   3.850  15.046  0.0243  0.3698  0.5078
  647TMC3    C3 9628   1.797   3.746  15.102 -0.1790 -0.1306 -0.2195
  647TMC3    C4 9629   1.912   3.869  14.886  0.1265 -0.8216 -0.5290
  647TMC3    C5 9630   1.964   3.746  14.935  0.8884 -0.0439 -0.5499
  647TMC3    C6 9631   1.902   3.680  15.038  0.5906  0.5412 -0.0729
  647TMC3     C 9632   1.702   3.986  14.856  0.5012 -0.4514  0.4295
  647TMC3     O 9633   1.580   3.974  14.883  0.1599  0.4803  0.5973
  647TMC3     H 9634   1.641   3.896  15.081 -0.2084  0.4678 -0.2346
  647TMC3    H1 9635   1.939   3.898  14.785 -1.6405 -1.8617 -1.2959
  647TMC3    H2 9636   1.949   3.591  15.079 -1.0414  0.3088  1.3136
  647TMC3    C7 9637   2.103   3.749  14.951  0.2844  1.3039 -0.4648
  647TMC3    C8 9638   1.736   3.675  15.209 -0.1754 -0.4418  0.0251
  647TMC3    O1 9639   2.146   3.696  15.051  0.0068  0.1523 -0.8140
  647TMC3    O2 9640   1.800   3.574  15.235  0.3933 -0.6465 -0.4145
  648TMC3    C1 9641   1.089   1.665  16.049  0.4254 -0.1821 -0.1391
  648TMC3    C2 9642   1.201   1.595  16.037  0.2625 -0.3583 -0.1412
  648TMC3    C3 9643   1.268   1.598  15.920  0.1438  0.7308 -0.0275
  648TMC3    C4 9644   1.040   1.740  15.947  0.1180 -0.1584  0.5711
  648TMC3    C5 9645   1.110   1.753  15.830 -0.5708 -0.6268  0.1312
  648TMC3    C6 9646   1.229   1.687  15.812 -0.4766  0.1336 -0.2052
  648TMC3     C 9647   1.031   1.677  16.179 -0.2288  0.1761  0.5894
  648TMC3     O 9648   0.958   1.770  16.198 -0.5003  0.0662 -0.1180
  648TMC3     H 9649   1.244   1.537  16.118 -0.3564  0.9182  1.1000
  648TMC3    H1 9650   0.950   1.791  15.978 -1.6632 -1.0326 -3.1530
  648TMC3    H2 9651   1.295   1.694  15.726 -1.8999 -1.2112 -1.3852
  648TMC3    C7 9652   1.061   1.845  15.726  0.0044  0.8985  0.0292
  648TMC3    C8 9653   1.371   1.498  15.904  0.1796 -0.2851 -0.0423
  648TMC3    O1 9654   1.120   1.875  15.625 -0.3686 -0.2559 -0.0672
  648TMC3    O2 9655   1.415   1.443  16.003 -0.1799  0.1231 -0.4194
  649TMC3    C1 9656   0.269   2.976  12.491 -0.3295  0.7072  0.8408
  649TMC3    C2 9657   0.407   2.966  12.465  0.3393 -0.2268 -0.0362
  649TMC3    C3 9658   0.477   2.906  12.566 -0.5517 -0.3364 -0.0998
  649TMC3    C4 9659   0.218   2.939  12.612  0.7051  0.1139  0.8179
  649TMC3    C5 9660   0.300   2.882  12.707  0.8345  0.6843  0.4301
  649TMC3    C6 9661   0.424   2.863  12.686 -0.1704 -0.2181  0.6772
  649TMC3     C 9662   0.177   2.974  12.385 -0.5393 -0.0326  0.4693
  649TMC3     O 9663   0.064   2.922  12.407  0.0620  0.0051 -0.1758
  649TMC3     H 9664   0.455   2.971  12.368 -1.4651 -0.2976 -0.9514
  649TMC3    H1 9665   0.111   2.944  12.624  0.4638 -1.7629 -0.4900
  649TMC3    H2 9666   0.485   2.811  12.759  0.5378 -1.2251 -0.6170
  649TMC3    C7 9667   0.251   2.888  12.848  0.2686  0.2283 -0.0315
  649TMC3    C8 9668   0.625   2.916  12.567 -0.4257 -0.2478  0.3163
  649TMC3    O1 9669   0.146   2.947  12.872  0.1335 -0.4855 -0.0710
  649TMC3    O2 9670   0.671   2.888  12.675 -0.0674  0.5015 -0.0716
  650TMC3    C1 9671   2.392   4.241  12.870 -0.3751  0.1878  0.4099
  650TMC3    C2 9672   2.317   4.307  12.964  0.1155  0.5597 -0.1535
  650TMC3    C3 9673   2.183   4.298  12.961 -0.4499 -0.3291 -0.3572
  650TMC3    C4 9674   2.336   4.168  12.768  0.1023 -0.1430 -0.7378
  650TMC3    C5 9675   2.197   4.174  12.759 -1.0023 -0.1348 -0.7074
  650TMC3    C6 9676   2.120   4.228  12.855 -0.1455  0.0418  0.2870
  650TMC3     C 9677   2.533   4.240  12.881  0.1945  0.3133 -0.1514
  650TMC3     O 9678   2.578   4.333  12.952 -0.3425 -0.5302 -0.0661
  650TMC3     H 9679   2.371   4.368  13.035 -3.2010  0.1944  2.7206
  650TMC3    H1 9680   2.400   4.131  12.689 -0.0709 -1.1513 -0.4051
  650TMC3    H2 9681   2.013   4.238  12.845 -0.3999 -1.5736  1.5098
  650TMC3    C7 9682   2.137   4.166  12.631 -0.5159 -0.1516 -0.5184
  650TMC3    C8 9683   2.124   4.425  13.002 -0.0909  0.7507  0.2124
  650TMC3    O1 9684   2.147   4.065  12.563  0.0553 -0.2379  0.0985
  650TMC3    O2 9685   2.196   4.524  13.000 -0.0891  0.2679 -0.0980
  651MPD2     C 9686   1.146   1.511  11.032 -0.2429  0.3745  0.8736
  651MPD2    C1 9687   1.127   1.615  10.942  0.2454 -1.0472  0.2821
  651MPD2    C2 9688   1.242   1.673  10.889 -0.4671 -0.1413 -0.3436
  651MPD2    C3 9689   1.372   1.635  10.919  0.1784  0.2161  0.2639
  651MPD2    C4 9690   1.383   1.530  11.011  0.5485 -0.5143 -0.3242
  651MPD2    C5 9691   1.275   1.471  11.066  0.5073 -0.2774  0.2078
  651MPD2     H 9692   1.230   1.752  10.816 -0.3710 -0.0631 -0.2759
  651MPD2    H1 9693   1.476   1.503  11.061 -1.5989 -1.5719  3.0944
  651MPD2    H2 9694   1.063   1.448  11.061  0.7435 -0.4039  2.0111
  651MPD2    H3 9695   1.291   1.398  11.144  1.9431 -0.5122 -0.2971
  651MPD2     N 9696   1.476   1.702  10.855  0.1177  0.4654 -0.3639
  651MPD2    H5 9697   1.442   1.774  10.792 -3.4738 -0.0794  0.9901
  651MPD2    N1 9698   1.004   1.665  10.906 -0.0467  0.2173 -0.8221
  651MPD2    H7 9699   1.001   1.741  10.838 -0.7901  0.9009 -0.0285
  652TMC3    C1 9700   1.913   1.814  10.751  0.6421 -0.3224  0.4688
  652TMC3    C2 9701   1.829   1.726  10.797  0.2299 -0.3484 -0.2447
  652TMC3    C3 9702   1.698   1.753  10.781 -0.0488  0.1503 -0.5748
  652TMC3    C4 9703   1.878   1.928  10.685 -0.0472  0.0586 -0.4488
  652TMC3    C5 9704   1.749   1.958  10.678  0.1247  0.5107  0.5527
  652TMC3    C6 9705   1.650   1.869  10.724  0.5449  0.2887  0.2569
  652TMC3     C 9706   2.053   1.779  10.769 -0.3559  0.7418 -0.2913
  652TMC3     O 9707   2.072   1.696  10.857 -0.0210 -0.0862 -0.2247
  652TMC3     H 9708   1.856   1.640  10.857  0.1253  0.1373  0.4939
  652TMC3    H1 9709   1.955   2.003  10.671 -0.0364  0.5260  2.1225
  652TMC3    H2 9710   1.546   1.902  10.728  0.0168 -1.7114  3.4719
  652TMC3    C7 9711   1.701   2.085  10.631  0.0676  0.5905 -0.3107
  652TMC3    C8 9712   1.614   1.681  10.869 -0.0934  0.3546 -0.2821
  652TMC3    O1 9713   1.594   2.075  10.575  0.3500 -0.0070  0.2571
  652TMC3    O2 9714   1.654   1.590  10.940 -0.1599 -0.9898 -0.2843
  653MPD2     C 9715   0.143   1.421  17.546 -0.4203 -0.0242 -0.0125
  653MPD2    C1 9716   0.094   1.529  17.473 -0.1160  0.2455 -0.8356
  653MPD2    C2 9717   0.052   1.507  17.346  0.2172  0.2374 -0.5768
  653MPD2    C3 9718   0.047   1.385  17.288 -0.3377  0.4267  0.2558
  653MPD2    C4 9719   0.093   1.277  17.368 -0.5562 -0.1473 -0.1410
  653MPD2    C5 9720   0.144   1.290  17.495 -0.3795 -0.5058 -0.0256
  653MPD2     H 9721   0.016   1.594  17.291 -1.7417 -0.5426 -0.5378
  653MPD2    H1 9722   0.088   1.175  17.332 -1.1102 -0.4547  0.8042
  653MPD2    H2 9723   0.173   1.442  17.648 -0.7747 -0.6614  0.2217
  653MPD2    H3 9724   0.160   1.202  17.556  0.6960 -0.2710  0.0319
  653MPD2     N 9725   0.003   1.368  17.155  0.4003  0.2397  0.5306
  653MPD2    H5 9726   4.735   1.451  17.097 -0.5875 -0.6306 -0.6277
  653MPD2    N1 9727   0.081   1.661  17.523 -0.9522 -0.6879 -0.5934
  653MPD2    H7 9728   0.054   1.742  17.469  2.7800  1.3245  0.5841
  654TMC3    C1 9729   4.665   1.273  16.959  0.2572  0.0648  0.1041
  654TMC3    C2 9730   4.569   1.370  16.932  0.7884  0.2591  0.5192
  654TMC3    C3 9731   4.538   1.380  16.801  0.5960  0.2124  1.1649
  654TMC3    C4 9732   4.716   1.188  16.865 -0.0020  0.0120 -0.8242
  654TMC3    C5 9733   4.675   1.205  16.736  0.4292  0.2510 -0.3481
  654TMC3    C6 9734   4.601   1.315  16.700  0.3098  0.1517 -0.4905
  654TMC3     C 9735   4.713   1.250  17.092  0.1323 -0.9003 -0.8199
  654TMC3     O 9736   4.704   1.132  17.134 -0.2890 -0.0849 -0.0152
  654TMC3     H 9737   4.543   1.437  17.012  0.7898 -0.6043  1.2399
  654TMC3    H1 9738   0.052   1.113  16.889 -1.5203 -0.7347  1.4328
  654TMC3    H2 9739   4.568   1.331  16.598 -0.1658 -1.9424 -0.6716
  654TMC3    C7 9740   4.728   1.123  16.630  0.0300  0.5028  0.1629
  654TMC3    C8 9741   4.421   1.456  16.770  0.7617  0.3654  0.2191
  654TMC3    O1 9742   4.717   1.176  16.522  0.4025 -0.1266 -0.3189
  654TMC3    O2 9743   4.400   1.561  16.828  0.3263  0.3050 -0.8627
  655MPD2     C 9744   1.559   1.781  15.631 -0.0546  0.4906  1.0507
  655MPD2    C1 9745   1.466   1.857  15.566 -0.7752  0.0027  0.2992
  655MPD2    C2 9746   1.423   1.816  15.441 -0.2902  0.7429 -0.0308
  655MPD2    C3 9747   1.475   1.695  15.378 -0.1305 -0.1865 -0.2486
  655MPD2    C4 9748   1.570   1.619  15.448  0.1471  0.6708 -0.2342
  655MPD2    C5 9749   1.610   1.664  15.573 -0.4252  0.4341 -0.0445
  655MPD2     H 9750   1.352   1.873  15.382 -1.0091 -0.8885 -0.7519
  655MPD2    H1 9751   1.617   1.540  15.391 -0.1830  0.7079 -0.5563
  655MPD2    H2 9752   1.596   1.800  15.731 -0.3928 -0.4289  1.3438
  655MPD2    H3 9753   1.685   1.606  15.626  1.4076  2.3704 -0.5336
  655MPD2     N 9754   1.423   1.645  15.252 -0.0464 -0.2300  0.2658
  655MPD2    H5 9755   1.360   1.710  15.206  2.9064  1.8934 -0.7795
  655MPD2    N1 9756   1.396   1.969  15.615  0.2447  0.3664 -0.1842
  655MPD2    H7 9757   1.333   2.020  15.554 -0.5290  0.0307  0.3364
  656TMC3    C1 9758   1.317   2.124  15.760 -0.9646 -0.1302  0.2087
  656TMC3    C2 9759   1.254   2.112  15.880  0.2591  0.5318  0.2975
  656TMC3    C3 9760   1.142   2.195  15.893 -0.0350 -0.1311  0.6511
  656TMC3    C4 9761   1.275   2.208  15.658 -0.3251  0.3717 -0.6878
  656TMC3    C5 9762   1.167   2.290  15.680  0.0561  0.8421  0.6172
  656TMC3    C6 9763   1.093   2.277  15.793 -0.8107  0.0234  0.2869
  656TMC3     C 9764   1.418   2.022  15.739  0.0801  0.0458  1.4065
  656TMC3     O 9765   1.488   1.986  15.831  0.1754 -0.7693  0.6429
  656TMC3     H 9766   1.282   2.036  15.953 -1.8569 -0.9817 -0.4816
  656TMC3    H1 9767   1.336   2.222  15.569 -0.0184  0.6691 -0.4341
  656TMC3    H2 9768   0.998   2.329  15.804 -0.7823  0.0307  0.5001
  656TMC3    C7 9769   1.129   2.382  15.578 -0.2824  0.6053 -0.2530
  656TMC3    C8 9770   1.049   2.152  15.997  0.6460 -0.2794  0.0939
  656TMC3    O1 9771   1.190   2.372  15.471 -0.0090  0.1173 -1.1371
  656TMC3    O2 9772   1.073   2.043  16.039  0.0550 -0.6872 -0.0482
  657TMC3    C1 9773   0.412   1.258  15.041 -0.0803  0.5269 -0.5256
  657TMC3    C2 9774   0.492   1.306  15.138 -0.2143 -0.1396  0.7939
  657TMC3    C3 9775   0.496   1.440  15.141  0.2468  0.0801 -0.3279
  657TMC3    C4 9776   0.340   1.327  14.954 -0.7961 -0.5553 -0.0488
  657TMC3    C5 9777   0.357   1.464  14.947  0.3117 -0.1941 -0.9096
  657TMC3    C6 9778   0.432   1.519  15.046 -0.3221 -0.1617  0.1466
  657TMC3     C 9779   0.403   1.111  15.032 -0.6041 -0.9680  0.5850
  657TMC3     O 9780   0.312   1.069  14.963  0.2412  0.4687 -0.0130
  657TMC3     H 9781   0.535   1.241  15.213 -1.6970 -2.4318 -0.3097
  657TMC3    H1 9782   0.272   1.280  14.884  2.6768 -1.5359 -2.7990
  657TMC3    H2 9783   0.438   1.627  15.052 -0.8452 -0.2108  1.6932
  657TMC3    C7 9784   0.277   1.534  14.852 -0.2982  0.7257 -0.0886
  657TMC3    C8 9785   0.569   1.506  15.250  0.0715  0.7396  0.0580
  657TMC3    O1 9786   0.252   1.473  14.751 -0.1549  0.6639  0.3414
  657TMC3    O2 9787   0.558   1.626  15.257 -0.2083 -0.7477  0.1997
  658MPD2     C 9788   1.999   1.615  14.800 -0.4680  0.4214 -0.0924
  658MPD2    C1 9789   1.879   1.643  14.751  0.6948 -0.0108  0.6277
  658MPD2    C2 9790   1.873   1.718  14.634  0.0271 -0.5074  0.3777
  658MPD2    C3 9791   1.990   1.766  14.573 -0.0953 -0.1540 -0.2077
  658MPD2    C4 9792   2.114   1.752  14.633  0.5462  0.0490  0.6236
  658MPD2    C5 9793   2.115   1.671  14.750  0.0813 -0.1367 -0.3195
  658MPD2     H 9794   1.780   1.732  14.581  1.5626  1.1532 -1.8372
  658MPD2    H1 9795   2.207   1.797  14.598  0.4449  1.5301  2.2504
  658MPD2    H2 9796   2.005   1.560  14.894  0.2277 -2.4694 -1.8338
  658MPD2    H3 9797   2.207   1.646  14.802  0.5149  2.1002 -0.0120
  658MPD2     N 9798   1.977   1.826  14.445 -0.3432 -0.6210 -0.3849
  658MPD2    H5 9799   1.888   1.826  14.396 -0.0196 -0.8922 -0.9776
  658MPD2    N1 9800   1.764   1.572  14.806  1.0380  0.3115  0.3229
  658MPD2    H7 9801   1.769   1.550  14.905 -2.8531  0.0326  0.4313
  659TMC3    C1 9802   1.542   1.506  14.823 -0.0352 -0.6084  0.5661
  659TMC3    C2 9803   1.565   1.511  14.954  0.3023 -0.4820 -0.2843
  659TMC3    C3 9804   1.466   1.563  15.037 -0.6883 -0.1933 -0.0711
  659TMC3    C4 9805   1.417   1.487  14.773  0.2031 -0.7992  1.3761
  659TMC3    C5 9806   1.322   1.539  14.848 -0.3016 -0.5323  0.2998
  659TMC3    C6 9807   1.347   1.591  14.972  0.7975  0.1259  0.3979
  659TMC3     C 9808   1.649   1.550  14.743 -0.2801 -0.0643 -0.3925
  659TMC3     O 9809   1.631   1.560  14.622 -0.2175 -0.1301  0.4892
  659TMC3     H 9810   1.659   1.504  15.006 -0.2132 -0.5535  0.6306
  659TMC3    H1 9811   1.415   1.474  14.666 -0.0239  1.0589  1.1569
  659TMC3    H2 9812   1.260   1.632  15.021  0.0837 -1.8075  0.7392
  659TMC3    C7 9813   1.190   1.535  14.796  0.0657 -0.4251 -0.1252
  659TMC3    C8 9814   1.468   1.533  15.184 -0.3364  0.1559  0.0245
  659TMC3    O1 9815   1.103   1.588  14.861  0.5307  0.5880 -0.0648
  659TMC3    O2 9816   1.531   1.439  15.222 -0.4294  0.1384  0.2379
  660MPD2     C 9817   4.119   0.792  12.677  0.2603  0.6353 -0.0916
  660MPD2    C1 9818   4.001   0.854  12.714 -1.0318 -0.1153  0.1176
  660MPD2    C2 9819   3.904   0.782  12.782  0.4570  0.8099 -0.4222
  660MPD2    C3 9820   3.934   0.653  12.828 -0.4252 -0.2543  0.2255
  660MPD2    C4 9821   4.057   0.597  12.792  1.0409  0.6132  1.0196
  660MPD2    C5 9822   4.142   0.665  12.715 -0.4820  0.3783  0.8484
  660MPD2     H 9823   3.801   0.810  12.802  0.4916  0.7204 -0.1288
  660MPD2    H1 9824   4.082   0.495  12.818 -1.2917  0.2220  1.7799
  660MPD2    H2 9825   4.190   0.839  12.609  0.4153  0.1822 -0.2387
  660MPD2    H3 9826   4.236   0.623  12.681 -0.2710  0.6331  1.1144
  660MPD2     N 9827   3.843   0.564  12.893 -0.2734 -0.2490 -0.3170
  660MPD2    H5 9828   3.873   0.470  12.920 -0.6419 -0.3927 -0.4148
  660MPD2    N1 9829   3.969   0.983  12.659  0.5267  0.1123  0.0795
  660MPD2    H7 9830   4.042   1.012  12.595 -0.5315  1.1957 -0.6432
  661TMC3    C1 9831   3.832   1.171  12.619  0.0098 -0.5428  0.3191
  661TMC3    C2 9832   3.880   1.152  12.489 -0.6407 -0.5848  0.1304
  661TMC3    C3 9833   3.786   1.186  12.394 -0.1004 -0.2626  0.4765
  661TMC3    C4 9834   3.702   1.224  12.647  1.3306 -0.3691  0.4287
  661TMC3    C5 9835   3.616   1.243  12.546 -0.0380 -0.1576  0.2458
  661TMC3    C6 9836   3.654   1.239  12.416  1.2728 -0.3149  0.2702
  661TMC3     C 9837   3.856   1.053  12.701  0.3202 -0.8064  0.1369
  661TMC3     O 9838   3.781   1.033  12.798 -0.1408  0.4815  0.1925
  661TMC3     H 9839   3.986   1.142  12.466 -0.5493  0.6766 -0.0348
  661TMC3    H1 9840   3.653   1.216  12.744 -1.2396 -1.0019 -0.9418
  661TMC3    H2 9841   3.584   1.264  12.337  1.1108 -2.5955 -0.2885
  661TMC3    C7 9842   3.493   1.174  12.578  0.3956 -0.0996 -0.1033
  661TMC3    C8 9843   3.839   1.195  12.264  0.6018  0.2316 -0.3652
  661TMC3    O1 9844   3.439   1.200  12.684  0.5379  0.2410  0.0658
  661TMC3    O2 9845   3.941   1.137  12.245 -0.5646  0.2348 -0.4471
  662MPD2     C 9846   4.545   0.262  16.904  0.1382 -0.3932 -0.2632
  662MPD2    C1 9847   4.425   0.195  16.924 -0.0849 -0.3416  1.1004
  662MPD2    C2 9848   4.314   0.264  16.960 -1.0772  0.5892 -0.5235
  662MPD2    C3 9849   4.311   0.401  16.976  0.2252  0.3448  0.2539
  662MPD2    C4 9850   4.427   0.468  16.953 -0.2499 -0.1239 -0.1485
  662MPD2    C5 9851   4.542   0.399  16.915  0.2965 -0.9113 -0.3519
  662MPD2     H 9852   4.229   0.203  16.991 -0.4325  0.2915  0.6620
  662MPD2    H1 9853   4.437   0.572  16.984 -1.0121 -0.0745 -0.0670
  662MPD2    H2 9854   4.637   0.213  16.873 -0.4104 -1.4944 -0.1061
  662MPD2    H3 9855   4.635   0.452  16.898  0.2335 -0.2332  1.3937
  662MPD2     N 9856   4.204   0.484  17.010 -0.2347  0.1834 -0.2302
  662MPD2    H5 9857   4.234   0.581  17.007 -2.1654  0.7560 -0.9922
  662MPD2    N1 9858   4.403   0.053  16.913 -0.1344  0.1167  0.1048
  662MPD2    H7 9859   4.310   0.019  16.936 -0.4110  0.9060  0.1592
  663TMC3    C1 9860   4.458   4.560  16.899  0.4861 -0.2393  0.7053
  663TMC3    C2 9861   4.326   4.541  16.869  0.1624 -0.5286  0.5496
  663TMC3    C3 9862   4.279   4.415  16.864 -0.2420 -0.5366  0.7429
  663TMC3    C4 9863   4.539   4.464  16.935  0.1416 -0.7364  0.3083
  663TMC3    C5 9864   4.487   4.341  16.959  0.3064 -0.1812  0.0644
  663TMC3    C6 9865   4.360   4.315  16.910  0.7809 -0.6043  0.0401
  663TMC3     C 9866   4.507   4.693  16.897 -1.1525 -0.0665  0.2240
  663TMC3     O 9867   4.626   4.715  16.890  0.5091 -0.1033  0.3180
  663TMC3     H 9868   4.279   4.603  16.794  1.7629  0.7872  0.6390
  663TMC3    H1 9869   4.635   4.496  16.975 -0.1771 -0.0523  0.5305
  663TMC3    H2 9870   4.320   4.215  16.924  2.5870 -1.4242 -0.6626
  663TMC3    C7 9871   4.531   4.283  17.086 -0.0732  0.0764  0.4105
  663TMC3    C8 9872   4.130   4.406  16.878 -0.0803  0.0283  0.1940
  663TMC3    O1 9873   4.630   4.332  17.138 -0.0537 -0.1049 -0.6233
  663TMC3    O2 9874   4.061   4.507  16.889  0.7665  0.0091 -0.2487
  664MPD2     C 9875   2.344   2.685  17.625 -0.3081  0.3394  0.4236
  664MPD2    C1 9876   2.425   2.786  17.668 -0.2196 -0.5976 -0.0070
  664MPD2    C2 9877   2.390   2.852   0.037 -0.9210  0.9660  0.3056
  664MPD2    C3 9878   2.288   2.809   0.112  0.1453 -0.7998 -0.2310
  664MPD2    C4 9879   2.219   2.697   0.074 -0.2063 -0.4579  0.3883
  664MPD2    C5 9880   2.240   2.636  17.699 -0.0011 -0.3649  0.1910
  664MPD2     H 9881   2.449   2.937   0.069 -1.1294  0.7224  1.3357
  664MPD2    H1 9882   2.140   2.660   0.139 -0.0548 -2.3857 -0.5351
  664MPD2    H2 9883   2.357   2.648  17.523  0.0844 -0.7606  0.8694
  664MPD2    H3 9884   2.175   2.553  17.673 -2.9625  1.5241  1.5554
  664MPD2     N 9885   2.265   2.888   0.230 -0.6221  0.3322  0.2076
  664MPD2    H5 9886   2.293   2.986   0.228 -0.0513  0.1613  0.0997
  664MPD2    N1 9887   2.538   2.827  17.600  0.9092  0.6173 -0.0774
  664MPD2    H7 9888   2.587   2.906  17.639  1.0011  1.9698 -2.9305
  665TMC3    C1 9889   2.174   2.942   0.440 -0.1912  0.3323  0.2980
  665TMC3    C2 9890   2.242   2.894   0.552  0.2524 -0.2230  0.1540
  665TMC3    C3 9891   2.266   2.986   0.647 -0.0474 -0.4088  0.2774
  665TMC3    C4 9892   2.167   3.075   0.415 -0.4662  1.0015  0.5641
  665TMC3    C5 9893   2.202   3.162   0.514 -0.2337  0.1061  0.7706
  665TMC3    C6 9894   2.249   3.122   0.638  0.3403 -0.2352  0.6010
  665TMC3     C 9895   2.172   2.853   0.331  0.3935  0.2377 -0.1046
  665TMC3     O 9896   2.108   2.749   0.341  0.9279  0.6924 -0.3025
  665TMC3     H 9897   2.249   2.786   0.552 -0.2545 -0.2567 -1.2827
  665TMC3    H1 9898   2.138   3.117   0.319  0.9792 -0.6050 -0.5570
  665TMC3    H2 9899   2.257   3.190   0.722 -0.0792 -1.6668  1.8098
  665TMC3    C7 9900   2.164   3.302   0.501  0.1318  0.1831  0.1425
  665TMC3    C8 9901   2.296   2.940   0.784  0.7414 -0.2181 -0.3241
  665TMC3    O1 9902   2.067   3.324   0.427 -0.5028  0.1495 -0.0223
  665TMC3    O2 9903   2.305   3.030   0.865  0.2283  0.5191  0.1397
  666TMC3    C1 9904   1.382   3.076   9.990  0.8573 -0.5514  0.2301
  666TMC3    C2 9905   1.483   3.045  10.077  0.0793  0.0957 -0.1990
  666TMC3    C3 9906   1.559   3.160  10.107  0.3376  0.0692 -0.2715
  666TMC3    C4 9907   1.361   3.196   9.931  0.2994 -0.0355 -0.2135
  666TMC3    C5 9908   1.443   3.300   9.962  0.0196  0.7472 -0.5343
  666TMC3    C6 9909   1.548   3.282  10.047 -0.0429 -0.4658  0.6277
  666TMC3     C 9910   1.284   2.972   9.954 -0.0901 -0.6193 -0.2714
  666TMC3     O 9911   1.245   2.984   9.838  0.2750  0.5351  0.3860
  666TMC3     H 9912   1.490   2.952  10.133 -0.3379  0.1991  0.0236
  666TMC3    H1 9913   1.270   3.208   9.873  1.0039  1.8333 -0.9257
  666TMC3    H2 9914   1.602   3.369  10.085 -1.1763  2.4444 -4.3913
  666TMC3    C7 9915   1.386   3.433   9.950  0.1782  0.1194 -1.1080
  666TMC3    C8 9916   1.678   3.141  10.195 -0.1985  0.9759  0.2864
  666TMC3    O1 9917   1.266   3.445   9.955  0.2139 -0.9744 -0.6435
  666TMC3    O2 9918   1.677   3.049  10.273 -0.2928 -0.1924 -0.5634
  667MPD2     C 9919   3.513   3.172  14.712 -0.3253 -0.1911  0.6794
  667MPD2    C1 9920   3.404   3.193  14.797  0.5948 -0.2458  0.4471
  667MPD2    C2 9921   3.301   3.097  14.806  0.3118 -0.2631 -0.0732
  667MPD2    C3 9922   3.309   2.980  14.730  0.4161  0.1028  0.5478
  667MPD2    C4 9923   3.421   2.955  14.656  0.3881  0.5354  0.0220
  667MPD2    C5 9924   3.520   3.048  14.653  0.3088 -0.9128  0.2124
  667MPD2     H 9925   3.218   3.110  14.876  0.7626  3.3153 -0.2040
  667MPD2    H1 9926   3.442   2.865  14.600  0.0089 -1.1997  2.6895
  667MPD2    H2 9927   3.602   3.233  14.703  0.8968 -1.9874  0.4533
  667MPD2    H3 9928   3.610   3.016  14.602 -0.1207  1.6157 -2.1870
  667MPD2     N 9929   3.211   2.885  14.734  0.0333  0.5294  0.2769
  667MPD2    H5 9930   3.240   2.795  14.698 -0.9044  0.8055 -1.1701
  667MPD2    N1 9931   3.393   3.311  14.871  0.4676 -0.2525  0.0822
  667MPD2    H7 9932   3.319   3.304  14.941 -0.1666  0.7422 -0.4773
  668TMC3    C1 9933   3.456   3.521  14.973  0.3670 -0.3710  0.5603
  668TMC3    C2 9934   3.555   3.614  14.994  0.8474 -0.0010  0.0529
  668TMC3    C3 9935   3.553   3.692  15.104 -0.3826  0.4587 -0.3983
  668TMC3    C4 9936   3.339   3.522  15.044 -0.0212 -0.3383 -0.9656
  668TMC3    C5 9937   3.343   3.597  15.153  0.1290  0.1373  0.1516
  668TMC3    C6 9938   3.445   3.690  15.181  0.6125  0.4802 -0.5772
  668TMC3     C 9939   3.477   3.429  14.864  0.2134 -0.4919 -0.1552
  668TMC3     O 9940   3.566   3.442  14.780 -0.3817  0.6682 -0.0290
  668TMC3     H 9941   3.653   3.601  14.950  1.3268  3.2057  0.1875
  668TMC3    H1 9942   3.256   3.453  15.027  0.0442 -0.7952  0.5946
  668TMC3    H2 9943   3.445   3.730  15.282 -1.4507 -0.7986 -0.0788
  668TMC3    C7 9944   3.276   3.542  15.268  0.3393  0.2027 -0.4333
  668TMC3    C8 9945   3.624   3.818  15.117 -0.1419 -0.4458 -0.6473
  668TMC3    O1 9946   3.337   3.538  15.375 -0.3048 -0.6436  0.4789
  668TMC3    O2 9947   3.627   3.870  15.225  0.1633 -0.6894 -0.2215
  669TMC3    C1 9948   1.664   3.180  14.523 -0.7124  0.0369  1.5892
  669TMC3    C2 9949   1.548   3.193  14.454  0.3918 -0.0721 -0.0644
  669TMC3    C3 9950   1.552   3.282  14.353 -0.1783 -0.3749  0.2628
  669TMC3    C4 9951   1.766   3.267  14.504 -0.0892  0.3012  0.9486
  669TMC3    C5 9952   1.771   3.340  14.383 -0.5051  0.4801  0.5130
  669TMC3    C6 9953   1.662   3.354  14.308  0.7320 -0.5750  0.5688
  669TMC3     C 9954   1.655   3.129  14.661  0.3671 -0.4211 -0.8797
  669TMC3     O 9955   1.540   3.114  14.700  0.2104 -0.3946  0.0954
  669TMC3     H 9956   1.463   3.128  14.472  1.4536 -1.4115  0.0325
  669TMC3    H1 9957   1.841   3.293  14.578 -0.8246  0.5379  1.6080
  669TMC3    H2 9958   1.679   3.394  14.209  0.9294 -0.7420  0.5359
  669TMC3    C7 9959   1.867   3.446  14.367 -0.3443 -0.1416 -0.5485
  669TMC3    C8 9960   1.421   3.308  14.295  0.3716  0.1750  0.6653
  669TMC3    O1 9961   1.914   3.499  14.469  0.4224 -0.2082 -1.0678
  669TMC3    O2 9962   1.329   3.235  14.318  0.1397  0.3037 -0.4718
  670MPD2     C 9963   4.667   1.175  13.187  0.1850 -0.5731  0.0379
  670MPD2    C1 9964   0.020   1.211  13.281  0.5941 -0.2061 -0.4900
  670MPD2    C2 9965   4.732   1.181  13.417 -0.5062  0.4560  0.3736
  670MPD2    C3 9966   4.625   1.099  13.456  0.3515 -0.2637 -0.2647
  670MPD2    C4 9967   4.539   1.067  13.353  0.6579  0.1692 -1.0111
  670MPD2    C5 9968   4.553   1.107  13.224  0.3044  0.7973 -0.2783
  670MPD2     H 9969   0.068   1.211  13.491 -1.6206  2.1164  0.8154
  670MPD2    H1 9970   4.447   1.014  13.379 -0.1220  1.1208 -1.8560
  670MPD2    H2 9971   4.684   1.202  13.083 -1.3809 -2.4719 -0.7326
  670MPD2    H3 9972   4.492   1.069  13.143  0.0295  0.1477  0.2342
  670MPD2     N 9973   4.616   1.052  13.586 -0.0854  0.3197 -0.2031
  670MPD2    H5 9974   4.684   1.089  13.652 -0.0195 -0.5068  0.1835
  670MPD2    N1 9975   0.141   1.268  13.252 -0.0991 -0.8854  0.0468
  670MPD2    H7 9976   0.187   1.318  13.327 -0.2917 -0.5999 -0.0243
  671TMC3    C1 9977   4.524   0.957  13.778 -0.2472  0.1049  0.2192
  671TMC3    C2 9978   4.646   0.947  13.838  0.1502  0.0949  0.0421
  671TMC3    C3 9979   4.648   0.880  13.961 -0.2871  0.8892  0.0270
  671TMC3    C4 9980   4.406   0.929  13.833  0.2974 -0.0301  0.1368
  671TMC3    C5 9981   4.408   0.862  13.959  0.5557  0.2351 -0.4237
  671TMC3    C6 9982   4.530   0.843  14.020 -0.5154 -0.4675 -0.4033
  671TMC3     C 9983   4.512   0.975  13.635 -0.3675 -0.0568  0.1926
  671TMC3     O 9984   4.416   0.925  13.578 -0.1692  0.2571 -0.4012
  671TMC3     H 9985   4.737   0.958  13.781 -0.7988  1.0729 -1.2749
  671TMC3    H1 9986   4.315   0.937  13.775 -0.3951  2.6370  1.5884
  671TMC3    H2 9987   4.526   0.784  14.111  1.5899  1.3280  0.8404
  671TMC3    C7 9988   4.306   0.758  13.977 -0.3004  0.6642 -0.0056
  671TMC3    C8 9989   0.021   0.800  13.978  0.3324 -0.0406 -0.0480
  671TMC3    O1 9990   4.339   0.648  14.012 -0.3777 -0.9746 -0.5278
  671TMC3    O2 9991   0.073   0.766  13.873 -0.1099 -0.5411 -0.5503
  672MPD2     C 9992   4.696   0.942   0.829 -0.1999  0.2641 -0.4315
  672MPD2    C1 9993   0.057   0.932   0.738 -0.3081  0.5862 -0.4957
  672MPD2    C2 9994   0.168   1.020   0.735  0.3106 -0.7707 -0.6798
  672MPD2    C3 9995   0.179   1.115   0.836 -0.0636  1.3141  0.0486
  672MPD2    C4 9996   0.085   1.120   0.937 -0.1462 -0.6832 -0.6813
  672MPD2    C5 9997   4.717   1.034   0.927 -0.7005  0.0263  1.0232
  672MPD2     H 9998   0.243   1.004   0.658  0.2738  1.0477 -1.0936
  672MPD2    H1 9999   0.087   1.188   1.021 -1.8020 -1.0001 -0.3900
  672MPD2    H210000   4.623   0.863   0.832 -1.8572  1.7564 -1.2377
  672MPD2    H310001   4.637   1.037   1.001 -1.0511 -0.3617  0.6590
  672MPD2     N10002   0.291   1.201   0.844 -0.1645 -0.0657  0.1042
  672MPD2    H510003   0.284   1.275   0.913 -0.4196 -1.6353  1.7688
  672MPD2    N110004   0.041   0.843   0.624 -0.3804  0.0646 -0.4873
  672MPD2    H710005   0.120   0.832   0.563  0.5618 -0.3425  0.7992
  673TMC3    C110006   4.657   0.742   0.431 -0.7742 -0.0326  0.2608
  673TMC3    C210007   0.031   0.708   0.359  0.1794  0.4888  0.3435
  673TMC3    C310008   0.018   0.667   0.228 -0.1323 -0.0064  0.3199
  673TMC3    C410009   4.535   0.745   0.363  0.6789  0.3210  0.7789
  673TMC3    C510010   4.527   0.712   0.231 -0.3212  0.8252  0.7892
  673TMC3    C610011   4.633   0.657   0.166  0.0658 -0.1550  0.0140
  673TMC3     C10012   4.662   0.797   0.569  0.2433 -0.4065  0.1113
  673TMC3     O10013   4.549   0.806   0.617  0.1360  0.7298  0.5658
  673TMC3     H10014   0.111   0.668   0.419 -0.7256 -3.2022 -0.9002
  673TMC3    H110015   4.437   0.754   0.410 -0.4655 -1.9489 -1.1799
  673TMC3    H210016   4.639   0.643   0.059  2.3347  1.6054 -0.0968
  673TMC3    C710017   4.458   0.795   0.141 -0.0004  0.7057  0.1811
  673TMC3    C810018   0.132   0.634   0.145  0.1016  1.0766 -0.4485
  673TMC3    O110019   4.433   0.744   0.034 -0.8770  0.1265  0.0615
  673TMC3    O210020   0.115   0.581   0.040  0.0078 -0.6630  0.5275
  674MPD2     C10021   4.434   1.504  17.253  0.0354 -0.3892 -0.6394
  674MPD2    C110022   4.352   1.392  17.273 -0.7750 -0.1897  0.5353
  674MPD2    C210023   4.220   1.407  17.311 -0.3266  0.5484  0.0170
  674MPD2    C310024   4.175   1.534  17.338  0.3855  0.2707  0.2750
  674MPD2    C410025   4.255   1.643  17.301 -0.0663 -0.3163 -1.1298
  674MPD2    C510026   4.377   1.631  17.250 -0.4272  0.4731 -0.4332
  674MPD2     H10027   4.173   1.317  17.348  1.9861 -0.7510 -0.2520
  674MPD2    H110028   4.221   1.745  17.312  0.9275 -0.1616  0.5537
  674MPD2    H210029   4.541   1.502  17.239  0.1084 -2.4364  0.2725
  674MPD2    H310030   4.438   1.716  17.224  0.8029  0.1891  1.5534
  674MPD2     N10031   4.057   1.541  17.415 -0.0160 -0.1168 -0.4910
  674MPD2    H510032   4.006   1.460  17.449  1.2707 -0.8007 -0.1825
  674MPD2    N110033   4.413   1.266  17.280  0.7647 -0.0551 -0.0748
  674MPD2    H710034   4.514   1.269  17.289  0.7961  0.4286 -0.5459
  675TMC3    C110035   4.433   1.038  17.338  0.2507 -0.6161  0.1219
  675TMC3    C210036   4.372   0.918  17.322  0.6714  0.0232 -0.0101
  675TMC3    C310037   4.415   0.822  17.410  0.3468  0.3029  0.1516
  675TMC3    C410038   4.519   1.075  17.440 -0.5250 -0.0110  0.2584
  675TMC3    C510039   4.549   0.978  17.531  0.4075 -0.0879  0.0598
  675TMC3    C610040   4.497   0.847  17.523  0.1263 -0.3914 -0.4490
  675TMC3     C10041   4.347   1.146  17.293  0.4131  0.0900 -0.2817
  675TMC3     O10042   4.232   1.120  17.273 -0.5522  0.8652 -0.3118
  675TMC3     H10043   4.310   0.888  17.239  1.0248 -0.8664  0.0502
  675TMC3    H110044   4.560   1.175  17.442  1.6482 -0.8832 -0.4651
  675TMC3    H210045   4.534   0.766  17.585  0.4372 -0.4322 -0.6860
  675TMC3    C710046   4.649   1.002  17.629  0.2638 -0.2619 -0.2374
  675TMC3    C810047   4.348   0.700  17.408  0.2359 -0.4657 -0.1231
  675TMC3    O110048   4.729   0.911  17.653  0.2717 -0.4597  0.3556
  675TMC3    O210049   4.310   0.649  17.304  0.1369 -0.2234 -0.3467
  676MPD2     C10050   2.516   4.517  11.340 -0.0197 -0.6572 -0.0963
  676MPD2    C110051   2.384   4.475  11.355  0.8098 -0.7557 -0.4454
  676MPD2    C210052   2.343   4.369  11.272 -0.2803  0.1619 -0.5028
  676MPD2    C310053   2.429   4.312  11.183 -0.4344  0.0251  0.0683
  676MPD2    C410054   2.556   4.354  11.166 -0.5751 -0.3095  0.4713
  676MPD2    C510055   2.603   4.456  11.257  0.3534 -0.6369  0.1906
  676MPD2     H10056   2.240   4.339  11.284 -0.4896  1.3593  0.6620
  676MPD2    H110057   2.622   4.317  11.088 -0.5255 -0.3290  0.5225
  676MPD2    H210058   2.555   4.600  11.397 -0.4419  0.2221 -1.0850
  676MPD2    H310059   2.707   4.482  11.244 -0.3212  0.9852 -1.9921
  676MPD2     N10060   2.395   4.208  11.090 -0.3084 -0.4507 -0.1883
  676MPD2    H510061   2.464   4.186  11.019  0.3837  0.4394  0.2216
  676MPD2    N110062   2.297   4.530  11.446 -0.5828 -0.1236 -0.1811
  676MPD2    H710063   2.203   4.492  11.441 -1.7611  3.1542 -2.7034
  677TMC3    C110064   2.199   4.659  11.619 -0.1389 -0.0394  0.1253
  677TMC3    C210065   2.075   4.636  11.563  0.3249  0.2671  0.4155
  677TMC3    C310066   1.970   4.639  11.650  0.8777  0.1229  0.0733
  677TMC3    C410067   2.217   4.677  11.756  0.3205  0.4203 -0.9215
  677TMC3    C510068   2.107   4.686  11.836 -0.0613  0.2268 -0.3979
  677TMC3    C610069   1.980   4.666  11.783 -0.8034 -0.5204  0.4397
  677TMC3     C10070   2.317   4.628  11.541  0.2612  0.2169  0.0854
  677TMC3     O10071   2.413   4.705  11.563  0.2602  0.3023  0.0532
  677TMC3     H10072   2.062   4.602  11.461 -0.8541 -0.8958  0.9423
  677TMC3    H110073   2.319   4.703  11.783  0.9235 -2.6284 -0.2514
  677TMC3    H210074   1.890   4.657  11.843 -0.7837  0.7024  0.6565
  677TMC3    C710075   2.122   4.663  11.987 -0.6552  0.2095  0.0610
  677TMC3    C810076   1.849   4.570  11.602  0.3317  0.5373  0.0545
  677TMC3    O110077   2.025   4.627  12.054  0.2762  0.8318  0.5771
  677TMC3    O210078   1.792   4.615  11.506  0.1822  0.3192  0.5274
  678MPD2     C10079   3.868   3.745   1.001  0.0159 -0.2144  0.4451
  678MPD2    C110080   3.821   3.780   0.874  0.3447  0.3807 -0.4626
  678MPD2    C210081   3.694   3.732   0.836 -0.1299 -0.2345  0.6288
  678MPD2    C310082   3.618   3.647   0.914  0.1871  1.0296  0.1787
  678MPD2    C410083   3.673   3.607   1.032 -0.7813  0.0885  0.4140
  678MPD2    C510084   3.799   3.657   1.073 -0.9696 -0.5061  0.6574
  678MPD2     H10085   3.664   3.753   0.734  0.4994  0.3621  0.5660
  678MPD2    H110086   3.619   3.535   1.092 -0.5994 -0.4948 -0.1307
  678MPD2    H210087   3.964   3.770   1.045  0.0755  0.2383  0.0472
  678MPD2    H310088   3.839   3.609   1.162  4.8587 -3.5554 -3.6457
  678MPD2     N10089   3.501   3.588   0.869  0.5615  0.1856 -0.4032
  678MPD2    H510090   3.456   3.625   0.786 -0.2185  1.5255  0.6302
  678MPD2    N110091   3.892   3.843   0.779  0.1201 -0.0602 -0.5613
  678MPD2    H710092   3.848   3.869   0.691 -0.2859  0.3342 -0.2416
  679TMC3    C110093   4.287   3.951   0.548 -0.1473 -0.0859 -0.1263
  679TMC3    C210094   4.212   3.899   0.650  0.2007 -0.1460  0.0804
  679TMC3    C310095   4.085   3.943   0.678 -0.3437  0.2208  0.0414
  679TMC3    C410096   4.227   4.052   0.482  0.1425  1.3494  0.0045
  679TMC3    C510097   4.098   4.087   0.510 -0.4289  0.4709  0.2601
  679TMC3    C610098   4.020   4.038   0.611 -0.9130 -0.3607  0.1417
  679TMC3     C10099   4.429   3.932   0.537  0.0679 -0.4952 -0.3130
  679TMC3     O10100   4.502   4.027   0.493 -0.3020  0.3184 -0.0452
  679TMC3     H10101   4.252   3.810   0.697 -0.0799 -1.7659 -2.7103
  679TMC3    H110102   4.285   4.104   0.406  1.6173  2.3553  1.8105
  679TMC3    H210103   3.924   4.080   0.641 -0.9535 -1.7595  1.9654
  679TMC3    C710104   4.044   4.184   0.426 -0.2280  0.0408 -0.2669
  679TMC3    C810105   4.026   3.875   0.794 -0.1294 -0.3418 -0.2934
  679TMC3    O110106   3.924   4.164   0.397  0.4349 -0.0503 -0.2607
  679TMC3    O210107   4.111   3.831   0.872 -0.3203  0.5677 -0.3028
  680MPD2     C10108   4.053   3.023  13.434 -0.1390  0.3496 -0.4724
  680MPD2    C110109   4.130   2.983  13.537  0.2421 -0.2496 -0.1479
  680MPD2    C210110   4.104   3.036  13.659  0.2915  0.7768  0.4605
  680MPD2    C310111   4.005   3.132  13.679  0.2685  1.0716  0.2819
  680MPD2    C410112   3.921   3.163  13.573 -0.2221  0.3082  0.0879
  680MPD2    C510113   3.942   3.102  13.452 -0.0798  0.2727  0.1455
  680MPD2     H10114   4.180   3.024  13.736 -0.1146  0.2834  0.7804
  680MPD2    H110115   3.850   3.245  13.574 -1.6566 -0.9306 -1.4866
  680MPD2    H210116   4.065   2.981  13.335 -0.0800 -0.6207 -0.0492
  680MPD2    H310117   3.902   3.142  13.360 -0.5645 -0.2579  0.1268
  680MPD2     N10118   4.005   3.199  13.805 -0.5232 -0.8739 -0.0737
  680MPD2    H510119   4.083   3.188  13.869 -2.4679 -2.3448  2.0643
  680MPD2    N110120   4.232   2.891  13.523 -0.0206  0.3050  0.0305
  680MPD2    H710121   4.283   2.853  13.602 -0.7955  0.7258  0.7354
  681TMC3    C110122   4.357   2.730  13.412 -0.5691  0.1427  0.1575
  681TMC3    C210123   4.321   2.646  13.512 -0.7756  0.6165  0.6275
  681TMC3    C310124   4.412   2.583  13.591  0.5787 -0.3706  0.0855
  681TMC3    C410125   4.490   2.737  13.382 -0.8634  1.0742  0.1902
  681TMC3    C510126   4.587   2.677  13.461 -0.6799 -0.0506 -0.6238
  681TMC3    C610127   4.547   2.601  13.568  0.3338 -0.9115  0.6152
  681TMC3     C10128   4.278   2.852  13.400  0.7592 -0.2376  0.3753
  681TMC3     O10129   4.271   2.901  13.286  0.4836  0.4346  0.2529
  681TMC3     H10130   4.222   2.647  13.555 -0.8665 -3.0166  0.4896
  681TMC3    H110131   4.517   2.803  13.301  1.2301 -0.8754 -0.6735
  681TMC3    H210132   4.621   2.557  13.633  0.1825  1.7890  2.6465
  681TMC3    C710133   4.725   2.673  13.432  0.4370 -0.0593  0.1297
  681TMC3    C810134   4.366   2.552  13.722  0.0753 -0.5158  0.1403
  681TMC3    O110135   0.055   2.608  13.510 -0.0677  0.6982  0.4168
  681TMC3    O210136   4.445   2.587  13.807 -0.3769 -0.1584  0.1322
  682MPD2     C10137   0.808   4.465  10.346 -0.2934  0.3717  0.3207
  682MPD2    C110138   0.798   4.328  10.356  0.3055 -0.3692 -0.4951
  682MPD2    C210139   0.791   4.280  10.485  0.2379  0.1013 -0.0216
  682MPD2    C310140   0.763   4.354  10.599 -0.3571 -0.6491  0.0656
  682MPD2    C410141   0.754   4.494  10.585  0.8207 -0.0487  0.1675
  682MPD2    C510142   0.785   4.545  10.457 -0.1711  0.7377  0.3412
  682MPD2     H10143   0.780   4.173  10.500 -0.7839  0.0815 -0.8340
  682MPD2    H110144   0.719   4.565  10.659 -1.2122 -3.6625  2.6393
  682MPD2    H210145   0.813   4.515  10.250  0.6791  0.4966  0.4398
  682MPD2    H310146   0.797   4.652  10.445 -1.6869  0.8918  0.2231
  682MPD2     N10147   0.725   4.285  10.719 -0.9982  0.0296 -0.1211
  682MPD2    H510148   0.729   4.184  10.717 -2.6436 -0.0412  0.2371
  682MPD2    N110149   0.822   4.240  10.244 -0.0676  0.1297 -0.0724
  682MPD2    H710150   0.836   4.142  10.266 -1.4735  0.0518  0.4579
  683TMC3    C110151   0.685   4.147  11.146 -0.5095 -0.4740  0.0981
  683TMC3    C210152   0.605   4.040  11.112  0.3975 -0.1413  0.3040
  683TMC3    C310153   0.556   4.032  10.985  0.0157  0.3745  0.1044
  683TMC3    C410154   0.697   4.255  11.066  0.1050 -0.0699 -0.3114
  683TMC3    C510155   0.643   4.250  10.940  0.1791  0.6472  0.1081
  683TMC3    C610156   0.582   4.131  10.899 -0.2245 -1.0439 -0.2773
  683TMC3     C10157   0.790   4.143  11.250  0.0251 -0.2053 -0.5804
  683TMC3     O10158   0.888   4.215  11.252 -0.3897  0.3839  0.7061
  683TMC3     H10159   0.585   3.961  11.183 -3.2665  1.1355  0.6791
  683TMC3    H110160   0.765   4.333  11.098 -0.6831  0.5719 -0.1979
  683TMC3    H210161   0.544   4.125  10.798 -2.7711 -0.9721  0.6842
  683TMC3    C710162   0.692   4.351  10.838 -0.4179  0.8527 -0.1503
  683TMC3    C810163   0.535   3.900  10.935 -0.1824  0.2596  0.0643
  683TMC3    O110164   0.731   4.464  10.876 -0.1087 -0.3293  0.0728
  683TMC3    O210165   0.429   3.885  10.876  0.6360 -0.1900  0.2409
  684MPD2     C10166   4.191   3.575  16.592 -0.0939 -0.5437  0.0119
  684MPD2    C110167   4.138   3.595  16.468  0.3425  0.4314 -1.1482
  684MPD2    C210168   4.147   3.719  16.410  0.0000  1.0359 -0.3904
  684MPD2    C310169   4.218   3.820  16.472  0.2342 -0.6963  0.2679
  684MPD2    C410170   4.270   3.802  16.601 -0.0128 -0.4747 -0.2024
  684MPD2    C510171   4.254   3.675  16.656  0.4817  0.4295 -0.1297
  684MPD2     H10172   4.117   3.730  16.306 -4.0660  0.1091  0.7033
  684MPD2    H110173   4.332   3.874  16.652  1.3141 -1.2404 -0.7369
  684MPD2    H210174   4.180   3.480  16.644 -0.9074  0.5468  1.8498
  684MPD2    H310175   4.286   3.655  16.757  0.9639  1.5930 -0.0529
  684MPD2     N10176   4.263   3.933  16.403 -0.1161  0.2567 -0.0756
  684MPD2    H510177   4.315   3.998  16.461  1.8398 -1.8953  0.5678
  684MPD2    N110178   4.085   3.489  16.390 -0.6524 -0.1043  0.0826
  684MPD2    H710179   4.088   3.508  16.291 -2.3997  1.5897  0.3513
  685TMC3    C110180   4.132   3.279  16.314  0.3842  1.1227 -0.5107
  685TMC3    C210181   4.063   3.302  16.201  0.2108  0.3998 -0.8226
  685TMC3    C310182   4.117   3.270  16.079 -0.0189  0.0999  0.6093
  685TMC3    C410183   4.262   3.239  16.315  0.1388 -0.4223 -0.0395
  685TMC3    C510184   4.315   3.213  16.192  0.2892  0.0981 -0.3925
  685TMC3    C610185   4.241   3.216  16.073 -0.1356  0.2030  0.3168
  685TMC3     C10186   4.085   3.356  16.427  0.6221 -0.6641  0.1126
  685TMC3     O10187   4.099   3.305  16.539  0.1930  0.9852  0.1426
  685TMC3     H10188   3.961   3.338  16.214 -0.5211 -1.7990 -0.4756
  685TMC3    H110189   4.333   3.266  16.393 -0.2724  0.4773  0.0214
  685TMC3    H210190   4.285   3.182  15.980 -0.0703 -1.5135  0.9802
  685TMC3    C710191   4.460   3.194  16.184  0.2998  0.8571 -0.5525
  685TMC3    C810192   4.039   3.283  15.956  0.4308  0.3434 -0.3326
  685TMC3    O110193   4.515   3.154  16.282 -0.1331  0.3168  0.0113
  685TMC3    O210194   4.088   3.252  15.848 -0.4177  0.3161  0.5989
  686MPD2     C10195   1.052   3.796  15.633  1.0861  0.3124 -0.5682
  686MPD2    C110196   1.090   3.665  15.659  0.2026 -0.1690 -0.0080
  686MPD2    C210197   1.152   3.596  15.554 -0.5220 -0.0943  0.1657
  686MPD2    C310198   1.150   3.647  15.422  0.0071  0.4163 -0.2218
  686MPD2    C410199   1.096   3.774  15.401  0.4253  0.0113  0.1893
  686MPD2    C510200   1.053   3.845  15.504  0.4910  0.0115 -0.3620
  686MPD2     H10201   1.207   3.509  15.591 -0.5084 -0.4867 -0.7766
  686MPD2    H110202   1.089   3.818  15.302 -2.4348  1.6447  1.1350
  686MPD2    H210203   1.003   3.855  15.710 -1.3302  0.2859 -2.0817
  686MPD2    H310204   1.023   3.946  15.479 -0.4492 -0.2447 -0.2746
  686MPD2     N10205   1.217   3.581  15.314  0.4872 -0.5740  0.0769
  686MPD2    H510206   1.235   3.647  15.240 -2.2378 -1.7898 -1.6671
  686MPD2    N110207   1.065   3.615  15.787  0.5010 -0.0647 -0.4521
  686MPD2    H710208   1.022   3.671  15.861  1.8271 -1.7206  1.5528
  687TMC3    C110209   1.229   3.354  15.394  0.2510 -0.2436 -0.0523
  687TMC3    C210210   1.093   3.342  15.424 -1.1121  0.2673  0.5554
  687TMC3    C310211   1.054   3.262  15.523 -0.4566  0.0931  0.3359
  687TMC3    C410212   1.329   3.279  15.457  0.3979 -0.4101  0.6206
  687TMC3    C510213   1.279   3.194  15.553 -0.3513 -0.8951  0.1170
  687TMC3    C610214   1.148   3.195  15.591 -0.0132  0.3527  0.4347
  687TMC3     C10215   1.271   3.454  15.303 -0.2286  0.1984  0.7579
  687TMC3     O10216   1.340   3.400  15.213  0.3960 -0.7385  0.0353
  687TMC3     H10217   1.019   3.395  15.364 -1.5900 -3.2608 -2.0009
  687TMC3    H110218   1.436   3.284  15.438  0.6968 -0.6930  2.2607
  687TMC3    H210219   1.117   3.144  15.682 -0.7146 -0.3847 -0.2182
  687TMC3    C710220   1.379   3.142  15.645 -0.4072  0.2849 -0.5549
  687TMC3    C810221   0.931   3.286  15.593  0.3688  0.8807 -0.8993
  687TMC3    O110222   1.478   3.087  15.599 -0.4656  0.0993  0.0666
  687TMC3    O210223   0.894   3.214  15.685 -0.3673  0.2755 -0.1981
  688MPD2     C10224   0.222   2.374  17.329  0.4550  0.2401  0.6498
  688MPD2    C110225   0.238   2.231  17.317 -0.2856  0.0830  0.1697
  688MPD2    C210226   0.325   2.186  17.223 -0.3442 -0.3715 -0.4364
  688MPD2    C310227   0.391   2.269  17.139 -0.0192  0.3364 -0.2884
  688MPD2    C410228   0.364   2.409  17.136 -0.7612  0.0310 -0.3606
  688MPD2    C510229   0.289   2.456  17.240  0.2404  0.1854 -0.0343
  688MPD2     H10230   0.336   2.079  17.214 -1.0451 -0.3787 -1.2493
  688MPD2    H110231   0.417   2.474  17.068  0.7223  0.2455  0.9977
  688MPD2    H210232   0.164   2.425  17.406  0.6637  1.0265  0.2919
  688MPD2    H310233   0.270   2.563  17.240  1.9157  0.4702 -3.1407
  688MPD2     N10234   0.493   2.223  17.048  0.5090 -0.7286  0.2415
  688MPD2    H510235   0.541   2.297  16.997  0.2674 -0.8925 -0.2309
  688MPD2    N110236   0.180   2.136  17.404  0.4854  0.5978  0.0318
  688MPD2    H710237   0.196   2.039  17.378 -0.8859  0.3499  0.0642
  689TMC3    C110238   0.089   2.060  17.604 -0.3218 -0.4216 -0.3945
  689TMC3    C210239   0.049   2.101  17.728 -0.9207  0.4159 -0.2112
  689TMC3    C310240   0.031   2.006   0.074  0.5032 -0.3729  0.5920
  689TMC3    C410241   0.116   1.927  17.576 -0.8238 -0.7463  0.2363
  689TMC3    C510242   0.092   1.831  17.676  0.8829  0.4998  0.1293
  689TMC3    C610243   0.044   1.874   0.054  0.8350  0.3538  0.1109
  689TMC3     C10244   0.103   2.167  17.511  0.8443  0.0454  0.6428
  689TMC3     O10245   0.052   2.274  17.543  0.1503 -0.5692 -0.0979
  689TMC3     H10246   0.039   2.205   0.009 -0.3148  0.8575 -1.5406
  689TMC3    H110247   0.145   1.901  17.475  3.5412  1.7012  0.8432
  689TMC3    H210248   0.011   1.802   0.129  0.4716  2.8692  2.3545
  689TMC3    C710249   0.094   1.688  17.658 -0.3816 -0.2983 -0.0342
  689TMC3    C810250   4.726   2.053   0.211 -0.1026 -0.9325 -0.3315
  689TMC3    O110251   0.104   1.616   0.011  0.1929 -0.3825  0.2016
  689TMC3    O210252   0.024   1.991   0.311  0.2394 -0.2689  0.0805
  690MPD2     C10253   2.902   4.556  15.885  0.0445  0.2858 -0.3500
  690MPD2    C110254   2.828   4.522  15.768  0.0782 -0.2358 -0.7070
  690MPD2    C210255   2.849   4.598  15.661  0.2821  0.3665 -0.1040
  690MPD2    C310256   2.902   4.723  15.674 -0.3499  0.0857  0.4183
  690MPD2    C410257   2.965   0.030  15.786  0.1370 -0.0174 -0.8048
  690MPD2    C510258   2.960   4.685  15.896 -0.6029  0.3242 -0.6846
  690MPD2     H10259   2.801   4.585  15.565 -1.2634  2.3484  0.3940
  690MPD2    H110260   3.031   0.115  15.796 -2.0600  1.4747  0.7692
  690MPD2    H210261   2.891   4.492  15.971  2.1182  0.1687 -0.1605
  690MPD2    H310262   3.013   4.700  15.989 -1.4000  1.3442 -0.4025
  690MPD2     N10263   2.907   0.047  15.546  0.1105  0.2482 -0.0930
  690MPD2    H510264   2.874   4.734  15.465 -1.1835  2.7995 -1.1726
  690MPD2    N110265   2.749   4.409  15.757  0.7713  0.6543 -0.6926
  690MPD2    H710266   2.695   4.395  15.673 -0.3273 -0.8555  0.2670
  691TMC3    C110267   2.614   4.225  15.836 -1.0062  0.3483  0.9204
  691TMC3    C210268   2.523   4.251  15.733 -0.1119 -0.0223  0.4472
  691TMC3    C310269   2.449   4.148  15.685 -0.4320 -0.2588  0.4245
  691TMC3    C410270   2.617   4.111  15.899 -0.0740  0.2895  0.6746
  691TMC3    C510271   2.552   4.011  15.848  0.6902 -0.2282 -0.2992
  691TMC3    C610272   2.464   4.026  15.744  0.3873 -0.2512 -0.6510
  691TMC3     C10273   2.730   4.317  15.858  0.1425 -0.0773 -0.8558
  691TMC3     O10274   2.796   4.299  15.955  0.1367 -0.0380 -0.0367
  691TMC3     H10275   2.505   4.351  15.695  1.0592 -0.1269 -0.3863
  691TMC3    H110276   2.680   4.097  15.986  0.2083 -0.8264  0.2848
  691TMC3    H210277   2.410   3.945  15.696 -0.0660  1.0229 -2.2954
  691TMC3    C710278   2.510   3.912  15.949  0.0426 -0.3827  0.5019
  691TMC3    C810279   2.330   4.174  15.617  0.1856  0.4531 -0.6598
  691TMC3    O110280   2.594   3.888  16.035 -0.0298  0.4056  0.3982
  691TMC3    O210281   2.281   4.078  15.559 -0.3538  0.1773  0.6478
  692TMC3    C110282   4.078   0.498  15.858 -0.3810  0.4484  0.6503
  692TMC3    C210283   4.202   0.522  15.810  0.2742 -0.4648  0.3119
  692TMC3    C310284   4.289   0.417  15.777  0.5826  0.4342 -0.1036
  692TMC3    C410285   4.041   0.370  15.886  0.3583  0.7138 -0.6928
  692TMC3    C510286   4.120   0.269  15.842  0.2146  0.4696  0.5338
  692TMC3    C610287   4.241   0.284  15.786  0.3034  0.3778  0.4861
  692TMC3     C10288   4.000   0.609  15.920 -0.1663 -0.8075  0.0641
  692TMC3     O10289   3.936   0.572  16.020 -0.0064  0.5375  0.0948
  692TMC3     H10290   4.232   0.626  15.804  1.8952 -0.9555 -0.1071
  692TMC3    H110291   3.950   0.338  15.935  0.3931  0.9903 -0.4454
  692TMC3    H210292   4.292   0.206  15.731 -0.6243 -1.6304  2.4825
  692TMC3    C710293   4.057   0.135  15.837 -0.0437 -0.0994  0.5613
  692TMC3    C810294   4.410   0.414  15.852  0.3786 -1.7505  0.4145
  692TMC3    O110295   3.936   0.126  15.842 -0.1974  0.5394 -0.2969
  692TMC3    O210296   4.483   0.319  15.828  0.3203 -0.2456  0.2867
  693MPD2     C10297   3.344   3.217  10.384  0.1301  0.5789  0.3559
  693MPD2    C110298   3.247   3.204  10.487 -0.1165  0.3576 -0.1829
  693MPD2    C210299   3.279   3.124  10.603 -0.0950 -0.0181  0.6528
  693MPD2    C310300   3.403   3.073  10.622 -0.1692  0.5896  0.3223
  693MPD2    C410301   3.494   3.091  10.512 -0.2804  0.1978 -0.0905
  693MPD2    C510302   3.461   3.157  10.403  0.1343  0.0930 -0.0831
  693MPD2     H10303   3.198   3.094  10.669 -0.4390  2.6046  1.4409
  693MPD2    H110304   3.591   3.044  10.514 -0.4761 -0.2557 -1.7509
  693MPD2    H210305   3.331   3.279  10.297  0.0394 -1.0190 -0.7600
  693MPD2    H310306   3.536   3.176  10.326 -0.0719 -3.3972 -1.1492
  693MPD2     N10307   3.444   2.988  10.729 -0.3650 -0.1678  0.0972
  693MPD2    H510308   3.534   2.942  10.724 -0.4832 -0.3682 -0.1604
  693MPD2    N110309   3.120   3.271  10.487 -1.0566 -1.0733  0.4205
  693MPD2    H710310   3.054   3.265  10.564  1.8860  0.2328  3.0571
  694TMC3    C110311   2.971   3.451  10.438  0.8821  0.6185 -0.8000
  694TMC3    C210312   2.854   3.424  10.368 -0.4322  0.6712  0.2344
  694TMC3    C310313   2.743   3.453  10.430 -0.0321  0.6018  0.6855
  694TMC3    C410314   2.976   3.501  10.566  0.2655 -0.0476  0.5475
  694TMC3    C510315   2.858   3.524  10.622 -0.9907 -0.2354 -0.1888
  694TMC3    C610316   2.739   3.501  10.559  0.4298  0.3900 -0.4669
  694TMC3     C10317   3.086   3.376  10.402 -0.1083 -0.4972  0.1522
  694TMC3     O10318   3.132   3.403  10.291  0.4678 -0.0977  0.3455
  694TMC3     H10319   2.849   3.357  10.283 -1.5031  0.5922  0.3640
  694TMC3    H110320   3.073   3.505  10.616  0.3796  0.5463  0.2772
  694TMC3    H210321   2.652   3.500  10.623  0.5425  0.9036 -0.3073
  694TMC3    C710322   2.851   3.538  10.771  0.0860  0.2787 -0.6643
  694TMC3    C810323   2.652   3.359  10.382 -0.5264  0.5882  0.4262
  694TMC3    O110324   2.889   3.643  10.819 -0.0369 -0.4664  0.0941
  694TMC3    O210325   2.626   3.262  10.449  0.1445 -0.6602  0.3283
  695MPD2     C10326   0.075   4.710  13.309  0.2972 -0.3580  0.6204
  695MPD2    C110327   0.042   0.048  13.419 -0.0587 -0.3562  0.5554
  695MPD2    C210328   4.660   0.108  13.427 -0.8914  0.8743  0.0885
  695MPD2    C310329   4.555   0.083  13.337 -0.1651 -0.0257 -0.2367
  695MPD2    C410330   4.590   0.009  13.223  0.2148  0.1775 -0.3790
  695MPD2    C510331   4.715   4.693  13.216 -0.0450  0.1959  0.9235
  695MPD2     H10332   4.637   0.173  13.511  3.0876  2.4859 -0.1013
  695MPD2    H110333   4.515   4.710  13.154  2.5973 -0.6157 -2.5537
  695MPD2    H210334   0.171   4.663  13.286  1.1911  1.4459  0.6721
  695MPD2    H310335   0.003   4.643  13.123 -1.9104  0.6147  0.1651
  695MPD2     N10336   4.431   0.140  13.365 -0.0367 -0.2306  0.3860
  695MPD2    H510337   4.428   0.187  13.455  0.9957  1.1269 -0.2832
  695MPD2    N110338   0.126   0.066  13.529 -0.0676  0.0009 -0.7371
  695MPD2    H710339   0.083   0.118  13.605 -0.2021 -2.3147  0.7622
  696TMC3    C110340   4.209   0.214  13.331 -0.1627 -0.2382 -0.0661
  696TMC3    C210341   4.194   0.224  13.469 -0.2067 -0.6407 -0.6362
  696TMC3    C310342   4.100   0.314  13.508 -0.7426 -0.8708  0.9635
  696TMC3    C410343   4.151   0.295  13.237  0.3840 -0.2983 -0.2406
  696TMC3    C510344   4.052   0.380  13.292 -0.3334  0.8144  0.4214
  696TMC3    C610345   4.029   0.395  13.426 -0.0920 -0.0777  0.2910
  696TMC3     C10346   4.331   0.150  13.270  0.0983  0.7587 -0.2609
  696TMC3     O10347   4.341   0.144  13.147 -0.5492 -0.4626 -0.4670
  696TMC3     H10348   4.232   0.153  13.541 -1.4558  0.1689  0.8304
  696TMC3    H110349   4.194   0.298  13.138  3.2179 -0.1990  1.0009
  696TMC3    H210350   3.944   0.459  13.451  0.9087  1.0846  0.7084
  696TMC3    C710351   4.039   0.500  13.209 -0.1572 -0.3212  0.3610
  696TMC3    C810352   4.107   0.367  13.641  0.9410  0.0058  0.2347
  696TMC3    O110353   4.075   0.478  13.092 -0.0030  0.2896  0.5033
  696TMC3    O210354   4.221   0.356  13.681 -0.2311 -0.2738  0.2197
  697MPD2     C10355   3.533   2.126  15.590  0.6276 -0.7416  0.0334
  697MPD2    C110356   3.631   2.071  15.506  0.1887  0.9732 -0.4900
  697MPD2    C210357   3.704   2.158  15.426 -0.1800 -0.3123  0.4551
  697MPD2    C310358   3.675   2.291  15.420  0.2897 -0.1117 -0.0424
  697MPD2    C410359   3.579   2.336  15.499  0.2999 -0.7190  0.7689
  697MPD2    C510360   3.504   2.258  15.581 -0.6119  0.3424  0.2250
  697MPD2     H10361   3.786   2.124  15.363  1.1616  0.5218  1.7488
  697MPD2    H110362   3.553   2.441  15.501  1.1869 -0.4794 -0.8651
  697MPD2    H210363   3.479   2.069  15.665 -0.6384  0.2766 -0.1052
  697MPD2    H310364   3.426   2.302  15.641 -0.9564 -0.5671  0.4461
  697MPD2     N10365   3.752   2.371  15.327 -0.2890 -0.5305 -0.0306
  697MPD2    H510366   3.826   2.321  15.279 -0.6612 -0.9703 -0.1475
  697MPD2    N110367   3.672   1.935  15.521  0.2444  0.5209  0.7036
  697MPD2    H710368   3.760   1.911  15.477  0.1141  0.4367  0.4877
  698TMC3    C110369   3.840   2.563  15.222  0.5649 -0.6138 -0.0592
  698TMC3    C210370   3.880   2.693  15.232  0.1648 -0.4937  0.7075
  698TMC3    C310371   3.955   2.742  15.136  0.3876 -0.2610  0.1236
  698TMC3    C410372   3.858   2.493  15.106 -0.2687 -0.0723  0.2319
  698TMC3    C510373   3.938   2.546  15.006  0.0436  0.4448 -0.3358
  698TMC3    C610374   3.984   2.670  15.024 -0.0736 -0.3985  0.0955
  698TMC3     C10375   3.755   2.508  15.324 -0.6397  1.0437 -0.1701
  698TMC3     O10376   3.712   2.581  15.410  0.3711  0.5724  0.5148
  698TMC3     H10377   3.868   2.749  15.324 -0.5481  0.1781  0.2003
  698TMC3    H110378   3.807   2.400  15.085 -2.4860  1.1896  0.0709
  698TMC3    H210379   4.012   2.723  14.933 -3.8568 -1.1910 -1.5627
  698TMC3    C710380   3.916   2.487  14.875  0.0365 -0.4141  0.2420
  698TMC3    C810381   4.000   2.882  15.146  0.3509  0.6596 -0.4256
  698TMC3    O110382   3.812   2.425  14.857  0.6259  0.5197 -0.3126
  698TMC3    O210383   3.937   2.951  15.231  0.5502  0.4844  0.0849
  699TMC3    C110384   3.639   0.486  12.987 -0.1776  0.1429 -0.0256
  699TMC3    C210385   3.708   0.375  13.030  0.2405  0.5449 -0.6852
  699TMC3    C310386   3.633   0.282  13.093  0.4978 -0.0597  0.3703
  699TMC3    C410387   3.508   0.509  13.007 -0.0097 -0.3579  0.7019
  699TMC3    C510388   3.438   0.407  13.049 -0.0779 -0.1361 -0.3400
  699TMC3    C610389   3.494   0.293  13.101  0.1489 -0.0114  0.1114
  699TMC3     C10390   3.715   0.592  12.931  0.8365 -0.2534 -0.1538
  699TMC3     O10391   3.655   0.696  12.912 -0.4910 -0.1316  0.0458
  699TMC3     H10392   3.816   0.370  13.028  0.3799  3.4546 -0.8791
  699TMC3    H110393   3.461   0.598  12.967 -0.1311  0.1439  1.9597
  699TMC3    H210394   3.430   0.214  13.138 -1.7631  0.9214 -1.2238
  699TMC3    C710395   3.297   0.432  13.052  0.0993  0.1661  0.2817
  699TMC3    C810396   3.684   0.181  13.181  0.5020  0.0370  0.4300
  699TMC3    O110397   3.260   0.549  13.035 -0.1311 -0.1705  0.1096
  699TMC3    O210398   3.622   0.172  13.285  0.1193 -0.4425  0.0250
  700TMC3    C110399   2.678   2.384  17.200  0.1718  0.8802  0.4389
  700TMC3    C210400   2.764   2.300  17.137  0.7326 -0.5218 -0.2812
  700TMC3    C310401   2.869   2.248  17.208  0.0962 -0.1864 -0.0042
  700TMC3    C410402   2.689   2.410  17.335 -0.5265  0.2471  0.1392
  700TMC3    C510403   2.804   2.375  17.403 -0.3700 -0.6726  0.4641
  700TMC3    C610404   2.890   2.289  17.339 -0.5474 -0.2734  0.6489
  700TMC3     C10405   2.625   2.492  17.115  0.3044 -0.0451 -0.1537
  700TMC3     O10406   2.503   2.516  17.114 -0.1712  0.4291  0.5432
  700TMC3     H10407   2.770   2.286  17.029 -1.3192  1.1287 -0.6045
  700TMC3    H110408   2.620   2.486  17.368 -1.5843 -0.3229 -0.7785
  700TMC3    H210409   2.986   2.255  17.377 -1.0752 -1.0572  1.2678
  700TMC3    C710410   2.853   2.444  17.516 -0.8346  0.2516 -0.8047
  700TMC3    C810411   2.978   2.175  17.148  0.3312  0.2425 -0.8709
  700TMC3    O110412   2.974   2.461  17.512 -0.0874 -0.4175  0.4152
  700TMC3    O210413   3.093   2.183  17.193  0.5759 -0.4804 -0.1648
  701TMC3    C110414   3.300   1.221  15.395  0.2934 -0.2196 -0.5973
  701TMC3    C210415   3.340   1.218  15.265  0.7414 -0.2191  0.8313
  701TMC3    C310416   3.397   1.335  15.217  0.1881  0.0648  0.1539
  701TMC3    C410417   3.305   1.326  15.480  0.5379  0.0940  0.2410
  701TMC3    C510418   3.372   1.436  15.433  0.0764 -0.4722  0.4514
  701TMC3    C610419   3.423   1.441  15.303  0.7144  0.1863  0.4741
  701TMC3     C10420   3.229   1.108  15.446 -0.1849  0.1166  0.1676
  701TMC3     O10421   3.140   1.122  15.529 -0.1398  0.6123 -0.0609
  701TMC3     H10422   3.309   1.145  15.191  2.3312  0.2077 -0.2383
  701TMC3    H110423   3.248   1.323  15.572 -1.2425 -0.0259 -0.8611
  701TMC3    H210424   3.468   1.530  15.259 -2.2439  0.4294 -2.0489
  701TMC3    C710425   3.330   1.569  15.479  0.2966 -0.0680  0.3046
  701TMC3    C810426   3.358   1.380  15.086 -0.2079  0.1877  0.6904
  701TMC3    O110427   3.317   1.661  15.394  0.1367  0.4523  0.1030
  701TMC3    O210428   3.415   1.474  15.035  0.6676  0.1466 -0.9040
  702MPD2     C10429   2.589   3.998  10.464 -0.2467  0.0705 -0.5171
  702MPD2    C110430   2.526   4.092  10.536  0.6019 -0.1946 -0.8480
  702MPD2    C210431   2.563   4.219  10.524 -0.1907 -0.3882  0.2845
  702MPD2    C310432   2.664   4.258  10.438  0.6116 -0.8163 -0.3665
  702MPD2    C410433   2.729   4.156  10.357 -0.4784 -0.5443 -0.1517
  702MPD2    C510434   2.693   4.025  10.378  0.1878  0.0670  0.4179
  702MPD2     H10435   2.502   4.282  10.587 -0.2540 -1.9616  1.7664
  702MPD2    H110436   2.806   4.178  10.284 -0.5875  1.1797  0.2523
  702MPD2    H210437   2.572   3.893  10.484 -3.0136  0.4733 -0.7547
  702MPD2    H310438   2.736   3.947  10.316  1.1398  0.8359  0.1131
  702MPD2     N10439   2.693   4.392  10.408  0.1717  0.2941  0.3869
  702MPD2    H510440   2.772   4.413  10.347 -1.7250  1.0483 -1.8214
  702MPD2    N110441   2.426   4.065  10.634  0.5401 -0.1432 -0.0786
  702MPD2    H710442   2.380   4.140  10.685 -1.6412 -1.2234 -0.4276
  703TMC3    C110443   2.675   4.628  10.421  0.2670  0.5229 -0.3579
  703TMC3    C210444   2.607   0.005  10.413  0.2955  0.4605  0.0288
  703TMC3    C310445   2.669   0.120  10.379  0.4577 -0.0314  0.0917
  703TMC3    C410446   2.811   4.618  10.408 -0.1004  0.3184  0.2428
  703TMC3    C510447   2.872   4.734  10.370  0.7973 -0.2408 -0.5353
  703TMC3    C610448   2.804   0.114  10.356 -0.2211  0.0535 -0.1240
  703TMC3     C10449   2.615   4.503  10.449 -0.4657  0.4340  0.5048
  703TMC3     O10450   2.493   4.507  10.484 -0.1166 -0.5147  0.2776
  703TMC3     H10451   2.498   0.004  10.413  0.2929  1.1525 -1.0305
  703TMC3    H110452   2.877   4.538  10.440 -1.8595 -1.2568 -0.0390
  703TMC3    H210453   2.863   0.202  10.333  3.0424 -2.5145 -1.6288
  703TMC3    C710454   3.017   0.015  10.366 -0.0493  0.0580  0.4188
  703TMC3    C810455   2.614   0.253  10.410 -0.8182  0.4702 -0.2750
  703TMC3    O110456   3.059   0.103  10.440 -0.1368 -0.1306 -0.0374
  703TMC3    O210457   2.659   0.356  10.360 -0.5708  0.2987  0.4853
  704TMC3    C110458   0.350   2.108  12.714 -0.2918 -0.6389  0.6578
  704TMC3    C210459   0.459   2.142  12.642 -0.3561 -0.3307 -0.1536
  704TMC3    C310460   0.581   2.088  12.685 -0.2800 -0.3037 -0.6665
  704TMC3    C410461   0.351   2.016  12.812  0.1443 -0.3359  0.7669
  704TMC3    C510462   0.474   1.953  12.837  0.8894  0.1188  0.0508
  704TMC3    C610463   0.592   1.989  12.774  0.3492  0.1739  0.0124
  704TMC3     C10464   0.213   2.136  12.662 -0.1458 -0.2114  0.6713
  704TMC3     O10465   0.128   2.145  12.754 -0.2041  0.1942  0.3108
  704TMC3     H10466   0.455   2.212  12.559  0.9921  0.5803  0.5508
  704TMC3    H110467   0.259   1.976  12.853  0.5270 -0.2597  1.7069
  704TMC3    H210468   0.684   1.935  12.791 -0.3875 -1.1962 -0.3832
  704TMC3    C710469   0.470   1.807  12.834 -0.4410 -0.5726  0.1914
  704TMC3    C810470   0.667   2.071  12.568  0.1072 -0.2324  0.6672
  704TMC3    O110471   0.555   1.741  12.769 -0.3284 -0.0232 -0.3053
  704TMC3    O210472   0.619   2.051  12.457 -0.3266  0.2071  0.1936
  705MPD2     C10473   0.270   4.698  16.436  0.6721  0.1330 -0.2028
  705MPD2    C110474   0.204   0.059  16.368  0.3156  0.2959 -0.4130
  705MPD2    C210475   0.084   0.115  16.412  0.4914  0.3426  0.0845
  705MPD2    C310476   0.032   0.071  16.535 -0.6777 -1.0818 -0.8479
  705MPD2    C410477   0.092   4.713  16.609 -1.2428  0.0470 -0.2631
  705MPD2    C510478   0.204   4.652  16.548 -0.4184 -0.6096 -0.2409
  705MPD2     H10479   0.031   0.169  16.335 -0.3886  0.5471  0.8281
  705MPD2    H110480   0.047   4.671  16.698 -0.0678 -1.1932 -0.2584
  705MPD2    H210481   0.359   4.652  16.393  1.9206 -0.9980  3.5725
  705MPD2    H310482   0.256   4.574  16.602 -0.8186 -0.4034  0.4338
  705MPD2     N10483   4.643   0.106  16.570  0.5108 -0.6452  0.2627
  705MPD2    H510484   4.585   0.057  16.638 -1.2988 -0.6157 -1.2610
  705MPD2    N110485   0.257   0.115  16.250 -0.2995 -0.3563 -0.2216
  705MPD2    H710486   0.197   0.180  16.200 -0.3025 -1.5181 -1.7226
  706TMC3    C110487   0.429   0.096  15.812  0.1552  0.1988 -1.0598
  706TMC3    C210488   0.347   0.202  15.781 -0.1051  1.1845  0.5566
  706TMC3    C310489   0.293   0.278  15.885 -0.2890 -0.2603 -0.1271
  706TMC3    C410490   0.441   0.057  15.942 -0.0300  0.0343  0.5443
  706TMC3    C510491   0.376   0.127  16.044  0.4193 -0.0043  0.5325
  706TMC3    C610492   0.304   0.241  16.014  0.6908 -0.4113  0.2823
  706TMC3     C10493   0.493   0.027  15.711 -0.0887  0.7787 -0.3068
  706TMC3     O10494   0.606   0.000  15.741 -0.2491 -0.1473  0.7294
  706TMC3     H10495   0.354   0.237  15.679 -1.5555 -0.1774 -0.0020
  706TMC3    H110496   0.510   4.714  15.966  0.4626 -0.0879 -1.2493
  706TMC3    H210497   0.240   0.291  16.086 -0.8761 -2.1335  0.0986
  706TMC3    C710498   0.358   0.063  16.175  0.4234 -0.2877 -0.2286
  706TMC3    C810499   0.221   0.401  15.848  0.0011  0.0992 -0.2132
  706TMC3    O110500   0.436   4.709  16.195  0.4627  0.4544  0.1500
  706TMC3    O210501   0.197   0.418  15.726  0.1658  0.0839 -0.5503
  707TMC3    C110502   1.784   3.861   1.606 -0.0241 -0.0752  0.1482
  707TMC3    C210503   1.914   3.851   1.636  0.6481  0.3748 -0.1411
  707TMC3    C310504   1.937   3.895   1.762  0.3229  0.3372  0.0665
  707TMC3    C410505   1.688   3.928   1.682  0.2099 -0.6646 -0.4828
  707TMC3    C510506   1.725   3.966   1.802 -0.1331  0.3676 -0.0348
  707TMC3    C610507   1.844   3.947   1.848  0.6601  0.6194  0.2558
  707TMC3     C10508   1.747   3.856   1.470  0.2514  0.1585 -0.0737
  707TMC3     O10509   1.836   3.879   1.388  0.3399  0.1743  0.0311
  707TMC3     H10510   1.993   3.805   1.577  0.0597  1.5912 -1.8634
  707TMC3    H110511   1.594   3.947   1.631  0.4636  1.7689 -0.0606
  707TMC3    H210512   1.874   3.972   1.949  0.3025 -0.4947  0.6412
  707TMC3    C710513   1.631   4.021   1.888 -0.4138 -0.1972 -0.0617
  707TMC3    C810514   2.055   3.847   1.828  0.0870 -0.2909  0.0441
  707TMC3    O110515   1.666   4.107   1.970 -0.4169 -0.8923 -0.1503
  707TMC3    O210516   2.116   3.929   1.887 -0.3099 -0.0327  0.3675
  708MPD2     C10517   2.689   3.087  14.142 -0.0158  0.0916  0.0519
  708MPD2    C110518   2.580   3.135  14.213 -0.3274  0.2579  0.8264
  708MPD2    C210519   2.589   3.175  14.341  0.7611  0.1054 -0.3267
  708MPD2    C310520   2.716   3.181  14.398 -0.7587  0.2492  0.4682
  708MPD2    C410521   2.827   3.128  14.327  0.3323 -0.0743  0.2631
  708MPD2    C510522   2.815   3.087  14.201  0.1104  0.0337  0.2830
  708MPD2     H10523   2.502   3.206  14.397  0.4129  1.4917 -1.6389
  708MPD2    H110524   2.927   3.144  14.366  0.3245 -0.8028  0.5967
  708MPD2    H210525   2.688   3.077  14.034  1.3627  0.6772 -0.0157
  708MPD2    H310526   2.903   3.053  14.148 -0.0335  0.1893 -0.0579
  708MPD2     N10527   2.736   3.247  14.520  0.7536  0.4664  0.0586
  708MPD2    H510528   2.830   3.266  14.553  0.4769 -0.8710  1.6281
  708MPD2    N110529   2.458   3.156  14.143 -0.2296 -0.0960 -0.3376
  708MPD2    H710530   2.450   3.098  14.060 -0.6036  0.5208 -0.7308
  709TMC3    C110531   2.381   3.367  14.230  0.1277 -0.3290  0.4870
  709TMC3    C210532   2.480   3.444  14.161  0.3491 -0.6193 -0.1327
  709TMC3    C310533   2.512   3.565  14.211 -0.4344 -0.1043  0.0412
  709TMC3    C410534   2.319   3.407  14.345 -0.2809  0.5765 -0.2939
  709TMC3    C510535   2.362   3.533  14.389  0.1222 -0.0891  0.5050
  709TMC3    C610536   2.460   3.609  14.327  0.6192  0.2764  0.1969
  709TMC3     C10537   2.353   3.231  14.193 -0.3783 -0.0038 -0.9877
  709TMC3     O10538   2.234   3.203  14.195 -0.1070  0.7102  0.2620
  709TMC3     H10539   2.532   3.400  14.077  0.6436 -0.2575 -0.1428
  709TMC3    H110540   2.234   3.357  14.391  0.9613  0.5863  1.9991
  709TMC3    H210541   2.490   3.702  14.375  2.5340  0.3098 -1.0648
  709TMC3    C710542   2.347   3.563  14.532 -0.6279  0.8466  0.0740
  709TMC3    C810543   2.606   3.655  14.150  1.2647  0.2921 -0.6095
  709TMC3    O110544   2.427   3.638  14.586 -0.2030 -0.2637  0.0182
  709TMC3    O210545   2.670   3.728  14.229 -0.3510  0.0534  0.4703
  710TMC3    C110546   3.682   4.718  17.557 -0.3765 -0.3666  0.9583
  710TMC3    C210547   3.703   4.651  17.437 -0.1652 -0.6865  0.2283
  710TMC3    C310548   3.758   4.525  17.431 -1.1155 -0.0433 -0.4833
  710TMC3    C410549   3.732   4.659  17.667 -0.0256  0.4460 -0.0876
  710TMC3    C510550   3.776   4.528  17.654 -0.3569  0.2069 -0.3981
  710TMC3    C610551   3.777   4.455  17.541 -0.5128 -0.2744 -0.3279
  710TMC3     C10552   3.627   0.114  17.551  0.3132 -0.3130 -0.2352
  710TMC3     O10553   3.580   0.145  17.445 -0.1730  0.3946  0.0746
  710TMC3     H10554   3.682   4.693  17.340  2.2277  1.3138  0.5832
  710TMC3    H110555   3.706   4.697   0.016 -2.8287 -0.6625 -0.4102
  710TMC3    H210556   3.834   4.363  17.529  1.3772  0.9353 -0.7038
  710TMC3    C710557   3.858   4.467   0.010 -0.1541  0.2084 -0.1177
  710TMC3    C810558   3.817   4.485  17.305 -0.4296 -0.1213 -0.3971
  710TMC3    O110559   3.846   4.345   0.017 -0.9697  0.6088  0.1325
  710TMC3    O210560   3.858   4.573  17.231  0.7457  0.7937 -0.0229
  711TMC3    C110561   3.640   1.090  14.822  0.2093 -0.3700 -0.3285
  711TMC3    C210562   3.557   1.069  14.926  0.4066 -0.5457  0.1941
  711TMC3    C310563   3.601   1.127  15.039 -0.5001 -0.2911  0.2114
  711TMC3    C410564   3.747   1.175  14.821  0.0123 -0.4579 -0.0879
  711TMC3    C510565   3.780   1.238  14.934  0.3601 -0.3502  0.6159
  711TMC3    C610566   3.698   1.216  15.037 -0.3796  0.6129 -0.2788
  711TMC3     C10567   3.631   1.007  14.711 -0.0381  0.0090 -0.1157
  711TMC3     O10568   3.518   0.982  14.683 -0.5240 -0.1112 -0.5190
  711TMC3     H10569   3.483   0.990  14.916 -0.7350  0.7807 -1.8793
  711TMC3    H110570   3.791   1.199  14.725 -1.7307 -1.6975 -1.1928
  711TMC3    H210571   3.729   1.269  15.127 -0.8358  0.7388 -0.1936
  711TMC3    C710572   3.914   1.238  14.971 -0.1246 -0.3185 -0.6231
  711TMC3    C810573   3.597   1.045  15.159  0.8663  0.9725 -0.1703
  711TMC3    O110574   3.941   1.188  15.079 -0.2480  0.7855  0.3361
  711TMC3    O210575   3.501   0.973  15.171 -0.0793 -0.0453  0.0578
  712MPD2     C10576   0.234   1.952  13.952 -0.1801  0.9029  0.2118
  712MPD2    C110577   0.139   2.020  13.875  0.4168  0.1388  0.4693
  712MPD2    C210578   0.150   2.157  13.865  0.3685 -0.1728  0.3691
  712MPD2    C310579   0.253   2.228  13.920  0.1058 -0.1384  0.6369
  712MPD2    C410580   0.353   2.155  13.973  0.0615 -0.1759 -0.1655
  712MPD2    C510581   0.340   2.024  14.006  0.5867  1.0098  0.6235
  712MPD2     H10582   0.067   2.208  13.816  0.0599  0.8216  1.9156
  712MPD2    H110583   0.443   2.202  14.010  0.6214 -1.9490  0.7416
  712MPD2    H210584   0.246   1.845  13.965  1.3398  1.1689  1.0473
  712MPD2    H310585   0.418   1.975  14.063 -0.4909 -0.4869  0.8037
  712MPD2     N10586   0.264   2.369  13.910  0.4735  0.0209 -0.1311
  712MPD2    H510587   0.354   2.401  13.944  0.9967 -2.8195  1.1247
  712MPD2    N110588   0.037   1.950  13.814 -0.0175  0.6300 -0.0361
  712MPD2    H710589   4.717   1.997  13.745 -0.5788  0.8279  0.5692
  713TMC3    C110590   0.210   2.600  13.860 -0.5730  0.2590  0.0456
  713TMC3    C210591   0.341   2.636  13.846 -0.0117  0.1884  0.6473
  713TMC3    C310592   0.362   2.754  13.783 -0.6215  0.4060 -0.4658
  713TMC3    C410593   0.111   2.682  13.836  0.1250  0.1799 -0.5321
  713TMC3    C510594   0.131   2.801  13.775 -0.0911 -0.0312  0.5762
  713TMC3    C610595   0.262   2.835  13.736  0.5308  0.0079  0.3253
  713TMC3     C10596   0.168   2.457  13.863  0.1249  0.3160 -0.3587
  713TMC3     O10597   0.058   2.433  13.815  0.6309  0.3862  0.4849
  713TMC3     H10598   0.422   2.565  13.863 -0.4597 -0.9497 -2.0304
  713TMC3    H110599   0.010   2.645  13.832 -0.3556  1.2509  1.4807
  713TMC3    H210600   0.282   2.934  13.698 -0.9716  0.7459  1.4748
  713TMC3    C710601   0.020   2.887  13.745 -0.7017 -0.6836 -0.2528
  713TMC3    C810602   0.505   2.781  13.747 -0.6224 -0.9375  0.7716
  713TMC3    O110603   4.657   2.864  13.810 -0.2344  0.1309  0.0506
  713TMC3    O210604   0.524   2.846  13.645 -0.3011 -0.5518 -0.1292
  714MPD2     C10605   2.613   0.534   0.982  0.5634  0.5781  0.5844
  714MPD2    C110606   2.562   0.405   1.021  0.2905  0.0309 -0.1206
  714MPD2    C210607   2.444   0.363   0.958 -0.6597 -0.3426  0.2038
  714MPD2    C310608   2.375   0.443   0.866  0.2505 -0.0153  0.4588
  714MPD2    C410609   2.429   0.561   0.826 -0.0504 -0.1483 -1.3668
  714MPD2    C510610   2.550   0.604   0.883 -0.1721  0.5128  0.5399
  714MPD2     H10611   2.413   0.262   0.979 -2.4487  0.1126 -0.2263
  714MPD2    H110612   2.387   0.625   0.749  1.0995  0.4015 -1.5399
  714MPD2    H210613   2.700   0.582   1.023  0.4877  0.3644  0.9956
  714MPD2    H310614   2.594   0.695   0.845 -0.1074  0.1943 -0.1593
  714MPD2     N10615   2.251   0.398   0.814 -0.2177 -0.2180 -0.1051
  714MPD2    H510616   2.222   0.314   0.862 -0.2304 -1.3263 -2.0383
  714MPD2    N110617   2.629   0.320   1.117  0.3323  0.1571 -0.3574
  714MPD2    H710618   2.584   0.235   1.150 -2.2062  1.2522 -1.0154
  715TMC3    C110619   2.783   0.257   1.296 -0.7391  0.4641  0.0272
  715TMC3    C210620   2.804   0.124   1.263  0.2900 -0.1102 -0.0878
  715TMC3    C310621   2.896   0.053   1.333  0.4622 -0.4746 -0.5970
  715TMC3    C410622   2.863   0.315   1.389  0.7593 -0.1022  0.5795
  715TMC3    C510623   2.954   0.243   1.460  0.4901 -0.8620  0.0080
  715TMC3    C610624   2.973   0.109   1.432 -0.1025  0.2077  0.4071
  715TMC3     C10625   2.741   0.350   1.189 -0.5990  0.5413 -0.4139
  715TMC3     O10626   2.797   0.457   1.184 -0.1765 -0.1735  0.0504
  715TMC3     H10627   2.783   0.093   1.162 -0.2881 -1.4377  0.4408
  715TMC3    H110628   2.845   0.421   1.401  1.1256 -0.0356  0.5465
  715TMC3    H210629   3.058   0.061   1.478  0.6867 -0.2536 -1.5063
  715TMC3    C710630   3.080   0.312   1.501  0.1553  0.2188  0.6255
  715TMC3    C810631   2.951   4.680   1.266 -0.2778 -0.9514  0.5863
  715TMC3    O110632   3.182   0.242   1.506  0.2857 -0.6516  0.0825
  715TMC3    O210633   2.910   4.657   1.152  0.2873 -0.0348 -0.1218
  716MPD2     C10634   1.635   3.764   9.214  0.1549  0.3520 -0.2619
  716MPD2    C110635   1.644   3.697   9.333 -0.0352 -1.2422 -0.1199
  716MPD2    C210636   1.764   3.668   9.390  0.1318  0.3505 -0.2891
  716MPD2    C310637   1.885   3.688   9.320  0.0928  0.6056 -0.1586
  716MPD2    C410638   1.869   3.756   9.201  0.4661  0.3956 -0.5218
  716MPD2    C510639   1.750   3.789   9.141 -0.8119 -0.3890 -0.6170
  716MPD2     H10640   1.770   3.624   9.489  1.8488 -1.2436 -1.0963
  716MPD2    H110641   1.961   3.770   9.145  2.0941  0.3406  2.1729
  716MPD2    H210642   1.537   3.793   9.178 -0.6571  0.8177  2.3506
  716MPD2    H310643   1.741   3.849   9.052 -2.8070 -0.4480 -0.4432
  716MPD2     N10644   2.005   3.647   9.380  0.8450 -0.3103 -0.2001
  716MPD2    H510645   2.000   3.597   9.468  1.2367  1.3594  0.7790
  716MPD2    N110646   1.526   3.673   9.403 -0.5498  0.6503  0.2374
  716MPD2    H710647   1.441   3.712   9.365  0.5366 -0.7319 -3.5768
  717TMC3    C110648   2.242   3.650   9.409 -0.2091  0.6815  0.0598
  717TMC3    C210649   2.252   3.514   9.439  0.6547  0.1094 -0.5404
  717TMC3    C310650   2.350   3.478   9.520 -0.0015  0.6153  0.4850
  717TMC3    C410651   2.338   3.739   9.434  0.1824  0.2411  0.2638
  717TMC3    C510652   2.445   3.692   9.517 -0.2888  0.1894  0.1130
  717TMC3    C610653   2.459   3.563   9.549  0.6522 -0.3784  0.1674
  717TMC3     C10654   2.128   3.695   9.339  0.2758 -0.4711  0.5135
  717TMC3     O10655   2.151   3.791   9.268  0.1937  0.1965  0.2475
  717TMC3     H10656   2.164   3.452   9.421  0.3201  0.6428 -0.7401
  717TMC3    H110657   2.321   3.844   9.414 -1.8180  0.2853  2.1653
  717TMC3    H210658   2.541   3.534   9.613  0.9549 -0.2056 -0.1436
  717TMC3    C710659   2.543   3.790   9.571  0.0549 -0.6053  0.4973
  717TMC3    C810660   2.367   3.335   9.525 -0.0369 -0.0886  0.0433
  717TMC3    O110661   2.648   3.752   9.625 -0.5195  0.3413  0.4986
  717TMC3    O210662   2.291   3.270   9.457 -0.0485  0.2617 -0.4618
  718MPD2     C10663   1.277   3.121  12.932 -0.3141  0.6242  0.6009
  718MPD2    C110664   1.319   2.994  12.889  0.2090 -0.2667 -0.2709
  718MPD2    C210665   1.330   2.886  12.982  0.5356  0.1135  0.2796
  718MPD2    C310666   1.306   2.914  13.114 -0.0392 -0.1794 -0.1595
  718MPD2    C410667   1.267   3.037  13.158  0.8234  0.1253 -0.0161
  718MPD2    C510668   1.249   3.138  13.067  0.2020  0.7597  0.0728
  718MPD2     H10669   1.360   2.786  12.953  0.3336 -0.3951  1.8226
  718MPD2    H110670   1.245   3.062  13.261 -0.9767 -0.1247 -0.3419
  718MPD2    H210671   1.265   3.208  12.869  0.6037  0.8553  0.7364
  718MPD2    H310672   1.226   3.237  13.103 -1.6462  0.3947 -0.0979
  718MPD2     N10673   1.332   2.808  13.208 -0.3307  0.0235 -0.3184
  718MPD2    H510674   1.391   2.731  13.178  0.4206  0.8452 -0.9499
  718MPD2    N110675   1.338   2.960  12.757 -0.2571  0.6578 -0.0718
  718MPD2    H710676   1.367   2.865  12.740  0.2741  0.5974  1.2477
  719TMC3    C110677   1.450   2.970  12.558  0.1112 -1.0324  0.2718
  719TMC3    C210678   1.422   2.834  12.564  0.1619 -0.8124 -0.2087
  719TMC3    C310679   1.532   2.752  12.551  0.0171 -0.4124  0.1784
  719TMC3    C410680   1.572   3.013  12.525 -0.1416  0.4757 -0.1566
  719TMC3    C510681   1.666   2.928  12.476  0.3310 -0.4384  0.2084
  719TMC3    C610682   1.654   2.796  12.504 -0.5606 -0.5350  0.6238
  719TMC3     C10683   1.385   3.046  12.657  0.4220  0.6644 -0.0954
  719TMC3     O10684   1.397   3.166  12.657 -0.4394  0.3256 -0.7566
  719TMC3     H10685   1.320   2.797  12.577 -0.5163  0.9394 -0.5735
  719TMC3    H110686   1.581   3.121  12.536  0.3629  0.3998  0.1782
  719TMC3    H210687   1.738   2.727  12.508 -0.9384 -1.2509 -3.2787
  719TMC3    C710688   1.786   2.970  12.410 -0.2178  0.3785  0.4957
  719TMC3    C810689   1.528   2.666  12.665 -0.3118 -0.2921  0.1079
  719TMC3    O110690   1.849   2.879  12.360 -0.3549 -0.0535 -0.2112
  719TMC3    O210691   1.436   2.692  12.739 -0.2345 -0.0087  0.1393
  720MPD2     C10692   0.299   3.768  14.134 -0.0704 -0.4614 -0.3145
  720MPD2    C110693   0.385   3.846  14.062  0.0805 -0.7727  0.1363
  720MPD2    C210694   0.511   3.871  14.105 -0.6477 -0.3210  0.1262
  720MPD2    C310695   0.545   3.831  14.227 -0.0418  0.0358  1.1487
  720MPD2    C410696   0.461   3.750  14.301  0.1051  0.6616  0.0831
  720MPD2    C510697   0.335   3.722  14.255 -0.3052 -0.6601 -0.3140
  720MPD2     H10698   0.571   3.936  14.042  0.6843 -0.8509  0.8661
  720MPD2    H110699   0.492   3.714  14.398 -1.4819  1.5335  0.9200
  720MPD2    H210700   0.193   3.761  14.109  0.4300 -1.1610 -2.2199
  720MPD2    H310701   0.265   3.670  14.319  0.5304  1.1857  2.0828
  720MPD2     N10702   0.674   3.872  14.275 -0.5037 -0.3762 -0.1201
  720MPD2    H510703   0.734   3.916  14.206  0.1673 -0.3151  0.5110
  720MPD2    N110704   0.352   3.889  13.932  0.5773  0.3659 -0.3622
  720MPD2    H710705   0.413   3.961  13.895 -0.5715  1.1736 -0.6818
  721TMC3    C110706   0.871   3.903  14.419 -0.2794 -0.7030 -0.4627
  721TMC3    C210707   0.901   3.954  14.546 -0.1504 -0.0806  0.0604
  721TMC3    C310708   1.020   4.013  14.562  0.2907 -0.1217 -0.5418
  721TMC3    C410709   0.959   3.922  14.315  0.1871  0.1476 -0.1825
  721TMC3    C510710   1.084   3.975  14.335  0.7690 -0.2919  0.2109
  721TMC3    C610711   1.117   4.015  14.462  0.2162 -0.1539 -0.0501
  721TMC3     C10712   0.732   3.860  14.401  0.4803  0.8432  1.1831
  721TMC3     O10713   0.661   3.826  14.496  0.5176 -0.1157 -0.4609
  721TMC3     H10714   0.826   3.934  14.621  0.9321 -1.4433  0.7790
  721TMC3    H110715   0.933   3.894  14.213  2.8581  0.0962 -0.8523
  721TMC3    H210716   1.217   4.053  14.484 -0.1421  1.0405 -0.5124
  721TMC3    C710717   1.180   4.009  14.229 -0.1309  0.0274 -0.0472
  721TMC3    C810718   1.063   4.050  14.699 -0.7131 -0.3304 -0.8664
  721TMC3    O110719   1.291   4.044  14.266 -0.1662 -0.4203  0.3734
  721TMC3    O210720   1.175   4.098  14.706  0.2789 -0.1091 -0.3400
  722MPD2     C10721   4.287   2.598  13.127 -0.2072  0.1448  0.3644
  722MPD2    C110722   4.235   2.701  13.056 -0.7028  0.2566 -0.5240
  722MPD2    C210723   4.107   2.727  13.061  0.9243  0.2317 -0.5600
  722MPD2    C310724   4.025   2.654  13.141 -0.6595 -0.2028  0.1571
  722MPD2    C410725   4.065   2.547  13.211 -1.0905 -0.5194  0.1124
  722MPD2    C510726   4.199   2.517  13.191 -0.2156  0.0545 -0.3330
  722MPD2     H10727   4.067   2.816  13.013  1.1666  0.4059 -0.4316
  722MPD2    H110728   4.012   2.484  13.280 -1.2569 -1.2618 -0.6975
  722MPD2    H210729   4.393   2.581  13.137 -0.8290 -3.0981  1.3439
  722MPD2    H310730   4.241   2.437  13.250  1.2762  1.2532  0.2423
  722MPD2     N10731   3.894   2.706  13.145  0.1505  0.0914  0.3512
  722MPD2    H510732   3.871   2.790  13.093 -0.0376 -0.7509 -0.9372
  722MPD2    N110733   4.311   2.789  12.973 -0.4807 -0.9746  0.0062
  722MPD2    H710734   4.262   2.843  12.903  1.2826  1.5890  0.7777
  723TMC3    C110735   3.667   2.705  13.177 -0.0696 -0.0393 -0.1407
  723TMC3    C210736   3.550   2.632  13.184  0.4786  0.2577  0.4245
  723TMC3    C310737   3.433   2.700  13.169 -0.3424 -0.7292  0.2238
  723TMC3    C410738   3.671   2.839  13.164 -0.4242 -0.1836 -0.0376
  723TMC3    C510739   3.545   2.904  13.170  0.3229  0.7121  0.3737
  723TMC3    C610740   3.424   2.841  13.170  0.0692 -0.4843  0.6305
  723TMC3     C10741   3.791   2.635  13.199  0.0441  0.2330 -1.1829
  723TMC3     O10742   3.785   2.522  13.248  0.4996  0.6819  0.7298
  723TMC3     H10743   3.558   2.525  13.199  0.0710  0.4802  2.2409
  723TMC3    H110744   3.759   2.903  13.167 -0.3613 -0.1497 -2.6204
  723TMC3    H210745   3.328   2.890  13.152  0.7050  0.7055  0.4498
  723TMC3    C710746   3.544   3.046  13.165  0.8591 -0.5071  0.5682
  723TMC3    C810747   3.311   2.621  13.158 -0.3364  0.2435  0.0634
  723TMC3    O110748   3.643   3.094  13.218  0.4959  0.0332  0.0858
  723TMC3    O210749   3.210   2.685  13.182 -0.4323 -0.1875  0.0474
  724TMC3    C110750   4.065   4.719  10.400  0.0389 -0.2874 -0.4993
  724TMC3    C210751   3.977   4.717  10.294  0.5881  0.4066  0.6447
  724TMC3    C310752   4.002   0.070  10.194 -0.4420 -0.1235  0.5995
  724TMC3    C410753   4.173   0.068  10.405 -0.4662  0.4000  0.0229
  724TMC3    C510754   4.187   0.159  10.306 -0.8031  0.5878  0.9133
  724TMC3    C610755   4.100   0.163  10.198  0.1215  0.3852  0.5391
  724TMC3     C10756   4.091   4.593  10.479 -0.1686  0.5209  0.2016
  724TMC3     O10757   4.209   4.571  10.496  0.3242 -1.0401 -0.0783
  724TMC3     H10758   3.886   4.658  10.284  1.1047 -0.8203  3.0840
  724TMC3    H110759   4.230   0.071  10.497 -0.8315 -2.1979  0.3293
  724TMC3    H210760   4.127   0.228  10.117 -1.0050  0.2976  0.0904
  724TMC3    C710761   4.277   0.271  10.320  0.0517  1.1280 -0.7652
  724TMC3    C810762   3.928   0.050  10.074  0.6599 -0.0622  0.5959
  724TMC3    O110763   4.309   0.325  10.213  0.1766  0.4100  0.3929
  724TMC3    O210764   3.835   4.710  10.074 -0.1007  0.7664 -0.5554
  725TMC3    C110765   1.146   4.114  12.684 -0.5680 -0.2885 -0.1842
  725TMC3    C210766   1.031   4.144  12.611  0.3173  0.2360  0.1470
  725TMC3    C310767   1.007   4.071  12.502  0.2284 -0.0641  0.4264
  725TMC3    C410768   1.241   4.022  12.641  0.3061  0.0981  0.0642
  725TMC3    C510769   1.199   3.947  12.534  0.0027  0.0375 -0.2156
  725TMC3    C610770   1.084   3.965  12.465  1.1482  0.0877 -1.1869
  725TMC3     C10771   1.180   4.187  12.802 -0.0719  0.2102 -0.7100
  725TMC3     O10772   1.290   4.192  12.854  0.3306  0.8899  0.2391
  725TMC3     H10773   0.962   4.225  12.629  0.5218 -0.1885  2.8637
  725TMC3    H110774   1.326   4.010  12.706  0.0460  0.4163  0.4614
  725TMC3    H210775   1.066   3.897  12.382 -0.4267  1.5350 -2.0301
  725TMC3    C710776   1.279   3.817  12.513  0.2839  0.0069  0.2143
  725TMC3    C810777   0.872   4.054  12.458 -0.0819 -0.0608 -0.9403
  725TMC3    O110778   1.403   3.827  12.530  0.1151  0.3430  0.9005
  725TMC3    O210779   0.835   3.946  12.436  0.3512  0.2253 -0.3850
  726MPD2     C10780   3.761   0.473  11.144  0.0746  0.1941  0.1475
  726MPD2    C110781   3.654   0.541  11.083 -0.3372  0.3601  0.1322
  726MPD2    C210782   3.575   0.613  11.170  0.6344 -0.4274  0.4549
  726MPD2    C310783   3.578   0.603  11.308 -0.7898  0.2831 -0.0238
  726MPD2    C410784   3.681   0.535  11.360 -0.3239 -0.4580  0.1939
  726MPD2    C510785   3.776   0.468  11.281 -0.6208 -0.5013 -0.4671
  726MPD2     H10786   3.492   0.665  11.124  0.7064 -1.9625 -1.4420
  726MPD2    H110787   3.690   0.520  11.467  1.3016 -0.3433  0.0697
  726MPD2    H210788   3.830   0.433  11.071 -1.0305 -0.2432 -0.6538
  726MPD2    H310789   3.855   0.410  11.327  0.2940  1.2571  0.1855
  726MPD2     N10790   3.485   0.666  11.393  0.2669  0.1624 -0.4296
  726MPD2    H510791   3.513   0.664  11.491 -1.6236  3.1922  0.1769
  726MPD2    N110792   3.630   0.549  10.945 -0.2048 -0.0174  0.2915
  726MPD2    H710793   3.545   0.601  10.925 -1.5066 -1.2062  2.6330
  727TMC3    C110794   3.647   0.504  10.723  0.0051 -0.1870 -0.5458
  727TMC3    C210795   3.636   0.645  10.711 -0.4541  0.5383 -0.5322
  727TMC3    C310796   3.561   0.698  10.611  0.2900 -0.4390 -0.3668
  727TMC3    C410797   3.572   0.423  10.646 -0.2087 -0.4943  0.3341
  727TMC3    C510798   3.486   0.486  10.557  0.1278  0.1133 -0.6429
  727TMC3    C610799   3.480   0.623  10.527  0.1981 -0.3847 -0.1674
  727TMC3     C10800   3.682   0.467  10.849 -0.1888 -0.2004 -0.4173
  727TMC3     O10801   3.731   0.357  10.865  0.2734 -0.5926 -0.5183
  727TMC3     H10802   3.702   0.710  10.767 -0.4043  0.8021 -0.8963
  727TMC3    H110803   3.578   0.316  10.660 -0.5001 -0.4474  0.8127
  727TMC3    H210804   3.437   0.659  10.435 -0.5925  0.0697  0.3809
  727TMC3    C710805   3.397   0.393  10.478  0.1946 -0.3396 -0.4056
  727TMC3    C810806   3.575   0.845  10.602 -0.1827 -0.4457 -0.8869
  727TMC3    O110807   3.439   0.277  10.468 -0.9496  0.2997 -0.5346
  727TMC3    O210808   3.666   0.908  10.659  0.1438  0.0635  0.1536
  728TMC3    C110809   2.971   0.217  15.387 -0.0879 -0.4123 -0.2222
  728TMC3    C210810   2.980   0.354  15.364 -0.0861 -0.3103  0.0084
  728TMC3    C310811   2.987   0.401  15.234  0.1021  0.3370 -0.1377
  728TMC3    C410812   2.973   0.127  15.288 -0.4855  0.7508 -0.0833
  728TMC3    C510813   2.981   0.174  15.159 -0.2587 -1.0367 -0.5635
  728TMC3    C610814   2.989   0.313  15.135 -0.0904 -0.3770  1.2383
  728TMC3     C10815   2.958   0.171  15.527 -0.4244 -0.7486  0.2522
  728TMC3     O10816   2.980   0.256  15.611  0.1177 -0.0822 -0.2821
  728TMC3     H10817   2.980   0.417  15.452  2.5413  0.6064 -0.6654
  728TMC3    H110818   2.988   0.019  15.293 -0.8085  0.5914 -2.7586
  728TMC3    H210819   2.989   0.355  15.035  1.9101 -4.4267 -0.4170
  728TMC3    C710820   2.980   0.081  15.046 -0.4867 -0.9177  0.0703
  728TMC3    C810821   2.993   0.547  15.218  0.9273  0.1211  0.1907
  728TMC3    O110822   2.935   4.711  15.081 -0.5443 -0.0724  0.5560
  728TMC3    O210823   2.942   0.603  15.313 -0.2327 -0.5565 -0.5883
  729MPD2     C10824   0.752   0.980  16.166  0.3645 -0.2615 -0.1269
  729MPD2    C110825   0.860   0.902  16.209 -0.1808 -0.1672  0.0954
  729MPD2    C210826   0.826   0.811  16.312 -0.0227 -0.3121 -0.1759
  729MPD2    C310827   0.709   0.814  16.384  0.0087  0.5726  0.2109
  729MPD2    C410828   0.610   0.904  16.346  0.4192  1.1997  0.0432
  729MPD2    C510829   0.629   0.978  16.229  0.1204  0.0914 -0.5791
  729MPD2     H10830   0.900   0.734  16.325 -2.0059 -2.0738  0.5966
  729MPD2    H110831   0.511   0.911  16.390 -0.0944 -1.3116 -0.7426
  729MPD2    H210832   0.764   1.059  16.094 -0.6455  0.3760  0.4041
  729MPD2    H310833   0.551   1.043  16.192 -1.4104  0.8326  3.9099
  729MPD2     N10834   0.670   0.727  16.485  0.0825  0.0815  0.1943
  729MPD2    H510835   0.576   0.735  16.522 -0.0283  1.6923 -0.4605
  729MPD2    N110836   0.993   0.922  16.150  0.0981  0.0888 -0.4697
  729MPD2    H710837   0.992   0.981  16.067 -2.5061  1.5082  0.5414
  730TMC3    C110838   0.686   0.556  16.649 -0.4883 -0.3729 -0.4309
  730TMC3    C210839   0.761   0.547  16.765  0.0785 -0.4587  0.0116
  730TMC3    C310840   0.717   0.587  16.884 -0.3950  0.2703  0.0598
  730TMC3    C410841   0.551   0.575  16.661 -0.0799  0.0076 -0.2206
  730TMC3    C510842   0.505   0.618  16.781  0.1969  0.0630 -0.5083
  730TMC3    C610843   0.583   0.608  16.894  0.7256 -0.3215  0.4061
  730TMC3     C10844   0.758   0.631  16.534 -1.0175 -0.5330  0.6477
  730TMC3     O10845   0.878   0.618  16.517  0.1541 -0.1374 -0.4326
  730TMC3     H10846   0.866   0.557  16.742 -0.2553 -0.1007 -1.3275
  730TMC3    H110847   0.490   0.592  16.573  1.0299 -0.0728 -1.0013
  730TMC3    H210848   0.537   0.636  16.988  0.1397 -1.2848  0.4130
  730TMC3    C710849   0.452   0.758  16.777  0.7040  0.2406  0.5036
  730TMC3    C810850   0.804   0.690  16.944  1.1462  0.5441  0.2930
  730TMC3    O110851   0.459   0.814  16.668  0.2262  0.8543  0.1024
  730TMC3    O210852   0.918   0.713  16.900  0.1936 -0.1563  0.2331
  731MPD2     C10853   0.118   3.706  12.457 -0.1604  0.3794  0.0621
  731MPD2    C110854   0.244   3.652  12.440  0.1297  0.7673 -0.6210
  731MPD2    C210855   0.289   3.557  12.534 -0.1618  0.4050 -0.4075
  731MPD2    C310856   0.205   3.526  12.650 -0.1681  0.3328 -0.4816
  731MPD2    C410857   0.090   3.596  12.667 -0.1617 -0.5722 -0.1624
  731MPD2    C510858   0.048   3.684  12.570  0.4032  0.3019 -0.1844
  731MPD2     H10859   0.390   3.519  12.525 -0.3042 -0.1486  0.3699
  731MPD2    H110860   0.026   3.582  12.753  1.5026 -2.3643  0.7720
  731MPD2    H210861   0.066   3.774  12.390  1.3390 -0.8300 -2.3200
  731MPD2    H310862   4.687   3.729  12.581  0.7283  0.6989  1.0744
  731MPD2     N10863   0.231   3.430  12.747 -0.1563  0.5196 -0.0116
  731MPD2    H510864   0.174   3.435  12.830 -0.7847 -1.5426 -0.3404
  731MPD2    N110865   0.308   3.678  12.314  0.0623  0.0898 -0.3250
  731MPD2    H710866   0.255   3.745  12.259 -3.8969 -1.2839  1.8295
  732TMC3    C110867   0.490   3.698  12.169 -0.0193  0.6004  0.2124
  732TMC3    C210868   0.415   3.686  12.060  0.1349 -0.3578 -0.1602
  732TMC3    C310869   0.466   3.738  11.938 -0.0441  0.3253  0.7865
  732TMC3    C410870   0.614   3.756  12.164  0.1167 -0.2309  0.0734
  732TMC3    C510871   0.658   3.798  12.043 -0.0193 -0.9934 -0.4484
  732TMC3    C610872   0.585   3.800  11.929 -0.0542  0.2683  0.3443
  732TMC3     C10873   0.443   3.664  12.298  0.3758 -0.2906 -0.4798
  732TMC3     O10874   0.528   3.646  12.390  0.5400  0.3658 -0.2046
  732TMC3     H10875   0.310   3.658  12.069  0.9699 -3.7585 -1.0390
  732TMC3    H110876   0.678   3.760  12.252  0.6180 -2.0676 -0.2244
  732TMC3    H210877   0.617   3.831  11.830  1.7861 -0.9031  0.5730
  732TMC3    C710878   0.770   3.884  12.048  0.5076  0.0893 -0.5046
  732TMC3    C810879   0.411   3.675  11.823 -0.0052  0.1916 -0.1585
  732TMC3    O110880   0.759   3.997  12.003  0.5763  0.4182 -0.0633
  732TMC3    O210881   0.423   3.728  11.714 -0.4650  0.8787  0.2805
  733TMC3    C110882   1.228   2.487  13.471  0.7994  0.5137 -0.7128
  733TMC3    C210883   1.214   2.620  13.456  0.2221 -0.5927 -0.3360
  733TMC3    C310884   1.318   2.689  13.406  0.1935  0.0553  0.1376
  733TMC3    C410885   1.338   2.426  13.425  0.1538  0.4671 -0.6844
  733TMC3    C510886   1.446   2.501  13.381 -0.3149  0.5811 -0.3341
  733TMC3    C610887   1.435   2.630  13.362 -0.3900  0.4596  0.1596
  733TMC3     C10888   1.104   2.422  13.454 -0.6860 -0.2755 -0.0892
  733TMC3     O10889   1.074   2.400  13.336  0.1957 -0.0574  0.0912
  733TMC3     H10890   1.119   2.667  13.478  0.4859 -0.6912  1.0135
  733TMC3    H110891   1.346   2.318  13.416 -0.9249  0.2180  1.3249
  733TMC3    H210892   1.519   2.683  13.318  0.9770 -1.4096  0.5056
  733TMC3    C710893   1.554   2.442  13.303  1.2708 -0.0663  0.0398
  733TMC3    C810894   1.272   2.798  13.329 -0.3557 -0.7810  0.3058
  733TMC3    O110895   1.633   2.365  13.356  0.3378 -0.6970  0.7773
  733TMC3    O210896   1.166   2.847  13.365 -0.4420 -0.2398 -0.0417
  734MPD2     C10897   3.239   4.192  12.813  0.4310 -1.1853 -0.2859
  734MPD2    C110898   3.175   4.130  12.708 -0.3096  0.2711  0.3402
  734MPD2    C210899   3.153   4.189  12.584 -0.5519 -0.2620  0.2491
  734MPD2    C310900   3.196   4.316  12.561  0.0553 -0.1361  0.5042
  734MPD2    C410901   3.277   4.375  12.664 -0.4308 -0.0145 -0.0028
  734MPD2    C510902   3.301   4.309  12.783  0.3472  0.2306 -0.1317
  734MPD2     H10903   3.112   4.133  12.501 -0.5295 -3.5402  2.4470
  734MPD2    H110904   3.332   4.467  12.651 -0.6770  0.2146  0.6000
  734MPD2    H210905   3.257   4.137  12.904  0.4421  1.0250  1.0339
  734MPD2    H310906   3.372   4.350  12.854  3.1950 -0.6396 -2.4356
  734MPD2     N10907   3.175   4.386  12.436 -0.2991  0.0910  0.5309
  734MPD2    H510908   3.099   4.351  12.379  0.4242 -0.3896 -0.1314
  734MPD2    N110909   3.125   3.997  12.730 -0.3348 -0.4621  0.0123
  734MPD2    H710910   3.157   3.955  12.816  4.2152  0.5169 -1.2052
  735TMC3    C110911   2.980   3.805  12.670 -0.1692  0.5135  0.0884
  735TMC3    C210912   2.854   3.783  12.620  0.0158  0.5428 -0.5122
  735TMC3    C310913   2.834   3.681  12.527 -0.2481 -0.3127  0.0895
  735TMC3    C410914   3.079   3.720  12.637  0.3524  0.3393  0.4349
  735TMC3    C510915   3.053   3.607  12.566 -0.4762  0.3763  0.1482
  735TMC3    C610916   2.929   3.587  12.508 -0.3256  0.1483  0.2674
  735TMC3     C10917   3.018   3.949  12.658  0.3570 -0.6955 -0.1928
  735TMC3     O10918   2.942   3.999  12.577  0.5000 -0.1774  0.1240
  735TMC3     H10919   2.778   3.855  12.648  0.6845  0.5478  1.3182
  735TMC3    H110920   3.175   3.715  12.687 -0.0297 -0.8566  1.0555
  735TMC3    H210921   2.929   3.516  12.426  1.0777  0.2654  0.1776
  735TMC3    C710922   3.172   3.565  12.498 -0.8644 -0.6021 -0.1593
  735TMC3    C810923   2.771   3.727  12.404 -0.0682  0.2735 -0.3198
  735TMC3    O110924   3.265   3.644  12.492  0.3839 -0.1776 -0.3853
  735TMC3    O210925   2.736   3.642  12.323  0.0056 -0.0799 -0.6038
  736MPD2     C10926   3.217   3.224  12.360 -0.2610 -0.4327  0.1217
  736MPD2    C110927   3.255   3.357  12.393  0.0146  0.6665 -0.2712
  736MPD2    C210928   3.375   3.403  12.340 -0.5836  0.3481  0.4063
  736MPD2    C310929   3.456   3.319  12.272 -0.3449  0.5812  0.0937
  736MPD2    C410930   3.425   3.188  12.251 -0.1967 -0.2653 -0.5226
  736MPD2    C510931   3.305   3.145  12.298 -0.0026  0.5186  0.2263
  736MPD2     H10932   3.418   3.496  12.377 -0.3603 -0.1430  1.3642
  736MPD2    H110933   3.478   3.111  12.197 -1.8623 -0.6288 -1.6452
  736MPD2    H210934   3.122   3.180  12.391 -0.5558 -0.0177 -0.2011
  736MPD2    H310935   3.274   3.042  12.282  2.0949  0.2897 -2.4486
  736MPD2     N10936   3.585   3.357  12.240  0.7335  0.0889  0.3212
  736MPD2    H510937   3.644   3.282  12.207 -1.8168 -1.3404 -0.9467
  736MPD2    N110938   3.167   3.432  12.470  0.3969  0.0642 -0.0527
  736MPD2    H710939   3.083   3.382  12.499 -0.3247  2.1778  1.5312
  737TMC3    C110940   3.779   3.493  12.197 -0.6947 -0.2207  0.1956
  737TMC3    C210941   3.829   3.620  12.185 -0.4656  0.2160 -0.0921
  737TMC3    C310942   3.918   3.655  12.086  0.0912  0.3788  0.1498
  737TMC3    C410943   3.820   3.401  12.100  0.0528  0.1667  0.1956
  737TMC3    C510944   3.911   3.434  12.000 -0.1904 -0.2721 -0.0011
  737TMC3    C610945   3.970   3.561  11.992 -0.2486  0.1903 -0.3731
  737TMC3     C10946   3.643   3.486  12.246  0.0745  0.2102 -0.0014
  737TMC3     O10947   3.602   3.595  12.282 -0.4385  0.0243 -0.5544
  737TMC3     H10948   3.801   3.700  12.252  1.2898  0.4846  0.2972
  737TMC3    H110949   3.762   3.311  12.082  0.1504  0.4840 -1.6928
  737TMC3    H210950   4.019   3.597  11.902 -1.5730  0.3303 -1.0399
  737TMC3    C710951   3.939   3.339  11.895  0.1660 -0.0103  0.6140
  737TMC3    C810952   3.960   3.788  12.082 -1.3998  0.4653 -0.0436
  737TMC3    O110953   3.880   3.231  11.896  0.7810  0.4157  0.1108
  737TMC3    O210954   4.033   3.826  12.170  0.8576  0.3351  0.5055
  738MPD2     C10955   4.131   3.148  15.113  0.1442  0.1458 -0.0345
  738MPD2    C110956   4.191   3.030  15.089 -0.4849 -1.0387 -0.0850
  738MPD2    C210957   4.321   3.027  15.042  0.8041 -0.2779 -0.8858
  738MPD2    C310958   4.383   3.144  15.000 -1.3148  0.5558  0.5747
  738MPD2    C410959   4.320   3.264  15.022  1.0550  0.1311 -0.2080
  738MPD2    C510960   4.193   3.262  15.084  0.6901 -0.0002 -0.0513
  738MPD2     H10961   4.362   2.929  15.022 -2.0099 -1.4237 -1.0947
  738MPD2    H110962   4.366   3.357  14.993  1.0127  0.0530 -0.5231
  738MPD2    H210963   4.036   3.158  15.163 -0.9090 -0.9353 -1.8202
  738MPD2    H310964   4.146   3.357  15.108  1.8284  0.7714 -0.8614
  738MPD2     N10965   4.506   3.159  14.936 -0.0891  0.3609 -0.1582
  738MPD2    H510966   4.534   3.247  14.895  3.4944 -0.6099  0.2316
  738MPD2    N110967   4.121   2.907  15.097 -0.2284  0.3540  0.4468
  738MPD2    H710968   4.157   2.831  15.040 -1.6523 -0.6345  0.8735
  739TMC3    C110969   4.705   3.122  14.826  0.4547 -0.3054  0.3089
  739TMC3    C210970   4.640   3.170  14.715 -0.1433  0.0246  0.4133
  739TMC3    C310971   4.722   3.194  14.607 -0.0837  0.8244  0.3526
  739TMC3    C410972   0.099   3.120  14.844  0.2975  0.0770  0.3954
  739TMC3    C510973   0.176   3.162  14.735 -0.8633  0.6579 -0.4872
  739TMC3    C610974   0.121   3.194  14.613  0.5356  0.3698  0.1982
  739TMC3     C10975   4.614   3.077  14.936  0.0198 -0.5326  0.2275
  739TMC3     O10976   4.642   2.968  14.986 -0.2637  0.3457  0.6747
  739TMC3     H10977   4.533   3.166  14.697  0.0973  1.0620 -1.2801
  739TMC3    H110978   0.136   3.087  14.940  1.2941  0.2217  0.0576
  739TMC3    H210979   0.182   3.202  14.524  0.0718 -1.1850 -0.2623
  739TMC3    C710980   0.315   3.196  14.752 -0.3531 -1.0987  0.2291
  739TMC3    C810981   4.650   3.257  14.501  0.0916  0.7391  0.1113
  739TMC3    O110982   0.351   3.295  14.695 -0.4015 -0.0487 -0.4140
  739TMC3    O210983   4.530   3.223  14.485  0.4413 -0.5414 -0.2835
  740TMC3    C110984   4.512   4.600  14.456 -0.1403  0.3380  0.5887
  740TMC3    C210985   4.608   4.524  14.518  0.2072 -0.2055  0.1319
  740TMC3    C310986   4.730   4.509  14.451  0.6709  0.1159 -0.0383
  740TMC3    C410987   4.520   4.622  14.319 -0.6465 -0.5590  0.1221
  740TMC3    C510988   4.637   4.587  14.254  0.4908  0.3826  0.5829
  740TMC3    C610989   0.006   4.526  14.313 -0.3356  0.1665 -0.4228
  740TMC3     C10990   4.380   4.628  14.520 -0.4824  0.0161 -0.2423
  740TMC3     O10991   4.318   4.718  14.466 -0.2079  0.1828  0.2584
  740TMC3     H10992   4.602   4.499  14.624  1.4129 -0.5346  0.1192
  740TMC3    H110993   4.438   4.649  14.254 -0.5926 -1.7634 -0.4393
  740TMC3    H210994   0.088   4.474  14.266 -0.6614  0.3624 -1.2099
  740TMC3    C710995   4.599   4.513  14.137  0.1350 -0.1695  0.2002
  740TMC3    C810996   0.109   4.497  14.540 -0.4755 -0.8338 -0.4263
  740TMC3    O110997   4.486   4.468  14.127  0.5316  0.0129 -0.4175
  740TMC3    O210998   0.095   4.487  14.660  0.2271  0.0860  0.2758
  741TMC3    C110999   4.544   3.685  14.528  0.0947  0.7044 -0.3903
  741TMC3    C211000   4.417   3.645  14.511  0.2448 -0.0765 -1.0098
  741TMC3    C311001   4.374   3.539  14.588 -0.0999  0.3244 -0.4311
  741TMC3    C411002   4.617   3.633  14.626 -0.5877  0.2886 -0.2209
  741TMC3    C511003   4.570   3.536  14.702  0.5398  0.0914 -0.4064
  741TMC3    C611004   4.443   3.479  14.686  0.4515 -0.2730 -0.5010
  741TMC3     C11005   4.616   3.783  14.451  0.4014 -0.1412 -0.1090
  741TMC3     O11006   0.001   3.792  14.460  0.1340 -0.5594  0.1358
  741TMC3     H11007   4.362   3.674  14.421  0.0109 -0.1842 -0.9027
  741TMC3    H111008   4.711   3.675  14.659 -1.1862  0.2664  1.4936
  741TMC3    H211009   4.403   3.394  14.740  0.6584 -0.6416 -0.9273
  741TMC3    C711010   4.643   3.490  14.813 -0.3164  0.5695  0.0958
  741TMC3    C811011   4.259   3.467  14.529 -0.0965 -0.0572 -0.0612
  741TMC3    O111012   4.585   3.406  14.883 -0.3682 -0.0405 -0.4944
  741TMC3    O211013   4.181   3.531  14.461 -0.5124  0.2106  0.5626
  742TMC3    C111014   0.085   2.469  15.198  0.4942  0.2088  0.2010
  742TMC3    C211015   4.720   2.446  15.110 -0.1159  0.3646  0.1127
  742TMC3    C311016   0.009   2.393  14.988 -0.1060 -0.7218  0.0123
  742TMC3    C411017   0.219   2.432  15.176 -0.0318  0.6229  0.1101
  742TMC3    C511018   0.239   2.394  15.041  0.0812  0.3243 -0.4470
  742TMC3    C611019   0.139   2.363  14.954 -0.2969 -0.5041  0.6449
  742TMC3     C11020   0.042   2.504  15.330  0.3415 -0.4479  0.6857
  742TMC3     O11021   4.673   2.562  15.340  0.4217 -0.4123 -0.4638
  742TMC3     H11022   4.618   2.480  15.126 -0.3110 -1.2567  2.4598
  742TMC3    H111023   0.301   2.465  15.239  0.1789 -0.0641  0.1962
  742TMC3    H211024   0.166   2.322  14.857  1.4573 -0.1016  0.9684
  742TMC3    C711025   0.359   2.312  15.020 -0.4973  0.4525 -0.3912
  742TMC3    C811026   4.642   2.354  14.898 -0.0371 -0.3900  0.0020
  742TMC3    O111027   0.348   2.200  14.973 -0.8627  0.4192  0.0450
  742TMC3    O211028   4.677   2.318  14.786 -0.8616 -0.8240 -0.1939
  743MPD2     C11029   2.828   3.027   2.006 -0.8526  0.1784  0.0821
  743MPD2    C111030   2.845   2.999   1.870  0.7214  0.3299 -0.3535
  743MPD2    C211031   2.974   2.985   1.828 -0.2111  0.2781  0.0829
  743MPD2    C311032   3.076   2.988   1.919  0.8000  0.0681 -0.3470
  743MPD2    C411033   3.056   3.008   2.054  0.8567  0.9199  0.1216
  743MPD2    C511034   2.932   3.037   2.091 -0.2457 -0.2400  0.3845
  743MPD2     H11035   3.002   2.989   1.723  1.1790 -0.1717  0.4464
  743MPD2    H111036   3.138   3.008   2.125  0.2331 -0.3945  0.8392
  743MPD2    H211037   2.728   3.042   2.046 -0.6799 -0.1977  0.6489
  743MPD2    H311038   2.915   3.066   2.194  0.0417 -0.3040  0.4511
  743MPD2     N11039   3.211   2.965   1.864 -0.0928 -0.5035  0.0294
  743MPD2    H511040   3.222   2.954   1.763  1.6070  0.3695  0.1376
  743MPD2    N111041   2.721   3.004   1.793  0.2413  0.4928  0.1335
  743MPD2    H711042   2.641   3.027   1.849 -1.2973 -1.9092 -1.0433
  744TMC3    C111043   2.582   3.015   1.601  0.5231 -0.5762  0.7377
  744TMC3    C211044   2.513   3.120   1.656  0.5680  0.1089  0.0587
  744TMC3    C311045   2.391   3.151   1.598 -0.2377  0.2553 -0.2078
  744TMC3    C411046   2.534   2.936   1.499 -0.4739  0.0114 -0.4079
  744TMC3    C511047   2.409   2.965   1.458  0.8083  0.0593 -0.2135
  744TMC3    C611048   2.331   3.067   1.507  0.6070  0.1767  0.0436
  744TMC3     C11049   2.713   2.975   1.658  0.0778 -0.0513 -1.4793
  744TMC3     O11050   2.798   2.929   1.578 -0.2199  0.0751 -0.6607
  744TMC3     H11051   2.570   3.195   1.709 -2.1414  0.7747  2.0299
  744TMC3    H111052   2.594   2.857   1.455 -2.5025 -2.2655  0.8855
  744TMC3    H211053   2.226   3.079   1.484  0.2989 -0.6612  0.9693
  744TMC3    C711054   2.352   2.908   1.331 -0.3760 -0.5942  0.2655
  744TMC3    C811055   2.318   3.266   1.639  0.2946  0.0231  0.1246
  744TMC3    O111056   2.271   2.979   1.264 -0.3833 -0.3527  0.0595
  744TMC3    O211057   2.224   3.296   1.570 -0.2806 -0.3991  0.3468
  745TMC3    C111058   4.641   1.772  13.759  0.3314  0.3163  0.8353
  745TMC3    C211059   4.532   1.741  13.829  0.0399  0.0345 -0.6747
  745TMC3    C311060   4.411   1.795  13.784 -0.2434 -0.0340  0.2596
  745TMC3    C411061   4.635   1.836  13.638 -0.1656  0.6538 -0.1202
  745TMC3    C511062   4.514   1.857  13.584  0.5101  0.1792 -0.8015
  745TMC3    C611063   4.400   1.842  13.653 -0.0398  0.0111 -0.1973
  745TMC3     C11064   0.010   1.819  13.844 -0.7351 -0.3828 -0.0252
  745TMC3     O11065   0.031   1.753  13.948  0.0300  0.4816 -0.0300
  745TMC3     H11066   4.537   1.708  13.932  0.0543  2.0867 -0.0189
  745TMC3    H111067   4.726   1.845  13.580 -0.4127  0.2711 -0.5714
  745TMC3    H211068   4.302   1.862  13.612 -1.5415  2.1191  4.3584
  745TMC3    C711069   4.503   1.870  13.439  0.0832  0.7370 -0.0040
  745TMC3    C811070   4.334   1.882  13.867  0.1964  0.8340 -0.2059
  745TMC3    O111071   4.395   1.839  13.394 -0.5674 -0.1359  0.8252
  745TMC3    O211072   4.236   1.933  13.812  0.9294 -0.3175 -0.4836
  746TMC3    C111073   2.256   4.029  10.999 -0.0087  0.3104 -0.2229
  746TMC3    C211074   2.331   4.026  10.882  0.3427  0.1646 -0.1825
  746TMC3    C311075   2.291   3.948  10.775  0.1295  0.7591  1.1286
  746TMC3    C411076   2.145   3.958  11.006  0.0090 -0.3524  0.4141
  746TMC3    C511077   2.108   3.878  10.897 -0.0006 -0.4743 -0.2671
  746TMC3    C611078   2.187   3.867  10.784  0.0353 -0.4616  0.0664
  746TMC3     C11079   2.272   4.140  11.095  0.1078 -0.1941 -0.8443
  746TMC3     O11080   2.174   4.148  11.170  0.1520  0.1553 -0.5869
  746TMC3     H11081   2.425   4.079  10.876  0.6358 -0.3960 -0.5871
  746TMC3    H111082   2.088   3.956  11.098 -1.9611 -1.4680 -0.8251
  746TMC3    H211083   2.145   3.798  10.712 -0.0543  1.6359 -1.8582
  746TMC3    C711084   1.983   3.793  10.895  0.8495  0.8276  0.2767
  746TMC3    C811085   2.380   3.938  10.664  0.6941 -0.5722 -0.0663
  746TMC3    O111086   1.977   3.699  10.817  0.5367 -0.1626  0.1993
  746TMC3    O211087   2.379   3.836  10.594  0.1323  0.0168  0.4805
  747TMC3    C111088   4.702   3.370  11.114 -0.5733  0.1749 -0.2340
  747TMC3    C211089   4.589   3.305  11.161 -0.0669  0.5988 -0.1570
  747TMC3    C311090   4.530   3.369  11.271 -0.1097 -0.6808  0.4735
  747TMC3    C411091   0.022   3.473  11.175  0.2197 -0.6433 -0.6670
  747TMC3    C511092   4.692   3.539  11.272  0.1531 -0.3219 -0.0542
  747TMC3    C611093   4.575   3.492  11.322 -0.3802 -0.7229  0.9562
  747TMC3     C11094   0.035   3.321  10.995 -0.7054 -0.4238  1.0988
  747TMC3     O11095   0.149   3.362  10.976  0.5994  0.1021 -0.4308
  747TMC3     H11096   4.550   3.212  11.121  0.8881  0.7273 -1.3942
  747TMC3    H111097   0.118   3.512  11.142  0.0475  1.3533  1.1482
  747TMC3    H211098   4.531   3.536  11.410  2.1682 -1.1613  2.4725
  747TMC3    C711099   0.005   3.671  11.310  0.2096 -0.3849 -0.2348
  747TMC3    C811100   4.404   3.313  11.328 -0.1491 -0.1215 -0.7105
  747TMC3    O111101   4.730   3.713  11.423 -0.1541  0.4930 -0.2751
  747TMC3    O211102   4.350   3.240  11.245 -0.1984 -0.2286 -0.3428
  748MPD2     C11103   1.072   3.858   1.239  0.3816  0.4162  0.5781
  748MPD2    C111104   1.135   3.877   1.116 -0.0802 -0.3199  0.0993
  748MPD2    C211105   1.253   3.951   1.111  0.3411 -0.1491 -0.0517
  748MPD2    C311106   1.312   3.989   1.231 -0.1095  0.3614 -0.1773
  748MPD2    C411107   1.247   3.966   1.349  0.3996 -0.6826  0.5179
  748MPD2    C511108   1.131   3.888   1.360  0.2585 -0.1245  0.0124
  748MPD2     H11109   1.302   3.978   1.018  0.2028  0.3950  0.0304
  748MPD2    H111110   1.290   3.996   1.444 -2.8108 -0.6634  1.9555
  748MPD2    H211111   0.977   3.806   1.241  1.9347 -2.3845  1.5767
  748MPD2    H311112   1.085   3.857   1.452 -0.5133 -0.0684 -0.3555
  748MPD2     N11113   1.436   4.068   1.225  0.1278  0.1391  0.4857
  748MPD2    H511114   1.476   4.068   1.132  0.0846  2.2133  0.4603
  748MPD2    N111115   1.072   3.818   1.007 -0.0658  0.2567 -1.1069
  748MPD2    H711116   0.989   3.761   1.019 -0.1003  1.1839  3.0317
  749TMC3    C111117   1.635   4.181   1.315  0.2646 -0.4412  0.1525
  749TMC3    C211118   1.724   4.184   1.419 -0.4012  0.1740 -0.0312
  749TMC3    C311119   1.851   4.237   1.392 -1.0490 -0.0829  0.5761
  749TMC3    C411120   1.678   4.219   1.195  0.0539 -0.3035 -0.0553
  749TMC3    C511121   1.800   4.268   1.172  0.5542  0.9471  0.1896
  749TMC3    C611122   1.892   4.283   1.270 -1.0339 -0.7176  0.3488
  749TMC3     C11123   1.510   4.117   1.333  1.2944 -0.3224 -0.7261
  749TMC3     O11124   1.469   4.127   1.447  0.5063  0.0722 -0.0507
  749TMC3     H11125   1.704   4.156   1.522 -1.2586  1.0363  0.0313
  749TMC3    H111126   1.612   4.247   1.114 -0.7719 -3.0025 -0.3016
  749TMC3    H211127   1.989   4.328   1.258 -0.7294 -1.1961  1.0178
  749TMC3    C711128   1.840   4.315   1.036  0.2413  0.4247 -0.7555
  749TMC3    C811129   1.951   4.187   1.482 -0.6858  0.5874 -0.3783
  749TMC3    O111130   1.930   4.397   1.039 -0.1199  0.4080  0.3300
  749TMC3    O211131   1.934   4.176   1.606  0.9066 -0.1242  0.1678
  750MPD2     C11132   2.517   0.954  11.887  0.2426  0.0979  0.0123
  750MPD2    C111133   2.460   0.850  11.815  0.4880 -0.3805  0.6719
  750MPD2    C211134   2.533   0.740  11.799 -0.1844  0.2220 -0.0296
  750MPD2    C311135   2.661   0.730  11.858  0.5695 -0.5280  0.6198
  750MPD2    C411136   2.704   0.819  11.945  0.0432 -0.2826  0.5258
  750MPD2    C511137   2.630   0.939  11.966  0.1162 -0.2617 -0.4540
  750MPD2     H11138   2.501   0.660  11.733 -0.1361 -0.7029  1.0700
  750MPD2    H111139   2.801   0.804  11.992 -1.0241  0.3083  2.9091
  750MPD2    H211140   2.478   1.055  11.894  0.7376  0.3679 -1.2614
  750MPD2    H311141   2.668   1.027  12.017 -0.0741  0.4165 -1.4861
  750MPD2     N11142   2.736   0.614  11.854 -0.2446  0.2089 -0.0532
  750MPD2    H511143   2.804   0.594  11.928  0.4932 -2.1216 -1.3593
  750MPD2    N111144   2.318   0.868  11.774 -0.0980 -0.5113 -0.4949
  750MPD2    H711145   2.268   0.952  11.800 -0.3181 -1.3919  1.8898
  751TMC3    C111146   2.747   0.383  11.789 -0.5119  0.1714 -0.5091
  751TMC3    C211147   2.633   0.341  11.857  0.3174 -0.3907  0.4256
  751TMC3    C311148   2.570   0.232  11.808 -0.4130  0.3102 -0.1962
  751TMC3    C411149   2.802   0.313  11.681 -0.5777 -0.2314  0.8716
  751TMC3    C511150   2.727   0.207  11.637 -0.1096  0.8035 -0.2943
  751TMC3    C611151   2.607   0.172  11.695 -0.5108  0.3046 -0.2099
  751TMC3     C11152   2.733   0.522  11.749  0.1546  0.4039  0.6520
  751TMC3     O11153   2.672   0.539  11.641  0.4961 -0.0138 -0.2843
  751TMC3     H11154   2.585   0.414  11.921 -1.2036 -1.4179  0.4585
  751TMC3    H111155   2.880   0.349  11.615  0.8692 -2.3095  1.4297
  751TMC3    H211156   2.562   0.078  11.665 -0.2642  0.5824 -1.4213
  751TMC3    C711157   2.741   0.200  11.489  0.3666 -0.4288  0.6507
  751TMC3    C811158   2.422   0.248  11.815  0.0892 -0.3978 -0.3457
  751TMC3    O111159   2.838   0.243  11.431 -0.1870 -0.3819  0.5683
  751TMC3    O211160   2.374   0.244  11.929 -0.2561 -0.6013  0.3859
  752TMC3    C111161   1.260   0.716  17.057  0.0493 -0.2735  0.8052
  752TMC3    C211162   1.310   0.589  17.072  0.0281 -0.2677 -0.6561
  752TMC3    C311163   1.254   0.518  17.170  0.0184 -0.1713 -0.3701
  752TMC3    C411164   1.140   0.756  17.116  0.3869  0.2583  0.3177
  752TMC3    C511165   1.083   0.670  17.205 -0.3048  0.0790  0.3934
  752TMC3    C611166   1.140   0.550  17.238  0.1298  0.5827 -0.1873
  752TMC3     C11167   1.298   0.792  16.941  0.4367  0.1048  0.2433
  752TMC3     O11168   1.343   0.723  16.850  0.4555  0.1293  0.0117
  752TMC3     H11169   1.391   0.562  17.005  0.1930  0.1124 -0.6133
  752TMC3    H111170   1.090   0.851  17.103 -1.6343 -0.8478  0.0711
  752TMC3    H211171   1.107   0.478  17.312 -0.9668  0.2200 -1.0147
  752TMC3    C711172   0.954   0.711  17.259  0.1190 -0.0962 -0.3825
  752TMC3    C811173   1.304   0.382  17.191  0.3570 -0.5206 -0.8332
  752TMC3    O111174   0.942   0.825  17.294 -0.2784 -0.6994  0.1764
  752TMC3    O211175   1.273   0.327  17.297  0.0460  0.0054 -0.8160
  753TMC3    C111176   3.016   1.933  13.407  0.1920  0.6412  0.1660
  753TMC3    C211177   3.116   1.876  13.484  0.5433 -0.8201 -0.8325
  753TMC3    C311178   3.139   1.743  13.459  0.3085  0.3132  0.2891
  753TMC3    C411179   2.941   1.862  13.306 -0.3057  0.2547 -0.1377
  753TMC3    C511180   2.981   1.731  13.284  0.0723 -0.2892  0.0009
  753TMC3    C611181   3.086   1.671  13.353  0.3522  0.1384 -0.3049
  753TMC3     C11182   3.000   2.076  13.419 -0.3163 -0.4047  0.3806
  753TMC3     O11183   3.089   2.123  13.482 -0.1914  0.4609  0.6127
  753TMC3     H11184   3.170   1.939  13.554  0.5988 -0.7589 -0.9312
  753TMC3    H111185   2.881   1.914  13.232 -0.9111 -0.3883 -0.1006
  753TMC3    H211186   3.122   1.571  13.328 -0.7820  0.3067 -2.5687
  753TMC3    C711187   2.932   1.672  13.161  0.3938  0.1531 -0.2687
  753TMC3    C811188   3.239   1.672  13.541 -0.1387  0.0550 -1.0911
  753TMC3    O111189   2.881   1.755  13.085  0.4599 -0.2020  0.1705
  753TMC3    O211190   3.264   1.555  13.533  0.1965 -0.1193  0.0993
  754MPD2     C11191   2.008   0.539  13.201 -0.7236  0.4001  0.6823
  754MPD2    C111192   2.031   0.401  13.225 -0.2420 -0.1108  0.2092
  754MPD2    C211193   1.918   0.319  13.232 -0.6605 -0.4214 -0.6225
  754MPD2    C311194   1.788   0.359  13.229 -0.0989  0.2837  0.2326
  754MPD2    C411195   1.765   0.490  13.197 -0.5716 -0.2067 -0.1154
  754MPD2    C511196   1.871   0.577  13.187 -0.6711  0.2950  0.3436
  754MPD2     H11197   1.932   0.212  13.230  0.8490 -0.2562  1.9988
  754MPD2    H111198   1.667   0.535  13.201 -1.5172 -2.3408  0.5249
  754MPD2    H211199   2.091   0.608  13.212  0.9690 -1.4358 -0.6631
  754MPD2    H311200   1.851   0.680  13.163 -0.0423  0.4194  0.3540
  754MPD2     N11201   1.680   0.277  13.254 -0.1004 -0.2372 -0.5753
  754MPD2    H511202   1.595   0.329  13.235  1.3841  1.5077 -2.4591
  754MPD2    N111203   2.164   0.365  13.244 -1.1684  0.5662  0.5189
  754MPD2    H711204   2.230   0.441  13.237  0.1240 -0.2141  4.1058
  755MPD2     C11205   0.833   0.564  13.319  0.4843  0.2285 -0.2782
  755MPD2    C111206   0.914   0.554  13.432 -0.1968 -0.6762  0.4018
  755MPD2    C211207   1.020   0.465  13.427  0.3270  0.5581  0.1467
  755MPD2    C311208   1.040   0.371  13.326  0.6203  0.3690 -0.6044
  755MPD2    C411209   0.949   0.371  13.222  0.2544 -0.2559 -0.1879
  755MPD2    C511210   0.850   0.470  13.224 -0.2665 -0.3154 -0.1373
  755MPD2     H11211   1.093   0.457  13.506 -1.3534 -2.9148  1.3555
  755MPD2    H111212   0.959   0.304  13.137  1.2341  1.6074 -1.5530
  755MPD2    H211213   0.749   0.632  13.307  1.4227  1.5997  0.8193
  755MPD2    H311214   0.789   0.481  13.135  0.1546 -1.0419 -0.5141
  755MPD2     N11215   1.147   0.284  13.307 -0.0114  0.4442  0.5036
  755MPD2    H511216   1.156   0.231  13.221 -0.7620 -0.0728  0.7448
  755MPD2    N111217   0.889   0.624  13.551  0.1882  0.2057 -0.0110
  755MPD2    H711218   0.939   0.590  13.633  0.1701 -0.1645 -0.1529
  756MPD2     C11219   1.723   1.716   9.935  0.4795  0.1408  0.3899
  756MPD2    C111220   1.666   1.625  10.026 -0.3134  0.0073 -0.4474
  756MPD2    C211221   1.574   1.538   9.976  0.5263  0.4713  0.2381
  756MPD2    C311222   1.531   1.554   9.840  0.0567 -0.1073 -0.4011
  756MPD2    C411223   1.588   1.641   9.750 -0.0089 -0.1268 -0.4884
  756MPD2    C511224   1.682   1.726   9.805 -0.4027 -0.1454  0.1470
  756MPD2     H11225   1.538   1.452  10.032  1.4730 -0.3374 -0.3879
  756MPD2    H111226   1.568   1.644   9.643  0.4246 -0.2054 -0.5701
  756MPD2    H211227   1.790   1.795   9.966  2.0474 -1.0968  0.1445
  756MPD2    H311228   1.733   1.797   9.741 -0.2943 -1.2767 -1.0414
  756MPD2     N11229   1.434   1.453   9.794 -0.2387 -0.2391 -0.2091
  756MPD2    H511230   1.405   1.380   9.858 -1.0311 -0.1646 -0.4761
  756MPD2    N111231   1.690   1.614  10.164  0.0995  0.1826 -0.1279
  756MPD2    H711232   1.645   1.537  10.213 -2.4996 -0.1814 -3.0621
  757MPD2     C11233   1.035   0.582  10.082  1.1979 -0.2522 -0.2570
  757MPD2    C111234   1.037   0.576   9.947  0.4504  0.4401 -0.4014
  757MPD2    C211235   1.065   0.689   9.877 -0.4071 -1.0527  0.0496
  757MPD2    C311236   1.090   0.805   9.935  1.1553 -0.1050 -0.0721
  757MPD2    C411237   1.107   0.807  10.070  0.1714  0.3412  0.2574
  757MPD2    C511238   1.068   0.698  10.142 -0.9213 -0.7372 -0.7077
  757MPD2     H11239   1.061   0.689   9.768  1.9991 -1.8348 -0.0268
  757MPD2    H111240   1.131   0.901  10.119 -0.1179  0.0256  1.0116
  757MPD2    H211241   1.019   0.498  10.149 -1.2027  1.3097  1.1355
  757MPD2    H311242   1.067   0.708  10.250 -1.9769 -0.3662 -0.7528
  757MPD2     N11243   1.128   0.914   9.856 -0.2218  0.4451  0.4511
  757MPD2    H511244   1.127   0.896   9.756 -2.8695 -1.6313  0.8636
  757MPD2    N111245   1.020   0.443   9.893 -0.1735 -0.0794  0.3737
  757MPD2    H711246   1.020   0.360   9.951  1.5267 -0.2280  0.1372
  758MPD2     C11247   1.829   4.172  15.921 -0.1127 -0.2386 -0.2594
  758MPD2    C111248   1.893   4.158  16.039 -0.3470  0.1971 -0.2196
  758MPD2    C211249   1.851   4.229  16.148 -0.4982 -0.2023 -0.0504
  758MPD2    C311250   1.745   4.316  16.138  0.5745  0.0820  0.8806
  758MPD2    C411251   1.675   4.322  16.024  0.2986 -0.0671  0.1578
  758MPD2    C511252   1.714   4.247  15.913  0.1081 -0.0637  0.3648
  758MPD2     H11253   1.906   4.227  16.241 -2.3560 -2.0025  0.9906
  758MPD2    H111254   1.581   4.374  16.006  1.5568  2.1662 -0.0489
  758MPD2    H211255   1.868   4.126  15.830  0.6246  0.2151 -0.1731
  758MPD2    H311256   1.663   4.260  15.819 -1.9859  0.9263  1.6403
  758MPD2     N11257   1.717   4.415  16.244  0.2273  0.9185  0.1608
  758MPD2    H511258   1.654   4.489  16.216  1.1272  1.5088 -0.2838
  758MPD2    N111259   2.018   4.099  16.040 -0.0253  0.0882  0.1022
  758MPD2    H711260   2.062   4.073  15.952 -2.2997  3.6675 -2.0505
  759MPD2     C11261   1.807   1.476   9.087 -0.1281 -0.3035 -0.5251
  759MPD2    C111262   1.723   1.569   9.022  0.0128 -0.2431  0.1919
  759MPD2    C211263   1.774   1.638   8.917  0.1878 -0.1393  0.4239
  759MPD2    C311264   1.906   1.627   8.877  0.9909  0.4010 -0.3935
  759MPD2    C411265   1.983   1.533   8.941  0.1999 -0.2345 -0.0628
  759MPD2    C511266   1.935   1.457   9.040  0.8771 -0.2080  0.2506
  759MPD2     H11267   1.713   1.711   8.865  3.0756  2.2013  0.3078
  759MPD2    H111268   2.089   1.516   8.923 -0.2185 -1.1666 -1.6926
  759MPD2    H211269   1.780   1.425   9.179 -0.8437  0.4051 -0.3474
  759MPD2    H311270   1.999   1.384   9.087 -0.7322 -0.7919  1.5499
  759MPD2     N11271   1.953   1.724   8.783 -0.1061 -0.0464  0.0570
  759MPD2    H511272   1.887   1.795   8.751 -1.1175 -0.4127  1.3286
  759MPD2    N111273   1.588   1.576   9.058 -0.6747 -0.1621 -0.3035
  759MPD2    H711274   1.539   1.653   9.013 -2.6873  0.2108  2.5496
  760MPD2     C11275   0.133   0.549  12.287  0.2625 -0.5245  0.8608
  760MPD2    C111276   0.223   0.559  12.185 -0.5135 -0.8222 -0.7357
  760MPD2    C211277   0.273   0.436  12.130  0.1041  0.6041  0.3841
  760MPD2    C311278   0.227   0.317  12.163 -0.4431 -0.1837  0.1682
  760MPD2    C411279   0.133   0.309  12.268  0.2547  0.0352 -0.4792
  760MPD2    C511280   0.093   0.427  12.330  0.0360 -0.4364  0.9493
  760MPD2     H11281   0.348   0.449  12.053 -0.3472 -0.0112 -0.1487
  760MPD2    H111282   0.109   0.213  12.313  0.3301 -0.4229 -1.4198
  760MPD2    H211283   0.093   0.634  12.341 -0.6680  1.8749 -3.6244
  760MPD2    H311284   0.028   0.426  12.417  0.7063  1.2297  1.4748
  760MPD2     N11285   0.280   0.192  12.115  0.3583 -0.2791  0.2309
  760MPD2    H511286   0.259   0.103  12.159 -1.7743 -0.7098 -1.6387
  760MPD2    N111287   0.277   0.676  12.131  0.0236 -0.2153 -0.1726
  760MPD2    H711288   0.331   0.668  12.046 -0.7171  0.1481 -0.6745
  761MPD2     C11289   1.951   0.287  11.611  0.1589  0.0427  0.5378
  761MPD2    C111290   2.040   0.271  11.515  0.3596 -0.5011  0.1905
  761MPD2    C211291   2.169   0.271  11.546  0.3222 -0.4600  0.1128
  761MPD2    C311292   2.221   0.277  11.672  0.8004  0.6079 -0.0559
  761MPD2    C411293   2.123   0.295  11.768 -0.8812  1.1697  0.4019
  761MPD2    C511294   1.990   0.291  11.736 -0.2652  0.4415  0.5607
  761MPD2     H11295   2.232   0.254  11.459  1.2790  0.1464  0.6851
  761MPD2    H111296   2.147   0.311  11.873  0.7373  0.6808  0.1109
  761MPD2    H211297   1.846   0.277  11.584  0.8052  0.7619 -2.1378
  761MPD2    H311298   1.920   0.301  11.817 -1.5470  0.6738 -0.5816
  761MPD2     N11299   2.363   0.265  11.692 -0.0369  0.4213  0.2094
  761MPD2    H511300   2.417   0.240  11.611  1.3106  2.2005  0.5645
  761MPD2    N111301   1.987   0.252  11.380  0.4893 -0.3780  0.2302
  761MPD2    H711302   1.886   0.255  11.368  0.4298  0.3726  0.9457
  762MPD2     C11303   2.274   0.531  10.684 -0.6087 -0.1689 -0.2070
  762MPD2    C111304   2.255   0.400  10.701 -0.1574  0.0077  0.1737
  762MPD2    C211305   2.335   0.301  10.639  0.2374  0.0295 -0.0676
  762MPD2    C311306   2.429   0.337  10.550  0.2431 -0.0763 -0.9604
  762MPD2    C411307   2.446   0.468  10.524 -0.5357 -0.3463  0.7846
  762MPD2    C511308   2.368   0.565  10.591  0.2949  0.4157  0.3778
  762MPD2     H11309   2.324   0.195  10.660  1.3595 -0.7578 -3.5195
  762MPD2    H111310   2.510   0.514  10.449  0.7037 -1.3037  1.2693
  762MPD2    H211311   2.219   0.613  10.728 -0.4414 -0.2614  0.1694
  762MPD2    H311312   2.387   0.669  10.565  1.4964 -0.0135 -0.4586
  762MPD2     N11313   2.511   0.238  10.497 -0.0689 -0.1155  0.0553
  762MPD2    H511314   2.503   0.143  10.532  0.6709 -0.2927 -0.2640
  762MPD2    N111315   2.155   0.362  10.794  0.2121  0.5755 -0.0070
  762MPD2    H711316   2.149   0.421  10.876  0.8568  3.5828 -2.1213
  763MPD2     C11317   4.265   4.673  16.190 -0.0637  0.7566 -0.8103
  763MPD2    C111318   4.146   0.006  16.190 -0.0349  0.1672 -0.5096
  763MPD2    C211319   4.148   0.142  16.212  0.3685 -0.0559  0.1236
  763MPD2    C311320   4.264   0.205  16.243 -0.7915 -0.1362  0.0904
  763MPD2    C411321   4.380   0.135  16.228  0.0186  0.3437 -0.7865
  763MPD2    C511322   4.378   0.003  16.209  0.0953  1.0736  0.1405
  763MPD2     H11323   4.054   0.196  16.208 -0.0278 -0.6268  1.5496
  763MPD2    H111324   4.479   0.181  16.228  0.2207 -0.0708 -2.3203
  763MPD2    H211325   4.273   4.569  16.161 -1.8752 -0.0716  1.6858
  763MPD2    H311326   4.465   4.684  16.180 -0.3405  0.3276  0.2826
  763MPD2     N11327   4.265   0.343  16.278 -0.5452 -0.3434 -0.1068
  763MPD2    H511328   4.354   0.387  16.296 -0.0527 -1.3602 -0.0486
  763MPD2    N111329   4.021   4.685  16.157 -0.0570  0.1769  0.2136
  763MPD2    H711330   3.943   0.013  16.153  0.9239  1.1385 -3.1574
  764MPD2     C11331   1.379   1.851  17.698 -0.0795  0.5152  0.5707
  764MPD2    C111332   1.325   1.748  17.632  0.4121  0.9875 -0.2926
  764MPD2    C211333   1.340   1.620  17.690  0.7027 -0.1429 -0.5951
  764MPD2    C311334   1.390   1.601   0.067 -0.9452  0.2513  0.3344
  764MPD2    C411335   1.431   1.714   0.135 -0.4259 -0.4297  0.1264
  764MPD2    C511336   1.442   1.834   0.070 -0.5688  0.0369 -0.6145
  764MPD2     H11337   1.286   1.542  17.637  0.9839 -2.0322  1.9087
  764MPD2    H111338   1.480   1.706   0.231 -3.0484  0.9065  1.5503
  764MPD2    H211339   1.381   1.953  17.660  0.3248 -0.3634 -1.7484
  764MPD2    H311340   1.479   1.927   0.112 -1.4217  0.7319 -1.3993
  764MPD2     N11341   1.378   1.479   0.134  0.6408 -0.3303  0.6461
  764MPD2    H511342   1.325   1.408   0.084  1.8940 -1.1317  0.4506
  764MPD2    N111343   1.264   1.760  17.507  0.2719  0.4235  0.1030
  764MPD2    H711344   1.236   1.676  17.457 -0.0639 -1.0288  2.7097
  765MPD2     C11345   1.882   4.420  15.596 -0.1611 -0.2502 -0.2771
  765MPD2    C111346   1.969   4.504  15.653 -0.2800  0.0207 -0.2189
  765MPD2    C211347   2.104   4.466  15.663 -0.3019 -0.1345 -0.4074
  765MPD2    C311348   2.143   4.339  15.622 -0.8170 -0.3084  0.0677
  765MPD2    C411349   2.050   4.254  15.566  0.3096  0.1424  0.1925
  765MPD2    C511350   1.921   4.302  15.544 -0.6861  0.2133 -0.3542
  765MPD2     H11351   2.171   4.540  15.703 -0.6159 -0.9466  1.6027
  765MPD2    H111352   2.074   4.154  15.532 -2.4104 -0.6646  0.6322
  765MPD2    H211353   1.779   4.448  15.577 -0.7500 -1.0922  1.6608
  765MPD2    H311354   1.844   4.251  15.488  0.2436  0.1552 -1.5753
  765MPD2     N11355   2.269   4.296  15.653 -0.4748 -0.1055 -0.1894
  765MPD2    H511356   2.328   4.361  15.704  0.4173  0.4754 -1.9539
  765MPD2    N111357   1.914   4.632  15.686 -0.1158  0.9583  0.0831
  765MPD2    H711358   1.813   4.630  15.694  0.0904  0.8640  2.5295
  766MPD2     C11359   1.327   4.715  15.531 -0.3091  0.9979  0.0049
  766MPD2    C111360   1.446   0.018  15.481 -0.2834  0.2846 -0.9374
  766MPD2    C211361   1.484   4.721  15.356 -0.3850  0.2683  0.4822
  766MPD2    C311362   1.401   4.635  15.276  0.6994  0.2032 -0.4980
  766MPD2    C411363   1.279   4.596  15.328 -0.7122  0.3173  0.2976
  766MPD2    C511364   1.253   4.637  15.451 -0.1920  0.8034  0.5030
  766MPD2     H11365   1.580   0.018  15.320 -0.0984  1.7047  2.5875
  766MPD2    H111366   1.206   4.537  15.273  0.8364 -0.5422 -0.8408
  766MPD2    H211367   1.306   4.723  15.637 -0.2960  0.2709  0.0595
  766MPD2    H311368   1.154   4.604  15.480  0.2943 -0.3789  0.8212
  766MPD2     N11369   1.434   4.586  15.145  0.3005  0.1277 -0.6526
  766MPD2    H511370   1.361   4.531  15.100 -2.1478  2.2511  0.6998
  766MPD2    N111371   1.540   0.100  15.539 -0.3346 -0.0232 -0.5698
  766MPD2    H711372   1.617   0.125  15.477 -0.8260 -0.5433 -1.3862
  767MPD2     C11373   1.045   0.087  15.239 -0.4678 -0.0413 -0.2210
  767MPD2    C111374   1.130   0.105  15.139 -0.1318  0.0042 -0.5786
  767MPD2    C211375   1.107   0.031  15.023 -0.2964 -0.2764  0.5244
  767MPD2    C311376   1.014   4.673  15.013  0.2728 -0.7134 -0.0363
  767MPD2    C411377   0.941   4.638  15.120 -0.3600  0.4171 -0.3612
  767MPD2    C511378   0.960   4.716  15.232  0.0915 -0.3289 -0.0868
  767MPD2     H11379   1.178   0.044  14.942 -2.2301 -0.4534 -1.1980
  767MPD2    H111380   0.871   4.555  15.125 -0.0560  0.1287 -0.9131
  767MPD2    H211381   1.046   0.148  15.329  0.1525 -0.2874 -0.0613
  767MPD2    H311382   0.903   4.707  15.323  0.9615 -1.7991  0.3098
  767MPD2     N11383   1.021   4.596  14.897 -0.8568 -0.6997 -0.8515
  767MPD2    H511384   1.098   4.617  14.834 -0.9379 -0.4569 -0.8716
  767MPD2    N111385   1.237   0.190  15.155 -0.6048 -0.3140 -0.3331
  767MPD2    H711386   1.233   0.237  15.245 -0.7012  0.7607 -0.9015
  768MPD2     C11387   1.907   3.641  10.329  0.5177 -0.2799 -0.5784
  768MPD2    C111388   1.890   3.528  10.408 -0.7709  0.0188 -0.1463
  768MPD2    C211389   1.993   3.485  10.489 -0.5856  0.1794  0.8086
  768MPD2    C311390   2.120   3.552  10.487 -0.1160 -0.4845  0.3803
  768MPD2    C411391   2.131   3.666  10.404 -0.2254 -0.0417 -0.9828
  768MPD2    C511392   2.025   3.707  10.322 -0.1948 -0.8822 -0.6054
  768MPD2     H11393   1.988   3.398  10.554  0.2586 -2.0819 -2.1531
  768MPD2    H111394   2.227   3.711  10.383  0.3794 -0.7825  0.2387
  768MPD2    H211395   1.835   3.688  10.263  0.8730  0.0340 -0.7456
  768MPD2    H311396   2.037   3.795  10.259  0.7960 -0.0842  0.6743
  768MPD2     N11397   2.235   3.506  10.561 -0.5105 -0.2500 -0.2549
  768MPD2    H511398   2.322   3.547  10.529 -0.1554  0.1157  1.1704
  768MPD2    N111399   1.769   3.454  10.416 -0.0204  0.7959 -0.4271
  768MPD2    H711400   1.756   3.388  10.492 -0.9283  0.2472 -1.0586
  769MPD2     C11401   3.035   1.368  14.684  0.2234  0.2243 -0.4103
  769MPD2    C111402   2.979   1.315  14.793 -0.1580  0.1032 -0.4442
  769MPD2    C211403   3.049   1.302  14.911 -0.2598 -0.2020  0.4385
  769MPD2    C311404   3.177   1.343  14.924 -0.4713  0.2263 -0.9891
  769MPD2    C411405   3.232   1.405  14.818 -0.1013 -0.3029 -0.2490
  769MPD2    C511406   3.161   1.417  14.709 -0.5661 -0.5573 -0.0197
  769MPD2     H11407   3.011   1.258  15.002  2.6444 -1.7959  0.8815
  769MPD2    H111408   3.331   1.451  14.820 -0.9647  1.6090 -1.7354
  769MPD2    H211409   2.989   1.379  14.587  1.6609 -1.1001 -1.2433
  769MPD2    H311410   3.220   1.472  14.637 -1.1787  1.2725  0.8600
  769MPD2     N11411   3.236   1.325  15.053  0.4886 -0.4091 -0.1206
  769MPD2    H511412   3.177   1.273  15.117 -1.4872  3.2353  1.0363
  769MPD2    N111413   2.844   1.272  14.786 -0.9305 -0.1633 -0.5481
  769MPD2    H711414   2.799   1.281  14.695  0.3369 -0.1481 -1.1752
  770MPD2     C11415   2.379   0.722  15.488 -1.2170 -0.2077 -0.3786
  770MPD2    C111416   2.460   0.665  15.394 -0.0704 -0.3231 -0.0325
  770MPD2    C211417   2.492   0.744  15.283  0.3621 -0.2618  0.0328
  770MPD2    C311418   2.427   0.858  15.259 -0.7666  0.0774  0.3964
  770MPD2    C411419   2.359   0.919  15.360 -0.4326 -0.3290  0.5311
  770MPD2    C511420   2.342   0.849  15.478  0.4134  0.4438 -0.4835
  770MPD2     H11421   2.560   0.714  15.204 -1.2062  0.5518 -1.6294
  770MPD2    H111422   2.311   1.016  15.354 -1.2713 -0.9190 -2.0169
  770MPD2    H211423   2.357   0.668  15.579  0.1410  0.3411  0.2662
  770MPD2    H311424   2.287   0.899  15.557  0.8503 -0.1665  0.2104
  770MPD2     N11425   2.450   0.930  15.141 -0.1547  0.4008  0.2854
  770MPD2    H511426   2.516   0.890  15.076  0.4485  0.9655  0.5489
  770MPD2    N111427   2.507   0.537  15.413  0.3889  0.5164  0.4012
  770MPD2    H711428   2.465   0.490  15.493  0.0869 -0.0846 -0.1090
  771MPD2     C11429   3.737   4.061  13.949  0.1934 -0.0458  0.5454
  771MPD2    C111430   3.793   4.134  13.848  0.3174  1.2652 -0.3331
  771MPD2    C211431   3.817   4.072  13.724  0.2824  0.7161  0.0632
  771MPD2    C311432   3.770   3.948  13.694 -0.2346 -0.1108 -0.6590
  771MPD2    C411433   3.723   3.868  13.798 -0.2277  0.4936  0.0489
  771MPD2    C511434   3.704   3.927  13.917  0.3078 -0.2170 -0.4913
  771MPD2     H11435   3.861   4.137  13.649  2.7784 -1.4826 -0.3725
  771MPD2    H111436   3.704   3.762  13.786 -2.6262  0.8284  0.9805
  771MPD2    H211437   3.690   4.106  14.036  1.3552  2.1962 -0.0077
  771MPD2    H311438   3.655   3.869  13.994 -0.1298  0.6212 -0.1339
  771MPD2     N11439   3.783   3.895  13.559  0.1582 -0.3301 -0.3782
  771MPD2    H511440   3.827   3.959  13.493  1.0689 -0.2009  0.3580
  771MPD2    N111441   3.817   4.272  13.868 -0.4730 -0.0593  0.3468
  771MPD2    H711442   3.855   4.320  13.787 -2.8688  0.0482 -0.7455
  772MPD2     C11443   3.354   0.089  13.741  0.1271 -0.0109  0.0834
  772MPD2    C111444   3.379   4.727  13.830  0.2186 -0.8452 -0.2881
  772MPD2    C211445   3.269   4.653  13.868 -1.0706  0.9683  0.0848
  772MPD2    C311446   3.139   4.671  13.820 -0.5480  0.2284 -0.4730
  772MPD2    C411447   3.112   0.022  13.722  0.3168  0.1593  0.3381
  772MPD2    C511448   3.225   0.095  13.690  0.6370  0.5665 -1.1973
  772MPD2     H11449   3.288   4.583  13.949 -3.0291  1.3216  0.8563
  772MPD2    H111450   3.011   0.037  13.686 -0.2270 -0.6298  1.5248
  772MPD2    H211451   3.432   0.157  13.709  1.0394 -0.2654  1.7532
  772MPD2    H311452   3.211   0.177  13.622 -1.0920  0.7063 -0.6593
  772MPD2     N11453   3.036   4.579  13.853  0.7014  0.5073 -0.2364
  772MPD2    H511454   2.971   4.561  13.778 -0.0143  1.9950  0.0187
  772MPD2    N111455   3.508   4.692  13.878  0.0650 -0.0060  0.1044
  772MPD2    H711456   3.511   4.602  13.924 -1.8136  0.4221  1.0723
  773MPD2     C11457   3.106   0.885  17.624  0.1299 -0.4181 -0.2162
  773MPD2    C111458   3.045   0.774  17.575  0.0356 -0.2213 -0.4805
  773MPD2    C211459   3.086   0.651  17.610  0.1920  0.3679 -0.3193
  773MPD2    C311460   3.170   0.633  17.719 -0.4371 -0.1432 -0.6157
  773MPD2    C411461   3.234   0.744   0.019  0.0192  0.2088  0.1111
  773MPD2    C511462   3.208   0.869  17.709  1.0437  0.7781 -0.1351
  773MPD2     H11463   3.037   0.565  17.567 -1.2253  1.2278 -0.4522
  773MPD2    H111464   3.316   0.744   0.090 -0.2180 -0.6945  0.3877
  773MPD2    H211465   3.090   0.987  17.591 -2.5371 -0.9800 -0.6102
  773MPD2    H311466   3.279   0.947  17.732  0.1294  1.8667 -0.9737
  773MPD2     N11467   3.195   0.504   0.011  0.2597  0.0446 -0.3833
  773MPD2    H511468   3.159   0.434  17.696 -0.4482  2.9625 -3.1850
  773MPD2    N111469   2.929   0.784  17.492 -0.2939 -0.3539 -0.3216
  773MPD2    H711470   2.880   0.697  17.472 -1.3280  0.3190 -0.7447
  774MPD2     C11471   2.220   4.014  13.405 -0.5132 -0.4681  0.7823
  774MPD2    C111472   2.093   4.058  13.435 -0.6977 -0.3201 -0.5441
  774MPD2    C211473   2.053   4.182  13.392  0.4321  0.2431  0.0691
  774MPD2    C311474   2.144   4.272  13.350 -0.3152  0.1506  0.5034
  774MPD2    C411475   2.275   4.234  13.324 -0.1370  0.1323  0.1143
  774MPD2    C511476   2.307   4.105  13.358  0.3827 -0.0567  0.8094
  774MPD2     H11477   1.951   4.210  13.414  0.1752 -0.3398 -0.3887
  774MPD2    H111478   2.354   4.298  13.287  2.3301 -2.3582  1.0683
  774MPD2    H211479   2.252   3.914  13.434  2.6559 -0.2090 -1.7167
  774MPD2    H311480   2.410   4.072  13.350  0.6596  0.6835  1.2928
  774MPD2     N11481   2.113   4.411  13.360 -0.0811  0.0073 -0.2046
  774MPD2    H511482   2.020   4.443  13.386 -1.6631 -4.5112 -0.3145
  774MPD2    N111483   1.998   3.992  13.520  0.4131  0.1924 -0.8842
  774MPD2    H711484   1.909   4.038  13.535  1.2681  2.5945 -3.2198
  775MPD2     C11485   3.372   0.964  15.780 -0.3112  0.0010  0.0894
  775MPD2    C111486   3.343   1.094  15.807  1.1164  0.5449 -0.2445
  775MPD2    C211487   3.433   1.195  15.789  0.1080 -0.5097 -0.2235
  775MPD2    C311488   3.557   1.175  15.734  0.0979 -0.1660 -0.6224
  775MPD2    C411489   3.580   1.046  15.690  0.5366 -0.0557  1.1797
  775MPD2    C511490   3.488   0.945  15.707 -0.1014  0.2713 -0.0978
  775MPD2     H11491   3.410   1.296  15.819  1.6636 -0.3731  0.4841
  775MPD2    H111492   3.678   1.019  15.652 -0.2642  0.7122 -1.3621
  775MPD2    H211493   3.294   0.889  15.789 -1.6360  1.2829 -0.7767
  775MPD2    H311494   3.512   0.845  15.672  2.0284  0.8003 -0.1256
  775MPD2     N11495   3.655   1.273  15.717  1.0240  0.3361  0.0111
  775MPD2    H511496   3.738   1.247  15.666  1.0145  2.0179 -0.8713
  775MPD2    N111497   3.210   1.113  15.848  0.5619  0.0579  0.1019
  775MPD2    H711498   3.144   1.037  15.849 -0.6526  1.1071 -0.1865
  776MPD2     C11499   1.924   1.392  11.800  0.2071 -0.0142  0.9534
  776MPD2    C111500   1.890   1.316  11.687 -0.3236  0.2094 -0.1193
  776MPD2    C211501   1.836   1.386  11.575 -0.5606 -0.4810 -0.7581
  776MPD2    C311502   1.809   1.522  11.587  0.8046 -0.0773 -0.0380
  776MPD2    C411503   1.834   1.588  11.706 -0.4682 -0.3508 -0.2172
  776MPD2    C511504   1.894   1.522  11.812 -0.1213  0.3194  0.4162
  776MPD2     H11505   1.835   1.336  11.479  0.1592  0.5849 -1.3155
  776MPD2    H111506   1.821   1.696  11.711 -1.5517 -0.6717  3.3877
  776MPD2    H211507   1.962   1.345  11.890  0.3050  0.0642  0.9529
  776MPD2    H311508   1.918   1.574  11.904  0.8605  1.4455 -0.4707
  776MPD2     N11509   1.776   1.603  11.479 -0.3969 -0.2337  0.1454
  776MPD2    H511510   1.782   1.703  11.493 -0.1317 -0.1768 -0.3613
  776MPD2    N111511   1.914   1.178  11.688  0.1154 -0.4039  0.3981
  776MPD2    H711512   1.952   1.139  11.773 -3.2154  0.9916  2.5651
  777MPD2     C11513   2.251   3.787   0.652 -0.1297  0.4385 -0.1888
  777MPD2    C111514   2.355   3.709   0.692 -0.1598  0.3683 -0.2311
  777MPD2    C211515   2.343   3.577   0.666  0.1381 -0.4490  0.1006
  777MPD2    C311516   2.237   3.523   0.595 -0.2225 -1.2131 -0.0028
  777MPD2    C411517   2.138   3.608   0.545  0.9760 -0.1352 -0.8675
  777MPD2    C511518   2.145   3.740   0.577 -0.5229  0.4379  0.0844
  777MPD2     H11519   2.410   3.499   0.699  0.0199  0.4907  2.6008
  777MPD2    H111520   2.051   3.568   0.494  0.5615 -0.4911  0.1316
  777MPD2    H211521   2.256   3.894   0.670 -1.4989  0.8161 -2.0783
  777MPD2    H311522   2.063   3.804   0.545  0.4440  1.6347 -0.0212
  777MPD2     N11523   2.244   3.383   0.579 -0.2801 -0.2453  0.5342
  777MPD2    H511524   2.332   3.343   0.611  0.6957  2.0298  0.7203
  777MPD2    N111525   2.457   3.768   0.775  0.0301 -0.3929  0.1894
  777MPD2    H711526   2.462   3.868   0.791  2.6254 -0.2985 -1.1353
  778MPD2     C11527   3.697   4.102  15.068  0.0819 -0.2225 -0.1222
  778MPD2    C111528   3.728   3.996  14.978  0.0689  0.0515 -0.4300
  778MPD2    C211529   3.806   4.026  14.868 -0.1615  0.0279  0.0284
  778MPD2    C311530   3.846   4.151  14.831 -0.1428 -0.3337 -0.4279
  778MPD2    C411531   3.809   4.254  14.916  0.3134 -0.2667 -0.1967
  778MPD2    C511532   3.741   4.227  15.037 -0.4486  0.0743  0.1125
  778MPD2     H11533   3.830   3.944  14.801 -2.0830  0.5758 -1.3560
  778MPD2    H111534   3.828   4.357  14.888 -2.3116 -0.6024 -3.1491
  778MPD2    H211535   3.632   4.093  15.154  0.7213  0.1398  0.3947
  778MPD2    H311536   3.701   4.308  15.096  0.2871  0.1502  0.5047
  778MPD2     N11537   3.925   4.167  14.713  0.0066  0.1049 -0.3706
  778MPD2    H511538   3.938   4.079  14.664  0.3270 -0.0407 -0.0246
  778MPD2    N111539   3.683   3.859  14.998 -0.3451  0.5589 -0.2984
  778MPD2    H711540   3.693   3.794  14.920 -1.2498  0.9734 -0.7651
  779MPD2     C11541   3.178   2.682  14.277 -0.0025  0.2419 -0.3479
  779MPD2    C111542   3.318   2.684  14.277 -0.1958  0.5785 -0.4102
  779MPD2    C211543   3.382   2.806  14.292 -0.4976 -0.3454  0.5279
  779MPD2    C311544   3.308   2.927  14.290 -0.2466 -0.0130  0.8798
  779MPD2    C411545   3.168   2.916  14.295  0.2304  0.0381  0.2578
  779MPD2    C511546   3.107   2.796  14.294  0.2482 -0.0856  0.2288
  779MPD2     H11547   3.490   2.806  14.293 -0.5054 -1.9489  0.8271
  779MPD2    H111548   3.097   2.998  14.304  0.5236  0.3296 -0.0625
  779MPD2    H211549   3.119   2.593  14.259 -2.4159  1.7299  0.2738
  779MPD2    H311550   2.998   2.794  14.289  0.2305  1.2233 -0.0332
  779MPD2     N11551   3.380   3.049  14.313 -0.3714  0.3056  0.6383
  779MPD2    H511552   3.481   3.052  14.319 -0.1496 -1.0253 -2.6916
  779MPD2    N111553   3.395   2.564  14.269  0.0686  0.3832 -0.8449
  779MPD2    H711554   3.495   2.576  14.256 -0.0995  1.8597 -0.8031
  780MPD2     C11555   2.324   2.113   0.714  0.5250  0.3394 -0.3006
  780MPD2    C111556   2.406   2.012   0.665  0.0580 -0.1265 -0.1078
  780MPD2    C211557   2.526   2.051   0.607  0.4293 -0.1993 -0.1724
  780MPD2    C311558   2.554   2.188   0.581  0.5946 -0.5324  0.0778
  780MPD2    C411559   2.471   2.284   0.642  0.5618  0.3588 -0.5860
  780MPD2    C511560   2.364   2.241   0.707  0.5700 -0.1483  0.4119
  780MPD2     H11561   2.591   1.977   0.562  2.7434  1.0890  1.0555
  780MPD2    H111562   2.484   2.391   0.637  3.1648  0.0211 -1.1498
  780MPD2    H211563   2.236   2.093   0.773  1.8150 -2.6287  0.5851
  780MPD2    H311564   2.307   2.315   0.762 -2.0241 -0.9738 -1.1557
  780MPD2     N11565   2.662   2.227   0.497 -1.0691 -0.5716 -0.4195
  780MPD2    H511566   2.707   2.162   0.433  0.8929  0.8809 -0.4985
  780MPD2    N111567   2.375   1.874   0.680  0.3668  0.0639  0.3750
  780MPD2    H711568   2.276   1.861   0.701  0.1583 -0.4814 -0.9391
  781MPD2     C11569   4.530   4.167  12.007 -0.0108 -0.1954  0.5167
  781MPD2    C111570   4.639   4.151  12.093  0.7917  0.3293 -0.3267
  781MPD2    C211571   0.028   4.134  12.040  0.2840  0.0181  0.1115
  781MPD2    C311572   0.048   4.129  11.903  0.5258  0.2771  0.6645
  781MPD2    C411573   4.677   4.154  11.825 -0.1284 -0.0024 -0.0832
  781MPD2    C511574   4.551   4.177  11.870 -0.6784  0.0202  0.2630
  781MPD2     H11575   0.113   4.112  12.104  1.3212  0.8049 -1.0153
  781MPD2    H111576   4.691   4.134  11.719 -1.7934 -0.5177 -0.2183
  781MPD2    H211577   4.428   4.186  12.041 -0.3011 -1.1531  0.1733
  781MPD2    H311578   4.468   4.181  11.800 -0.3946  1.1667 -0.0128
  781MPD2     N11579   0.169   4.096  11.833 -0.9816 -0.0134 -0.1425
  781MPD2    H511580   0.177   4.119  11.734  2.6638  2.2883  0.6814
  781MPD2    N111581   4.618   4.133  12.235 -0.0932  0.0152 -0.1801
  781MPD2    H711582   4.699   4.126  12.296 -0.2516  0.1808  0.0534
  782MPD2     C11583   2.715   0.931  10.999  0.0083 -0.4835 -0.3689
  782MPD2    C111584   2.833   0.855  10.980  0.1716 -0.1518 -0.1623
  782MPD2    C211585   2.938   0.874  11.072  0.1672  0.6633 -0.7298
  782MPD2    C311586   2.941   0.972  11.172 -0.1152 -0.7255 -0.2038
  782MPD2    C411587   2.826   1.046  11.182 -0.0494 -0.2793  0.3870
  782MPD2    C511588   2.715   1.025  11.099 -0.4797 -0.3308  0.1944
  782MPD2     H11589   3.021   0.804  11.064 -1.2036 -0.9284 -0.9495
  782MPD2    H111590   2.805   1.110  11.267 -1.6765  0.3537 -0.4995
  782MPD2    H211591   2.634   0.918  10.928  0.7939  1.6163 -1.6534
  782MPD2    H311592   2.623   1.078  11.118  1.9480  2.7908  3.4118
  782MPD2     N11593   3.050   0.976  11.267  0.1286 -0.3672 -0.8423
  782MPD2    H511594   3.116   0.904  11.241 -1.7780 -2.7590  0.8293
  782MPD2    N111595   2.830   0.748  10.892  0.7726  0.2877  0.6555
  782MPD2    H711596   2.741   0.724  10.848  1.0475 -2.9102  1.8066
  783MPD2     C11597   2.484   0.072  11.251 -0.1648  0.4246  0.0403
  783MPD2    C111598   2.600   0.134  11.295 -0.8963  0.6490 -0.0870
  783MPD2    C211599   2.665   0.200  11.196 -0.4677 -0.0728  1.2847
  783MPD2    C311600   2.634   0.200  11.061 -0.4015  0.3955  0.1408
  783MPD2    C411601   2.518   0.137  11.023  0.2975  0.0873  0.5061
  783MPD2    C511602   2.448   0.066  11.118 -0.1611  0.1814  0.5828
  783MPD2     H11603   2.756   0.252  11.219  0.5654 -1.8938  1.3072
  783MPD2    H111604   2.495   0.133  10.917  2.0644  1.0218  0.0852
  783MPD2    H211605   2.425   0.028  11.329  1.1713 -0.5143  0.5279
  783MPD2    H311606   2.355   0.017  11.090  0.3926 -1.4576  1.6123
  783MPD2     N11607   2.717   0.272  10.974  0.1898  0.7398 -0.6698
  783MPD2    H511608   2.788   0.328  11.021  0.6920  0.3769 -1.0017
  783MPD2    N111609   2.632   0.135  11.437  0.6961  0.1614  0.1081
  783MPD2    H711610   2.559   0.092  11.492  0.9268  0.2182  0.4635
  784MPD2     C11611   0.603   0.463   0.112  0.5151  0.0384  0.3692
  784MPD2    C111612   0.595   0.543   0.218  0.2883 -0.3511 -0.6070
  784MPD2    C211613   0.482   0.622   0.245 -0.6397  0.8436 -0.5028
  784MPD2    C311614   0.372   0.605   0.165  0.1339  0.7660  0.6541
  784MPD2    C411615   0.395   0.535   0.044 -0.2306 -0.1461 -0.5478
  784MPD2    C511616   0.504   0.457   0.026 -0.2400 -0.0356 -0.4772
  784MPD2     H11617   0.484   0.691   0.329  1.0388  0.9483 -0.6193
  784MPD2    H111618   0.323   0.529  17.713 -1.3400  0.0701  0.4371
  784MPD2    H211619   0.670   0.378   0.100 -0.6046 -0.6777 -0.7959
  784MPD2    H311620   0.505   0.387  17.691 -1.8640 -0.6115 -0.0287
  784MPD2     N11621   0.249   0.656   0.209 -0.0554  0.5327 -0.6297
  784MPD2    H511622   0.245   0.699   0.301  1.8336 -0.8697  0.1106
  784MPD2    N111623   0.706   0.551   0.305  0.1545  0.8883  0.3465
  784MPD2    H711624   0.716   0.634   0.363  0.6923  1.7225 -0.9423
  785MPD2     C11625   0.380   3.694  10.169 -0.4631  0.2053  0.6043
  785MPD2    C111626   0.325   3.747  10.283  0.2902  0.7163 -0.4615
  785MPD2    C211627   0.194   3.714  10.308 -0.0537  0.5199  0.1232
  785MPD2    C311628   0.109   3.641  10.222  0.0595  0.1184 -0.5207
  785MPD2    C411629   0.163   3.602  10.104 -0.0642  0.4506  0.6381
  785MPD2    C511630   0.298   3.626  10.089  0.3993  0.2184  0.1883
  785MPD2     H11631   0.161   3.756  10.402  0.2003  0.3906  0.2705
  785MPD2    H111632   0.113   3.539  10.032  0.7830  0.9821 -0.4336
  785MPD2    H211633   0.483   3.709  10.139 -0.0725 -1.3314  1.1363
  785MPD2    H311634   0.345   3.588  10.000 -1.8663 -0.5353 -0.6949
  785MPD2     N11635   4.714   3.613  10.263 -0.0121 -0.2610  0.1138
  785MPD2    H511636   4.687   3.660  10.349 -3.1336 -0.5509 -0.7072
  785MPD2    N111637   0.390   3.841  10.366  0.2146  0.5813 -0.0012
  785MPD2    H711638   0.343   3.881  10.447  1.4465 -1.4578  1.7338
  786MPD2     C11639   4.171   2.155  14.813 -0.5285 -0.5566  0.4998
  786MPD2    C111640   4.277   2.157  14.732  0.5447 -0.0531  0.1052
  786MPD2    C211641   4.391   2.218  14.781 -0.6691  0.5394  0.0087
  786MPD2    C311642   4.404   2.282  14.902  0.1515  0.5163  0.0074
  786MPD2    C411643   4.287   2.283  14.979 -0.9215 -0.0159 -0.3688
  786MPD2    C511644   4.169   2.225  14.931  0.9863  0.8839 -0.1294
  786MPD2     H11645   4.476   2.239  14.716  1.1974 -1.9316  1.6659
  786MPD2    H111646   4.289   2.335  15.074  0.5809  1.7800 -1.3724
  786MPD2    H211647   4.091   2.089  14.783 -1.1491 -1.1866  3.5403
  786MPD2    H311648   4.079   2.218  14.991  1.1642  0.7408  0.1193
  786MPD2     N11649   4.520   2.341  14.955  0.6205 -0.8024  0.1355
  786MPD2    H511650   4.525   2.380  15.049  0.9548 -1.3116  0.3277
  786MPD2    N111651   4.280   2.119  14.595  0.0308  0.0022 -0.2034
  786MPD2    H711652   4.375   2.113  14.558 -0.0678  0.5081 -0.5304
  787MPD2     C11653   4.573   1.563  14.611  0.2841  0.2803  0.1674
  787MPD2    C111654   4.529   1.592  14.478  0.4853 -0.7022  0.2000
  787MPD2    C211655   4.600   1.522  14.378  0.3382  0.4426 -0.0867
  787MPD2    C311656   4.700   1.428  14.400 -0.0978  0.6364  0.3648
  787MPD2    C411657   4.720   1.397  14.529  0.4843  0.4755  0.4526
  787MPD2    C511658   4.659   1.459  14.634  0.4268  0.3943 -0.8791
  787MPD2     H11659   4.584   1.553  14.276 -0.6145  2.7361  0.7749
  787MPD2    H111660   0.059   1.325  14.556  0.1209 -0.0471  0.0764
  787MPD2    H211661   4.542   1.614  14.702  0.8077  1.8572 -0.5380
  787MPD2    H311662   4.689   1.433  14.735 -0.7795  0.5963 -0.4640
  787MPD2     N11663   0.026   1.359  14.292  0.4622  0.2274  0.2992
  787MPD2    H511664   4.720   1.382  14.203 -1.7149 -0.2493  1.2492
  787MPD2    N111665   4.438   1.691  14.444 -0.2252 -0.2322  0.3506
  787MPD2    H711666   4.391   1.742  14.518  0.3649 -1.1917  1.3882
  788MPD2     C11667   1.278   0.150   0.854  0.1191 -0.2198  0.1929
  788MPD2    C111668   1.281   0.105   0.724  0.2159 -0.1047 -0.1124
  788MPD2    C211669   1.346   0.182   0.630  0.8914 -0.2320  0.1232
  788MPD2    C311670   1.372   0.313   0.660 -0.0561 -0.7627 -0.1543
  788MPD2    C411671   1.360   0.362   0.788  0.4924 -0.0764  0.0976
  788MPD2    C511672   1.311   0.278   0.878  0.2277 -0.0510  0.4376
  788MPD2     H11673   1.357   0.151   0.526  0.5597  1.4391 -0.4130
  788MPD2    H111674   1.375   0.469   0.798  2.4555 -0.4990  1.7841
  788MPD2    H211675   1.233   0.092   0.934  0.2019  0.2723  0.5946
  788MPD2    H311676   1.304   0.306   0.982 -1.2074 -0.0760  0.3523
  788MPD2     N11677   1.411   0.407   0.556  0.9391 -0.1132 -0.0918
  788MPD2    H511678   1.408   0.505   0.583 -0.9958 -1.0166  2.9033
  788MPD2    N111679   1.231   4.717   0.691  0.2383  0.4557  0.4771
  788MPD2    H711680   1.262   4.673   0.605 -1.5024 -0.5936  0.3951
  789MPD2     C11681   1.486   4.222  16.490 -0.1121 -0.3239 -0.2425
  789MPD2    C111682   1.434   4.294  16.386  0.7420  0.6809 -0.0697
  789MPD2    C211683   1.406   4.425  16.394  0.6310 -0.2526 -0.7037
  789MPD2    C311684   1.425   4.491  16.510  0.1260 -0.1461  0.2623
  789MPD2    C411685   1.445   4.415  16.625  0.3218 -0.3928 -1.0365
  789MPD2    C511686   1.482   4.283  16.616 -0.4814 -0.8012  0.1865
  789MPD2     H11687   1.374   4.474  16.302  0.8134  0.7972 -0.2050
  789MPD2    H111688   1.439   4.461  16.723 -0.3245 -0.4755 -1.0401
  789MPD2    H211689   1.525   4.120  16.492  2.5614  0.7239  1.4997
  789MPD2    H311690   1.513   4.229  16.705  0.5585 -1.2818 -0.4733
  789MPD2     N11691   1.400   4.625  16.525  0.0564 -1.0799  0.1840
  789MPD2    H511692   1.409   4.665  16.618 -0.5875  0.2008 -0.3097
  789MPD2    N111693   1.411   4.230  16.264  0.3354 -0.1556 -0.6205
  789MPD2    H711694   1.361   4.280  16.191  2.0234  1.8912 -0.4042
  790MPD2     C11695   2.855   1.624  13.677  0.3984 -0.9525 -0.2045
  790MPD2    C111696   2.867   1.507  13.600  0.5909  0.2891  0.1754
  790MPD2    C211697   2.782   1.477  13.499 -0.5289 -0.7228 -0.1057
  790MPD2    C311698   2.682   1.567  13.466  0.0366  0.3954 -0.6072
  790MPD2    C411699   2.662   1.681  13.544 -0.5466 -0.6337  0.1337
  790MPD2    C511700   2.748   1.710  13.648 -0.2635  0.2150  0.1159
  790MPD2     H11701   2.784   1.376  13.460  1.2854 -0.5396 -0.4667
  790MPD2    H111702   2.572   1.743  13.542 -1.3665 -1.8425 -0.2457
  790MPD2    H211703   2.918   1.641  13.764 -1.0738 -1.9576  1.0472
  790MPD2    H311704   2.732   1.793  13.716  0.8332  2.1369 -1.9935
  790MPD2     N11705   2.601   1.529  13.357 -0.3668  0.7456 -0.7955
  790MPD2    H511706   2.612   1.430  13.335  0.1402  0.5275  0.4138
  790MPD2    N111707   2.974   1.422  13.645 -0.6291  0.0115 -0.3142
  790MPD2    H711708   2.994   1.448  13.741  0.0706  0.1284 -0.4946
  791MPD2     C11709   1.787   1.676  13.148 -0.6668 -0.1289 -0.0928
  791MPD2    C111710   1.867   1.565  13.160  0.3872  0.3155 -0.0489
  791MPD2    C211711   1.797   1.447  13.164  0.1442  1.0723 -0.0748
  791MPD2    C311712   1.661   1.442  13.140  0.3056 -0.5776  0.3249
  791MPD2    C411713   1.584   1.556  13.132 -0.7972  0.1795 -0.2056
  791MPD2    C511714   1.652   1.675  13.148 -0.2905  0.6037 -0.1780
  791MPD2     H11715   1.859   1.358  13.165 -1.0240  0.3001  3.0330
  791MPD2    H111716   1.476   1.557  13.129 -0.8550 -1.5235  0.9091
  791MPD2    H211717   1.829   1.775  13.154 -0.3597 -0.0718 -3.3631
  791MPD2    H311718   1.598   1.769  13.137 -0.0905  0.7901  0.4148
  791MPD2     N11719   1.594   1.315  13.118  0.0571  0.2245  0.2945
  791MPD2    H511720   1.641   1.231  13.152 -2.8213 -0.8723  1.5948
  791MPD2    N111721   2.011   1.573  13.165 -0.3976  0.8005 -0.3501
  791MPD2    H711722   2.038   1.670  13.151 -0.8623  0.5054 -3.2619
  792MPD2     C11723   2.557   0.993  11.416  0.1277 -0.1238 -0.3917
  792MPD2    C111724   2.481   1.090  11.361  0.2260  0.6005  0.5987
  792MPD2    C211725   2.348   1.057  11.322  0.7711 -0.4199 -0.6408
  792MPD2    C311726   2.298   0.931  11.334 -0.5480 -0.1722  0.7202
  792MPD2    C411727   2.382   0.833  11.386 -0.2786 -0.2566  0.3170
  792MPD2    C511728   2.507   0.868  11.427 -0.5063 -0.4769  0.7285
  792MPD2     H11729   2.284   1.133  11.278 -0.8608 -0.6042  1.4091
  792MPD2    H111730   2.360   0.727  11.394  0.6297 -0.6021 -1.6390
  792MPD2    H211731   2.649   1.019  11.468 -1.0667 -0.3629  1.8495
  792MPD2    H311732   2.572   0.792  11.470 -0.6895 -1.2466 -0.3268
  792MPD2     N11733   2.173   0.888  11.280 -0.8340  0.7773 -0.2639
  792MPD2    H511734   2.157   0.788  11.286  1.3616  0.4277 -0.1655
  792MPD2    N111735   2.535   1.218  11.342 -0.1085 -0.0787  0.6376
  792MPD2    H711736   2.610   1.244  11.405 -0.1030  0.0749  0.5676
  793MPD2     C11737   1.447   1.268  10.784  0.1663  0.3927 -1.0295
  793MPD2    C111738   1.584   1.245  10.770 -0.7710  0.1232 -0.2732
  793MPD2    C211739   1.648   1.147  10.842 -0.3534 -0.7837 -0.2362
  793MPD2    C311740   1.579   1.078  10.938  0.0657  0.4318  0.7555
  793MPD2    C411741   1.449   1.103  10.955 -0.6732  0.0004 -1.9028
  793MPD2    C511742   1.380   1.198  10.877  0.5327 -0.2625 -0.5009
  793MPD2     H11743   1.755   1.137  10.832 -0.3322  0.3117 -1.0562
  793MPD2    H111744   1.389   1.052  11.029 -0.2800 -0.2112 -1.7314
  793MPD2    H211745   1.393   1.343  10.726  0.2840  0.5400 -0.9460
  793MPD2    H311746   1.279   1.219  10.909 -0.0362 -1.4217 -1.5524
  793MPD2     N11747   1.655   0.983  11.006 -0.5207  0.2385  0.0227
  793MPD2    H511748   1.745   0.968  10.963 -0.8712 -1.5438 -0.0798
  793MPD2    N111749   1.673   1.322  10.686  0.2771 -0.2135 -0.2735
  793MPD2    H711750   1.761   1.277  10.664  0.1952 -1.0370  1.0777
  794MPD2     C11751   2.318   1.343  17.217 -0.7691 -0.4500  0.4542
  794MPD2    C111752   2.316   1.234  17.129 -0.6136 -0.6836  0.4364
  794MPD2    C211753   2.233   1.227  17.014 -0.2614 -0.1561  0.4905
  794MPD2    C311754   2.152   1.338  16.994 -0.3606 -0.2909  0.1073
  794MPD2    C411755   2.159   1.446  17.086 -0.5021 -0.5697  0.7315
  794MPD2    C511756   2.238   1.450  17.195 -0.0103 -0.2298 -0.0980
  794MPD2     H11757   2.246   1.147  16.943 -1.1070  0.5805 -0.4859
  794MPD2    H111758   2.088   1.528  17.080 -0.3586 -0.4544  0.5998
  794MPD2    H211759   2.384   1.353  17.302  0.5056  0.0400 -0.5909
  794MPD2    H311760   2.226   1.528  17.271 -0.0557 -0.7898  0.4712
  794MPD2     N11761   2.059   1.342  16.890  0.2876  0.2410  0.1034
  794MPD2    H511762   2.028   1.438  16.873  0.2596  0.3139  0.5507
  794MPD2    N111763   2.405   1.130  17.142  0.5924 -0.8788 -0.2757
  794MPD2    H711764   2.408   1.062  17.066 -3.1871 -1.1002 -0.2509
  795MPD2     C11765   4.462   3.182  13.461  0.0639 -0.2786 -0.1318
  795MPD2    C111766   4.564   3.131  13.377  0.7462 -0.1016  0.0981
  795MPD2    C211767   4.675   3.075  13.439 -0.2488 -0.4069 -0.2594
  795MPD2    C311768   4.675   3.047  13.575  0.5030  0.2777 -0.3143
  795MPD2    C411769   4.575   3.097  13.649 -0.6488 -0.2358 -0.3187
  795MPD2    C511770   4.468   3.165  13.592  0.4435 -0.1081  0.2387
  795MPD2     H11771   0.008   3.024  13.375 -0.5670  1.0626 -1.7819
  795MPD2    H111772   4.560   3.074  13.754 -0.5419  0.6668 -0.0981
  795MPD2    H211773   4.386   3.239  13.409 -0.2115  0.8557  1.4970
  795MPD2    H311774   4.389   3.199  13.659  1.7576  0.3829  1.5344
  795MPD2     N11775   0.038   2.961  13.626  0.6454  0.3300 -0.0845
  795MPD2    H511776   0.117   2.930  13.571  0.7978 -0.6611  0.6860
  795MPD2    N111777   4.561   3.137  13.239  0.4894 -0.2953  0.5670
  795MPD2    H711778   4.646   3.126  13.184 -0.9855  0.9845 -1.9446
  796MPD2     C11779   4.078   4.372  15.779  0.5350 -0.0788 -0.3691
  796MPD2    C111780   4.192   4.422  15.842 -0.7213 -0.2236 -0.0717
  796MPD2    C211781   4.215   4.556  15.844 -0.0679  0.7077 -0.4263
  796MPD2    C311782   4.125   4.646  15.787 -0.4827  0.2744 -0.0121
  796MPD2    C411783   4.004   4.595  15.738 -0.6070  0.6408 -0.3002
  796MPD2    C511784   3.980   4.461  15.727  0.2985  0.0215  0.1771
  796MPD2     H11785   4.291   4.597  15.909 -1.9654 -0.8175  2.7393
  796MPD2    H111786   3.920   4.659  15.712 -0.6208  0.1254 -1.5002
  796MPD2    H211787   4.065   4.264  15.782  1.1638 -0.1474 -0.0243
  796MPD2    H311788   3.885   4.429  15.686  1.6994 -2.0847 -1.4412
  796MPD2     N11789   4.153   0.042  15.815 -0.8002 -0.3507  0.1918
  796MPD2    H511790   4.247   0.075  15.833 -0.9875  0.2430  0.0773
  796MPD2    N111791   4.266   4.333  15.925  0.4951  0.7760  0.2527
  796MPD2    H711792   4.227   4.239  15.930  2.0922  0.0411 -1.4250
  797MPD2     C11793   0.808   3.825  17.141  0.8831 -0.1461 -0.1342
  797MPD2    C111794   0.780   3.937  17.209  0.5117 -0.5327  0.4770
  797MPD2    C211795   0.671   4.020  17.171 -0.1117 -0.2674  0.6105
  797MPD2    C311796   0.591   3.982  17.065  0.0595 -0.2817  0.2748
  797MPD2    C411797   0.612   3.861  17.005  0.1000  0.0770  0.0603
  797MPD2    C511798   0.722   3.781  17.041  0.5541 -0.3539 -0.0431
  797MPD2     H11799   0.668   4.119  17.217 -0.7218 -1.2198  2.6075
  797MPD2    H111800   0.554   3.829  16.919  1.4615 -0.6206 -0.6084
  797MPD2    H211801   0.890   3.756  17.156  0.1675 -0.5098  1.9955
  797MPD2    H311802   0.738   3.682  16.999  0.2521  0.3640 -1.8113
  797MPD2     N11803   0.490   4.072  17.017 -0.8235  0.5340  0.5838
  797MPD2    H511804   0.436   4.043  16.936 -1.4093  0.3738  1.0387
  797MPD2    N111805   0.852   3.991  17.318 -0.2006 -0.5366 -0.6749
  797MPD2    H711806   0.821   4.081  17.354  1.1585  0.4519 -1.9536
  798MPD2     C11807   0.722   4.698  17.244  0.8470  0.8168  0.5522
  798MPD2    C111808   0.676   4.574  17.238  0.5477 -0.3359  0.1175
  798MPD2    C211809   0.739   4.477  17.321 -0.3366 -0.1798  0.0744
  798MPD2    C311810   0.843   4.506  17.398  0.8082 -0.5096  0.1118
  798MPD2    C411811   0.896   4.629  17.390  0.2918  0.5879  0.0867
  798MPD2    C511812   0.840   4.726  17.312  0.0815  0.0492  0.5567
  798MPD2     H11813   0.700   4.375  17.326  0.3778 -0.4018  1.1419
  798MPD2    H111814   0.987   4.658  17.442  1.4503 -0.6250 -1.2764
  798MPD2    H211815   0.682   0.039  17.181 -2.1629  0.5217  2.1234
  798MPD2    H311816   0.895   0.080  17.294  1.2547 -0.5941  0.8558
  798MPD2     N11817   0.895   4.400  17.468 -0.0412  0.6602 -0.0180
  798MPD2    H511818   0.841   4.315  17.453  2.1006 -0.9287  1.3079
  798MPD2    N111819   0.566   4.531  17.161  0.0312  0.2334  0.0186
  798MPD2    H711820   0.537   4.435  17.176  0.1719  0.1832 -0.0248
  799MPD2     C11821   4.338   1.096  14.424 -0.7408  0.5608 -0.6743
  799MPD2    C111822   4.295   1.010  14.323 -0.2011  0.1026 -0.7541
  799MPD2    C211823   4.268   1.061  14.203  0.2231 -0.5683 -0.6809
  799MPD2    C311824   4.303   1.187  14.171  0.6869 -0.7245  0.1786
  799MPD2    C411825   4.365   1.272  14.261 -0.0053 -0.5555  0.3191
  799MPD2    C511826   4.369   1.227  14.392  0.7008 -0.3326 -0.2796
  799MPD2     H11827   4.230   0.990  14.131 -3.2485  1.3974 -0.7630
  799MPD2    H111828   4.392   1.375  14.240 -0.6445  0.1293  2.8968
  799MPD2    H211829   4.354   1.054  14.523 -0.5672 -1.8588 -1.7319
  799MPD2    H311830   4.389   1.300  14.468  0.5791  0.6745 -1.2177
  799MPD2     N11831   4.283   1.245  14.043  0.0552 -0.0443  0.0026
  799MPD2    H511832   4.319   1.339  14.028 -2.7479  0.9816 -0.3635
  799MPD2    N111833   4.262   0.874  14.335 -0.4512  0.0215 -0.6131
  799MPD2    H711834   4.195   0.831  14.272  2.3476 -1.9679 -2.1795
  800MPD2     C11835   4.389   2.320  14.135  0.1336  0.1993 -1.4557
  800MPD2    C111836   4.504   2.240  14.136  0.3785  0.7379 -0.9609
  800MPD2    C211837   4.507   2.115  14.079  0.2043  0.2659  0.5543
  800MPD2    C311838   4.397   2.068  14.017 -0.7325 -0.2443 -0.5423
  800MPD2    C411839   4.277   2.147  14.013  0.1270 -0.7809  0.5290
  800MPD2    C511840   4.276   2.263  14.081 -0.5208 -0.1421 -0.1492
  800MPD2     H11841   4.599   2.057  14.085  0.0584  0.2258  2.7168
  800MPD2    H111842   4.185   2.109  13.969 -0.2231  0.4935  0.1506
  800MPD2    H211843   4.395   2.426  14.156 -0.4997  0.2175 -1.3831
  800MPD2    H311844   4.188   2.325  14.081  0.4694  1.2866  2.2615
  800MPD2     N11845   4.406   1.935  13.970 -0.1401  0.2516 -0.0721
  800MPD2    H511846   4.487   1.883  14.003 -1.2107 -0.9800  0.6204
  800MPD2    N111847   4.615   2.303  14.192  0.0260 -0.0972 -0.3592
  800MPD2    H711848   4.608   2.393  14.241  1.8103  0.0413 -0.3413
  801MPD2     C11849   0.108   2.983  14.122 -0.0325 -0.1062  0.8092
  801MPD2    C111850   0.023   2.877  14.141 -0.0340  0.3090  0.2508
  801MPD2    C211851   4.621   2.905  14.151 -0.8181 -0.3646 -0.3464
  801MPD2    C311852   4.574   3.032  14.127 -0.1498 -0.8115 -0.6198
  801MPD2    C411853   4.669   3.131  14.110 -0.1933 -0.1223  0.3748
  801MPD2    C511854   0.063   3.106  14.098  0.0132  0.2334 -0.5743
  801MPD2     H11855   4.555   2.822  14.176 -0.7801  0.2387  1.7592
  801MPD2    H111856   4.632   3.233  14.109 -0.0203 -0.0482  1.1991
  801MPD2    H211857   0.213   2.960  14.127  0.0511 -0.0086 -0.3866
  801MPD2    H311858   0.132   3.186  14.073  0.7812  0.1157  1.2249
  801MPD2     N11859   4.442   3.063  14.152 -0.0428 -0.5658  0.1925
  801MPD2    H511860   4.400   3.155  14.160  1.4988  0.3243 -1.8373
  801MPD2    N111861   0.058   2.746  14.180  0.0110  0.0903  0.4405
  801MPD2    H711862   4.725   2.674  14.173  0.3720 -0.4193  1.8511
  802MPD2     C11863   3.950   2.136  17.424  0.4347  0.3396 -0.1170
  802MPD2    C111864   4.004   2.260  17.407  0.3921 -0.2671 -0.0624
  802MPD2    C211865   4.081   2.287  17.295  0.2589  0.4712 -0.1945
  802MPD2    C311866   4.108   2.189  17.207  0.6397  0.1718  0.5008
  802MPD2    C411867   4.058   2.055  17.224 -0.9330 -0.1646  0.0093
  802MPD2    C511868   3.972   2.032  17.333  0.5302 -0.0269  0.9985
  802MPD2     H11869   4.130   2.381  17.273  1.7085  0.1231  1.5889
  802MPD2    H111870   4.081   1.975  17.155 -0.4024 -1.3805  1.5978
  802MPD2    H211871   3.874   2.112  17.498 -0.9571  1.9168 -1.0197
  802MPD2    H311872   3.924   1.936  17.348  1.7259 -0.7057  0.4626
  802MPD2     N11873   4.191   2.228  17.101 -0.5349 -0.2769 -0.8165
  802MPD2    H511874   4.181   2.326  17.077 -0.2093 -0.4404 -1.6295
  802MPD2    N111875   3.975   2.364  17.505 -0.5407 -0.0117  0.1066
  802MPD2    H711876   3.896   2.343  17.565 -0.0681 -0.7084  0.4922
  803MPD2     C11877   0.456   1.750  11.902  0.6851  0.2720 -0.0119
  803MPD2    C111878   0.569   1.694  11.956 -0.1117 -0.0668 -0.1828
  803MPD2    C211879   0.561   1.585  12.044  0.2108  0.0782 -0.2183
  803MPD2    C311880   0.439   1.533  12.081 -0.1451 -0.2113  0.0557
  803MPD2    C411881   0.330   1.593  12.028  0.8873 -0.3784 -0.5181
  803MPD2    C511882   0.337   1.698  11.937  0.5234  0.3005  0.6111
  803MPD2     H11883   0.651   1.545  12.090  0.6483 -0.2818 -1.3848
  803MPD2    H111884   0.233   1.562  12.066  0.5021  0.5610 -0.7410
  803MPD2    H211885   0.446   1.828  11.827  0.2956 -0.1184 -0.3605
  803MPD2    H311886   0.242   1.744  11.911  1.5676  2.8111  1.1821
  803MPD2     N11887   0.429   1.421  12.162 -0.4894  0.3352  0.0883
  803MPD2    H511888   0.334   1.390  12.178 -0.0319 -1.3872 -0.6409
  803MPD2    N111889   0.695   1.747  11.931  0.8844  0.0627  0.4169
  803MPD2    H711890   0.776   1.719  11.986  0.8610 -1.2309 -0.2056
  804MPD2     C11891   0.028   2.465  16.749  0.5860  0.3708  0.5217
  804MPD2    C111892   4.733   2.435  16.883  0.5006 -0.0383 -0.3599
  804MPD2    C211893   0.017   2.530  16.977 -0.1428 -0.1809  0.4496
  804MPD2    C311894   0.061   2.661  16.953  0.2048  0.1472  0.3433
  804MPD2    C411895   0.069   2.699  16.814  0.1229 -0.4621 -0.1015
  804MPD2    C511896   0.067   2.597  16.720  0.3992  0.4421 -0.1620
  804MPD2     H11897   0.012   2.494  17.079 -2.3222  0.0232  0.4004
  804MPD2    H111898   0.090   2.802  16.785 -2.7342 -0.0195 -0.5934
  804MPD2    H211899   0.027   2.391  16.670 -0.0514  0.2283  0.6673
  804MPD2    H311900   0.081   2.627  16.616  0.1242 -1.1779 -0.6660
  804MPD2     N11901   0.098   2.746  17.058  0.2558 -0.0369  0.2068
  804MPD2    H511902   0.068   2.718  17.151 -0.0836 -0.0385  0.0993
  804MPD2    N111903   4.711   2.307  16.929 -0.2125 -0.2276  0.2236
  804MPD2    H711904   4.706   2.298  17.030 -0.3812 -1.6964  0.0933
  805MPD2     C11905   3.692   0.869  15.369 -0.7486  0.1421 -0.1373
  805MPD2    C111906   3.771   0.964  15.309 -0.5876  0.1995 -0.6867
  805MPD2    C211907   3.904   0.976  15.339  0.6768 -0.1820  0.5356
  805MPD2    C311908   3.964   0.899  15.429 -0.1606 -0.5759 -0.1195
  805MPD2    C411909   3.882   0.813  15.503 -0.6889 -0.0903  0.1016
  805MPD2    C511910   3.750   0.795  15.469  0.6263  0.5268 -0.1674
  805MPD2     H11911   3.967   1.046  15.287 -0.2734  1.7628  1.9972
  805MPD2    H111912   3.930   0.751  15.577 -0.0356 -1.5438 -1.5327
  805MPD2    H211913   3.586   0.850  15.356 -0.5443  0.4098 -2.2453
  805MPD2    H311914   3.697   0.712  15.515  1.8003 -0.1439 -0.0245
  805MPD2     N11915   4.097   0.939  15.455 -0.5219  0.2601  0.5620
  805MPD2    H511916   4.134   1.001  15.384  1.5621 -2.7290 -0.9906
  805MPD2    N111917   3.721   1.055  15.218  0.6768  0.0886  0.2751
  805MPD2    H711918   3.783   1.115  15.165 -0.5293 -0.1130 -1.3820
  806MPD2     C11919   4.021   0.400  17.671 -0.0943  0.1006 -0.3550
  806MPD2    C111920   4.082   0.480   0.014  0.1730 -0.5710 -0.4766
  806MPD2    C211921   4.174   0.575  17.723  0.1251 -0.4278 -0.1590
  806MPD2    C311922   4.206   0.581  17.589  0.2329  0.5451 -0.3644
  806MPD2    C411923   4.138   0.504  17.496 -0.1373 -0.1349 -0.1519
  806MPD2    C511924   4.040   0.417  17.537  0.7052 -0.4245  0.3352
  806MPD2     H11925   4.226   0.630   0.052  1.5833 -1.8323 -0.1354
  806MPD2    H111926   4.156   0.511  17.390 -2.2955  1.6521 -0.4103
  806MPD2    H211927   3.938   0.332  17.689 -0.1170  0.3804  0.6205
  806MPD2    H311928   3.983   0.359  17.466 -0.4566  0.2322  0.7319
  806MPD2     N11929   4.310   0.676  17.541 -0.0025 -0.3097 -0.0535
  806MPD2    H511930   4.356   0.732  17.612  1.8692 -0.3871 -1.1976
  806MPD2    N111931   4.047   0.457   0.153  0.7132 -0.1795  0.4641
  806MPD2    H711932   4.001   0.371   0.180 -0.2403  0.2405  0.1570
  807MPD2     C11933   3.892   4.599   0.605 -0.4889  0.0697 -0.1892
  807MPD2    C111934   4.020   4.650   0.631  0.7948 -0.0109 -0.1230
  807MPD2    C211935   4.107   4.561   0.702 -0.1165 -0.0354 -0.7915
  807MPD2    C311936   4.072   4.432   0.747  0.1036  0.9391  0.2996
  807MPD2    C411937   3.940   4.394   0.737 -0.2124 -0.4911 -0.2829
  807MPD2    C511938   3.856   4.478   0.671 -0.0042 -0.0483  0.3389
  807MPD2     H11939   4.213   4.583   0.700 -0.1342  0.1989  0.6498
  807MPD2    H111940   3.906   4.300   0.779  0.2323 -0.6905 -0.3683
  807MPD2    H211941   3.825   4.656   0.542 -0.3735  1.2024  0.6967
  807MPD2    H311942   3.752   4.451   0.656 -0.0389  0.6381 -0.6616
  807MPD2     N11943   4.163   4.352   0.813 -0.0546 -0.2327  0.0732
  807MPD2    H511944   4.261   4.369   0.793  0.2721 -0.1289  1.8414
  807MPD2    N111945   4.071   0.039   0.597 -0.4675  0.4949  0.2447
  807MPD2    H711946   4.171   0.054   0.605 -0.3697  0.6757 -1.4150
  808MPD2     C11947   4.591   0.324   9.085 -0.4873 -0.0689 -0.0007
  808MPD2    C111948   4.569   0.452   9.131 -0.0567  0.0365  0.3105
  808MPD2    C211949   4.677   0.543   9.147 -0.0263  0.3983 -0.6145
  808MPD2    C311950   0.068   0.499   9.121  0.1469 -0.4050 -0.0277
  808MPD2    C411951   0.086   0.371   9.081 -0.4123 -0.0160 -0.2260
  808MPD2    C511952   4.717   0.283   9.070 -0.1823  0.6723 -0.3648
  808MPD2     H11953   4.662   0.648   9.174 -0.0226 -0.2347  1.8796
  808MPD2    H111954   0.188   0.339   9.062 -0.1576  0.1850  0.8430
  808MPD2    H211955   4.517   0.246   9.070  2.1630 -2.9168  1.6144
  808MPD2    H311956   4.729   0.181   9.036  1.9560  0.1858  1.9073
  808MPD2     N11957   0.182   0.579   9.166  0.0214  0.0385  0.2525
  808MPD2    H511958   0.270   0.532   9.147  0.2777  0.2301  0.9740
  808MPD2    N111959   4.435   0.500   9.162 -0.1698 -0.7096  0.3519
  808MPD2    H711960   4.419   0.593   9.202  0.8144 -0.0747 -0.7356
  809MPD2     C11961   0.389   0.973  10.064 -0.0474  0.3306 -0.1903
  809MPD2    C111962   0.440   1.063   9.969  0.1355  0.1002 -0.0334
  809MPD2    C211963   0.446   1.037   9.835  0.0758 -0.1053 -0.8970
  809MPD2    C311964   0.399   0.908   9.796 -0.3711  0.1651  0.0682
  809MPD2    C411965   0.343   0.820   9.881 -0.2455  0.1620 -0.5011
  809MPD2    C511966   0.331   0.858  10.018 -1.0075  0.6574 -0.2655
  809MPD2     H11967   0.483   1.106   9.760  1.4635 -0.0319 -0.1414
  809MPD2    H111968   0.315   0.723   9.842 -1.2780 -0.0069  0.6508
  809MPD2    H211969   0.381   0.986  10.171 -0.3639  3.1923 -0.5863
  809MPD2    H311970   0.291   0.791  10.092 -0.8872  0.6039 -0.2494
  809MPD2     N11971   0.408   0.855   9.664  0.5812 -0.5096 -0.0730
  809MPD2    H511972   0.361   0.769   9.638  1.2463 -1.5574  2.1338
  809MPD2    N111973   0.490   1.188  10.015  0.4641 -0.4233  0.2100
  809MPD2    H711974   0.498   1.255   9.939 -0.6301 -0.9624 -0.3845
  810MPD2     C11975   4.126   1.248  11.042  0.4231 -0.4091  0.0599
  810MPD2    C111976   4.147   1.229  10.904  0.2164 -0.4822  0.1172
  810MPD2    C211977   4.116   1.331  10.819  0.8591  0.6039  0.1522
  810MPD2    C311978   4.060   1.449  10.866  0.6865  0.1259  0.0657
  810MPD2    C411979   4.028   1.461  11.001  0.4938  0.2385  0.5949
  810MPD2    C511980   4.068   1.360  11.085  0.3738 -0.2989 -0.0576
  810MPD2     H11981   4.140   1.330  10.714  1.1377 -1.7924  0.2527
  810MPD2    H111982   3.970   1.546  11.035 -1.1817 -0.2916 -0.9640
  810MPD2    H211983   4.152   1.172  11.115 -0.0049 -2.4350 -1.8974
  810MPD2    H311984   4.063   1.369  11.193  0.2805  2.1017 -0.2650
  810MPD2     N11985   4.014   1.553  10.782  0.1020  0.0990 -0.1905
  810MPD2    H511986   3.954   1.621  10.828  1.6612  1.9447 -0.9127
  810MPD2    N111987   4.191   1.103  10.853  0.2385 -0.0491 -0.2152
  810MPD2    H711988   4.177   1.018  10.907  1.4210  1.3503  2.2682
  811MPD2     C11989   3.682   0.761  10.255  0.5904 -0.2989 -0.1140
  811MPD2    C111990   3.752   0.871  10.289 -0.0397  1.1387  0.3143
  811MPD2    C211991   3.710   1.000  10.252  0.2477  0.3772  0.5150
  811MPD2    C311992   3.600   1.017  10.178  0.5229 -0.2731  0.9276
  811MPD2    C411993   3.526   0.912  10.139 -0.1564 -0.1157  0.1544
  811MPD2    C511994   3.569   0.782  10.177 -0.5370  0.1618 -0.1997
  811MPD2     H11995   3.765   1.087  10.284  1.2327 -0.4536  1.0872
  811MPD2    H111996   3.434   0.923  10.082  0.6745 -0.1616 -1.2129
  811MPD2    H211997   3.706   0.659  10.282  1.0930  0.5682  2.6841
  811MPD2    H311998   3.503   0.700  10.151 -1.3972  0.2197  1.7884
  811MPD2     N11999   3.566   1.151  10.143  0.1419  0.2103  0.1390
  811MPD2    H512000   3.624   1.225  10.181  0.4939  1.2874 -2.4716
  811MPD2    N112001   3.862   0.851  10.372 -0.2355 -0.3374 -0.6276
  811MPD2    H712002   3.883   0.756  10.402  0.7765  0.2121  0.4251
  812MPD2     C12003   2.511   1.528  12.139  0.0175 -0.0468  0.6146
  812MPD2    C112004   2.639   1.575  12.122  0.1118  0.2475  0.0233
  812MPD2    C212005   2.744   1.528  12.204  0.2378  0.6677 -0.1217
  812MPD2    C312006   2.709   1.454  12.312  0.0992 -0.3237  0.0850
  812MPD2    C412007   2.574   1.425  12.336 -0.3637  0.0303  0.5400
  812MPD2    C512008   2.477   1.453  12.247  0.0703  0.4096 -0.6438
  812MPD2     H12009   2.843   1.572  12.197 -0.0174  0.6184 -4.2978
  812MPD2    H112010   2.541   1.384  12.431  1.8025 -1.1244  0.7841
  812MPD2    H212011   2.431   1.573  12.082  0.3139 -0.1195  0.1312
  812MPD2    H312012   2.374   1.438  12.278  0.5921  4.0142  2.8093
  812MPD2     N12013   2.807   1.419  12.407 -0.2943  0.0084 -0.0115
  812MPD2    H512014   2.901   1.446  12.381  0.1202  0.3398  1.8088
  812MPD2    N112015   2.664   1.646  12.000  0.1151 -0.3161  0.1729
  812MPD2    H712016   2.583   1.664  11.941  0.5464 -1.8282 -0.9036
  813MPD2     C12017   2.384   3.251  12.923 -0.2287 -0.1397 -0.0058
  813MPD2    C112018   2.417   3.311  13.045 -0.6379  0.1861 -0.2709
  813MPD2    C212019   2.314   3.358  13.132  0.2326 -0.0521 -0.3566
  813MPD2    C312020   2.181   3.355  13.089  0.4777  0.5236  0.2761
  813MPD2    C412021   2.148   3.299  12.966 -0.2602 -0.1329 -0.4086
  813MPD2    C512022   2.248   3.246  12.889 -0.0371 -0.4627 -0.4302
  813MPD2     H12023   2.341   3.398  13.229  0.3133  1.2506 -0.9156
  813MPD2    H112024   2.046   3.279  12.937 -0.2982 -1.0497  0.3994
  813MPD2    H212025   2.460   3.212  12.856 -2.1454 -1.2666 -1.5307
  813MPD2    H312026   2.225   3.202  12.793  0.8530 -0.1036 -0.8060
  813MPD2     N12027   2.080   3.389  13.184  0.3237  0.1885 -0.6711
  813MPD2    H512028   2.111   3.410  13.278 -1.7286 -2.5482  0.6243
  813MPD2    N112029   2.554   3.310  13.078 -0.1230  0.2135 -0.2852
  813MPD2    H712030   2.618   3.284  13.004 -0.6860 -1.8590 -0.0525
  814MPD2     C12031   2.779   4.317  12.436  0.4920  0.6658 -0.2976
  814MPD2    C112032   2.751   4.437  12.373  0.5006  0.6052 -0.6030
  814MPD2    C212033   2.797   4.551  12.428  0.6485  0.0489  0.4427
  814MPD2    C312034   2.872   4.554  12.544  0.9643 -1.1232 -0.1451
  814MPD2    C412035   2.895   4.430  12.609 -0.1516  0.0356  0.2827
  814MPD2    C512036   2.839   4.314  12.561  0.4015  0.9888 -0.6911
  814MPD2     H12037   2.790   4.646  12.376 -2.3055 -0.9616 -0.9675
  814MPD2    H112038   2.969   4.410  12.686  1.6812  0.9049 -1.2673
  814MPD2    H212039   2.741   4.219  12.409  0.3229  1.5272 -3.1809
  814MPD2    H312040   2.860   4.224  12.618  0.6839  0.6189 -1.3686
  814MPD2     N12041   2.911   4.671  12.613  0.4276  0.4905 -0.1938
  814MPD2    H512042   2.978   4.670  12.690  0.1080  1.2044  0.0921
  814MPD2    N112043   2.672   4.447  12.253 -0.2309 -0.2655 -0.1194
  814MPD2    H712044   2.664   4.535  12.203 -0.9888  0.4259  1.2234
  815MPD2     C12045   2.974   2.645  11.924 -0.1058 -0.2085  1.1289
  815MPD2    C112046   2.941   2.677  11.794 -0.4366 -0.9484  0.2213
  815MPD2    C212047   2.838   2.767  11.776  1.0463 -0.3517  0.1725
  815MPD2    C312048   2.765   2.817  11.883 -1.2383  0.3493 -0.1055
  815MPD2    C412049   2.813   2.799  12.010 -0.3779  0.0438  0.9658
  815MPD2    C512050   2.915   2.708  12.031  0.4814 -0.1512 -0.3955
  815MPD2     H12051   2.802   2.794  11.678  0.1497 -1.1882  0.2768
  815MPD2    H112052   2.769   2.857  12.091  1.2185  1.7846  0.5975
  815MPD2    H212053   3.047   2.570  11.951 -0.2995 -0.4579  0.9605
  815MPD2    H312054   2.949   2.671  12.127  0.6275 -2.0965 -1.2090
  815MPD2     N12055   2.651   2.893  11.848  0.1804 -0.4131 -0.0126
  815MPD2    H512056   2.646   2.908  11.748 -1.3028  2.5145  0.4891
  815MPD2    N112057   3.018   2.611  11.693 -0.4596  0.0177 -0.1776
  815MPD2    H712058   3.077   2.537  11.731 -1.8039 -1.4429 -0.9450
  816MPD2     C12059   2.916   1.879  16.937 -0.1916  0.6220  0.3647
  816MPD2    C112060   2.983   1.995  16.983  0.8180  0.8665 -0.0472
  816MPD2    C212061   3.116   2.026  16.941 -0.1124 -0.6252  0.5800
  816MPD2    C312062   3.177   1.939  16.849  0.0019  0.2156 -0.7129
  816MPD2    C412063   3.105   1.829  16.801  0.4842  0.1395 -0.3475
  816MPD2    C512064   2.974   1.805  16.839  0.0887  0.4581  0.2033
  816MPD2     H12065   3.161   2.117  16.979  1.5729 -1.0971 -0.2806
  816MPD2    H112066   3.144   1.761  16.727 -1.1636 -0.2264 -0.8890
  816MPD2    H212067   2.812   1.858  16.963 -0.4984  3.8825  1.7620
  816MPD2    H312068   2.931   1.714  16.798 -0.0588  0.1323  1.0841
  816MPD2     N12069   3.312   1.952  16.823  0.1011  0.6429 -0.4079
  816MPD2    H512070   3.356   2.043  16.830  1.4894 -0.2328  2.3240
  816MPD2    N112071   2.915   2.086  17.064  0.2553 -0.2236  0.2822
  816MPD2    H712072   2.814   2.084  17.059  0.2320  1.0623  0.3027
  817MPD2     C12073   2.486   3.473   9.157  0.3458 -0.7885  0.5805
  817MPD2    C112074   2.451   3.338   9.154  0.0491 -0.4100  0.3713
  817MPD2    C212075   2.330   3.309   9.106 -0.3073  0.5302  0.5699
  817MPD2    C312076   2.236   3.405   9.065 -0.4914 -0.2991 -0.3860
  817MPD2    C412077   2.271   3.535   9.067 -0.2700  0.6233  0.4518
  817MPD2    C512078   2.401   3.568   9.106  0.5305  0.2795 -0.2836
  817MPD2     H12079   2.297   3.206   9.098  0.3362  0.4282 -0.7409
  817MPD2    H112080   2.211   3.619   9.036 -1.1978 -0.6297 -1.1330
  817MPD2    H212081   2.583   3.506   9.193  0.4050 -2.7008  2.1987
  817MPD2    H312082   2.431   3.672   9.100  0.9414  0.2398  1.0858
  817MPD2     N12083   2.105   3.368   9.038 -0.0850  0.6889  0.1292
  817MPD2    H512084   2.089   3.268   9.043 -1.3639  0.9482  1.2709
  817MPD2    N112085   2.530   3.228   9.195  0.3057 -0.0021 -0.2440
  817MPD2    H712086   2.490   3.138   9.172 -0.5448  0.2925  0.1120
  818MPD2     C12087   1.390   3.917   9.793 -1.1597 -0.0822 -0.0903
  818MPD2    C112088   1.289   3.851   9.862  1.0067  0.6253 -0.1962
  818MPD2    C212089   1.321   3.727   9.915  0.0849  0.4896  0.5073
  818MPD2    C312090   1.448   3.664   9.890 -0.4255 -0.3980  0.1572
  818MPD2    C412091   1.546   3.737   9.817  0.6201 -1.0057  0.0085
  818MPD2    C512092   1.510   3.858   9.778  0.0478  0.2770 -0.2310
  818MPD2     H12093   1.245   3.665   9.962  1.3027 -0.3364  1.3988
  818MPD2    H112094   1.647   3.704   9.795  2.0852  2.0984  2.1072
  818MPD2    H212095   1.379   4.019   9.758 -3.5481 -0.0452  0.7460
  818MPD2    H312096   1.585   3.922   9.732  0.8335 -2.1787 -2.3757
  818MPD2     N12097   1.478   3.529   9.919  0.2311 -0.1857 -0.0187
  818MPD2    H512098   1.573   3.502   9.896  0.2694 -0.4831  0.4880
  818MPD2    N112099   1.160   3.907   9.871  0.3448 -0.8612 -0.2348
  818MPD2    H712100   1.090   3.852   9.920 -1.0022  1.1733  0.1553
  819MPD2     C12101   0.229   0.984  15.333  0.4808 -0.0082 -0.5806
  819MPD2    C112102   0.170   0.870  15.378 -0.0773 -0.0673  0.1060
  819MPD2    C212103   0.229   0.802  15.488 -0.8033 -0.1455  0.3881
  819MPD2    C312104   0.347   0.847  15.540  0.2132 -0.6434  0.8811
  819MPD2    C412105   0.406   0.963  15.490 -0.0405  1.0638 -0.2397
  819MPD2    C512106   0.349   1.032  15.389 -0.3532  0.1622 -0.1636
  819MPD2     H12107   0.176   0.725  15.541  1.1579  0.7383  3.6225
  819MPD2    H112108   0.496   1.002  15.537 -0.4758 -1.0477  2.3504
  819MPD2    H212109   0.171   1.050  15.270  1.5110  1.0557 -0.3990
  819MPD2    H312110   0.395   1.124  15.353  2.3147  0.3770  3.8873
  819MPD2     N12111   0.405   0.768  15.638  0.3461 -0.2666  0.1365
  819MPD2    H512112   0.358   0.680  15.658 -0.0942 -0.1628 -0.4394
  819MPD2    N112113   0.044   0.834  15.326  0.2710  0.6080  0.2645
  819MPD2    H712114   0.005   0.902  15.261 -0.8516 -0.7486 -0.4630
  820MPD2     C12115   4.239   1.298  14.803 -0.0349  0.4033  0.4463
  820MPD2    C112116   4.139   1.236  14.880  0.4253  0.5427 -0.5418
  820MPD2    C212117   4.190   1.146  14.975 -0.1645  0.0331  0.0997
  820MPD2    C312118   4.326   1.125  14.996 -0.1896  0.0269 -0.0560
  820MPD2    C412119   4.417   1.185  14.917  0.8014 -0.7560  0.3490
  820MPD2    C512120   4.376   1.275  14.826 -0.0383  0.0942 -0.0534
  820MPD2     H12121   4.121   1.088  15.035  0.9233  0.8256  2.1311
  820MPD2    H112122   4.523   1.164  14.926  0.9813 -0.8530 -2.1443
  820MPD2    H212123   4.209   1.364  14.722 -0.2299  1.9080  1.7303
  820MPD2    H312124   4.458   1.319  14.770 -0.3316 -1.4925 -1.7373
  820MPD2     N12125   4.378   1.024  15.073 -0.0893 -0.5955 -0.3965
  820MPD2    H512126   4.476   1.003  15.058  0.3378  0.0334  1.5073
  820MPD2    N112127   4.002   1.270  14.869  0.5479 -0.3969  0.1741
  820MPD2    H712128   3.966   1.335  14.799  1.8673  0.0685 -0.0757
  821MPD2     C12129   4.541   1.932  13.142  0.1825 -0.1491  0.3655
  821MPD2    C112130   4.622   1.975  13.243 -0.3457  0.2019  0.0567
  821MPD2    C212131   4.716   2.063  13.209  0.0955 -0.2813 -0.3341
  821MPD2    C312132   0.003   2.101  13.071  0.2332  0.1613  0.1919
  821MPD2    C412133   4.660   2.048  12.975  0.5031 -0.4454  0.8283
  821MPD2    C512134   4.552   1.974  13.018 -0.8656 -0.2685  0.4039
  821MPD2     H12135   0.032   2.108  13.292 -1.5757  2.4210 -0.7449
  821MPD2    H112136   4.674   2.077  12.872 -1.0797 -0.5153  0.5829
  821MPD2    H212137   4.467   1.860  13.174  0.7160 -1.8433 -2.1834
  821MPD2    H312138   4.490   1.923  12.945  0.3389 -0.6678 -0.3411
  821MPD2     N12139   0.117   2.179  13.038 -0.0959  0.3851 -0.6190
  821MPD2    H512140   0.128   2.216  12.944 -0.9053  0.0340 -0.8527
  821MPD2    N112141   4.608   1.940  13.383 -0.9267  0.0410  0.2964
  821MPD2    H712142   4.673   1.978  13.451  1.5154 -1.0392 -1.4446
  822MPD2     C12143   0.880   2.044  15.589 -0.2999 -0.3373 -0.3871
  822MPD2    C112144   0.858   1.996  15.712  0.4310 -0.9627  0.2924
  822MPD2    C212145   0.764   2.053  15.790  0.0062 -0.5706  0.2056
  822MPD2    C312146   0.696   2.163  15.749 -0.6855 -0.5680 -0.1002
  822MPD2    C412147   0.724   2.215  15.628  0.1277 -0.0313  0.1146
  822MPD2    C512148   0.813   2.151  15.541  0.3135  0.8241  0.3186
  822MPD2     H12149   0.741   2.017  15.890 -0.8656 -0.4379  0.0520
  822MPD2    H112150   0.681   2.306  15.589  0.9784  0.3128  0.0003
  822MPD2    H212151   0.943   1.995  15.516 -1.0266 -2.1041  0.1946
  822MPD2    H312152   0.829   2.202  15.448 -0.4777  0.6455  0.0894
  822MPD2     N12153   0.619   2.231  15.844 -0.2147 -0.1968  0.8314
  822MPD2    H512154   0.617   2.195  15.939 -2.0589  0.3928  1.0236
  822MPD2    N112155   0.941   1.897  15.774  0.5555 -0.3198 -0.3290
  822MPD2    H712156   0.915   1.876  15.869 -0.9159 -1.1842 -0.9189
  823MPD2     C12157   0.265   2.257  16.594  0.1934 -0.3357  0.1773
  823MPD2    C112158   0.297   2.188  16.482  0.2883 -0.6270 -0.3999
  823MPD2    C212159   0.343   2.059  16.493  0.6375 -0.4927 -0.4255
  823MPD2    C312160   0.341   2.005  16.619  0.8670 -0.2251  0.4816
  823MPD2    C412161   0.288   2.074  16.729  0.0334 -0.3376  0.2784
  823MPD2    C512162   0.266   2.202  16.719 -0.0889 -0.0478 -0.8732
  823MPD2     H12163   0.379   2.011  16.403  0.1323  0.1151 -0.9523
  823MPD2    H112164   0.288   2.026  16.826  0.6605 -0.6933  0.1032
  823MPD2    H212165   0.255   2.364  16.582  0.2039 -0.2696  0.7354
  823MPD2    H312166   0.237   2.258  16.808  1.4707 -0.4584 -0.0906
  823MPD2     N12167   0.395   1.874  16.638  0.4141 -0.1724  0.2679
  823MPD2    H512168   0.378   1.835  16.730 -0.8581 -1.4251 -0.5055
  823MPD2    N112169   0.302   2.262  16.363 -0.1043 -0.5948  0.2890
  823MPD2    H712170   0.291   2.361  16.379 -0.3984 -0.6911  0.6834
  824MPD2     C12171   1.545   1.277  15.823 -0.0464 -0.3972  0.6683
  824MPD2    C112172   1.477   1.363  15.738  0.5690 -0.2305 -0.7255
  824MPD2    C212173   1.498   1.345  15.603  0.2004 -0.4307 -0.2246
  824MPD2    C312174   1.578   1.248  15.549  0.2316  0.6203 -0.6730
  824MPD2    C412175   1.634   1.158  15.637  0.6809  0.3713 -0.5098
  824MPD2    C512176   1.618   1.175  15.774  0.5083 -0.0695  0.0146
  824MPD2     H12177   1.453   1.413  15.532 -1.4325 -0.6833  0.5741
  824MPD2    H112178   1.712   1.085  15.618 -0.8359 -1.3050 -0.1896
  824MPD2    H212179   1.557   1.288  15.930  4.3388 -2.7077  0.4478
  824MPD2    H312180   1.671   1.110  15.842  0.0562 -0.5493 -0.0925
  824MPD2     N12181   1.613   1.245  15.413  0.2091 -0.3663 -0.3498
  824MPD2    H512182   1.587   1.329  15.362 -2.2024 -2.0246 -1.8022
  824MPD2    N112183   1.398   1.466  15.777 -0.2312 -0.1335  0.5118
  824MPD2    H712184   1.352   1.514  15.700  0.9615  1.2539  0.6498
  825MPD2     C12185   2.320   1.454  15.086 -0.0130 -0.5942 -0.5921
  825MPD2    C112186   2.188   1.488  15.105 -0.3389  0.0075 -0.3962
  825MPD2    C212187   2.146   1.619  15.110 -0.5914  0.0652  0.2769
  825MPD2    C312188   2.237   1.721  15.102  0.1775 -0.4157 -0.3943
  825MPD2    C412189   2.368   1.686  15.107 -1.1016 -1.1339  0.0926
  825MPD2    C512190   2.409   1.559  15.090  0.0369  0.4516  0.0026
  825MPD2     H12191   2.045   1.652  15.133  0.2989  2.3542  0.9482
  825MPD2    H112192   2.444   1.763  15.118 -0.2680 -1.6007 -2.4915
  825MPD2    H212193   2.346   1.350  15.068  0.8996 -0.3899 -0.4578
  825MPD2    H312194   2.514   1.537  15.103  0.8111  2.7060 -2.5899
  825MPD2     N12195   2.201   1.859  15.105  0.1082  0.5543 -0.4234
  825MPD2    H512196   2.279   1.924  15.107 -0.5068  1.3159 -1.0935
  825MPD2    N112197   2.102   1.378  15.106  0.2965 -0.1313 -0.1894
  825MPD2    H712198   2.142   1.286  15.122 -1.0600 -0.8577 -0.9514
  826MPD2     C12199   1.187   0.876  14.049 -0.7869  0.4035 -0.3329
  826MPD2    C112200   1.188   0.932  13.921  0.5500  0.1248  0.9426
  826MPD2    C212201   1.158   1.072  13.910 -0.6152  0.4238 -0.3207
  826MPD2    C312202   1.147   1.160  14.015 -0.6104 -0.4320 -0.1535
  826MPD2    C412203   1.150   1.104  14.144 -0.0401  0.5531  0.3432
  826MPD2    C512204   1.172   0.967  14.153  0.1799 -0.7351  0.0678
  826MPD2     H12205   1.160   1.115  13.810 -0.1270  0.6132 -0.2289
  826MPD2    H112206   1.135   1.165  14.232 -0.0724 -0.1681  0.8455
  826MPD2    H212207   1.196   0.770  14.065  1.3948  0.6869  0.2517
  826MPD2    H312208   1.163   0.928  14.253  0.9159  1.4341  0.9883
  826MPD2     N12209   1.124   1.301  14.007 -0.3924  0.0371 -0.7995
  826MPD2    H512210   1.140   1.352  14.094  2.3067  0.6334 -1.6190
  826MPD2    N112211   1.214   0.845  13.822 -0.2239  0.0143  0.3968
  826MPD2    H712212   1.270   0.764  13.843  0.0661  0.2451  0.5072
  827MPD2     C12213   1.787   2.968   9.884 -1.2192 -0.1134 -0.4308
  827MPD2    C112214   1.780   2.860   9.964  0.3544 -0.4365 -0.2481
  827MPD2    C212215   1.675   2.768   9.958 -0.1490  0.4534  0.1773
  827MPD2    C312216   1.579   2.786   9.860  0.3130  0.8563 -0.3805
  827MPD2    C412217   1.591   2.890   9.768  0.2103 -0.3915  0.5448
  827MPD2    C512218   1.698   2.975   9.779 -0.1137 -0.8380  0.4348
  827MPD2     H12219   1.684   2.679  10.020 -0.8946 -1.5523 -2.5870
  827MPD2    H112220   1.521   2.899   9.685 -0.0699 -0.0051  0.8276
  827MPD2    H212221   1.872   3.036   9.889  0.3158 -2.0552 -0.1089
  827MPD2    H312222   1.706   3.059   9.711  0.5623 -1.1692  0.1059
  827MPD2     N12223   1.483   2.680   9.847  0.4649 -0.1994 -0.2296
  827MPD2    H512224   1.495   2.604   9.913  1.0947 -0.8034 -1.0440
  827MPD2    N112225   1.903   2.837  10.043 -0.3317  0.6847 -0.0999
  827MPD2    H712226   1.986   2.890  10.016  0.5940 -1.3077 -1.1779
  828MPD2     C12227   0.639   2.324  12.182  0.1273  0.4173 -0.1012
  828MPD2    C112228   0.551   2.374  12.093 -0.2915 -0.6845 -1.2926
  828MPD2    C212229   0.583   2.405  11.966  0.1960 -0.3665  0.6416
  828MPD2    C312230   0.711   2.390  11.924  0.2330 -0.4270 -0.2219
  828MPD2    C412231   0.805   2.347  12.014  0.3505 -0.1477 -0.6631
  828MPD2    C512232   0.771   2.318  12.140 -0.7440 -0.4916 -0.5515
  828MPD2     H12233   0.514   2.463  11.906  1.3907 -1.7310 -2.0593
  828MPD2    H112234   0.906   2.331  11.979  0.7575 -1.3522  1.1129
  828MPD2    H212235   0.620   2.301  12.286 -1.6951  2.4469  0.0157
  828MPD2    H312236   0.842   2.273  12.209  0.4869 -1.2801 -2.3176
  828MPD2     N12237   0.751   2.421  11.795 -0.7498  0.3104 -0.3668
  828MPD2    H512238   0.847   2.404  11.764 -0.3914 -0.7092  1.3316
  828MPD2    N112239   0.420   2.390  12.131 -0.6528 -0.1483 -0.3411
  828MPD2    H712240   0.357   2.449  12.077 -0.6467 -0.2145 -0.4198
  829MPD2     C12241   4.444   2.463  11.655 -0.1760 -0.5759  0.7811
  829MPD2    C112242   4.401   2.444  11.786  0.2929  0.6437  0.8469
  829MPD2    C212243   4.491   2.463  11.888  0.0018  0.7343  0.1929
  829MPD2    C312244   4.623   2.481  11.862 -0.3879  0.4720  0.3645
  829MPD2    C412245   4.666   2.491  11.729  0.0187  0.4198 -0.3797
  829MPD2    C512246   4.574   2.496  11.633  0.3716  0.2301  0.5590
  829MPD2     H12247   4.456   2.448  11.990  1.2553  0.2259  0.5407
  829MPD2    H112248   0.032   2.503  11.698  0.5482  0.7936  1.5475
  829MPD2    H212249   4.378   2.475  11.570  1.5575  3.0837 -0.0823
  829MPD2    H312250   4.606   2.487  11.529 -1.2926  3.8658 -0.2722
  829MPD2     N12251   4.721   2.495  11.959  0.5274 -0.2798  0.2566
  829MPD2    H512252   0.081   2.493  11.932  0.8335 -1.3579  1.4141
  829MPD2    N112253   4.257   2.426  11.807 -0.3706 -0.7235  0.1612
  829MPD2    H712254   4.199   2.412  11.725 -0.4786  0.0378  0.1130
  830MPD2     C12255   0.982   0.244  15.828 -0.0343  0.6545 -0.3023
  830MPD2    C112256   0.884   0.291  15.745  0.0349 -0.3169  0.1084
  830MPD2    C212257   0.921   0.333  15.619  0.2123  0.0701  0.2669
  830MPD2    C312258   1.054   0.345  15.579  0.4624  1.0318 -0.0848
  830MPD2    C412259   1.153   0.303  15.672  0.3540 -0.1245  0.0471
  830MPD2    C512260   1.112   0.240  15.786  0.3546  0.1018 -0.3230
  830MPD2     H12261   0.840   0.364  15.554  0.8485  0.8364 -0.1540
  830MPD2    H112262   1.254   0.304  15.634 -0.1072  1.3962 -1.1629
  830MPD2    H212263   0.960   0.201  15.925 -0.0267  1.0849 -0.1121
  830MPD2    H312264   1.183   0.189  15.851  0.0349  1.1231  0.8455
  830MPD2     N12265   1.094   0.399  15.456  0.0552 -0.0992 -0.4962
  830MPD2    H512266   1.193   0.421  15.446 -0.0306  0.9641  0.8953
  830MPD2    N112267   0.753   0.289  15.793  0.3501 -0.4175  0.2467
  830MPD2    H712268   0.740   0.248  15.885 -2.7614  0.3260  0.1091
  831MPD2     C12269   0.816   2.325  16.216 -0.8366 -0.4990 -0.3672
  831MPD2    C112270   0.864   2.216  16.136  0.5928  1.0243  0.1201
  831MPD2    C212271   0.800   2.091  16.134  0.6044 -0.3948  0.2993
  831MPD2    C312272   0.688   2.068  16.206  0.6360 -0.0351 -0.6297
  831MPD2    C412273   0.643   2.164  16.289 -0.4860 -0.1798 -0.2407
  831MPD2    C512274   0.701   2.291  16.286  0.0151  0.3405  0.1304
  831MPD2     H12275   0.844   2.020  16.066  1.3962 -1.4144  1.8644
  831MPD2    H112276   0.550   2.146  16.343  0.0961  2.4971  1.6827
  831MPD2    H212277   0.858   2.425  16.224  0.6075 -1.1653  0.4780
  831MPD2    H312278   0.652   2.369  16.345  0.6625  0.2038  0.8412
  831MPD2     N12279   0.599   1.961  16.174  0.3460  1.0172  0.6289
  831MPD2    H512280   0.507   1.970  16.215 -0.2732  3.2491 -1.2657
  831MPD2    N112281   0.977   2.248  16.059  0.0165  0.0692  0.5049
  831MPD2    H712282   1.001   2.345  16.039  0.7572  0.0281  1.2083
  832MPD2     C12283   3.965   3.022  17.165  0.1151 -0.5684  0.7704
  832MPD2    C112284   3.890   3.135  17.172  0.4036  0.2192  0.0623
  832MPD2    C212285   3.758   3.141  17.112 -0.2739  0.0906 -0.4842
  832MPD2    C312286   3.708   3.026  17.052  0.3823  0.1358 -0.3386
  832MPD2    C412287   3.783   2.910  17.046  0.6359  0.3201 -0.0158
  832MPD2    C512288   3.907   2.909  17.111 -0.0967 -0.3495 -0.0440
  832MPD2     H12289   3.693   3.226  17.133 -0.4922  0.1340 -1.3639
  832MPD2    H112290   3.742   2.816  17.010 -1.5003  0.4759  2.0196
  832MPD2    H212291   4.061   3.013  17.216  0.0167 -0.6598  0.9384
  832MPD2    H312292   3.974   2.824  17.104  0.3211 -0.1111  1.0287
  832MPD2     N12293   3.581   3.028  16.987 -0.2370 -0.6317 -1.1650
  832MPD2    H512294   3.555   2.936  16.953  0.8270 -1.6366  0.7219
  832MPD2    N112295   3.935   3.261  17.229 -0.2858 -0.3411 -0.5692
  832MPD2    H712296   3.869   3.333  17.256  0.0740 -0.5082  0.7285
  833MPD2     C12297   1.439   0.029  12.492 -0.7531 -0.5867  0.3232
  833MPD2    C112298   1.340   0.073  12.403  0.2420  0.1123  0.0655
  833MPD2    C212299   1.329   0.021  12.274 -0.9008 -0.7649  0.3254
  833MPD2    C312300   1.401   4.646  12.238 -0.2214 -0.2220  0.0219
  833MPD2    C412301   1.479   4.590  12.333  0.3584 -0.0860 -0.3705
  833MPD2    C512302   1.502   4.649  12.456  0.4790  0.3039 -0.1743
  833MPD2     H12303   1.251   0.052  12.205  0.5836  0.4020 -0.8447
  833MPD2    H112304   1.529   4.494  12.319 -0.8789 -0.9624  1.1376
  833MPD2    H212305   1.455   0.067  12.592 -0.6797  2.0762 -0.6931
  833MPD2    H312306   1.573   4.600  12.522 -0.3644 -0.6231  0.0489
  833MPD2     N12307   1.380   4.593  12.115 -0.2473  0.0668  0.6942
  833MPD2    H512308   1.319   4.648  12.055  0.4182 -0.7411 -0.7186
  833MPD2    N112309   1.241   0.167  12.435  0.1711 -0.0659 -0.0574
  833MPD2    H712310   1.179   0.195  12.360  1.0306 -2.6720 -1.7422
  834MPD2     C12311   0.818   3.907  11.539  0.3729 -0.5525 -0.3705
  834MPD2    C112312   0.833   4.028  11.467 -0.0622  0.7910  0.1176
  834MPD2    C212313   0.891   4.138  11.532 -0.6845  0.2634  0.0883
  834MPD2    C312314   0.959   4.126  11.656 -0.0738  0.0395 -0.2579
  834MPD2    C412315   0.950   4.001  11.718 -0.1805 -0.7340  0.9047
  834MPD2    C512316   0.884   3.895  11.660  0.4512  0.6216  0.2923
  834MPD2     H12317   0.886   4.233  11.479  0.6107  1.2736  1.7867
  834MPD2    H112318   1.001   3.989  11.814 -0.8878 -1.8620  1.1435
  834MPD2    H212319   0.763   3.821  11.503  0.4853 -0.8132  0.0799
  834MPD2    H312320   0.890   3.801  11.714  1.8412  0.2736 -0.4655
  834MPD2     N12321   1.018   4.234  11.715  0.3131 -0.7656 -0.2070
  834MPD2    H512322   1.000   4.324  11.671  3.3643 -0.0658 -0.0766
  834MPD2    N112323   0.777   4.037  11.335  0.0507 -0.5725  0.4256
  834MPD2    H712324   0.720   3.958  11.308 -1.3723  0.7806 -0.5057
  835MPD2     C12325   1.448   2.396  10.883 -0.5737 -0.0700  0.0634
  835MPD2    C112326   1.374   2.491  10.946 -0.0492 -0.6216 -0.8226
  835MPD2    C212327   1.394   2.534  11.076  0.0356 -0.4471 -0.1823
  835MPD2    C312328   1.495   2.471  11.149 -0.0011  0.1217  0.1425
  835MPD2    C412329   1.562   2.367  11.094  0.1992  0.3819  0.0625
  835MPD2    C512330   1.538   2.328  10.961  0.7705 -0.0548  0.4125
  835MPD2     H12331   1.324   2.597  11.129  1.4293 -0.2646  1.4777
  835MPD2    H112332   1.646   2.317  11.141  0.3675  0.8308  0.2412
  835MPD2    H212333   1.443   2.371  10.777  1.4101  0.2367 -0.0998
  835MPD2    H312334   1.599   2.251  10.915  0.7343  0.4797 -0.5507
  835MPD2     N12335   1.515   2.485  11.287 -0.6355 -0.2391  0.3492
  835MPD2    H512336   1.583   2.420  11.326 -2.0349 -0.4774  2.3543
  835MPD2    N112337   1.262   2.547  10.875 -0.0561  0.1789 -0.2395
  835MPD2    H712338   1.211   2.613  10.932 -3.3795 -0.5148 -2.3678
  836MPD2     C12339   1.045   2.816  11.465 -0.0098  0.6989  1.1962
  836MPD2    C112340   1.091   2.795  11.597  0.3095  0.3798 -0.5068
  836MPD2    C212341   0.997   2.814  11.702  0.1117 -0.2998 -0.0361
  836MPD2    C312342   0.866   2.852  11.670 -0.4910  0.3456  0.4012
  836MPD2    C412343   0.831   2.889  11.536 -0.2643 -0.3305 -0.1661
  836MPD2    C512344   0.920   2.860  11.432 -0.3243 -0.4086 -0.2392
  836MPD2     H12345   1.033   2.782  11.799 -1.9936 -0.0935  0.8195
  836MPD2    H112346   0.726   2.909  11.518 -0.0954 -0.6818 -1.5403
  836MPD2    H212347   1.116   2.811  11.382  0.1824  1.0393  1.3414
  836MPD2    H312348   0.898   2.874  11.326  1.9385  2.1034 -0.3965
  836MPD2     N12349   0.765   2.853  11.759  0.1337  0.6447  0.2082
  836MPD2    H512350   0.676   2.893  11.730 -0.5558  0.4380  2.0894
  836MPD2    N112351   1.220   2.741  11.615 -0.2212  0.1948 -0.2702
  836MPD2    H712352   1.283   2.716  11.539 -1.4878  0.5056 -1.4431
  837MPD2     C12353   3.922   1.791  10.155  0.4895 -0.1044  0.7869
  837MPD2    C112354   3.790   1.821  10.140 -0.3106  0.1565  0.7717
  837MPD2    C212355   3.751   1.951  10.182 -0.0027  0.0010 -0.9399
  837MPD2    C312356   3.836   2.039  10.235 -1.2179 -0.6959 -0.2022
  837MPD2    C412357   3.969   2.003  10.243  0.4297 -0.3781 -0.1226
  837MPD2    C512358   4.013   1.883  10.194 -0.3644  0.8600  0.4653
  837MPD2     H12359   3.646   1.980  10.182  0.0025 -0.0765  2.7637
  837MPD2    H112360   4.042   2.073  10.282  0.4215  0.0666 -0.9270
  837MPD2    H212361   3.967   1.705  10.107 -1.5394  0.0793 -1.4573
  837MPD2    H312362   4.120   1.867  10.181 -0.2701  1.8136  0.0370
  837MPD2     N12363   3.778   2.155  10.290 -0.2647  0.6905  0.0753
  837MPD2    H512364   3.678   2.149  10.306 -0.5260  3.0563 -0.7533
  837MPD2    N112365   3.693   1.736  10.088 -0.2256  0.1312 -0.1248
  837MPD2    H712366   3.610   1.777  10.048 -0.0185  0.5896 -0.0817
  838MPD2     C12367   2.338   0.701  12.526 -0.3866  0.4919 -0.2325
  838MPD2    C112368   2.357   0.569  12.507 -0.0220  0.0199  0.0441
  838MPD2    C212369   2.245   0.487  12.486  0.3602  0.2349  0.5403
  838MPD2    C312370   2.115   0.537  12.496 -0.6449 -0.1861  0.3090
  838MPD2    C412371   2.100   0.676  12.519  0.2895 -0.4555  1.1611
  838MPD2    C512372   2.214   0.749  12.534  0.6528 -0.1733  0.1473
  838MPD2     H12373   2.261   0.384  12.459 -1.0276  0.5565 -1.5069
  838MPD2    H112374   2.001   0.719  12.511  0.9803  0.8009 -0.5754
  838MPD2    H212375   2.421   0.768  12.544  0.0166  0.4023 -1.8020
  838MPD2    H312376   2.197   0.855  12.544  2.1849  0.0231  0.6162
  838MPD2     N12377   2.008   0.450  12.468 -0.1215  0.7415 -0.0455
  838MPD2    H512378   2.028   0.356  12.436 -2.0441  0.4006 -0.2505
  838MPD2    N112379   2.488   0.513  12.494  0.2232 -0.0212  0.6322
  838MPD2    H712380   2.488   0.417  12.463  1.1020  0.5794 -1.2302
  839MPD2     C12381   2.276   4.606  12.232 -0.6765  0.1166 -0.5568
  839MPD2    C112382   2.319   4.692  12.138 -0.0461  0.0780 -0.3088
  839MPD2    C212383   2.436   0.029  12.152  0.7207  0.3493  0.4361
  839MPD2    C312384   2.506   0.019  12.269  0.1485  0.5941 -1.0483
  839MPD2    C412385   2.463   4.669  12.372  0.2646 -0.2976 -0.7375
  839MPD2    C512386   2.354   4.589  12.344  0.4981  0.3674 -0.0139
  839MPD2     H12387   2.468   0.091  12.069 -1.7120  0.7320 -0.2168
  839MPD2    H112388   2.522   4.663  12.463  2.3257  0.1792 -2.0253
  839MPD2    H212389   2.193   4.537  12.219 -0.5741 -0.3383  1.2569
  839MPD2    H312390   2.322   4.514  12.415 -0.2704  0.5713 -0.1519
  839MPD2     N12391   2.612   0.108  12.299 -0.4794 -0.2271  0.5461
  839MPD2    H512392   2.640   0.111  12.396  0.8750 -0.2801  0.1562
  839MPD2    N112393   2.250   4.706  12.017 -0.1954  0.2892  0.2003
  839MPD2    H712394   2.285   0.028  11.943 -0.8483 -0.6716 -0.8905
  840MPD2     C12395   2.328   3.210  10.017  0.7998  0.9645 -0.5461
  840MPD2    C112396   2.382   3.135  10.127  0.0378  0.1473 -0.3139
  840MPD2    C212397   2.486   3.188  10.204  0.1276 -0.3102 -0.1980
  840MPD2    C312398   2.536   3.313  10.174 -0.9990  0.0328 -0.2972
  840MPD2    C412399   2.493   3.372  10.058  0.0778 -0.3140 -0.0518
  840MPD2    C512400   2.386   3.329   9.978 -0.3839 -0.4654  0.5298
  840MPD2     H12401   2.504   3.136  10.297 -0.8367 -1.9450 -0.9156
  840MPD2    H112402   2.526   3.474  10.041  1.7041 -0.7024  0.7715
  840MPD2    H212403   2.250   3.174   9.951  3.1433  1.0501 -3.3424
  840MPD2    H312404   2.358   3.377   9.885  2.0033 -0.9103 -0.4136
  840MPD2     N12405   2.615   3.393  10.256  0.2624  0.4041  0.1846
  840MPD2    H512406   2.657   3.477  10.216  1.3190  0.2197  0.9049
  840MPD2    N112407   2.312   3.018  10.160  0.1539 -0.6765  0.1039
  840MPD2    H712408   2.223   3.000  10.114  0.8839 -0.1329 -1.5423
  841MPD2     C12409   2.578   2.469  14.116 -0.2038  0.1475  0.3676
  841MPD2    C112410   2.601   2.360  14.195  0.1154 -0.4763 -0.4343
  841MPD2    C212411   2.686   2.375  14.306 -0.1543 -0.4407  0.1357
  841MPD2    C312412   2.746   2.500  14.325 -0.8970  0.1257 -0.2360
  841MPD2    C412413   2.723   2.609  14.244 -0.6817  0.6526  0.0259
  841MPD2    C512414   2.641   2.585  14.142  0.0214 -0.0086  0.3677
  841MPD2     H12415   2.694   2.295  14.378 -0.9827 -0.5623  0.0937
  841MPD2    H112416   2.767   2.707  14.257 -1.5006  0.9627  0.4815
  841MPD2    H212417   2.506   2.469  14.035  0.7488  0.1788 -0.4761
  841MPD2    H312418   2.621   2.662  14.068  1.8043 -0.6437 -0.7812
  841MPD2     N12419   2.817   2.513  14.448 -0.2971 -0.0987  0.4110
  841MPD2    H512420   2.818   2.435  14.513  1.5006 -2.5279 -2.4832
  841MPD2    N112421   2.537   2.240  14.165 -0.2345 -0.4755 -0.1336
  841MPD2    H712422   2.476   2.242  14.084  2.8556  0.4725 -2.4533
  842MPD2     C12423   3.111   3.394  16.953  0.5328  0.2333  0.9814
  842MPD2    C112424   2.997   3.319  16.926 -0.0283 -0.5080 -0.6114
  842MPD2    C212425   2.949   3.224  17.002 -0.8723  0.1075 -0.0278
  842MPD2    C312426   3.019   3.186  17.115 -0.7038  0.0211 -0.9016
  842MPD2    C412427   3.130   3.259  17.148 -0.3167  0.6199 -0.2304
  842MPD2    C512428   3.177   3.364  17.069 -0.5614 -0.1486 -0.3501
  842MPD2     H12429   2.854   3.176  16.981 -1.1586  1.1851 -1.1346
  842MPD2    H112430   3.182   3.228  17.238  0.6471  0.4796 -0.8389
  842MPD2    H212431   3.151   3.473  16.890 -2.1783 -0.7909 -2.0794
  842MPD2    H312432   3.257   3.428  17.103  0.1937 -0.8494 -0.7987
  842MPD2     N12433   2.984   3.081  17.200  0.4432 -0.3872 -0.3911
  842MPD2    H512434   3.049   3.054  17.274 -1.8373 -2.7772  0.7705
  842MPD2    N112435   2.930   3.351  16.805 -0.5605  0.1420 -0.0568
  842MPD2    H712436   2.971   3.434  16.762 -0.8767  1.4066  2.1137
  843MPD2     C12437   0.100   4.520  17.302  0.3080  0.1442  0.2654
  843MPD2    C112438   0.153   4.406  17.360  0.8101  0.1072  0.1710
  843MPD2    C212439   0.272   4.415  17.431 -0.0916  0.4829 -0.3698
  843MPD2    C312440   0.326   4.543  17.442 -0.4965 -0.4934 -0.5005
  843MPD2    C412441   0.274   4.651  17.373 -1.0231 -0.3979  0.3315
  843MPD2    C512442   0.163   4.636  17.300 -0.2188 -0.0951  0.2921
  843MPD2     H12443   0.325   4.327  17.465  0.3580  1.6443  1.9395
  843MPD2    H112444   0.327   0.008  17.373  1.5616 -1.8324  0.0556
  843MPD2    H212445   0.011   4.517  17.240  1.1939 -2.0677 -0.8821
  843MPD2    H312446   0.115   4.716  17.244  0.5918 -0.3701 -0.7956
  843MPD2     N12447   0.435   4.563  17.528 -0.0592  0.2959 -0.2289
  843MPD2    H512448   0.471   4.658  17.522 -0.0425  0.3107  0.1260
  843MPD2    N112449   0.097   4.283  17.332  0.0002 -0.3292 -0.2094
  843MPD2    H712450   0.016   4.288  17.271 -1.3796  0.0373  1.6430
  844MPD2     C12451   3.427   3.070  16.328 -0.3215  0.5618 -0.0957
  844MPD2    C112452   3.546   3.001  16.331  0.0275  0.2227  0.0010
  844MPD2    C212453   3.643   3.036  16.426 -0.1472 -0.3049 -0.1142
  844MPD2    C312454   3.629   3.150  16.511 -0.5236  0.6244  0.0303
  844MPD2    C412455   3.512   3.221  16.494  0.5738  0.3861  0.3835
  844MPD2    C512456   3.415   3.179  16.408  1.0200  0.8140 -0.1675
  844MPD2     H12457   3.731   2.977  16.450 -0.5210 -0.1805  1.5346
  844MPD2    H112458   3.508   3.318  16.542  0.9809 -0.0483  1.2805
  844MPD2    H212459   3.349   3.045  16.258  0.2457 -0.1035 -0.4961
  844MPD2    H312460   3.320   3.229  16.396  0.2168 -0.1512  2.2228
  844MPD2     N12461   3.733   3.188  16.599  0.6264 -0.2367  0.0383
  844MPD2    H512462   3.809   3.122  16.613  2.6650  2.4659  1.5757
  844MPD2    N112463   3.558   2.887  16.248 -0.1129 -0.0607  0.8910
  844MPD2    H712464   3.626   2.818  16.277  0.6511  0.3140 -0.0376
  845MPD2     C12465   4.043   3.934  17.234 -0.0779 -0.4603 -0.2066
  845MPD2    C112466   3.927   3.871  17.253 -0.3646 -0.2871 -0.3763
  845MPD2    C212467   3.895   3.763  17.175  0.4403  0.1005 -0.0883
  845MPD2    C312468   3.990   3.720  17.079  0.2525 -0.5752  0.1455
  845MPD2    C412469   4.105   3.791  17.064  0.1862  0.3213 -0.1774
  845MPD2    C512470   4.131   3.902  17.136  0.2557 -0.3526 -0.4343
  845MPD2     H12471   3.811   3.698  17.195  1.6983 -1.2491  0.7928
  845MPD2    H112472   4.174   3.764  16.984  1.7542  2.1520  0.5568
  845MPD2    H212473   4.069   4.019  17.296  0.9858 -0.4551 -0.6613
  845MPD2    H312474   4.221   3.959  17.114 -0.0420  0.6299  0.8520
  845MPD2     N12475   3.959   3.606  17.006 -0.6811 -0.1661 -0.2560
  845MPD2    H512476   3.864   3.573  17.020 -0.6276 -0.0330  0.4106
  845MPD2    N112477   3.842   3.924  17.354 -0.1776  0.4332 -0.3553
  845MPD2    H712478   3.859   4.016  17.393 -2.4393  0.3111  0.8972
  846MPD2     C12479   4.685   4.319  13.675 -0.5559  0.4996 -0.7697
  846MPD2    C112480   0.065   4.377  13.714 -0.4668  0.4590 -0.0106
  846MPD2    C212481   0.072   4.436  13.838  0.6994  0.2300 -0.3887
  846MPD2    C312482   4.694   4.433  13.915 -0.0713  0.0945 -0.4562
  846MPD2    C412483   4.576   4.370  13.874  0.2558  0.2413  0.0860
  846MPD2    C512484   4.584   4.303  13.761 -0.4967 -0.4301 -0.9957
  846MPD2     H12485   0.164   4.488  13.864  1.1489 -0.4029 -0.7084
  846MPD2    H112486   4.488   4.349  13.934  2.3069 -0.8198  2.7600
  846MPD2    H212487   4.679   4.263  13.583  0.1789  1.1791 -1.2295
  846MPD2    H312488   4.513   4.224  13.743  0.1860 -1.3634  0.4549
  846MPD2     N12489   4.703   4.498  14.042  0.4850  0.1790  0.1319
  846MPD2    H512490   0.051   4.550  14.061  1.6573 -1.5521 -0.4945
  846MPD2    N112491   0.182   4.379  13.635 -0.7096 -0.2379  0.3543
  846MPD2    H712492   0.266   4.420  13.672 -0.3589  0.5175 -1.3064
  847MPD2     C12493   0.143   0.616  14.710  0.5325  0.2121 -0.3725
  847MPD2    C112494   0.279   0.637  14.692 -0.4679 -0.2396 -1.0435
  847MPD2    C212495   0.359   0.522  14.690  0.3297 -0.2603 -0.2267
  847MPD2    C312496   0.307   0.395  14.718  0.0339  0.2267 -0.1607
  847MPD2    C412497   0.171   0.381  14.745 -0.2480  0.0734 -0.6280
  847MPD2    C512498   0.087   0.492  14.736  0.0533  0.6318  0.2483
  847MPD2     H12499   0.466   0.533  14.678  0.3730  0.6400  1.0024
  847MPD2    H112500   0.134   0.283  14.774  2.3783 -0.9086 -0.6267
  847MPD2    H212501   0.078   0.703  14.715  0.8924  0.4956 -0.6796
  847MPD2    H312502   4.718   0.481  14.751  0.0885 -0.6384 -0.4457
  847MPD2     N12503   0.406   0.296  14.733  0.1931 -0.3378  0.4262
  847MPD2    H512504   0.498   0.320  14.696  0.1752  0.1192  0.6709
  847MPD2    N112505   0.342   0.759  14.678 -0.1963  0.8426  0.2938
  847MPD2    H712506   0.440   0.755  14.650  0.2182  1.7114  1.6223
  848MPD2     C12507   3.178   3.485  16.401 -0.4803  0.0797  0.4372
  848MPD2    C112508   3.255   3.504  16.513 -0.1926 -0.6869  0.5904
  848MPD2    C212509   3.314   3.626  16.533  0.1932  0.4918  0.2596
  848MPD2    C312510   3.295   3.729  16.439 -0.2028 -0.1341 -0.2858
  848MPD2    C412511   3.229   3.706  16.323  0.3388  0.1356 -0.8774
  848MPD2    C512512   3.164   3.583  16.309  0.5674 -0.7697  0.5686
  848MPD2     H12513   3.368   3.629  16.627  1.6534 -0.3173 -0.5508
  848MPD2    H112514   3.216   3.785  16.250  1.5476  0.3035 -0.9029
  848MPD2    H212515   3.130   3.391  16.377 -0.2334  0.3460 -1.0900
  848MPD2    H312516   3.103   3.559  16.222  0.0189  0.1572  0.7058
  848MPD2     N12517   3.362   3.849  16.448 -0.1153 -0.4005 -0.0738
  848MPD2    H512518   3.357   3.910  16.367  0.9706 -0.6642 -0.3459
  848MPD2    N112519   3.267   3.409  16.620 -0.5045  0.0484 -0.1007
  848MPD2    H712520   3.334   3.435  16.691  0.4703 -2.9845  0.0888
  849MPD2     C12521   2.093   3.413  14.758  0.1162  0.4002  0.9618
  849MPD2    C112522   2.212   3.481  14.723 -0.4462  0.0482  0.2485
  849MPD2    C212523   2.314   3.494  14.822 -0.4741 -0.4262  0.5807
  849MPD2    C312524   2.300   3.431  14.948  0.0371 -0.0185 -1.3226
  849MPD2    C412525   2.179   3.373  14.980  0.6222  0.2826 -0.3751
  849MPD2    C512526   2.079   3.365  14.887 -0.2491  0.0448 -0.2786
  849MPD2     H12527   2.404   3.551  14.803 -0.6770 -0.9449 -1.8692
  849MPD2    H112528   2.163   3.327  15.077  1.1201 -0.8323 -0.8107
  849MPD2    H212529   2.013   3.401  14.686  0.0580  0.9076  0.9404
  849MPD2    H312530   1.988   3.313  14.912  0.4439 -1.8197 -1.6167
  849MPD2     N12531   2.409   3.433  15.046 -0.1306  0.7885  0.5978
  849MPD2    H512532   2.375   3.410  15.139  0.4546 -1.3861  0.2811
  849MPD2    N112533   2.234   3.507  14.585 -0.2136 -0.9440 -0.3623
  849MPD2    H712534   2.163   3.466  14.524  0.1459 -0.9023 -0.8122
  850MPD2     C12535   0.814   1.388  14.473  0.2615 -0.2848  0.0261
  850MPD2    C112536   0.811   1.478  14.580 -0.2707 -0.2866 -0.2924
  850MPD2    C212537   0.926   1.498  14.655  0.0645  0.3373  0.2091
  850MPD2    C312538   1.042   1.431  14.627 -0.1407  0.0787 -0.4120
  850MPD2    C412539   1.046   1.336  14.525 -0.1834  0.6525  0.2967
  850MPD2    C512540   0.938   1.328  14.445  0.5035 -0.1578 -0.4979
  850MPD2     H12541   0.937   1.582  14.723 -1.2662  0.4781  0.2486
  850MPD2    H112542   1.129   1.269  14.510 -3.1800 -2.8678 -0.6830
  850MPD2    H212543   0.728   1.372  14.409  0.2449 -1.3345  0.3095
  850MPD2    H312544   0.951   1.265  14.358  0.9132 -0.6816 -0.0568
  850MPD2     N12545   1.172   1.446  14.688  0.4332 -0.0424  0.7090
  850MPD2    H512546   1.250   1.400  14.644  1.8219  1.3303  1.7468
  850MPD2    N112547   0.677   1.522  14.614  0.2000  0.1447 -0.2363
  850MPD2    H712548   0.612   1.537  14.538 -0.2802 -0.6635  0.0124
  851MPD2     C12549   1.162   1.322  15.285 -0.7296 -0.3577  0.3142
  851MPD2    C112550   1.067   1.277  15.199  0.0922  0.1948  0.8156
  851MPD2    C212551   1.048   1.139  15.187  0.4986  0.6291 -0.6427
  851MPD2    C312552   1.135   1.056  15.251  0.1853  0.5110  0.9258
  851MPD2    C412553   1.231   1.097  15.341  0.3609  0.5402 -0.2027
  851MPD2    C512554   1.229   1.235  15.364 -0.1889 -0.0434 -0.0100
  851MPD2     H12555   0.969   1.106  15.121  0.5181 -0.3214 -0.1863
  851MPD2    H112556   1.310   1.036  15.383  2.4588  1.1586 -3.2302
  851MPD2    H212557   1.175   1.429  15.297 -0.9011 -0.2881 -0.1169
  851MPD2    H312558   1.304   1.270  15.433 -0.8485  1.1771  0.0925
  851MPD2     N12559   1.133   0.923  15.219  0.2600 -0.3618  0.7070
  851MPD2    H512560   1.065   0.894  15.149  1.6470 -0.4451 -0.6180
  851MPD2    N112561   1.001   1.380  15.129 -0.3409 -0.0863  0.6259
  851MPD2    H712562   1.040   1.473  15.144  1.5373 -0.7521 -0.1917
  852MPD2     C12563   4.230   4.077   9.854 -0.0130  0.5353  0.4386
  852MPD2    C112564   4.332   4.090   9.945  0.2048  0.4133  0.0913
  852MPD2    C212565   4.401   4.212   9.950  0.1819  0.4068  0.2427
  852MPD2    C312566   4.378   4.312   9.858  0.1406 -0.3075  0.7383
  852MPD2    C412567   4.278   4.291   9.762  0.1614 -0.2024  0.2492
  852MPD2    C512568   4.212   4.172   9.760  0.3151  0.0676 -0.2172
  852MPD2     H12569   4.491   4.224  10.009  1.0940 -1.3081 -0.7831
  852MPD2    H112570   4.243   4.370   9.696 -0.7290 -1.5686 -0.9170
  852MPD2    H212571   4.158   3.996   9.859  0.5978 -0.0775 -0.5406
  852MPD2    H312572   4.124   4.160   9.698  0.3930 -0.0196 -0.3095
  852MPD2     N12573   4.467   4.416   9.852  0.4558  0.4678  0.1261
  852MPD2    H512574   4.534   4.420   9.928 -0.5162  0.5311  0.9793
  852MPD2    N112575   4.371   3.988  10.038 -0.4349 -0.3584 -0.2379
  852MPD2    H712576   4.444   3.997  10.108 -1.5453 -0.1565  0.8964
  853MPD2     C12577   1.949   3.773  12.259 -0.3896 -0.0478 -0.1463
  853MPD2    C112578   1.846   3.843  12.203  0.3393 -0.2765 -0.0236
  853MPD2    C212579   1.834   3.857  12.067  0.9280 -0.3005  0.6381
  853MPD2    C312580   1.919   3.800  11.977 -0.1785  0.1845  0.3456
  853MPD2    C412581   2.029   3.724  12.034 -0.2665 -0.1336  0.5942
  853MPD2    C512582   2.035   3.712  12.168  0.1977 -0.5358  0.0092
  853MPD2     H12583   1.752   3.919  12.034  0.9892 -0.7406 -0.3309
  853MPD2    H112584   2.100   3.670  11.972 -0.6178  0.6249 -0.4739
  853MPD2    H212585   1.961   3.760  12.366 -1.1893  1.6736  0.1608
  853MPD2    H312586   2.114   3.653  12.214  1.9758  1.6995 -0.1765
  853MPD2     N12587   1.925   3.831  11.836 -0.4548 -0.9530  0.1811
  853MPD2    H512588   2.010   3.798  11.791 -0.4953  1.2764 -1.5107
  853MPD2    N112589   1.758   3.894  12.299 -0.6275 -0.4012 -0.0913
  853MPD2    H712590   1.775   3.862  12.394 -0.9619 -1.0330 -0.2422
  854MPD2     C12591   3.583   3.639  12.695 -0.0725 -0.0273 -0.3190
  854MPD2    C112592   3.645   3.763  12.722  0.6148  0.3876 -0.1823
  854MPD2    C212593   3.770   3.771  12.783 -0.2467 -0.5262  0.1163
  854MPD2    C312594   3.833   3.648  12.809 -0.0926  0.0995 -0.0308
  854MPD2    C412595   3.776   3.523  12.774 -0.4148 -0.0756  0.1453
  854MPD2    C512596   3.656   3.522  12.718 -0.1309  0.3581 -0.0761
  854MPD2     H12597   3.808   3.869  12.808 -0.3642  0.0450 -1.9274
  854MPD2    H112598   3.810   3.422  12.795  1.0190 -0.1068 -2.3068
  854MPD2    H212599   3.482   3.635  12.655 -0.2328 -2.4060  0.3298
  854MPD2    H312600   3.604   3.432  12.688  2.3769 -1.4032  0.8850
  854MPD2     N12601   3.968   3.642  12.856 -0.6760 -0.4185 -0.3148
  854MPD2    H512602   4.000   3.546  12.865 -0.1094 -0.3090 -1.1909
  854MPD2    N112603   3.568   3.877  12.680  0.1645  0.2663 -0.0880
  854MPD2    H712604   3.498   3.862  12.608  0.2126 -2.5475  0.4582
  855MPD2     C12605   4.101   3.965  13.728  0.2951  0.7583  0.3504
  855MPD2    C112606   4.088   3.829  13.703  0.5360 -0.0420 -0.8924
  855MPD2    C212607   4.122   3.779  13.582  0.2315  0.5294 -0.2463
  855MPD2    C312608   4.151   3.862  13.484 -0.1154  0.4756 -0.6632
  855MPD2    C412609   4.136   3.995  13.497 -0.1983 -0.3233  0.1795
  855MPD2    C512610   4.116   4.045  13.620 -0.4567 -0.0621  0.2319
  855MPD2     H12611   4.132   3.673  13.561 -3.9482  0.2665 -0.9221
  855MPD2    H112612   4.164   4.070  13.424 -0.0473  1.6642  2.2639
  855MPD2    H212613   4.086   4.009  13.826 -1.2353 -1.1920  0.9884
  855MPD2    H312614   4.129   4.152  13.629  1.8675 -0.2609 -0.6778
  855MPD2     N12615   4.200   3.823  13.362  0.0528 -0.1864 -0.0710
  855MPD2    H512616   4.203   3.897  13.293 -1.7678 -0.5418 -0.5289
  855MPD2    N112617   4.052   3.731  13.801 -0.0911  0.5661  0.2721
  855MPD2    H712618   4.040   3.635  13.770 -0.6127  1.1377 -1.2715
  856MPD2     C12619   1.599   4.374  13.564 -0.1501  0.4902 -0.5066
  856MPD2    C112620   1.663   4.464  13.646  0.6775  0.0219 -0.5501
  856MPD2    C212621   1.595   4.580  13.680  0.5799  0.0249  0.3239
  856MPD2    C312622   1.460   4.596  13.654  0.2467  0.3226  0.0346
  856MPD2    C412623   1.402   4.503  13.571  0.6438 -0.5763 -0.3700
  856MPD2    C512624   1.469   4.401  13.518 -0.0154  0.7600  0.4389
  856MPD2     H12625   1.653   4.649  13.740  1.9235  0.2634 -1.2636
  856MPD2    H112626   1.301   4.511  13.532  1.9923  2.8639 -3.1678
  856MPD2    H212627   1.646   4.283  13.528  0.4288  1.5164 -2.3110
  856MPD2    H312628   1.420   4.339  13.444  0.6183  0.6978  0.0751
  856MPD2     N12629   1.380   4.705  13.690 -1.3544 -0.0379 -0.3572
  856MPD2    H512630   1.288   4.715  13.649 -1.2464  1.5080 -0.2275
  856MPD2    N112631   1.791   4.455  13.695  0.1710 -0.4701  0.1202
  856MPD2    H712632   1.828   4.542  13.733 -0.1125 -1.0302  1.6644
  857MPD2     C12633   3.026   2.218  13.020 -0.1568 -0.3544  0.1423
  857MPD2    C112634   3.148   2.208  12.960  0.1754 -0.0531  0.4184
  857MPD2    C212635   3.246   2.304  12.989  0.6138  0.6139 -0.1183
  857MPD2    C312636   3.217   2.416  13.068  0.5207  0.2222  0.3112
  857MPD2    C412637   3.089   2.438  13.119 -0.1458  0.6920 -0.7078
  857MPD2    C512638   3.006   2.331  13.095  0.2972 -0.1171 -0.2751
  857MPD2     H12639   3.343   2.287  12.943 -0.3695  0.5701 -2.1723
  857MPD2    H112640   3.052   2.523  13.174  1.2834  0.2274  0.9662
  857MPD2    H212641   2.954   2.137  13.011 -1.5521  0.7682  1.1609
  857MPD2    H312642   2.902   2.336  13.127  0.1493  0.4765 -0.8313
  857MPD2     N12643   3.327   2.505  13.087 -0.2300  0.0618 -1.7466
  857MPD2    H512644   3.414   2.487  13.038  0.0730 -0.2663 -1.0832
  857MPD2    N112645   3.162   2.094  12.878  0.1703  0.4474  0.0205
  857MPD2    H712646   3.077   2.040  12.863  1.4906 -2.2605  2.2899
  858MPD2     C12647   3.666   0.869  16.422  0.1523 -0.1211 -0.2165
  858MPD2    C112648   3.795   0.905  16.453  0.3939  0.7815  0.6308
  858MPD2    C212649   3.815   0.997  16.554  0.4025 -0.3811  0.5753
  858MPD2    C312650   3.710   1.055  16.631  0.0297 -0.1475 -0.3725
  858MPD2    C412651   3.585   1.025  16.588 -0.1115 -0.4290  0.1348
  858MPD2    C512652   3.562   0.938  16.485 -1.2552  0.6918  0.5018
  858MPD2     H12653   3.915   1.015  16.590  1.2628 -2.8603 -0.5743
  858MPD2    H112654   3.494   1.060  16.634  0.4133  1.2625 -0.0711
  858MPD2    H212655   3.636   0.793  16.351  0.0964 -2.6865  2.5537
  858MPD2    H312656   3.456   0.925  16.463 -1.6197 -2.8960  4.3167
  858MPD2     N12657   3.726   1.119  16.752 -1.0016 -0.1324 -0.5097
  858MPD2    H512658   3.650   1.119  16.819 -1.4253  0.5383 -0.9797
  858MPD2    N112659   3.897   0.848  16.384 -0.5371  0.1698  0.0467
  858MPD2    H712660   3.884   0.760  16.336  3.0583  0.5723 -1.7000
  859MPD2     C12661   2.445   3.515  15.807 -0.3030 -0.8758  0.4232
  859MPD2    C112662   2.561   3.476  15.738 -0.1282 -0.2378  0.0770
  859MPD2    C212663   2.626   3.363  15.780  0.3484 -0.6450  0.3795
  859MPD2    C312664   2.575   3.281  15.882  0.4008  0.4290 -0.1943
  859MPD2    C412665   2.465   3.329  15.950 -0.3289 -0.1673  0.3912
  859MPD2    C512666   2.408   3.445  15.914  0.0689  0.1210  0.3631
  859MPD2     H12667   2.712   3.335  15.721  0.9280 -0.4557  1.1381
  859MPD2    H112668   2.424   3.275  16.035  1.7867 -2.9820 -0.3842
  859MPD2    H212669   2.388   3.606  15.789  1.8316  0.4334  0.1852
  859MPD2    H312670   2.337   3.492  15.982  0.8874  1.6882  0.1420
  859MPD2     N12671   2.616   3.152  15.900  0.1733  0.3872 -0.1076
  859MPD2    H512672   2.569   3.106  15.977 -0.7794  0.4191 -0.6705
  859MPD2    N112673   2.611   3.557  15.633 -0.8367  0.5048  0.6175
  859MPD2    H712674   2.687   3.515  15.579  0.4549  1.7817  1.4436
  860MPD2     C12675   0.225   3.512  11.644 -0.6283 -0.1710  0.2948
  860MPD2    C112676   0.242   3.506  11.778  0.2543 -0.0191  0.5131
  860MPD2    C212677   0.150   3.435  11.854  1.1324 -0.1885 -0.0046
  860MPD2    C312678   0.042   3.375  11.787  0.1412  0.0060 -0.0072
  860MPD2    C412679   0.029   3.368  11.651 -0.1497  0.5535 -0.3178
  860MPD2    C512680   0.125   3.439  11.582 -0.1320 -0.0578 -0.5144
  860MPD2     H12681   0.166   3.420  11.960 -1.0711 -0.9671  0.2228
  860MPD2    H112682   4.689   3.318  11.595  0.6467 -1.8990  0.7260
  860MPD2    H212683   0.294   3.558  11.574 -1.9793 -0.2249 -1.0775
  860MPD2    H312684   0.130   3.436  11.474  0.1080 -1.0399 -0.4749
  860MPD2     N12685   4.686   3.315  11.870  0.5894  0.1154  0.1877
  860MPD2    H512686   4.703   3.313  11.970 -0.1330 -2.5005  0.2804
  860MPD2    N112687   0.335   3.573  11.854  0.0088  0.2459 -0.5491
  860MPD2    H712688   0.346   3.542  11.950  0.2280  1.6145 -0.1303
  861MPD2     C12689   3.735   1.324  11.047  0.4236  0.1096 -0.0254
  861MPD2    C112690   3.691   1.448  11.085 -0.7995  0.1867 -0.5299
  861MPD2    C212691   3.615   1.526  11.004 -0.1956 -0.5402  0.0185
  861MPD2    C312692   3.576   1.467  10.879 -0.2754 -0.1655 -0.4315
  861MPD2    C412693   3.618   1.340  10.842 -0.3376  0.1118 -1.0292
  861MPD2    C512694   3.698   1.271  10.925  0.6302  0.3053  0.3058
  861MPD2     H12695   3.586   1.622  11.044  0.8166  0.0582 -0.6939
  861MPD2    H112696   3.601   1.304  10.741 -0.0089  0.5055 -1.2259
  861MPD2    H212697   3.806   1.267  11.106  2.5576  0.7971 -1.9304
  861MPD2    H312698   3.738   1.172  10.905 -1.3491  0.2328 -3.2591
  861MPD2     N12699   3.493   1.528  10.784  0.2225  0.4110 -0.4282
  861MPD2    H512700   3.444   1.460  10.726 -2.4650 -0.8599  3.3236
  861MPD2    N112701   3.721   1.509  11.211  0.4197  0.1576  0.2050
  861MPD2    H712702   3.705   1.608  11.228 -0.2531 -0.0082  0.5305
  862MPD2     C12703   2.945   1.419  10.280  0.6798  0.1242  0.6360
  862MPD2    C112704   2.999   1.381  10.402  0.3361 -0.3188  0.0211
  862MPD2    C212705   2.977   1.252  10.445  0.1632  0.3623 -0.1600
  862MPD2    C312706   2.882   1.170  10.380 -0.3869  0.4028  0.6576
  862MPD2    C412707   2.824   1.212  10.269  0.5975 -0.6059 -0.0665
  862MPD2    C512708   2.854   1.341  10.220  0.2147 -0.3544  0.4252
  862MPD2     H12709   3.027   1.212  10.532  0.6599  2.6320  0.5950
  862MPD2    H112710   2.755   1.148  10.216  0.5131 -0.8280  0.3126
  862MPD2    H212711   2.975   1.510  10.228  0.0161  0.2590  0.4798
  862MPD2    H312712   2.812   1.372  10.125 -1.2383  0.2175  1.2691
  862MPD2     N12713   2.854   1.043  10.420  0.1535 -0.0781  0.1296
  862MPD2    H512714   2.789   1.004  10.352  0.5002 -1.8389  0.8056
  862MPD2    N112715   3.085   1.468  10.473  0.0151 -0.4603 -0.0769
  862MPD2    H712716   3.132   1.428  10.553  0.9757  0.1619 -0.3242
  863MPD2     C12717   2.284   4.316  16.745 -0.2653 -0.2353  1.1225
  863MPD2    C112718   2.248   4.448  16.742  0.3876 -0.4341 -0.5663
  863MPD2    C212719   2.326   4.534  16.817 -0.5625  0.5291  0.7971
  863MPD2    C312720   2.431   4.494  16.896 -0.2659 -0.1041  0.2080
  863MPD2    C412721   2.471   4.364  16.889  0.7025 -0.1258 -0.7596
  863MPD2    C512722   2.387   4.277  16.824  0.0341  0.6285 -0.5601
  863MPD2     H12723   2.306   4.640  16.830  0.0480  0.6035  1.1438
  863MPD2    H112724   2.556   4.323  16.941 -0.3787 -2.1387 -0.5742
  863MPD2    H212725   2.228   4.239  16.692  1.4999 -0.1347 -0.9024
  863MPD2    H312726   2.412   4.172  16.832 -0.4165  0.6532  1.2444
  863MPD2     N12727   2.503   4.569  16.989 -0.0155  0.2665  0.1795
  863MPD2    H512728   2.559   4.521  17.058 -1.1965  0.0351  0.9869
  863MPD2    N112729   2.134   4.481  16.664  0.4332  0.5491  0.6089
  863MPD2    H712730   2.088   4.400  16.624  1.3173  1.5724 -2.4390
  864MPD2     C12731   2.525   1.971  17.004 -0.0681  0.3623  0.0321
  864MPD2    C112732   2.542   1.846  16.952  0.1104  0.3624  0.0959
  864MPD2    C212733   2.578   1.830  16.821 -0.0730 -0.1205 -0.1872
  864MPD2    C312734   2.570   1.941  16.733 -0.6208 -0.1231 -0.4973
  864MPD2    C412735   2.546   2.067  16.787  0.6667 -0.5277 -0.1589
  864MPD2    C512736   2.532   2.086  16.921 -0.2258  0.5028  0.8359
  864MPD2     H12737   2.603   1.730  16.787  0.7698  0.6130 -1.7254
  864MPD2    H112738   2.536   2.151  16.719 -0.7558 -0.1729  0.4850
  864MPD2    H212739   2.503   1.987  17.109 -1.3537  2.6783 -0.5912
  864MPD2    H312740   2.511   2.188  16.951  2.1345  0.9437  0.9650
  864MPD2     N12741   2.598   1.922  16.598 -0.0313 -0.2703  0.5399
  864MPD2    H512742   2.570   1.997  16.537  0.4281  0.9329  1.7927
  864MPD2    N112743   2.536   1.729  17.036 -0.1375  0.3472 -0.3994
  864MPD2    H712744   2.522   1.738  17.136  1.3174 -0.5128 -0.1037
  865MPD2     C12745   2.731   1.720  15.723  0.1603  0.7872 -0.4020
  865MPD2    C112746   2.717   1.677  15.856 -0.1267  0.9354  0.3344
  865MPD2    C212747   2.653   1.762  15.939  0.4219 -0.7078  0.1805
  865MPD2    C312748   2.605   1.887  15.904 -0.6504  0.3009 -0.3992
  865MPD2    C412749   2.611   1.925  15.772 -0.1911 -0.2290  0.3214
  865MPD2    C512750   2.683   1.844  15.681  0.3980  0.1573 -0.2411
  865MPD2     H12751   2.641   1.729  16.041  1.7100  1.8250  1.1647
  865MPD2    H112752   2.572   2.018  15.733  4.1159  1.2398 -0.4699
  865MPD2    H212753   2.781   1.653  15.654  1.5305 -0.2883  1.6455
  865MPD2    H312754   2.697   1.866  15.576  0.4001 -0.2556 -0.3241
  865MPD2     N12755   2.544   1.984  15.988  0.0738 -0.1663  0.1238
  865MPD2    H512756   2.477   2.045  15.943  1.0427  2.9881  2.9203
  865MPD2    N112757   2.767   1.548  15.892  0.1065  0.3245 -0.0407
  865MPD2    H712758   2.809   1.501  15.813 -1.2631 -1.2116  0.1687
  866MPD2     C12759   4.367   1.987  10.851  0.1105  0.5948  0.2738
  866MPD2    C112760   4.308   1.868  10.869 -0.4796 -0.1667  0.0690
  866MPD2    C212761   4.172   1.868  10.898  0.2700 -0.1178 -0.4731
  866MPD2    C312762   4.107   1.990  10.915  0.3769 -0.3464 -0.1655
  866MPD2    C412763   4.178   2.104  10.929 -0.1001  0.3014 -0.6394
  866MPD2    C512764   4.312   2.103  10.897 -0.3471 -0.2620  0.2612
  866MPD2     H12765   4.122   1.772  10.886 -0.4759 -0.0504  1.9938
  866MPD2    H112766   4.135   2.198  10.960  0.5481  0.7588 -1.1356
  866MPD2    H212767   4.472   1.994  10.825  0.1202 -2.1606 -0.4250
  866MPD2    H312768   4.361   2.199  10.891  0.4079 -0.6780 -0.1504
  866MPD2     N12769   3.968   2.001  10.939  0.0312 -0.3555  0.0144
  866MPD2    H512770   3.938   2.093  10.969 -3.0598 -0.9163 -1.2649
  866MPD2    N112771   4.392   1.756  10.838 -0.1500 -0.2460  0.1597
  866MPD2    H712772   4.476   1.779  10.786  0.8017  1.6029  2.5149
  867MPD2     C12773   1.391   1.699  16.512  0.1437  0.1490 -0.3606
  867MPD2    C112774   1.427   1.620  16.624 -0.2481  0.4043  0.0905
  867MPD2    C212775   1.364   1.648  16.744 -0.5593  0.2269  0.2940
  867MPD2    C312776   1.283   1.756  16.760  0.0048 -0.8897  0.0024
  867MPD2    C412777   1.254   1.827  16.647  0.1342  0.9829  0.0531
  867MPD2    C512778   1.307   1.805  16.521  0.1148 -0.1354 -0.4408
  867MPD2     H12779   1.402   1.591  16.828 -0.7382 -0.5606 -0.1586
  867MPD2    H112780   1.182   1.909  16.642 -3.1029 -1.6949  2.5242
  867MPD2    H212781   1.440   1.699  16.415  0.6553 -0.2361 -0.1003
  867MPD2    H312782   1.291   1.868  16.435 -0.0702  0.4570  0.0209
  867MPD2     N12783   1.218   1.792  16.881  0.5114 -0.0106 -0.1740
  867MPD2    H512784   1.164   1.878  16.883  1.5371  0.6343 -0.1067
  867MPD2    N112785   1.541   1.536  16.611 -0.7835  0.0750  0.0643
  867MPD2    H712786   1.578   1.520  16.518  1.5947 -0.5767  1.1254
  868MPD2     C12787   3.022   0.197  13.107 -0.2207  0.3909 -1.5048
  868MPD2    C112788   3.085   0.318  13.083 -0.5751  0.4359 -0.3251
  868MPD2    C212789   3.013   0.429  13.111 -0.3969 -0.0624 -0.3952
  868MPD2    C312790   2.884   0.425  13.145  0.5175  0.8412 -0.0397
  868MPD2    C412791   2.820   0.298  13.158 -0.1728  0.3094  1.0214
  868MPD2    C512792   2.892   0.185  13.137 -0.6120 -0.0146 -0.2522
  868MPD2     H12793   3.059   0.526  13.124 -0.8540  0.1445 -0.3315
  868MPD2    H112794   2.721   0.277  13.196  0.2273 -3.9329 -0.3111
  868MPD2    H212795   3.084   0.109  13.096 -0.6507 -0.2891  1.4899
  868MPD2    H312796   2.849   0.086  13.147  0.4474 -0.5482 -0.9590
  868MPD2     N12797   2.823   0.547  13.183 -0.3635 -0.0394  0.6386
  868MPD2    H512798   2.867   0.639  13.176  0.2971 -0.4358 -0.5403
  868MPD2    N112799   3.220   0.321  13.060 -0.2107 -0.2959 -0.2928
  868MPD2    H712800   3.272   0.234  13.072  1.7647  0.4169 -3.8548
  869MPD2     C12801   4.244   2.521   0.076 -0.8400  0.2382 -0.5587
  869MPD2    C112802   4.200   2.591   0.182 -0.7597 -0.1642 -0.5813
  869MPD2    C212803   4.246   2.719   0.206  0.3763  0.0506 -0.6513
  869MPD2    C312804   4.335   2.778   0.113  0.2054  0.9644  0.2921
  869MPD2    C412805   4.372   2.707   0.003  0.3720 -0.2462  0.6889
  869MPD2    C512806   4.321   2.572  17.732  0.0593 -0.1611  0.1182
  869MPD2     H12807   4.229   2.764   0.304 -0.0809 -1.4608 -0.0336
  869MPD2    H112808   4.441   2.744  17.677 -0.3044  0.1823  0.2729
  869MPD2    H212809   4.207   2.420   0.060  0.1871 -0.2380  0.1013
  869MPD2    H312810   4.351   2.521  17.641  0.2083  2.2685 -1.2074
  869MPD2     N12811   4.394   2.905   0.127  1.0648 -0.4133  0.2227
  869MPD2    H512812   4.460   2.933   0.055  0.6771  1.8075  0.7292
  869MPD2    N112813   4.107   2.526   0.266  0.4174  0.7341  0.0629
  869MPD2    H712814   4.064   2.448   0.217  2.0141 -0.4450  0.5476
  870MPD2     C12815   0.312   1.692   1.455 -0.1796  0.7632  0.2934
  870MPD2    C112816   0.197   1.608   1.461  0.8310  0.2248  0.0828
  870MPD2    C212817   0.077   1.670   1.431  0.1621  0.5436 -0.9693
  870MPD2    C312818   0.062   1.803   1.419 -0.2309 -0.1353 -1.0655
  870MPD2    C412819   0.178   1.882   1.414 -0.7713  0.2586  0.4620
  870MPD2    C512820   0.301   1.823   1.431  0.0881  0.0239  0.0060
  870MPD2     H12821   4.724   1.611   1.419  0.6004 -0.4424  0.4669
  870MPD2    H112822   0.172   1.985   1.381 -0.2733  0.4143  0.8616
  870MPD2    H212823   0.410   1.650   1.475 -0.0905  0.4618 -0.8081
  870MPD2    H312824   0.389   1.885   1.418 -0.6291  0.9465 -0.3572
  870MPD2     N12825   4.673   1.861   1.386 -0.2204  0.2432 -0.2016
  870MPD2    H512826   4.600   1.793   1.365 -1.2509  1.3598 -0.2465
  870MPD2    N112827   0.218   1.469   1.465  0.1785 -0.7236  0.5428
  870MPD2    H712828   0.312   1.432   1.458  0.7668  0.8148  0.3405
  871MPD2     C12829   0.722   1.443  16.095  0.1521 -0.4154  0.7151
  871MPD2    C112830   0.773   1.404  16.211 -0.1170 -1.4795  0.9264
  871MPD2    C212831   0.889   1.332  16.211  0.3885  0.1486 -0.2211
  871MPD2    C312832   0.963   1.304  16.099 -0.1970 -0.1276 -0.7262
  871MPD2    C412833   0.901   1.337  15.978  0.2098  0.0639  0.2550
  871MPD2    C512834   0.786   1.414  15.981  0.2239 -0.3837  0.4684
  871MPD2     H12835   0.930   1.313  16.310  1.2989 -1.3004 -0.8670
  871MPD2    H112836   0.954   1.322  15.885  2.7872 -1.4150  1.9641
  871MPD2    H212837   0.627   1.494  16.085  0.9952  1.0850  0.2037
  871MPD2    H312838   0.736   1.439  15.889  1.2525  0.6086  0.1828
  871MPD2     N12839   1.093   1.247  16.103 -0.1919  0.2654  0.3470
  871MPD2    H512840   1.134   1.232  16.194  3.7168  0.8131 -1.3334
  871MPD2    N112841   0.707   1.449  16.328  0.6805 -0.7925 -0.1218
  871MPD2    H712842   0.642   1.524  16.307  0.0666 -1.3416 -0.1894
  872MPD2     C12843   1.350   4.151  13.773 -0.2794  0.2855 -0.0897
  872MPD2    C112844   1.413   4.090  13.876 -0.5266 -0.0641 -0.8198
  872MPD2    C212845   1.340   4.050  13.989  0.0841 -0.0368  0.3702
  872MPD2    C312846   1.203   4.073  13.999 -0.7104  0.1174 -0.2196
  872MPD2    C412847   1.137   4.136  13.898  0.5559  0.0280 -0.6630
  872MPD2    C512848   1.210   4.169  13.787 -0.9586 -0.5131 -0.5812
  872MPD2     H12849   1.392   3.990  14.064 -1.1351 -0.7743  0.6369
  872MPD2    H112850   1.029   4.144  13.904  0.4124 -0.0004 -3.3734
  872MPD2    H212851   1.397   4.172  13.677 -0.1909 -0.5113 -0.2254
  872MPD2    H312852   1.148   4.215  13.712 -0.4723  0.4832 -0.3767
  872MPD2     N12853   1.121   4.048  14.112  0.5874  0.2244 -0.0544
  872MPD2    H512854   1.021   4.063  14.111  0.1563 -2.5417  0.7144
  872MPD2    N112855   1.550   4.052  13.868 -0.3531 -0.3415 -0.3904
  872MPD2    H712856   1.588   4.012  13.953 -2.7502 -1.8485 -0.0300
  873MPD2     C12857   2.772   3.007   0.754 -0.0572 -0.0562  0.1122
  873MPD2    C112858   2.903   3.017   0.803 -0.0540  0.2658 -0.4392
  873MPD2    C212859   2.952   2.900   0.857  0.0093 -0.4914  0.5832
  873MPD2    C312860   2.883   2.782   0.857 -0.4037  0.5041 -0.4890
  873MPD2    C412861   2.763   2.773   0.796  0.6809 -0.3229  0.1688
  873MPD2    C512862   2.705   2.892   0.757 -0.0634  0.8622  0.2232
  873MPD2     H12863   3.055   2.897   0.893 -0.0760 -0.5050  0.8263
  873MPD2    H112864   2.711   2.678   0.791  0.7696 -0.3703  0.1435
  873MPD2    H212865   2.720   3.092   0.712  2.5059  1.7188  0.5441
  873MPD2    H312866   2.609   2.879   0.709 -1.2249  0.2058  2.7253
  873MPD2     N12867   2.944   2.656   0.895  0.6179  0.2096  0.7243
  873MPD2    H512868   2.890   2.572   0.875  1.2670 -0.0529  0.0777
  873MPD2    N112869   2.967   3.141   0.791  0.1705  0.0301 -0.2702
  873MPD2    H712870   2.916   3.224   0.763  2.0523 -0.0233 -3.9296
  874MPD2     C12871   2.822   3.978  16.307 -0.2129 -0.9323 -0.2418
  874MPD2    C112872   2.878   3.916  16.415 -0.9756 -0.0243 -0.3339
  874MPD2    C212873   2.977   3.978  16.483 -0.0353  0.3131  0.6161
  874MPD2    C312874   3.027   4.101  16.448  0.1969 -0.4591  0.1685
  874MPD2    C412875   2.970   4.160  16.338 -0.6339  0.0758  0.3429
  874MPD2    C512876   2.864   4.098  16.273  0.0030 -0.1648 -0.1773
  874MPD2     H12877   3.023   3.924  16.565  0.2454 -0.2726  0.0682
  874MPD2    H112878   3.003   4.262  16.320  1.1676 -0.0875  2.6782
  874MPD2    H212879   2.735   3.944  16.251 -0.1432 -2.4308  0.5708
  874MPD2    H312880   2.811   4.159  16.200 -2.1069  0.9029  2.2366
  874MPD2     N12881   3.147   4.147  16.511 -0.4091  0.0791  0.1618
  874MPD2    H512882   3.191   4.081  16.575 -0.2654 -1.6738 -1.7472
  874MPD2    N112883   2.823   3.793  16.447 -0.4240  0.3901  0.2158
  874MPD2    H712884   2.746   3.767  16.387 -0.8407  3.1139 -0.4487
  875MPD2     C12885   4.045   2.395  14.379  0.1078  0.1227 -0.5552
  875MPD2    C112886   3.924   2.386  14.446  0.9379  0.3627 -0.7757
  875MPD2    C212887   3.918   2.432  14.577  0.5801 -0.0269  0.5101
  875MPD2    C312888   4.026   2.480  14.649 -0.1169  0.4925  0.1395
  875MPD2    C412889   4.147   2.485  14.584  0.0297 -0.6295 -0.1008
  875MPD2    C512890   4.155   2.446  14.452 -0.1300 -0.1733  0.0357
  875MPD2     H12891   3.826   2.435  14.635 -1.3286 -0.8485 -2.4472
  875MPD2    H112892   4.233   2.529  14.633 -0.5526  2.3009 -1.7240
  875MPD2    H212893   4.056   2.393  14.271  3.7873  0.2136 -0.1839
  875MPD2    H312894   4.241   2.463  14.388  0.6290 -2.7227  0.3845
  875MPD2     N12895   4.023   2.510  14.790  0.2624 -0.3709  0.4319
  875MPD2    H512896   4.111   2.547  14.825  0.2060  0.4613 -0.3217
  875MPD2    N112897   3.807   2.340  14.391 -0.5501 -0.2218  0.4045
  875MPD2    H712898   3.732   2.328  14.457 -2.3152 -2.9286 -2.0811
  876MPD2     C12899   2.674   3.611  16.165 -0.6398  0.4264 -0.5070
  876MPD2    C112900   2.793   3.599  16.099  0.0259  0.6485 -0.3416
  876MPD2    C212901   2.854   3.476  16.094 -0.1576  0.0922 -0.5874
  876MPD2    C312902   2.815   3.378  16.185  0.5636 -0.7775 -0.4394
  876MPD2    C412903   2.697   3.396  16.258  0.5323 -0.1076 -0.0670
  876MPD2    C512904   2.618   3.501  16.232  0.7658 -0.5598  0.8847
  876MPD2     H12905   2.933   3.464  16.021  0.3148  0.0553 -0.0693
  876MPD2    H112906   2.657   3.317  16.321  1.2627 -0.1135  0.3945
  876MPD2    H212907   2.627   3.708  16.164 -0.5611  0.4689 -0.0900
  876MPD2    H312908   2.525   3.517  16.285 -0.9725 -3.6038 -1.2899
  876MPD2     N12909   2.893   3.266  16.200  0.0086  0.4230  0.3497
  876MPD2    H512910   2.984   3.264  16.157  1.0562  1.5931  2.5112
  876MPD2    N112911   2.843   3.713  16.028  0.0038  0.2108  0.1429
  876MPD2    H712912   2.775   3.787  16.012 -0.6392 -0.3439  0.2857
  877MPD2     C12913   2.771   4.142  15.413  0.3988 -0.5651  0.4729
  877MPD2    C112914   2.907   4.136  15.445  0.3718  0.0001 -0.3912
  877MPD2    C212915   3.003   4.168  15.348 -0.0239 -0.4010 -0.8035
  877MPD2    C312916   2.961   4.194  15.215 -0.3702  0.3367  0.4523
  877MPD2    C412917   2.825   4.201  15.191 -0.9103  0.1140 -0.0864
  877MPD2    C512918   2.731   4.171  15.286  0.5050  0.3095 -0.0556
  877MPD2     H12919   3.107   4.154  15.374  0.1299 -1.1098 -1.8322
  877MPD2    H112920   2.789   4.240  15.096 -2.7244 -0.9007  0.1847
  877MPD2    H212921   2.694   4.120  15.486 -0.4384 -0.8882 -0.5037
  877MPD2    H312922   2.624   4.189  15.276  0.3016  0.6788  2.6130
  877MPD2     N12923   3.039   4.228  15.106 -0.1897  0.4715  0.2156
  877MPD2    H512924   2.992   4.235  15.016  1.3816 -1.5178 -0.7695
  877MPD2    N112925   2.957   4.119  15.576 -0.6701 -0.3028 -0.2499
  877MPD2    H712926   3.058   4.125  15.590 -0.5490 -0.9799 -0.8110
  878MPD2     C12927   2.835   3.843  13.726  0.2550  0.0676 -0.2353
  878MPD2    C112928   2.797   3.707  13.704  0.0627  0.2088  0.1025
  878MPD2    C212929   2.728   3.646  13.808 -0.7536  0.0704  1.0407
  878MPD2    C312930   2.715   3.705  13.928 -0.4818 -0.4349 -0.6759
  878MPD2    C412931   2.763   3.834  13.955 -0.3119 -0.2667  0.1793
  878MPD2    C512932   2.807   3.910  13.845 -0.6929 -0.3003 -0.2327
  878MPD2     H12933   2.679   3.551  13.788  0.6631 -0.5143  0.3588
  878MPD2    H112934   2.738   3.890  14.045 -1.8655 -1.1389  0.2949
  878MPD2    H212935   2.876   3.900  13.642  1.3398 -0.1658  0.1299
  878MPD2    H312936   2.830   4.015  13.852  0.5444 -0.6793  1.3720
  878MPD2     N12937   2.628   3.637  14.015 -0.5906 -0.1206  0.8827
  878MPD2    H512938   2.583   3.559  13.969 -1.4227  0.1908  1.1732
  878MPD2    N112939   2.816   3.654  13.579 -0.0884  0.3166  0.6106
  878MPD2    H712940   2.865   3.713  13.513  0.8019  0.1645  1.1233
  879MPD2     C12941   3.152   4.025  17.594 -0.4012  0.0162 -0.7827
  879MPD2    C112942   3.122   4.097  17.480  0.0869  0.5116  0.5752
  879MPD2    C212943   3.076   4.025  17.367 -0.1331 -0.6614 -0.1235
  879MPD2    C312944   3.063   3.888  17.382  1.1881  0.2266  0.0339
  879MPD2    C412945   3.103   3.821  17.495  0.0263 -0.4378  0.2393
  879MPD2    C512946   3.150   3.889  17.602  0.0370 -0.1749  0.0445
  879MPD2     H12947   3.045   4.077  17.277 -3.2459  0.3167  1.5120
  879MPD2    H112948   3.084   3.715  17.508  2.4795 -0.8035  0.8965
  879MPD2    H212949   3.196   4.062  17.686  0.9412  3.2617 -2.7328
  879MPD2    H312950   3.163   3.828  17.691 -0.9959  0.6108  0.7221
  879MPD2     N12951   3.017   3.804  17.277  0.3367 -0.2073 -0.0622
  879MPD2    H512952   3.026   3.705  17.297 -1.9408 -0.1687  1.0739
  879MPD2    N112953   3.137   4.237  17.483 -0.3764 -0.0105  0.6239
  879MPD2    H712954   3.165   4.281  17.570 -0.0913 -1.3879  1.2145
  880MPD2     C12955   4.282   1.246  17.736  0.3204  0.4293 -0.2438
  880MPD2    C112956   4.339   1.261   0.111 -0.2659  0.3283  0.2192
  880MPD2    C212957   4.377   1.155   0.186 -0.2619  0.0613 -0.3669
  880MPD2    C312958   4.365   1.028   0.132  0.2254  0.1434  0.6437
  880MPD2    C412959   4.296   1.010   0.011 -0.3411 -0.0697  0.2959
  880MPD2    C512960   4.264   1.120  17.682  0.0942 -0.8063  0.5536
  880MPD2     H12961   4.430   1.171   0.279  0.4327 -2.5140 -0.2931
  880MPD2    H112962   4.301   0.909  17.722  1.0947 -0.3766  1.3320
  880MPD2    H212963   4.271   1.331  17.669 -2.2211  0.2681 -0.0325
  880MPD2    H312964   4.225   1.107  17.582 -0.4385  1.8744  0.4283
  880MPD2     N12965   4.439   0.922   0.192 -0.3218 -0.1806  0.1946
  880MPD2    H512966   4.480   0.946   0.281  0.0720  2.2195 -0.6330
  880MPD2    N112967   4.354   1.398   0.156 -0.3480  0.6533 -0.1758
  880MPD2    H712968   4.346   1.466   0.081  0.1929 -0.4973 -1.2584
  881MPD2     C12969   4.414   2.212  17.460 -0.0253 -0.4749  0.0060
  881MPD2    C112970   4.490   2.097  17.453  0.6147  0.0918 -0.1020
  881MPD2    C212971   4.478   2.002  17.555 -0.8171 -0.4197  0.0551
  881MPD2    C312972   4.406   2.031  17.673  0.2908 -0.4910 -0.0109
  881MPD2    C412973   4.333   2.150  17.674  0.1389 -0.1899  0.0800
  881MPD2    C512974   4.335   2.231  17.571 -0.1580  0.4748 -0.1315
  881MPD2     H12975   4.531   1.908  17.540  2.5327  1.7780 -1.8642
  881MPD2    H112976   4.269   2.175   0.009  1.3006 -1.6170  1.3862
  881MPD2    H212977   4.411   2.279  17.374 -0.0070  2.5304  2.3596
  881MPD2    H312978   4.261   2.310  17.572 -0.9070 -0.2178 -0.7261
  881MPD2     N12979   4.406   1.955   0.040  0.3913  0.1559  0.1311
  881MPD2    H512980   4.352   1.991   0.117 -2.6179 -2.0883 -0.9491
  881MPD2    N112981   4.548   2.068  17.324  0.3077 -0.5132  0.0224
  881MPD2    H712982   4.536   2.147  17.261  0.2460  0.6105  1.4430
  882MPD2     C12983   3.154   3.907  14.419 -0.2730  0.2106 -0.6007
  882MPD2    C112984   3.099   4.009  14.492  0.0534 -0.2425  0.3278
  882MPD2    C212985   2.965   4.044  14.467  0.4417 -0.3013  0.0692
  882MPD2    C312986   2.893   3.983  14.367 -0.1523 -0.0796  0.4580
  882MPD2    C412987   2.952   3.890  14.287 -0.4447  0.0711  0.6634
  882MPD2    C512988   3.081   3.854  14.312 -1.3566 -0.2372  0.0933
  882MPD2     H12989   2.917   4.114  14.536  1.4323  0.8562 -0.4189
  882MPD2    H112990   2.902   3.860  14.196 -0.6338  0.5600  0.6070
  882MPD2    H212991   3.257   3.874  14.427 -0.2426  0.3251 -0.5252
  882MPD2    H312992   3.123   3.770  14.257 -0.9099  0.1436 -0.1471
  882MPD2     N12993   2.756   4.025  14.339 -0.3886  0.5254  0.0496
  882MPD2    H512994   2.712   3.957  14.278 -0.6343 -1.5541  2.5661
  882MPD2    N112995   3.186   4.075  14.588  0.1176  0.2586 -0.3286
  882MPD2    H712996   3.282   4.044  14.596  0.1403  0.5689  0.5799
  883MPD2     C12997   4.438   3.585  16.142  0.1409 -0.0632  0.0456
  883MPD2    C112998   4.480   3.686  16.063  0.3657  0.5825  0.3439
  883MPD2    C212999   4.572   3.769  16.120 -0.2613  0.3416 -0.5368
  883MPD2    C313000   4.632   3.739  16.245  0.1794  0.4923 -0.2689
  883MPD2    C413001   4.594   3.627  16.314  0.1571 -0.0274  0.7286
  883MPD2    C513002   4.483   3.567  16.266 -0.2773  0.2705 -0.2306
  883MPD2     H13003   4.610   3.850  16.059  2.2496  0.1113  0.7006
  883MPD2    H113004   4.630   3.606  16.414 -0.5784 -1.0192  0.7901
  883MPD2    H213005   4.344   3.547  16.102  2.0498 -2.0301 -2.5485
  883MPD2    H313006   4.427   3.503  16.334 -2.3908 -0.9893 -3.1690
  883MPD2     N13007   4.737   3.824  16.289  0.6319  0.4381  1.0349
  883MPD2    H513008   0.035   3.888  16.219 -0.3276  0.6630  0.7556
  883MPD2    N113009   4.436   3.702  15.933 -0.3443 -0.3923 -0.1142
  883MPD2    H713010   4.476   3.777  15.877  1.8531 -1.0566  0.5831
  884MPD2     C13011   2.154   4.687  15.330 -0.4149  0.7851 -0.1935
  884MPD2    C113012   2.199   0.071  15.275  0.0543  0.5080 -0.3179
  884MPD2    C213013   2.104   0.166  15.237  0.1008 -0.5689 -0.2209
  884MPD2    C313014   1.968   0.143  15.253 -0.0751 -0.0505  0.3071
  884MPD2    C413015   1.925   0.024  15.316 -0.0857  0.0636 -0.0408
  884MPD2    C513016   2.020   4.670  15.346  0.4035  0.1299  0.2933
  884MPD2     H13017   2.131   0.257  15.186  0.8466 -0.2231  0.7927
  884MPD2    H113018   1.821   4.734  15.334 -0.2455  0.2071 -0.7431
  884MPD2    H213019   2.210   4.598  15.357 -1.1824 -0.0273 -1.2933
  884MPD2    H313020   1.988   4.575  15.388  0.0567  0.6065  1.1059
  884MPD2     N13021   1.877   0.238  15.200 -0.4640  0.2106 -0.1396
  884MPD2    H513022   1.907   0.301  15.126 -0.3104  1.1021  0.6781
  884MPD2    N113023   2.341   0.102  15.274  0.1176 -0.0178 -1.1799
  884MPD2    H713024   2.374   0.192  15.240  1.1723  0.5306  1.3473
  885MPD2     C13025   0.035   0.446  17.478 -0.3066 -0.0142  0.0309
  885MPD2    C113026   0.127   0.343  17.480 -0.0205 -0.1903 -0.1869
  885MPD2    C213027   0.165   0.289  17.355 -0.2971  0.4734 -0.2718
  885MPD2    C313028   0.122   0.345  17.236 -0.5101 -0.6694  0.5996
  885MPD2    C413029   0.029   0.451  17.244  0.0605  0.5574  0.0447
  885MPD2    C513030   4.723   0.492  17.365  0.3480  0.7554  0.3347
  885MPD2     H13031   0.237   0.209  17.344  0.2150  1.0199 -0.8808
  885MPD2    H113032   4.722   0.497  17.157 -0.5754  2.0655  1.1608
  885MPD2    H213033   4.732   0.491  17.568  0.7121  0.0853  0.4408
  885MPD2    H313034   4.648   0.570  17.363 -1.1329 -0.7246 -1.8949
  885MPD2     N13035   0.169   0.286  17.117  0.5937 -0.2806 -0.2211
  885MPD2    H513036   0.212   0.195  17.116 -0.0339 -0.5927  1.2566
  885MPD2    N113037   0.163   0.296  17.612 -0.3812 -0.2838  0.0350
  885MPD2    H713038   0.130   0.345  17.694 -4.6666 -1.0674 -1.2296
  886MPD2     C13039   1.469   3.651  15.639 -0.1727 -0.7012 -0.2238
  886MPD2    C113040   1.568   3.578  15.587  0.2199  0.3758 -0.2453
  886MPD2    C213041   1.626   3.606  15.467  0.0348 -0.7881 -0.7381
  886MPD2    C313042   1.571   3.710  15.390 -0.2398  0.2918  0.9540
  886MPD2    C413043   1.469   3.788  15.441  0.1588 -0.1842 -0.5218
  886MPD2    C513044   1.411   3.752  15.567 -0.2777  0.4942  0.0530
  886MPD2     H13045   1.707   3.545  15.429 -0.9777 -1.2647 -2.1232
  886MPD2    H113046   1.415   3.857  15.377 -0.0470 -2.5872 -2.9765
  886MPD2    H213047   1.404   3.618  15.719  0.4256  0.9049  0.9215
  886MPD2    H313048   1.319   3.795  15.607  0.0389  1.6663 -0.4751
  886MPD2     N13049   1.626   3.742  15.261  0.3325  0.2429  0.0868
  886MPD2    H513050   1.594   3.825  15.213 -0.1829  1.0679  1.8469
  886MPD2    N113051   1.621   3.466  15.658 -0.3697 -0.6700  0.7320
  886MPD2    H713052   1.694   3.412  15.613 -0.0435 -0.6322  1.2192
  887MPD2     C13053   2.190   3.610  16.201 -0.1702 -0.3771 -0.2878
  887MPD2    C113054   2.136   3.626  16.078  0.0243  0.1839 -0.3044
  887MPD2    C213055   2.200   3.706  15.986 -0.4694  0.5629 -0.7056
  887MPD2    C313056   2.314   3.779  16.019 -0.2865 -0.2045 -0.3735
  887MPD2    C413057   2.364   3.764  16.150 -1.2440  0.2280  0.3236
  887MPD2    C513058   2.301   3.683  16.237  0.2588 -0.5574 -0.0393
  887MPD2     H13059   2.164   3.707  15.884 -0.1422  1.2457 -0.8166
  887MPD2    H113060   2.445   3.825  16.188 -1.0215 -1.1219  2.0364
  887MPD2    H213061   2.153   3.549  16.282  0.4879 -0.8856 -0.3726
  887MPD2    H313062   2.344   3.662  16.334  0.2879  0.4833  0.1716
  887MPD2     N13063   2.383   3.864  15.927  0.6105  0.0382 -0.5935
  887MPD2    H513064   2.335   3.880  15.839  0.0674  0.7891 -0.1632
  887MPD2    N113065   2.016   3.555  16.036 -0.3049 -0.2418  0.5032
  887MPD2    H713066   1.983   3.557  15.940  0.6892 -1.3177  0.1456
  888MPD2     C13067   3.861   3.344  14.830  0.2236 -0.3969 -0.4575
  888MPD2    C113068   3.848   3.349  14.970 -0.2026  0.1924  0.4652
  888MPD2    C213069   3.894   3.459  15.035 -0.5755 -0.3430 -0.0726
  888MPD2    C313070   3.954   3.565  14.967  0.5949 -0.6361 -0.0333
  888MPD2    C413071   3.950   3.568  14.829  0.8991 -0.2902  0.4619
  888MPD2    C513072   3.898   3.454  14.765  0.0447  0.2916  0.5022
  888MPD2     H13073   3.888   3.455  15.143 -0.8309  0.3140 -0.0633
  888MPD2    H113074   3.983   3.655  14.775  1.9727 -2.2454 -2.0375
  888MPD2    H213075   3.798   3.270  14.783 -1.1646 -0.2576  1.1579
  888MPD2    H313076   3.879   3.450  14.658  1.9291 -0.1316  0.1855
  888MPD2     N13077   3.995   3.677  15.050  0.5583  0.2836  0.7733
  888MPD2    H513078   3.942   3.688  15.136 -1.4131 -1.1312 -0.2585
  888MPD2    N113079   3.773   3.252  15.038  0.1314 -0.3696 -0.2536
  888MPD2    H713080   3.746   3.279  15.132 -1.6525  1.9083 -1.4001
  889MPD2     C13081   3.335   3.259  12.943  0.1778 -0.3413 -0.2783
  889MPD2    C113082   3.422   3.234  13.052  0.2226 -1.0559 -0.1610
  889MPD2    C213083   3.510   3.329  13.093  0.2558  0.3556 -0.1227
  889MPD2    C313084   3.492   3.454  13.039 -0.2922 -0.0020  0.3224
  889MPD2    C413085   3.407   3.481  12.933  0.3822  0.5311 -0.7093
  889MPD2    C513086   3.336   3.376  12.876 -0.3078  0.8883  0.2980
  889MPD2     H13087   3.582   3.315  13.173  1.1741  0.0171 -1.0104
  889MPD2    H113088   3.413   3.573  12.876 -0.7881  2.2236  1.8980
  889MPD2    H213089   3.284   3.179  12.890 -0.1893  0.2323 -0.7775
  889MPD2    H313090   3.279   3.379  12.784  1.3935  1.2193 -0.7489
  889MPD2     N13091   3.574   3.550  13.091  0.2131  0.0752 -0.0095
  889MPD2    H513092   3.642   3.522  13.162  0.4649 -0.4792 -0.4711
  889MPD2    N113093   3.453   3.095  13.078 -0.4899 -0.5014  0.4513
  889MPD2    H713094   3.393   3.023  13.039 -1.2055  0.4067 -0.1117
  890MPD2     C13095   2.992   4.733  14.541  0.5316  0.5323  0.6865
  890MPD2    C113096   3.077   0.102  14.563 -0.1723  0.4286  0.3284
  890MPD2    C213097   3.097   0.137  14.696  0.4848  0.2555 -0.1905
  890MPD2    C313098   3.034   0.074  14.804 -0.8047  0.3581 -0.5180
  890MPD2    C413099   2.955   4.699  14.778 -0.1033 -0.2371  0.7034
  890MPD2    C513100   2.926   4.674  14.644  0.3015 -0.0226 -0.2723
  890MPD2     H13101   3.157   0.220  14.731 -1.1786  0.9821  0.8861
  890MPD2    H113102   2.905   4.648  14.859 -2.2416  0.1172 -0.3841
  890MPD2    H213103   2.965   4.703  14.441  1.8965  0.5951  0.2996
  890MPD2    H313104   2.855   4.599  14.612  0.6548 -1.2381  1.8048
  890MPD2     N13105   3.044   0.128  14.933  0.4074 -0.4486  0.3873
  890MPD2    H513106   3.106   0.207  14.948 -0.0200  0.0689 -0.5368
  890MPD2    N113107   3.132   0.162  14.451 -0.4585  0.4802  0.4346
  890MPD2    H713108   3.101   0.134  14.358 -1.5220  1.4897  0.4803
  891MPD2     C13109   0.975   3.194  16.410 -0.0674 -0.2361  0.9027
  891MPD2    C113110   0.887   3.140  16.502 -0.2459  0.4581  0.8883
  891MPD2    C213111   0.942   3.083  16.626 -0.6660 -0.0823  0.2116
  891MPD2    C313112   1.079   3.073  16.642  0.0157 -1.6688 -0.3383
  891MPD2    C413113   1.161   3.124  16.550  0.0270  0.3743  0.2489
  891MPD2    C513114   1.110   3.180  16.438 -0.0071 -0.0575  0.2969
  891MPD2     H13115   0.877   3.049  16.706  0.4659  0.2559  1.2618
  891MPD2    H113116   1.269   3.124  16.561 -0.0479  1.4602  1.0636
  891MPD2    H213117   0.946   3.237  16.314 -2.3434 -0.3150  1.5453
  891MPD2    H313118   1.190   3.222  16.380  0.6129 -0.4027  0.9062
  891MPD2     N13119   1.125   3.022  16.768  0.0857 -0.0864  0.4425
  891MPD2    H513120   1.056   2.995  16.838 -1.1296  0.9198 -0.3431
  891MPD2    N113121   0.749   3.163  16.480  0.5173 -0.6213 -0.8029
  891MPD2    H713122   0.719   3.231  16.412  2.0659 -2.1465 -3.0062
  892MPD2     C13123   2.064   4.724  14.578 -0.6123  0.1178  0.2316
  892MPD2    C113124   2.015   4.600  14.621  0.3218  0.1548 -0.1350
  892MPD2    C213125   2.086   4.483  14.609 -0.1781  0.0177 -0.1662
  892MPD2    C313126   2.216   4.488  14.557 -0.2568  0.0953 -0.8954
  892MPD2    C413127   2.270   4.606  14.520 -0.3495  0.3932  0.6574
  892MPD2    C513128   2.192   4.725  14.527  0.2038  0.0528 -0.5266
  892MPD2     H13129   2.034   4.391  14.634 -0.3055  1.6112  5.4876
  892MPD2    H113130   2.370   4.623  14.484 -0.7924  1.9158  0.1640
  892MPD2    H213131   1.995   0.068  14.565 -0.9133 -0.5437 -2.1719
  892MPD2    H313132   2.227   0.083  14.492  1.2665 -0.3293 -0.5045
  892MPD2     N13133   2.294   4.364  14.538  0.2186 -0.2214 -0.3736
  892MPD2    H513134   2.382   4.381  14.491 -1.2337  0.2911 -2.8924
  892MPD2    N113135   1.885   4.582  14.668 -0.2598  0.3596 -0.0166
  892MPD2    H713136   1.880   4.489  14.709 -0.7829  0.3654 -0.0729
  893MPD2     C13137   3.719   3.289   1.809 -0.5978 -0.3853  0.6983
  893MPD2    C113138   3.654   3.250   1.689 -0.2805 -0.2475 -0.3058
  893MPD2    C213139   3.518   3.274   1.673  0.0106 -0.2801 -0.1967
  893MPD2    C313140   3.452   3.346   1.767  0.3961  0.3830  0.6221
  893MPD2    C413141   3.514   3.402   1.875 -0.1027 -0.0505 -0.1188
  893MPD2    C513142   3.651   3.379   1.892 -0.0959 -0.1915 -0.2265
  893MPD2     H13143   3.456   3.232   1.594 -0.1051 -0.7282  0.1369
  893MPD2    H113144   3.457   3.461   1.947  1.2272  3.0041 -1.5562
  893MPD2    H213145   3.821   3.264   1.837 -0.3577 -0.5475 -0.3231
  893MPD2    H313146   3.704   3.412   1.980  0.9520  2.2511 -1.7717
  893MPD2     N13147   3.318   3.372   1.761  0.5917  0.3000 -0.7574
  893MPD2    H513148   3.273   3.429   1.832  1.6459 -1.8679  1.6571
  893MPD2    N113149   3.729   3.168   1.603 -0.2779  0.0711  0.2535
  893MPD2    H713150   3.827   3.155   1.627 -0.7523  0.1989  2.2602
  894MPD2     C13151   1.525   4.477   0.829  0.3337 -0.2278 -0.3358
  894MPD2    C113152   1.495   4.569   0.921  0.5241 -0.0326  0.5663
  894MPD2    C213153   1.540   4.697   0.899  0.1301 -0.0682  0.9330
  894MPD2    C313154   1.635   4.726   0.796 -0.9635  0.5775 -0.5335
  894MPD2    C413155   1.677   4.622   0.716 -0.3134 -0.0589 -0.9545
  894MPD2    C513156   1.617   4.500   0.731 -1.1132 -0.0052  0.3113
  894MPD2     H13157   1.505   0.038   0.966  1.0202  0.2125  1.0606
  894MPD2    H113158   1.727   4.639   0.621  0.8765 -1.8060 -0.6504
  894MPD2    H213159   1.485   4.376   0.833  0.5221 -0.2331  1.3349
  894MPD2    H313160   1.639   4.417   0.665 -1.1956  0.1316  0.1141
  894MPD2     N13161   1.684   0.120   0.772  0.2284  0.4356  0.1205
  894MPD2    H513162   1.636   0.191   0.826 -0.7158 -1.4594  1.7741
  894MPD2    N113163   1.392   4.562   1.014 -0.2491  0.0597 -0.0250
  894MPD2    H713164   1.372   4.646   1.066 -1.5412  0.6142 -1.4173
  895MPD2     C13165   1.297   3.750  13.729  0.5720  0.3516  0.1056
  895MPD2    C113166   1.226   3.629  13.728 -0.0214 -0.1447 -0.0516
  895MPD2    C213167   1.302   3.513  13.710  0.0894 -0.5520  0.1300
  895MPD2    C313168   1.436   3.514  13.690 -0.0810  0.0689  0.0198
  895MPD2    C413169   1.502   3.632  13.690  0.3976  0.6506  0.6864
  895MPD2    C513170   1.432   3.747  13.716 -0.0164 -0.2778  0.5884
  895MPD2     H13171   1.242   3.423  13.703  0.6672 -0.6507 -3.2227
  895MPD2    H113172   1.608   3.645  13.672  0.2172 -1.6718 -2.0339
  895MPD2    H213173   1.243   3.842  13.746  1.3533  0.6255  1.1292
  895MPD2    H313174   1.479   3.845  13.721 -1.9308  0.7114 -0.2704
  895MPD2     N13175   1.508   3.399  13.666 -0.0533 -0.1780  0.7626
  895MPD2    H513176   1.608   3.415  13.664 -0.2660  0.7232 -1.8868
  895MPD2    N113177   1.086   3.623  13.717 -0.0566 -0.2494  0.1872
  895MPD2    H713178   1.044   3.542  13.674 -0.0615 -0.1486  0.0038
  896MPD2     C13179   3.540   0.806   1.311  0.7580  0.6119 -0.1033
  896MPD2    C113180   3.567   0.826   1.175  0.2473 -0.3318 -0.5788
  896MPD2    C213181   3.475   0.776   1.086 -0.0178 -0.1337 -0.0644
  896MPD2    C313182   3.368   0.703   1.135  0.6126  0.3486 -0.0065
  896MPD2    C413183   3.354   0.677   1.272  0.4222 -0.2025 -1.0259
  896MPD2    C513184   3.429   0.742   1.359 -0.3240  0.3062  0.4220
  896MPD2     H13185   3.479   0.785   0.978 -0.1102  1.8348  0.1065
  896MPD2    H113186   3.275   0.616   1.315  0.2912 -0.1590 -1.2073
  896MPD2    H213187   3.601   0.864   1.380  2.8373 -0.5502 -0.9661
  896MPD2    H313188   3.421   0.745   1.467 -0.5115 -0.2522  0.4238
  896MPD2     N13189   3.283   0.646   1.042 -0.3547  0.9639  0.8375
  896MPD2    H513190   3.311   0.650   0.945 -0.3399 -0.3717  0.7816
  896MPD2    N113191   3.677   0.913   1.134 -0.0100  0.2114 -0.5008
  896MPD2    H713192   3.735   0.954   1.206 -0.3752 -0.7700  0.3699
  897MPD2     C13193   4.037   2.370  10.666 -0.4032  0.1073 -0.6338
  897MPD2    C113194   4.035   2.501  10.636  0.8468 -0.7846 -0.2371
  897MPD2    C213195   3.931   2.580  10.687  0.8211  0.4488 -0.3476
  897MPD2    C313196   3.831   2.521  10.755 -0.1498 -0.7485  0.3941
  897MPD2    C413197   3.830   2.382  10.785  0.2779 -0.4933 -1.1894
  897MPD2    C513198   3.944   2.309  10.747 -0.3602 -0.3452  0.1740
  897MPD2     H13199   3.925   2.684  10.657  1.5109 -0.0939 -2.4198
  897MPD2    H113200   3.744   2.337  10.834  1.4117  0.9009  2.0463
  897MPD2    H213201   4.118   2.304  10.637  0.4242  0.6532  0.4073
  897MPD2    H313202   3.952   2.201  10.759  2.2685 -0.4657 -2.5774
  897MPD2     N13203   3.737   2.610  10.809  0.0008  0.1866  0.4887
  897MPD2    H513204   3.718   2.701  10.768  0.9428 -0.3367 -1.1101
  897MPD2    N113205   4.142   2.551  10.557  0.7130 -0.6076 -0.2163
  897MPD2    H713206   4.204   2.478  10.524 -0.3715 -0.7741 -1.8940
  898MPD2     C13207   1.379   3.370  17.557  0.2864  0.1731  0.5112
  898MPD2    C113208   1.504   3.353  17.615 -0.1152  0.1751 -0.7067
  898MPD2    C213209   1.583   3.467  17.612 -0.1198 -0.1743 -0.1497
  898MPD2    C313210   1.539   3.587  17.565 -0.0165 -0.1160  0.8943
  898MPD2    C413211   1.408   3.600  17.518  0.7746  0.1565  0.0615
  898MPD2    C513212   1.330   3.488  17.507 -0.1505 -0.8817  0.4241
  898MPD2     H13213   1.682   3.469  17.657 -0.7687  1.4490  1.2228
  898MPD2    H113214   1.362   3.688  17.474 -1.2556 -0.4242  0.9954
  898MPD2    H213215   1.297   3.299  17.556  1.4814 -1.2131  0.9140
  898MPD2    H313216   1.230   3.492  17.466  0.3183  2.2010 -0.4732
  898MPD2     N13217   1.628   3.695  17.567 -0.0180 -0.9456  0.0862
  898MPD2    H513218   1.723   3.678  17.598 -0.3547 -3.6365 -0.4030
  898MPD2    N113219   1.546   3.235  17.680 -0.2440 -0.1185  0.3019
  898MPD2    H713220   1.641   3.230  17.715 -0.9070 -1.0649  1.9635
  899MPD2     C13221   2.497   4.287  17.462 -0.9129  0.5310  0.0709
  899MPD2    C113222   2.524   4.409  17.525 -0.7763  0.6755 -0.1184
  899MPD2    C213223   2.487   4.429  17.659 -0.1462  0.2244  0.1500
  899MPD2    C313224   2.401   4.340  17.724 -0.2689 -0.3385  0.2207
  899MPD2    C413225   2.381   4.222  17.668 -0.8079 -0.5280  0.0260
  899MPD2    C513226   2.420   4.199  17.538  0.6681 -0.0975  0.3458
  899MPD2     H13227   2.505   4.521  17.713  2.5399  0.8846 -1.8277
  899MPD2    H113228   2.317   4.151  17.719 -0.2216 -0.5870  0.6638
  899MPD2    H213229   2.533   4.262  17.362  0.5861  0.0211  0.7356
  899MPD2    H313230   2.403   4.101  17.494  1.6830  0.6371 -1.6647
  899MPD2     N13231   2.330   4.348   0.100  0.2988  0.0953 -0.3533
  899MPD2    H513232   2.292   4.258   0.125 -0.1650  0.0869 -1.0734
  899MPD2    N113233   2.596   4.498  17.449 -0.1967 -0.3520 -0.5753
  899MPD2    H713234   2.606   4.473  17.351  2.0126 -1.1662 -0.1352
  900MPD2     C13235   1.873   1.067  12.928 -0.1850 -0.0756 -0.1405
  900MPD2    C113236   1.804   0.968  12.865  0.6658 -0.3732  0.4244
  900MPD2    C213237   1.680   1.003  12.810  0.1563 -0.2943 -0.1732
  900MPD2    C313238   1.641   1.134  12.785 -0.0505  0.4756 -0.2576
  900MPD2    C413239   1.717   1.235  12.848  0.2358  0.6818 -0.1134
  900MPD2    C513240   1.839   1.194  12.908  0.1696 -0.8770  0.2330
  900MPD2     H13241   1.612   0.930  12.770 -0.0790 -0.3677  0.3557
  900MPD2    H113242   1.697   1.341  12.857  2.2072  1.0475 -0.1894
  900MPD2    H213243   1.964   1.037  12.980  0.4903 -0.4189 -1.4968
  900MPD2    H313244   1.902   1.268  12.955  0.3666  1.1601 -3.2822
  900MPD2     N13245   1.523   1.161  12.706  0.1295 -0.1066  0.1756
  900MPD2    H513246   1.476   1.080  12.667 -0.2269  0.3929 -0.4336
  900MPD2    N113247   1.856   0.835  12.882  0.5867  0.1304  0.5324
  900MPD2    H713248   1.944   0.834  12.932  1.3978  1.7872 -0.8799
  901MPD2     C13249   1.767   4.496  12.999 -0.4606 -0.7738 -0.3558
  901MPD2    C113250   1.900   4.529  12.986 -0.2013  0.0011  0.6254
  901MPD2    C213251   1.936   4.651  12.939  0.4338 -0.3280  0.0437
  901MPD2    C313252   1.837   0.007  12.915 -0.1069 -0.2736 -0.0642
  901MPD2    C413253   1.705   4.716  12.922 -0.5926 -0.0592  0.0314
  901MPD2    C513254   1.676   4.590  12.961 -0.0194  0.5779  0.3829
  901MPD2     H13255   2.040   4.681  12.946  0.6852 -1.1170 -0.3965
  901MPD2    H113256   1.620   0.037  12.887 -1.1881 -1.4491 -0.8758
  901MPD2    H213257   1.738   4.399  13.035 -0.5792 -0.3983  0.5659
  901MPD2    H313258   1.575   4.552  12.962  0.7004 -1.4265 -0.8490
  901MPD2     N13259   1.890   0.139  12.890 -0.3691 -0.4419 -0.2810
  901MPD2    H513260   1.991   0.135  12.882 -0.2230  0.1811  1.3045
  901MPD2    N113261   1.991   4.419  13.012 -0.3543  0.4038  0.1950
  901MPD2    H713262   1.946   4.334  13.046  1.6319 -1.1803 -1.1815
  902MPD2     C13263   1.158   3.478  12.417  0.4121  0.1287 -0.5415
  902MPD2    C113264   1.251   3.578  12.436  0.1338 -0.4490  0.3283
  902MPD2    C213265   1.387   3.562  12.415 -0.5191 -0.5896 -0.4690
  902MPD2    C313266   1.433   3.447  12.361 -0.3877  0.4604 -0.2913
  902MPD2    C413267   1.342   3.344  12.341 -0.0835  0.1540  0.1834
  902MPD2    C513268   1.212   3.354  12.376 -0.2211  0.2022 -0.3759
  902MPD2     H13269   1.454   3.646  12.425 -0.0875 -1.3058  2.5066
  902MPD2    H113270   1.377   3.255  12.290  0.6922  1.7313 -2.0384
  902MPD2    H213271   1.051   3.486  12.434  0.5835 -0.7751  1.0190
  902MPD2    H313272   1.150   3.267  12.355  1.6124 -0.9804 -0.8279
  902MPD2     N13273   1.559   3.420  12.302 -0.0544 -0.0517 -0.2212
  902MPD2    H513274   1.566   3.350  12.229 -0.8722  0.7371 -1.0593
  902MPD2    N113275   1.203   3.704  12.486  0.1797 -0.1052 -0.4469
  902MPD2    H713276   1.102   3.714  12.484  0.1603 -0.5291 -1.3168
  903MPD2     C13277   1.251   4.001  12.168 -0.7187  0.0075 -0.5262
  903MPD2    C113278   1.245   3.866  12.131  0.8665  0.1590 -0.3062
  903MPD2    C213279   1.116   3.809  12.104  0.1823  0.1848 -0.1730
  903MPD2    C313280   1.004   3.889  12.116  0.1842 -0.5884  0.0181
  903MPD2    C413281   1.013   4.020  12.158 -0.2969 -0.2164 -0.1579
  903MPD2    C513282   1.131   4.070  12.177 -0.1493 -0.2108 -0.1392
  903MPD2     H13283   1.095   3.704  12.082 -1.0304  0.4580 -0.2947
  903MPD2    H113284   0.925   4.082  12.161  0.6303  1.1407 -0.8795
  903MPD2    H213285   1.343   4.052  12.196 -1.9848  1.8592  0.2986
  903MPD2    H313286   1.128   4.174  12.205  1.3823 -0.3280  0.4796
  903MPD2     N13287   0.879   3.821  12.100  0.1142  0.2080 -0.6097
  903MPD2    H513288   0.879   3.720  12.102 -1.4029  0.2401  0.6758
  903MPD2    N113289   1.370   3.800  12.106  0.3409  0.4410 -0.0971
  903MPD2    H713290   1.457   3.842  12.135 -0.9548  3.0949 -0.1002
  904MPD2     C13291   0.878   3.184  13.922  0.1310  0.4191  0.1214
  904MPD2    C113292   0.881   3.095  14.026  0.5016 -0.1412  0.2317
  904MPD2    C213293   1.005   3.056  14.070  0.0120 -0.3340  0.7414
  904MPD2    C313294   1.125   3.108  14.029  0.1167  0.5831  0.3535
  904MPD2    C413295   1.115   3.212  13.938  0.8148  0.4412  0.1582
  904MPD2    C513296   0.991   3.237  13.875  0.4047 -0.6747 -0.3565
  904MPD2     H13297   1.004   2.975  14.143 -0.4273 -0.5580  0.4854
  904MPD2    H113298   1.211   3.252  13.909  1.1618  0.7922  1.8169
  904MPD2    H213299   0.784   3.220  13.881  0.3591  0.4765 -0.3519
  904MPD2    H313300   0.999   3.319  13.804  1.2273  1.3784  2.0948
  904MPD2     N13301   1.244   3.053  14.071  0.1445 -0.2134 -0.3350
  904MPD2    H513302   1.220   2.977  14.134  0.9061  0.0171  0.2298
  904MPD2    N113303   0.769   3.045  14.098  0.2144  0.1816  0.0053
  904MPD2    H713304   0.771   2.957  14.148 -1.1222  0.0049 -0.2620
  905MPD2     C13305   0.535   3.164  13.548  0.4932  0.2233  0.0034
  905MPD2    C113306   0.613   3.256  13.616 -0.5538  0.4915 -0.3314
  905MPD2    C213307   0.749   3.281  13.585 -0.2777 -0.3434  1.0032
  905MPD2    C313308   0.795   3.224  13.471 -0.5829 -0.7594 -0.2550
  905MPD2    C413309   0.713   3.148  13.389  0.1858 -0.6311  0.1699
  905MPD2    C513310   0.586   3.113  13.435  0.3257 -0.0006 -0.3129
  905MPD2     H13311   0.816   3.339  13.647  0.1650  0.6017 -0.3691
  905MPD2    H113312   0.747   3.116  13.291 -1.1402  0.5629 -0.6828
  905MPD2    H213313   0.428   3.154  13.565  0.8208 -0.8496  1.4713
  905MPD2    H313314   0.528   3.042  13.376  1.3734  0.1120 -1.4858
  905MPD2     N13315   0.926   3.238  13.423  0.0191  0.0110 -0.6946
  905MPD2    H513316   0.949   3.171  13.351  3.2956  0.4003 -0.0191
  905MPD2    N113317   0.557   3.310  13.735  0.0387 -0.1567 -0.2886
  905MPD2    H713318   0.459   3.286  13.751 -0.0666 -0.1613 -0.9397
  906MPD2     C13319   2.805   3.491  11.054  0.1642  0.3110 -0.2976
  906MPD2    C113320   2.800   3.391  10.953  0.2901  0.1076  0.4839
  906MPD2    C213321   2.787   3.260  10.984 -0.0698  0.3734  0.0208
  906MPD2    C313322   2.757   3.223  11.113 -0.1647 -0.6944  0.1239
  906MPD2    C413323   2.766   3.320  11.209  0.2185  0.3924 -0.0846
  906MPD2    C513324   2.782   3.450  11.180  0.7954  0.1055 -0.5745
  906MPD2     H13325   2.804   3.177  10.916  1.2894 -0.7195  1.6975
  906MPD2    H113326   2.742   3.293  11.312 -0.5957  2.8386  0.3562
  906MPD2    H213327   2.802   3.599  11.046 -0.2891  0.4436  1.6153
  906MPD2    H313328   2.782   3.520  11.264  0.3085 -0.8218  0.1971
  906MPD2     N13329   2.734   3.091  11.153  0.2366  0.0543  0.1657
  906MPD2    H513330   2.748   3.060  11.249 -0.6795  2.0985  0.9584
  906MPD2    N113331   2.805   3.421  10.819 -0.2364 -0.4240 -0.4613
  906MPD2    H713332   2.806   3.343  10.755 -0.3105 -1.2515  0.5363
  907MPD2     C13333   2.226   2.264  15.738 -0.0136 -0.0528  0.3166
  907MPD2    C113334   2.232   2.143  15.669 -0.0111  0.2177 -0.1078
  907MPD2    C213335   2.232   2.027  15.743 -0.5899  0.0081 -0.0804
  907MPD2    C313336   2.240   2.027  15.882  0.0538 -0.7180  0.3562
  907MPD2    C413337   2.247   2.144  15.946  0.1451  0.5290  0.1160
  907MPD2    C513338   2.237   2.260  15.874  0.4286 -0.6049  0.8929
  907MPD2     H13339   2.233   1.931  15.694  0.5966  1.3809 -2.7674
  907MPD2    H113340   2.263   2.160  16.052 -1.2525 -0.5906  0.4979
  907MPD2    H213341   2.207   2.362  15.696  2.2562  0.7729  1.2179
  907MPD2    H313342   2.242   2.355  15.925  1.8175  0.0694 -0.5055
  907MPD2     N13343   2.254   1.903  15.951  0.7384  0.1198 -0.1776
  907MPD2    H513344   2.296   1.830  15.895  2.7831  1.0590  0.1371
  907MPD2    N113345   2.209   2.132  15.530  0.7659 -0.4049 -0.1275
  907MPD2    H713346   2.215   2.035  15.498 -0.1015 -0.7210  0.6777
  908MPD2     C13347   4.055   2.334   9.792  0.3420 -0.7081 -0.1526
  908MPD2    C113348   3.984   2.370   9.904  0.3012  0.4405 -0.1132
  908MPD2    C213349   4.048   2.444  10.008  0.7375  0.3292  0.1686
  908MPD2    C313350   4.181   2.479   9.995  0.2755 -0.7385 -0.3546
  908MPD2    C413351   4.256   2.436   9.888 -0.4581 -0.1789 -0.6207
  908MPD2    C513352   4.189   2.361   9.788  0.5333  0.2838 -0.2396
  908MPD2     H13353   3.993   2.474  10.097 -3.5608  2.2162 -3.0863
  908MPD2    H113354   4.364   2.444   9.885 -0.6480  1.7337 -2.4876
  908MPD2    H213355   4.018   2.275   9.709  0.8914  0.2973 -1.1082
  908MPD2    H313356   4.244   2.335   9.699  1.5323 -1.6046  0.9451
  908MPD2     N13357   4.239   2.559  10.097 -0.1892 -0.3540  0.4126
  908MPD2    H513358   4.170   2.613  10.147  0.1077 -0.3006  0.7640
  908MPD2    N113359   3.849   2.337   9.905 -0.4265 -0.4777 -0.0931
  908MPD2    H713360   3.819   2.272   9.833 -3.6457 -0.8832  1.6100
  909MPD2     C13361   0.017   0.716  11.820 -0.4589  0.2752 -0.6121
  909MPD2    C113362   4.737   0.839  11.787  0.1415 -0.1252  0.2413
  909MPD2    C213363   4.678   0.934  11.869  0.0326  0.1491  0.1229
  909MPD2    C313364   4.624   0.894  11.992  0.1372  0.2693  0.2168
  909MPD2    C413365   4.636   0.756  12.032  0.2327 -0.1272  0.6158
  909MPD2    C513366   4.697   0.676  11.939 -0.1251  0.3044  0.5397
  909MPD2     H13367   4.657   1.035  11.836 -2.7824 -0.0822  1.2201
  909MPD2    H113368   4.611   0.713  12.128 -1.5324 -0.5282 -0.0194
  909MPD2    H213369   0.074   0.648  11.757  0.6100 -0.8947  1.5772
  909MPD2    H313370   4.720   0.574  11.967  2.1769  0.0677 -2.2229
  909MPD2     N13371   4.577   0.990  12.075  0.4340  0.4649  0.2977
  909MPD2    H513372   4.575   1.085  12.039  1.4897  0.9149  1.4346
  909MPD2    N113373   0.045   0.894  11.662 -0.1145  0.3166  0.2622
  909MPD2    H713374   0.028   0.993  11.644 -0.0581 -0.2714 -3.0470
  910MPD2     C13375   1.260   2.527  15.981  0.4612  0.2607 -0.9928
  910MPD2    C113376   1.373   2.513  15.896  0.1756 -0.4133 -0.5132
  910MPD2    C213377   1.373   2.585  15.777 -0.6715  0.2392 -0.1815
  910MPD2    C313378   1.272   2.676  15.751  1.1868 -0.1757 -0.8390
  910MPD2    C413379   1.165   2.692  15.836  0.0126 -0.5932  0.4365
  910MPD2    C513380   1.161   2.621  15.952  0.5518 -0.0084  0.6430
  910MPD2     H13381   1.461   2.573  15.715 -0.3498 -0.7516  0.4625
  910MPD2    H113382   1.090   2.767  15.812  1.0152  0.2984  0.0877
  910MPD2    H213383   1.252   2.471  16.073 -0.1513  1.2313 -0.4679
  910MPD2    H313384   1.078   2.636  16.020  1.2220 -2.0882  1.9534
  910MPD2     N13385   1.267   2.754  15.636 -0.0689  0.4879 -0.1597
  910MPD2    H513386   1.189   2.819  15.624 -0.6654  0.7262  4.6938
  910MPD2    N113387   1.491   2.447  15.926 -0.3109  0.5048  0.2967
  910MPD2    H713388   1.573   2.457  15.867 -1.1827 -4.9177 -1.8056
  911MPD2     C13389   3.902   2.912  15.997 -0.2752  0.0371  0.3997
  911MPD2    C113390   3.913   2.969  16.124 -0.8167  0.2507 -0.5702
  911MPD2    C213391   3.824   3.077  16.150 -0.0368  0.3094  0.3042
  911MPD2    C313392   3.725   3.107  16.058  0.1943  0.2919 -0.1810
  911MPD2    C413393   3.719   3.053  15.937 -0.0456 -0.4751 -0.0617
  911MPD2    C513394   3.806   2.949  15.909 -0.0392  0.4131 -0.9312
  911MPD2     H13395   3.833   3.120  16.249  1.0886  1.9443 -0.5106
  911MPD2    H113396   3.651   3.076  15.856  1.0728 -3.4233 -1.8452
  911MPD2    H213397   3.974   2.837  15.965 -2.6089 -1.0968 -2.2358
  911MPD2    H313398   3.783   2.898  15.817  0.5095  0.1424 -0.9161
  911MPD2     N13399   3.625   3.202  16.075  0.2339  0.0069 -0.0461
  911MPD2    H513400   3.545   3.202  16.012  1.3810 -1.0158 -1.5027
  911MPD2    N113401   4.024   2.924  16.196 -0.5107  0.5486 -0.0192
  911MPD2    H713402   4.084   2.852  16.157  1.0946  0.9845  1.6303
  912MPD2     C13403   3.398   3.226  15.597 -0.5393  0.4503  0.6576
  912MPD2    C113404   3.360   3.217  15.731 -0.1286 -0.3819 -0.6441
  912MPD2    C213405   3.373   3.097  15.795 -0.2724 -0.2862 -0.1950
  912MPD2    C313406   3.435   2.989  15.735  0.7178  0.0216  0.3607
  912MPD2    C413407   3.480   3.007  15.606 -0.1586  0.4576 -0.1724
  912MPD2    C513408   3.459   3.119  15.536 -0.1473 -0.7718  0.0940
  912MPD2     H13409   3.343   3.078  15.897  0.3394 -2.1233 -0.3591
  912MPD2    H113410   3.543   2.935  15.556 -1.4182 -0.0880 -0.9712
  912MPD2    H213411   3.395   3.318  15.539 -2.1834  0.2887  0.4981
  912MPD2    H313412   3.500   3.133  15.437 -2.0094 -0.8532 -0.6880
  912MPD2     N13413   3.444   2.866  15.801  0.1026  0.4028  0.1219
  912MPD2    H513414   3.416   2.863  15.899 -1.2625 -0.9992 -0.3131
  912MPD2    N113415   3.301   3.324  15.805 -0.3308 -0.1172 -0.5478
  912MPD2    H713416   3.284   3.412  15.758  1.1098  0.8680  0.7689
  913MPD2     C13417   4.258   3.662  10.662 -0.1958  0.1429 -0.6985
  913MPD2    C113418   4.288   3.799  10.684  0.1381 -0.4440  0.1012
  913MPD2    C213419   4.243   3.893  10.594  0.6231  0.3901 -0.4027
  913MPD2    C313420   4.158   3.857  10.488  0.2499 -0.1500 -0.3206
  913MPD2    C413421   4.109   3.731  10.489  0.0318  0.3240  0.1814
  913MPD2    C513422   4.167   3.631  10.564 -0.3868 -0.2917 -0.3106
  913MPD2     H13423   4.261   3.998  10.616 -0.1066  0.2079  1.0618
  913MPD2    H113424   4.032   3.702  10.418  1.6351 -0.5329 -1.2218
  913MPD2    H213425   4.308   3.586  10.720  0.5554 -0.7102 -2.4682
  913MPD2    H313426   4.138   3.528  10.545 -0.8599 -0.2297  0.0621
  913MPD2     N13427   4.091   3.957  10.410 -0.5377  0.1277 -0.1688
  913MPD2    H513428   4.004   3.933  10.363  1.2748 -1.4114 -2.7443
  913MPD2    N113429   4.357   3.822  10.803  0.6926 -0.3210 -0.1553
  913MPD2    H713430   4.391   3.740  10.853  1.2830  1.2000  1.9171
  914MPD2     C13431   1.815   4.421  12.311  0.0155 -0.9402  0.3166
  914MPD2    C113432   1.875   4.512  12.391 -0.1514  0.0294 -0.2005
  914MPD2    C213433   1.971   4.459  12.484 -0.4691 -0.1636  0.8098
  914MPD2    C313434   2.006   4.321  12.490 -0.5977  0.3875  0.0338
  914MPD2    C413435   1.943   4.236  12.402 -0.3964  0.3508  0.6007
  914MPD2    C513436   1.842   4.286  12.319 -0.1409  0.2552  0.0502
  914MPD2     H13437   2.023   4.525  12.553  2.2752  0.5372 -1.9228
  914MPD2    H113438   1.957   4.129  12.404 -0.0854  0.3792 -0.2965
  914MPD2    H213439   1.731   4.451  12.248  0.3290 -1.5091 -0.3774
  914MPD2    H313440   1.780   4.215  12.264  0.0647 -1.7424  2.3696
  914MPD2     N13441   2.100   4.286  12.591 -0.4164  0.3275  0.2461
  914MPD2    H513442   2.132   4.365  12.647 -1.1644  0.0471  1.0664
  914MPD2    N113443   1.835   4.650  12.373 -0.0568  0.8214  0.1458
  914MPD2    H713444   1.783   4.676  12.290 -3.3047  0.9772  2.1969
  915MPD2     C13445   0.462   4.572  15.239 -0.2590 -0.2453 -0.4653
  915MPD2    C113446   0.335   4.600  15.284  0.3128 -0.1387  0.4674
  915MPD2    C213447   0.322   4.663  15.404 -0.3139  0.3838  0.1521
  915MPD2    C313448   0.431   4.692  15.479  0.0348 -0.2570 -0.5992
  915MPD2    C413449   0.561   4.665  15.436 -0.3964 -0.2891  0.0598
  915MPD2    C513450   0.574   4.604  15.311 -0.2146  0.1921  0.5650
  915MPD2     H13451   0.221   4.689  15.431 -0.0604  1.4328  0.0954
  915MPD2    H113452   0.643   4.696  15.500 -0.0744  3.9841 -2.4261
  915MPD2    H213453   0.483   4.529  15.142 -0.2350  0.2616 -0.6895
  915MPD2    H313454   0.674   4.582  15.276 -0.1635  0.4290  0.5672
  915MPD2     N13455   0.412   0.014  15.604 -0.2960 -0.5036 -0.5590
  915MPD2    H513456   0.319   0.040  15.635 -0.7790 -2.3089 -0.4511
  915MPD2    N113457   0.218   4.569  15.202 -0.4576 -0.2435 -0.2691
  915MPD2    H713458   0.226   4.546  15.104  0.3068 -0.1912 -0.2190
  916MPD2     C13459   3.081   2.982  15.699 -0.4163  0.0679  0.3294
  916MPD2    C113460   3.080   2.883  15.796  0.0005 -0.6121 -0.0628
  916MPD2    C213461   3.062   2.747  15.761  1.0638 -0.4254 -0.2946
  916MPD2    C313462   3.049   2.710  15.627  0.3553  0.0380 -0.0168
  916MPD2    C413463   3.041   2.809  15.532  0.0387  0.1980  0.1437
  916MPD2    C513464   3.051   2.940  15.569 -0.5866 -0.3184  0.1474
  916MPD2     H13465   3.066   2.660  15.825  0.1050 -0.7810 -0.7160
  916MPD2    H113466   3.041   2.802  15.424 -1.2916  0.3692  0.1345
  916MPD2    H213467   3.113   3.083  15.721  1.7840 -0.6003  0.2802
  916MPD2    H313468   3.036   3.010  15.488 -2.7219 -1.9541 -0.8905
  916MPD2     N13469   3.059   2.576  15.592  0.1111  0.6139 -0.4829
  916MPD2    H513470   3.040   2.510  15.666 -0.8772  0.2073 -1.0974
  916MPD2    N113471   3.091   2.926  15.928 -0.9467 -0.1473  0.1793
  916MPD2    H713472   3.100   3.025  15.946 -0.6294  0.0339 -0.9398
  917MPD2     C13473   3.736   0.552  11.768 -0.3035 -0.3247 -0.5204
  917MPD2    C113474   3.636   0.624  11.831  0.1418 -0.0065 -0.2696
  917MPD2    C213475   3.628   0.761  11.811  0.1225 -0.4058  0.3383
  917MPD2    C313476   3.692   0.814  11.701 -0.4854  0.1692  0.7163
  917MPD2    C413477   3.787   0.738  11.631  0.4967 -0.2219  0.1182
  917MPD2    C513478   3.803   0.612  11.665 -0.3410 -0.4457 -0.0531
  917MPD2     H13479   3.555   0.819  11.867 -0.4209  0.3389 -1.1540
  917MPD2    H113480   3.845   0.781  11.550  0.1966 -0.7379 -0.3688
  917MPD2    H213481   3.753   0.445  11.767  1.0229 -0.1076 -1.1006
  917MPD2    H313482   3.885   0.561  11.615 -1.2766 -2.4992  0.5123
  917MPD2     N13483   3.667   0.949  11.662  0.0224 -0.0159  0.8526
  917MPD2    H513484   3.707   0.979  11.574 -0.5454  1.1611  0.9992
  917MPD2    N113485   3.554   0.570  11.930 -0.0178 -0.0131 -0.2066
  917MPD2    H713486   3.499   0.644  11.974 -2.4357 -1.8238 -0.1828
  918MPD2     C13487   3.285   0.957  12.618  0.4969 -0.1752  0.4286
  918MPD2    C113488   3.366   0.971  12.501  0.0059 -0.1924  0.0870
  918MPD2    C213489   3.352   0.874  12.409  0.6466 -0.2591  0.3055
  918MPD2    C313490   3.280   0.759  12.425  0.9447 -0.8015 -0.1412
  918MPD2    C413491   3.198   0.748  12.540 -0.4841 -0.4992  0.2591
  918MPD2    C513492   3.199   0.849  12.629  0.2116 -0.0289 -0.3113
  918MPD2     H13493   3.413   0.887  12.320  0.7776 -0.7498  0.3252
  918MPD2    H113494   3.134   0.663  12.561 -0.1005 -0.9644 -0.4555
  918MPD2    H213495   3.294   1.017  12.707 -1.2704  1.0123 -0.1780
  918MPD2    H313496   3.145   0.833  12.721 -1.9708 -0.2887 -1.6326
  918MPD2     N13497   3.287   0.658  12.330  0.3562 -0.3376  0.2399
  918MPD2    H513498   3.333   0.687  12.244  1.9390  0.2763  1.3044
  918MPD2    N113499   3.458   1.072  12.481  0.0771 -0.4732 -0.7164
  918MPD2    H713500   3.516   1.054  12.399  0.2280  0.6200 -0.8608
  919MPD2     C13501   4.091   4.062  11.998 -0.3024 -0.1246 -0.6903
  919MPD2    C113502   4.024   3.970  11.918 -0.4708  0.1607  0.1100
  919MPD2    C213503   4.026   3.993  11.779 -0.2848 -0.6995 -0.2315
  919MPD2    C313504   4.096   4.093  11.725 -0.5813 -0.1435  0.3059
  919MPD2    C413505   4.168   4.178  11.807 -0.7296 -0.2573  0.6149
  919MPD2    C513506   4.147   4.174  11.943 -0.7543  0.1470 -0.5541
  919MPD2     H13507   3.976   3.911  11.728 -2.2170  1.6029 -2.0315
  919MPD2    H113508   4.231   4.259  11.773  0.4506 -1.9537 -1.2404
  919MPD2    H213509   4.094   4.057  12.107  2.5077 -0.0150 -0.7783
  919MPD2    H313510   4.204   4.244  12.003  0.8943 -1.3855 -0.3268
  919MPD2     N13511   4.124   4.099  11.586  0.2264  0.3409 -0.0462
  919MPD2    H513512   4.205   4.146  11.548  1.5420 -0.0874  2.2515
  919MPD2    N113513   3.952   3.848  11.955 -0.6397 -0.4544 -0.0935
  919MPD2    H713514   3.880   3.821  11.889  0.2680  1.9540 -2.0932
  920MPD2     C13515   4.259   4.726  10.877  0.2285 -0.0950  0.1512
  920MPD2    C113516   4.138   4.671  10.850  0.2332  0.1021  0.5399
  920MPD2    C213517   4.112   4.549  10.899 -0.0907 -0.3835  0.6574
  920MPD2    C313518   4.215   4.479  10.972  0.7098 -0.4534 -0.4359
  920MPD2    C413519   4.333   4.542  11.001 -0.3444  0.5969  0.1358
  920MPD2    C513520   4.353   4.673  10.958  0.0541  0.2612 -0.1922
  920MPD2     H13521   4.023   4.491  10.877  0.5654 -1.0909 -0.1403
  920MPD2    H113522   4.411   4.505  11.066  0.8857  1.4129 -0.8833
  920MPD2    H213523   4.291   0.087  10.844 -2.7043  0.5654 -0.7130
  920MPD2    H313524   4.447   4.716  10.991 -0.3938  0.3235  1.0247
  920MPD2     N13525   4.175   4.351  11.026  0.3350  0.4353 -0.0806
  920MPD2    H513526   4.082   4.321  10.997 -0.3868  1.4043  1.1833
  920MPD2    N113527   4.027   0.010  10.793  0.6516 -0.7502 -0.0480
  920MPD2    H713528   3.933   4.709  10.799  0.6509 -0.6667  0.4694
  921MPD2     C13529   4.650   3.427  16.657 -0.5940 -0.3616 -0.1896
  921MPD2    C113530   4.705   3.301  16.649  0.1596 -0.2317  0.3242
  921MPD2    C213531   4.619   3.192  16.641 -0.0371 -0.3188 -0.0278
  921MPD2    C313532   4.475   3.208  16.637  0.6785 -0.1591  0.0249
  921MPD2    C413533   4.428   3.337  16.655 -0.2991 -0.2404  0.5339
  921MPD2    C513534   4.517   3.445  16.666 -0.1268  0.6058  0.2404
  921MPD2     H13535   4.662   3.101  16.600  0.3326 -0.5638  0.9108
  921MPD2    H113536   4.321   3.351  16.645  0.1649  1.4428 -1.8784
  921MPD2    H213537   4.711   3.516  16.646  0.6746 -1.2619 -0.4992
  921MPD2    H313538   4.473   3.545  16.663  0.3448  0.7854 -0.7602
  921MPD2     N13539   4.385   3.096  16.616 -0.1446  0.0021  0.4391
  921MPD2    H513540   4.286   3.115  16.620 -0.0537  0.7149 -0.6580
  921MPD2    N113541   0.102   3.304  16.627  0.4842  0.5725 -1.1019
  921MPD2    H713542   0.141   3.394  16.603 -2.2195  2.4785  1.7082
  922MPD2     C13543   0.758   1.185  17.076  0.5228  0.0321 -0.5167
  922MPD2    C113544   0.659   1.117  17.135 -0.7174 -0.2551  0.1303
  922MPD2    C213545   0.652   0.979  17.125 -0.1851  0.2895 -0.0095
  922MPD2    C313546   0.744   0.911  17.051  0.3188 -0.2450 -0.0039
  922MPD2    C413547   0.851   0.982  16.997 -0.1714  0.0763  0.4578
  922MPD2    C513548   0.863   1.114  17.020  0.1798  0.4600  0.1668
  922MPD2     H13549   0.575   0.922  17.176 -2.2636  1.3755 -1.9606
  922MPD2    H113550   0.937   0.940  16.948 -0.8142 -0.7789  0.0594
  922MPD2    H213551   0.770   1.293  17.080  2.1005 -0.2196  1.6268
  922MPD2    H313552   0.948   1.169  16.981  0.9312 -2.8086 -2.7577
  922MPD2     N13553   0.730   0.772  17.032  0.3440  0.6115 -0.1282
  922MPD2    H513554   0.647   0.732  17.075  0.0318  0.3646 -0.9587
  922MPD2    N113555   0.560   1.184  17.212 -0.0945 -0.1045 -0.5428
  922MPD2    H713556   0.495   1.123  17.263 -0.4467 -0.9144 -1.9637
  923MPD2     C13557   2.578   2.912   9.732  0.4595 -0.2825 -0.2200
  923MPD2    C113558   2.485   2.919   9.630 -0.5929  0.3137 -0.0050
  923MPD2    C213559   2.450   3.045   9.587 -0.4992 -0.3854  0.5621
  923MPD2    C313560   2.486   3.163   9.661  0.1676  0.1483  0.1674
  923MPD2    C413561   2.580   3.150   9.760  0.1456 -0.4046 -0.0787
  923MPD2    C513562   2.617   3.027   9.792  0.1067 -0.5235 -0.0241
  923MPD2     H13563   2.371   3.055   9.513 -0.1631 -1.5953  0.0288
  923MPD2    H113564   2.610   3.227   9.830  1.2552 -1.6241  0.7760
  923MPD2    H213565   2.610   2.815   9.767 -1.0437  0.1438  2.3728
  923MPD2    H313566   2.691   3.024   9.872 -1.5307 -0.2464  1.5108
  923MPD2     N13567   2.451   3.297   9.629  0.7940 -0.5934 -1.0045
  923MPD2    H513568   2.488   3.370   9.690 -0.0976  1.0408 -2.4297
  923MPD2    N113569   2.426   2.798   9.577 -0.0502  0.2861 -0.7584
  923MPD2    H713570   2.453   2.718   9.633 -0.1361 -0.9343 -2.4797
  924MPD2     C13571   2.413   0.937  16.165  0.1605 -0.2998  0.5780
  924MPD2    C113572   2.343   1.011  16.076 -0.1163  0.2835 -0.3301
  924MPD2    C213573   2.361   1.150  16.063 -0.3593  0.5057 -0.4952
  924MPD2    C313574   2.441   1.207  16.158 -0.7930  0.6629  0.1696
  924MPD2    C413575   2.504   1.134  16.260 -0.0036  0.9718  0.2098
  924MPD2    C513576   2.496   0.998  16.258  0.1189 -0.5228 -0.8688
  924MPD2     H13577   2.303   1.205  15.990 -0.6085 -0.9379 -1.3901
  924MPD2    H113578   2.567   1.189  16.329  1.2980 -2.5324  1.7736
  924MPD2    H213579   2.408   0.829  16.159  2.6365 -0.4382  0.8766
  924MPD2    H313580   2.546   0.940  16.335 -0.8423 -0.3479 -0.0994
  924MPD2     N13581   2.456   1.351  16.171  0.0958  0.1139  0.0253
  924MPD2    H513582   2.511   1.380  16.251  1.6328 -2.1977 -0.1714
  924MPD2    N113583   2.256   0.939  15.993  0.0987  0.3499  0.3440
  924MPD2    H713584   2.265   0.838  16.001 -5.2209 -0.1868 -0.8473
  925MPD2     C13585   1.100   4.070  14.988  0.2540  0.4766 -0.3392
  925MPD2    C113586   0.980   4.071  14.934 -0.0473  0.1431  0.0273
  925MPD2    C213587   0.870   4.113  15.021  0.2088 -0.1064  0.4154
  925MPD2    C313588   0.895   4.156  15.154  0.6916 -0.4938  0.2206
  925MPD2    C413589   1.026   4.157  15.192  0.9036  0.7170  0.6697
  925MPD2    C513590   1.130   4.113  15.115 -0.0663 -0.6696 -0.3827
  925MPD2     H13591   0.770   4.108  14.979  0.6504  0.7226 -0.7288
  925MPD2    H113592   1.045   4.188  15.295  2.9715  1.2719  0.1264
  925MPD2    H213593   1.183   4.023  14.936  0.5395 -0.5756  1.0548
  925MPD2    H313594   1.233   4.112  15.150 -0.1768  1.5937 -0.0075
  925MPD2     N13595   0.795   4.191  15.256 -0.0022 -0.6938 -0.4042
  925MPD2    H513596   0.828   4.228  15.345  0.8323 -0.0689 -0.9745
  925MPD2    N113597   0.961   4.040  14.795  0.6403 -0.5448 -0.8854
  925MPD2    H713598   0.867   4.020  14.763 -0.7032  1.2371  1.9139
  926MPD2     C13599   0.259   2.763  13.358 -0.0048  0.0702  0.1130
  926MPD2    C113600   0.150   2.763  13.266 -0.1229 -0.3525  0.0663
  926MPD2    C213601   0.173   2.794  13.131  0.8226 -0.4257 -0.7696
  926MPD2    C313602   0.304   2.810  13.083  0.1264 -0.0067  0.6583
  926MPD2    C413603   0.408   2.805  13.177 -0.3973  0.2238  0.0046
  926MPD2    C513604   0.388   2.783  13.308 -0.0471  0.0790 -0.9282
  926MPD2     H13605   0.094   2.793  13.057  0.5825  1.3988 -0.5376
  926MPD2    H113606   0.508   2.829  13.143 -0.2311 -1.0545 -0.4055
  926MPD2    H213607   0.252   2.752  13.465  0.2827 -0.7775  0.0444
  926MPD2    H313608   0.469   2.795  13.379  2.5896 -0.2865 -3.8776
  926MPD2     N13609   0.335   2.843  12.945 -0.3575 -0.1262  0.2936
  926MPD2    H513610   0.430   2.814  12.925  0.0860  1.4359  0.1614
  926MPD2    N113611   0.022   2.729  13.307  0.6877 -0.6563 -0.3313
  926MPD2    H713612   4.678   2.754  13.252  0.4595  1.0802  0.7809
  927MPD2     C13613   3.753   4.164  17.133 -0.8071  0.1934 -0.8435
  927MPD2    C113614   3.809   4.284  17.152  0.1772  0.2927  0.5939
  927MPD2    C213615   3.905   4.329  17.064 -0.9015  0.5623 -0.4913
  927MPD2    C313616   3.966   4.247  16.970 -0.4885 -0.0574 -0.5314
  927MPD2    C413617   3.920   4.121  16.966 -0.2603  0.0731 -0.2941
  927MPD2    C513618   3.810   4.084  17.040 -0.5038 -0.0296  0.8664
  927MPD2     H13619   3.938   4.433  17.066 -0.0689  0.3020 -0.8723
  927MPD2    H113620   3.962   4.054  16.892 -2.1154  1.5868 -2.7219
  927MPD2    H213621   3.677   4.118  17.196  0.5637 -0.7469  0.1142
  927MPD2    H313622   3.760   3.989  17.026  2.2441 -1.1815 -1.1394
  927MPD2     N13623   4.081   4.277  16.897 -0.3079  0.3971  0.4226
  927MPD2    H513624   4.133   4.200  16.855  1.6474  0.8632  1.9747
  927MPD2    N113625   3.769   4.358  17.271 -0.0457  0.5011  0.3394
  927MPD2    H713626   3.719   4.310  17.346 -0.3202 -1.7638 -1.2990
  928MPD2     C13627   2.493   2.627   1.145 -0.6614 -0.2123  0.4348
  928MPD2    C113628   2.420   2.747   1.165 -0.2101  0.5742  0.7452
  928MPD2    C213629   2.375   2.814   1.043 -0.3538  0.1761  0.4814
  928MPD2    C313630   2.373   2.747   0.916  0.2853  0.4491 -0.4379
  928MPD2    C413631   2.425   2.624   0.911 -0.4030 -0.4760 -0.0335
  928MPD2    C513632   2.491   2.569   1.019  0.0845 -0.5854  0.0978
  928MPD2     H13633   2.322   2.909   1.046 -0.5830  0.0596  0.1213
  928MPD2    H113634   2.427   2.581   0.811  4.1953 -3.0035  1.1467
  928MPD2    H213635   2.546   2.581   1.228  2.1699  0.1245 -1.2150
  928MPD2    H313636   2.541   2.474   1.005  0.8678 -0.2170  0.3462
  928MPD2     N13637   2.315   2.804   0.800  0.1858 -0.5986 -0.1103
  928MPD2    H513638   2.314   2.753   0.712 -3.7763 -0.9400  0.1466
  928MPD2    N113639   2.408   2.794   1.296  0.0739  0.3052  0.2673
  928MPD2    H713640   2.465   2.750   1.368 -1.9169 -1.0067  1.0450
  929MPD2     C13641   2.159   3.250  10.348  0.5393 -0.3491 -0.3441
  929MPD2    C113642   2.066   3.167  10.401  0.2357 -0.2375  0.1863
  929MPD2    C213643   1.942   3.149  10.338  0.2646  0.1279 -0.5438
  929MPD2    C313644   1.911   3.226  10.221 -1.2835  0.0845  0.2828
  929MPD2    C413645   2.006   3.313  10.166 -0.0120 -0.0055  0.0378
  929MPD2    C513646   2.122   3.326  10.237  0.3417 -0.1161  1.0741
  929MPD2     H13647   1.880   3.063  10.363  0.2490  0.0688 -0.7877
  929MPD2    H113648   1.989   3.365  10.072  1.4243  1.1493  0.4056
  929MPD2    H213649   2.255   3.262  10.396 -0.0190 -1.8633  1.1512
  929MPD2    H313650   2.199   3.389  10.193  0.2503 -0.7485  0.0097
  929MPD2     N13651   1.783   3.218  10.157 -0.4337  0.0733 -0.3477
  929MPD2    H513652   1.770   3.270  10.071 -0.4869  2.0842  0.8935
  929MPD2    N113653   2.102   3.115  10.526 -0.2371 -0.3070 -0.0585
  929MPD2    H713654   2.178   3.160  10.577 -0.1372 -0.7893  0.2194
  930MPD2     C13655   3.943   0.773  13.909  0.0544  0.4269 -0.4304
  930MPD2    C113656   4.075   0.725  13.897 -0.0146  0.0074  0.3979
  930MPD2    C213657   4.099   0.604  13.837 -0.0614  0.1190 -0.1984
  930MPD2    C313658   3.986   0.534  13.788  0.0560  0.1591  0.4920
  930MPD2    C413659   3.854   0.569  13.820  0.0513 -0.2090 -0.4186
  930MPD2    C513660   3.837   0.696  13.872 -0.2123 -0.1183  0.1367
  930MPD2     H13661   4.200   0.570  13.819 -0.3630  0.3412 -2.3870
  930MPD2    H113662   3.769   0.517  13.779  0.3097 -0.9926  0.0317
  930MPD2    H213663   3.926   0.875  13.940 -1.1482  0.2341 -0.4493
  930MPD2    H313664   3.737   0.733  13.894  0.0086  1.3228 -1.2719
  930MPD2     N13665   3.993   0.434  13.688  0.3669  0.4557  0.5095
  930MPD2    H513666   3.902   0.399  13.657  0.0022  1.0818  0.8671
  930MPD2    N113667   4.179   0.806  13.943 -0.7510  0.4365 -0.4544
  930MPD2    H713668   4.162   0.906  13.932 -1.5248  0.8383  4.4829
  931MPD2     C13669   4.087   4.660   0.224  0.7001  0.7730  0.2715
  931MPD2    C113670   4.008   4.554   0.185  1.0095  0.2899  0.1700
  931MPD2    C213671   4.011   4.436   0.255  0.7283 -0.5116  0.4256
  931MPD2    C313672   4.111   4.415   0.347 -0.5096  0.2132  1.0760
  931MPD2    C413673   4.203   4.520   0.373 -0.2435 -0.4390  0.2780
  931MPD2    C513674   4.192   4.642   0.310 -0.8632  0.3230 -0.2290
  931MPD2     H13675   3.953   4.349   0.226  1.7114 -0.7546 -0.8343
  931MPD2    H113676   4.289   4.500   0.437  0.4259  0.4203 -0.3538
  931MPD2    H213677   4.066   0.023   0.189  1.8074  1.1241  0.6146
  931MPD2    H313678   4.249   4.724   0.351 -1.5103  1.9824 -2.6178
  931MPD2     N13679   4.131   4.290   0.411 -0.8749  0.7405 -0.8517
  931MPD2    H513680   4.216   4.282   0.465 -1.3730 -0.6934 -0.2739
  931MPD2    N113681   3.921   4.568   0.076  0.0780  0.2736 -0.2196
  931MPD2    H713682   3.919   4.656   0.026  2.2742  0.7009  0.4771
  932MPD2     C13683   0.594   3.641  10.810  0.4357 -0.0102 -0.5854
  932MPD2    C113684   0.683   3.700  10.893  0.0273 -0.3006  0.0378
  932MPD2    C213685   0.807   3.653  10.915 -0.2837 -0.2514 -0.6880
  932MPD2    C313686   0.846   3.536  10.857  0.5429 -0.2091  0.3820
  932MPD2    C413687   0.770   3.478  10.761  0.2622 -0.4242 -0.4430
  932MPD2    C513688   0.643   3.533  10.736 -0.7205  0.3591  0.9308
  932MPD2     H13689   0.872   3.715  10.976 -1.1795  1.0443 -1.0601
  932MPD2    H113690   0.798   3.386  10.710  0.2881 -0.2811 -0.6822
  932MPD2    H213691   0.494   3.678  10.791  0.1901 -0.7544 -0.7032
  932MPD2    H313692   0.569   3.493  10.667  0.0885  0.5080 -0.0113
  932MPD2     N13693   0.960   3.468  10.896 -0.3402  0.1546 -0.3885
  932MPD2    H513694   0.989   3.386  10.844 -2.7293  0.1174 -1.6682
  932MPD2    N113695   0.648   3.821  10.961  0.8422 -0.0655 -0.0797
  932MPD2    H713696   0.723   3.868  11.010  0.1292 -0.1866  1.1432
  933MPD2     C13697   2.401   3.493   1.918  0.0428 -0.5301 -0.0397
  933MPD2    C113698   2.341   3.449   1.811 -0.6001 -0.6325 -0.1795
  933MPD2    C213699   2.247   3.533   1.760  0.3819 -0.2086 -0.0124
  933MPD2    C313700   2.211   3.655   1.821 -0.7548  0.8302 -0.2721
  933MPD2    C413701   2.281   3.694   1.933 -0.3444  0.1582  0.2646
  933MPD2    C513702   2.383   3.611   1.973 -0.5560  0.3246  0.5424
  933MPD2     H13703   2.189   3.497   1.676 -1.2349 -1.7961  1.7720
  933MPD2    H113704   2.249   3.777   1.995  1.5925  0.3296  1.0315
  933MPD2    H213705   2.472   3.429   1.970 -0.3019 -0.3401  0.6633
  933MPD2    H313706   2.438   3.643   2.061 -0.8140  1.2866  0.3517
  933MPD2     N13707   2.091   3.721   1.783 -0.1416 -0.4265 -0.9372
  933MPD2    H513708   2.036   3.675   1.712  1.8150 -1.3179 -1.8738
  933MPD2    N113709   2.375   3.327   1.749  0.2677  0.3620  0.7471
  933MPD2    H713710   2.452   3.277   1.791 -0.1912 -1.0254 -0.0931
  934MPD2     C13711   3.303   0.690   1.766 -0.0701  0.7349  0.3390
  934MPD2    C113712   3.358   0.576   1.695 -0.0069 -0.2453  0.1434
  934MPD2    C213713   3.280   0.497   1.611 -0.2876  0.1338  0.2712
  934MPD2    C313714   3.145   0.523   1.613  0.1813  0.2134 -0.0856
  934MPD2    C413715   3.089   0.623   1.682 -0.5408  0.5283  0.3238
  934MPD2    C513716   3.168   0.710   1.755 -0.2248  0.8122 -0.1447
  934MPD2     H13717   3.318   0.406   1.567  1.3259  0.6256  0.6350
  934MPD2    H113718   2.982   0.637   1.670 -0.6576 -0.8778 -0.1888
  934MPD2    H213719   3.347   0.752   1.844  1.9508 -0.3034  0.0452
  934MPD2    H313720   3.124   0.790   1.815 -2.6489 -1.2149  0.7981
  934MPD2     N13721   3.050   0.436   1.550  0.4602  0.2751  0.0200
  934MPD2    H513722   2.953   0.465   1.554 -0.0399 -1.4044  0.0177
  934MPD2    N113723   3.498   0.545   1.697 -0.4749 -0.0374  0.0245
  934MPD2    H713724   3.526   0.461   1.647  1.9099 -0.9673  2.9664
  935MPD2     C13725   3.205   4.236   1.257 -0.6132  0.1220 -0.8723
  935MPD2    C113726   3.170   4.323   1.150  0.1540  0.2763 -0.2443
  935MPD2    C213727   3.110   4.439   1.185  0.0026  0.0965 -0.1427
  935MPD2    C313728   3.084   4.477   1.316  0.0207 -0.3047 -0.0179
  935MPD2    C413729   3.126   4.396   1.418  0.3758 -0.2866 -0.1634
  935MPD2    C513730   3.192   4.275   1.388  0.8101 -0.0653  0.0154
  935MPD2     H13731   3.094   4.508   1.102 -1.3532 -0.5004 -0.3773
  935MPD2    H113732   3.109   4.429   1.520  0.4789 -0.8303  0.0313
  935MPD2    H213733   3.237   4.133   1.243  0.2092  0.3129 -0.3829
  935MPD2    H313734   3.219   4.207   1.468 -0.1171 -0.7345 -0.2443
  935MPD2     N13735   3.023   4.598   1.351  0.4311 -0.1266 -0.0733
  935MPD2    H513736   3.013   4.614   1.450 -2.0220 -0.7881 -0.2031
  935MPD2    N113737   3.187   4.285   1.018 -0.1209  0.3589  0.4497
  935MPD2    H713738   3.167   4.357   0.949 -1.4857 -1.2222 -0.8414
  936MPD2     C13739   1.739   2.400  13.068 -0.0889  0.0481 -0.0570
  936MPD2    C113740   1.614   2.462  13.055  0.5395 -0.4683  0.1873
  936MPD2    C213741   1.580   2.522  12.939 -0.8382 -0.0804 -0.2470
  936MPD2    C313742   1.663   2.521  12.824 -0.6142 -0.4207 -0.1037
  936MPD2    C413743   1.787   2.466  12.842 -0.3161 -0.1786  0.0181
  936MPD2    C513744   1.827   2.408  12.962 -0.0129  0.4555  0.5357
  936MPD2     H13745   1.479   2.561  12.931 -0.3248  1.3589  0.3225
  936MPD2    H113746   1.858   2.461  12.761  0.7688 -1.4715  1.0505
  936MPD2    H213747   1.776   2.360  13.162 -1.9076  0.8022  0.9675
  936MPD2    H313748   1.924   2.360  12.970  0.9298  2.4476  1.1305
  936MPD2     N13749   1.646   2.600  12.705 -0.1780 -0.0844 -0.9449
  936MPD2    H513750   1.721   2.596  12.637 -0.6428  0.9825 -1.5109
  936MPD2    N113751   1.526   2.472  13.168 -1.0427 -0.3664 -0.1851
  936MPD2    H713752   1.436   2.513  13.145 -1.9835 -1.8257  0.8829
  937MPD2     C13753   3.998   3.228  11.631  0.4439 -0.4807  0.0219
  937MPD2    C113754   4.088   3.308  11.697  0.1444  0.3364  0.0548
  937MPD2    C213755   4.204   3.354  11.634  0.1739  0.6443 -0.0600
  937MPD2    C313756   4.240   3.307  11.509 -0.3972  0.3184 -0.0167
  937MPD2    C413757   4.149   3.213  11.444 -0.2727 -0.3959  0.8402
  937MPD2    C513758   4.035   3.179  11.509  0.2021  0.7238 -0.3755
  937MPD2     H13759   4.271   3.423  11.684  0.1432 -0.4273  1.4615
  937MPD2    H113760   4.165   3.166  11.348 -1.5854  0.1172  0.3775
  937MPD2    H213761   3.907   3.191  11.678  2.5526 -1.1360  3.5705
  937MPD2    H313762   3.969   3.116  11.450  2.5450 -1.8238 -0.3015
  937MPD2     N13763   4.352   3.355  11.447  0.2687  0.8716 -0.6263
  937MPD2    H513764   4.410   3.421  11.499  0.9349  1.1500 -1.7111
  937MPD2    N113765   4.047   3.376  11.817  0.3472 -0.3397 -1.0842
  937MPD2    H713766   4.097   3.457  11.850  0.5506 -0.1271 -1.9133
  938MPD2     C13767   1.891   4.297   0.519  0.0465  0.2856 -0.4129
  938MPD2    C113768   1.918   4.392   0.613 -0.1721 -0.6901  0.3754
  938MPD2    C213769   1.898   4.379   0.749 -0.2433 -0.5645 -0.9874
  938MPD2    C313770   1.842   4.259   0.794 -0.3969 -0.4066  0.3183
  938MPD2    C413771   1.799   4.164   0.701  0.2245 -0.6621  0.4438
  938MPD2    C513772   1.832   4.178   0.571  1.0847 -0.1665  0.0693
  938MPD2     H13773   1.942   4.451   0.817  1.7270 -0.2084 -2.6608
  938MPD2    H113774   1.744   4.079   0.739 -0.6094  0.4593  1.7282
  938MPD2    H213775   1.909   4.309   0.413 -0.1816  0.9270 -0.3760
  938MPD2    H313776   1.815   4.105   0.493 -0.7164 -0.0128  0.3235
  938MPD2     N13777   1.813   4.230   0.933 -0.5421  0.0264  0.1930
  938MPD2    H513778   1.755   4.147   0.947 -0.9392  0.5216  1.4916
  938MPD2    N113779   1.986   4.506   0.565  0.0445 -0.3686  0.7577
  938MPD2    H713780   2.025   4.571   0.634 -0.8505 -1.4559  2.2975
  939MPD2     C13781   3.596   1.411   1.031  0.3786 -0.7253  0.3057
  939MPD2    C113782   3.524   1.328   0.946 -1.2838 -1.1242 -0.4800
  939MPD2    C213783   3.541   1.344   0.812 -0.1290 -0.3886  0.0544
  939MPD2    C313784   3.616   1.450   0.762 -0.0366  0.0871  0.7940
  939MPD2    C413785   3.684   1.535   0.850  0.0843 -0.0560 -0.7020
  939MPD2    C513786   3.676   1.509   0.984 -0.0116 -0.2575 -0.1860
  939MPD2     H13787   3.479   1.285   0.746  0.1750  1.4848 -1.8938
  939MPD2    H113788   3.739   1.625   0.823 -0.4441  0.5572  0.2529
  939MPD2    H213789   3.592   1.389   1.137 -0.4323  1.6246  0.7681
  939MPD2    H313790   3.733   1.565   1.057 -1.3029  1.9707 -0.8969
  939MPD2     N13791   3.617   1.476   0.624 -0.0051 -0.5028  0.0790
  939MPD2    H513792   3.560   1.418   0.563 -2.8055  0.7887  1.4677
  939MPD2    N113793   3.435   1.226   0.998  0.3937 -0.7481 -0.0696
  939MPD2    H713794   3.421   1.231   1.099  0.0068  0.1926 -0.1748
  940MPD2     C13795   2.276   1.894  12.445 -0.2486  0.1138 -0.1945
  940MPD2    C113796   2.195   1.840  12.545 -0.0897 -0.2817  0.0030
  940MPD2    C213797   2.114   1.730  12.521  0.2998 -1.0830 -0.3983
  940MPD2    C313798   2.112   1.666  12.399  0.3307 -0.3917 -0.2627
  940MPD2    C413799   2.177   1.731  12.297  0.5323  0.0627  0.2705
  940MPD2    C513800   2.259   1.837  12.321  0.4771 -0.3278 -0.3494
  940MPD2     H13801   2.061   1.699  12.611  0.7732 -1.0114 -0.0961
  940MPD2    H113802   2.170   1.714  12.190 -0.0770 -0.6882  0.4264
  940MPD2    H213803   2.336   1.984  12.452  1.8723 -1.2995 -0.0346
  940MPD2    H313804   2.325   1.874  12.243  1.2627 -2.0828 -0.5007
  940MPD2     N13805   2.045   1.546  12.373 -0.4443 -0.6851 -0.7339
  940MPD2    H513806   2.056   1.508  12.280 -0.7075 -0.9461 -0.6613
  940MPD2    N113807   2.197   1.893  12.678 -0.4500  0.4191 -0.2651
  940MPD2    H713808   2.136   1.843  12.741  0.6297  0.1872  0.6032
  941MPD2     C13809   0.859   1.474   9.754 -0.0831 -0.2524  0.0675
  941MPD2    C113810   0.940   1.434   9.855 -0.3208  0.4435 -0.0559
  941MPD2    C213811   0.917   1.310   9.912 -0.4140 -0.1882  0.1900
  941MPD2    C313812   0.824   1.226   9.856 -0.2852 -0.9440  0.0468
  941MPD2    C413813   0.751   1.262   9.739  0.0699 -0.7589  0.3088
  941MPD2    C513814   0.765   1.394   9.698  0.0727 -0.0506  0.7345
  941MPD2     H13815   0.992   1.290   9.987  0.6141  2.4114 -0.1522
  941MPD2    H113816   0.693   1.194   9.679  0.2943 -0.9466  0.3043
  941MPD2    H213817   0.886   1.566   9.704  0.0984  0.3792  1.3429
  941MPD2    H313818   0.719   1.414   9.602  0.2027 -1.0492  0.4584
  941MPD2     N13819   0.803   1.096   9.905  0.5606  0.2957  0.5658
  941MPD2    H513820   0.744   1.035   9.848  1.6921 -0.7760  0.5268
  941MPD2    N113821   1.056   1.508   9.902 -0.2936  0.3891  0.4197
  941MPD2    H713822   1.122   1.459   9.961  4.4400  2.4008 -3.2264
  942MPD2     C13823   1.413   0.954   9.555  0.7105  0.1913 -0.2640
  942MPD2    C113824   1.493   0.931   9.669  0.2265  0.4327 -0.4253
  942MPD2    C213825   1.593   1.022   9.704 -0.1158 -0.5057 -0.6687
  942MPD2    C313826   1.620   1.132   9.627  0.2353  0.0711  0.5493
  942MPD2    C413827   1.546   1.152   9.509 -0.2120  0.3584 -0.3140
  942MPD2    C513828   1.447   1.062   9.478 -0.2086 -0.0812 -0.1654
  942MPD2     H13829   1.646   1.006   9.797 -0.7482  3.7369  0.4436
  942MPD2    H113830   1.556   1.244   9.452 -0.6586  0.3414 -0.4223
  942MPD2    H213831   1.347   0.887   9.501  0.3081 -0.0638  0.5400
  942MPD2    H313832   1.386   1.088   9.392  0.4118 -2.5465 -1.3443
  942MPD2     N13833   1.713   1.235   9.657  0.2438 -0.2762  0.6276
  942MPD2    H513834   1.736   1.286   9.572  0.6762 -0.8206  0.4157
  942MPD2    N113835   1.457   0.821   9.749  0.1010  0.0986  0.2001
  942MPD2    H713836   1.387   0.755   9.716 -0.8660 -0.4935  3.4806
  943MPD2     C13837   4.238   0.825   9.730  0.5332  0.3873  0.2957
  943MPD2    C113838   4.353   0.744   9.723 -0.8493  0.1911  0.0369
  943MPD2    C213839   4.471   0.781   9.787  1.4895 -0.1464 -0.3630
  943MPD2    C313840   4.476   0.894   9.874 -0.8195 -0.2993 -0.2063
  943MPD2    C413841   4.361   0.970   9.881  0.0050 -0.1678 -0.2053
  943MPD2    C513842   4.249   0.937   9.810  0.2844 -0.0268 -0.3710
  943MPD2     H13843   4.550   0.707   9.797  1.2661 -0.1068  1.5703
  943MPD2    H113844   4.355   1.063   9.937  2.2293  0.7095 -1.4118
  943MPD2    H213845   4.147   0.819   9.672 -0.8978 -0.8309  2.6479
  943MPD2    H313846   4.170   1.012   9.815  0.3867  0.0392  0.3243
  943MPD2     N13847   4.581   0.923   9.959  0.1185 -0.3378  0.1920
  943MPD2    H513848   4.586   1.014  10.002 -1.5016 -0.1024 -0.1360
  943MPD2    N113849   4.349   0.620   9.651 -0.1911 -0.4696 -0.4415
  943MPD2    H713850   4.255   0.585   9.632 -0.1202  0.7801 -3.1098
  944MPD2     C13851   4.620   0.356  11.486  0.2615 -0.2147 -0.2993
  944MPD2    C113852   4.685   0.478  11.478 -0.0658 -0.1690 -0.7093
  944MPD2    C213853   4.611   0.590  11.486 -0.4226  0.3479 -0.6856
  944MPD2    C313854   4.477   0.592  11.511  0.0140  0.2874  0.3173
  944MPD2    C413855   4.414   0.465  11.520 -0.4164 -0.8334  1.1781
  944MPD2    C513856   4.489   0.351  11.512  0.2505  0.2732 -0.2741
  944MPD2     H13857   4.667   0.683  11.478 -1.2210  0.8658 -0.3255
  944MPD2    H113858   4.307   0.454  11.539 -0.6166  0.3292  0.7542
  944MPD2    H213859   4.672   0.260  11.478  2.1595  0.6790  1.4169
  944MPD2    H313860   4.433   0.262  11.536  0.4561  0.5197  1.1063
  944MPD2     N13861   4.427   0.722  11.546 -0.0190  0.0480 -0.3951
  944MPD2    H513862   4.485   0.805  11.544  0.9587 -0.5889  1.6729
  944MPD2    N113863   0.088   0.495  11.469 -0.6461 -0.2290 -0.4551
  944MPD2    H713864   0.132   0.587  11.468  0.5204 -0.7835 -0.5216
    1TMC1    C113865   3.604   1.169  14.361 -0.4784 -0.8395 -0.5170
    1TMC1    C213866   3.710   1.088  14.331  0.1941  0.0439 -0.6367
    1TMC1    C313867   3.686   0.965  14.267 -0.3534  0.7141  0.2489
    1TMC1    C413868   3.480   1.141  14.314 -0.7699 -0.5796 -0.3735
    1TMC1    C513869   3.460   1.027  14.237 -0.4324  0.0445  0.0887
    1TMC1    C613870   3.556   0.935  14.221  0.1295 -0.6488  0.6451
    1TMC1     C13871   3.630   1.281  14.450  0.1492 -0.5686 -0.2217
    1TMC1     O13872   3.739   1.278  14.507 -0.4467 -0.1690 -0.2099
    1TMC1     H13873   3.809   1.114  14.368 -0.3335  1.9998 -0.6194
    1TMC1    H113874   3.400   1.212  14.327  1.3418  1.2484  2.7564
    1TMC1    H213875   3.520   0.855  14.156  2.1534 -0.5646 -0.5665
    1TMC1    C713876   3.335   1.008  14.170 -0.8177 -0.9619 -0.0934
    1TMC1    C813877   3.804   0.895  14.238  0.0447 -0.8402  0.4830
    1TMC1    O113878   3.266   1.103  14.149 -0.3893 -0.0440  0.4477
    1TMC1    O213879   3.921   0.921  14.268  0.6800 -0.1563 -0.6366
    1TMC1    O313880   3.281   0.889  14.213  0.7276  0.1019 -0.6531
    1TMC1    H313881   3.344   0.837  14.267 -0.4644 -0.4402  0.2310
    1TMC1    O513882   3.773   0.797  14.157  0.1665 -0.1147 -0.0984
    1TMC1    H513883   3.853   0.743  14.146  0.0289 -0.4982  0.7578
    2MPD2     C13884   3.501   1.700  14.720  0.5692  0.3558 -0.2357
    2MPD2    C113885   3.432   1.699  14.601 -0.1743 -0.7090  0.9612
    2MPD2    C213886   3.447   1.592  14.510  0.4118 -0.6545 -0.4233
    2MPD2    C313887   3.538   1.487  14.538 -0.3489 -0.3257  0.3815
    2MPD2    C413888   3.621   1.497  14.653 -0.5342 -0.4613  0.4435
    2MPD2    C513889   3.593   1.598  14.745 -0.2688 -0.3955 -0.0060
    2MPD2     H13890   3.397   1.590  14.414 -0.3089 -1.7035 -0.0247
    2MPD2    H113891   3.694   1.423  14.684  0.3506  0.8812  1.5808
    2MPD2    H213892   3.496   1.780  14.793  1.6007  1.0850 -0.9621
    2MPD2    H313893   3.657   1.604  14.832 -1.8540  0.9869  1.0711
    2MPD2     N13894   3.546   1.381  14.442 -0.1204 -0.0107 -0.8236
    2MPD2    H513895   3.475   1.374  14.370 -1.1008 -1.3688  0.2710
    2MPD2    N113896   3.331   1.800  14.586 -0.3241  0.4485  0.2830
    2MPD2    H713897   3.330   1.869  14.661 -2.2213  0.5624  0.1650
    3TMC2    C113898   3.187   1.938  14.480 -1.0405  0.5345  0.1138
    3TMC2    C213899   3.237   2.050  14.545  0.7568  0.5782 -0.2219
    3TMC2    C313900   3.179   2.176  14.502  0.6437 -0.5931  0.4565
    3TMC2    C413901   3.102   1.964  14.372  0.3154 -0.1795 -0.2683
    3TMC2    C513902   3.043   2.086  14.348  0.1709 -0.5561 -1.0750
    3TMC2    C613903   3.078   2.194  14.414  0.1007 -0.5775 -0.5357
    3TMC2     C13904   3.244   1.812  14.487  0.4057 -0.5872 -0.5882
    3TMC2     O13905   3.208   1.731  14.396  0.2568  0.8168  0.7455
    3TMC2     H13906   3.318   2.059  14.617 -0.3370  1.3864  0.9072
    3TMC2    H113907   3.070   1.885  14.306 -3.5991  1.3268 -0.1718
    3TMC2    H213908   3.020   2.286  14.407 -1.1593 -1.2778  0.6634
    3TMC2    C713909   2.980   2.103  14.220 -0.1273 -0.3412  0.3113
    3TMC2    C813910   3.228   2.298  14.569  0.1593  0.0246  0.4534
    3TMC2    O113911   2.924   2.002  14.170  0.0421 -0.5478  0.0603
    3TMC2    O213912   3.342   2.324  14.608 -0.4238  0.0241 -0.1275
    3TMC2    O513913   3.126   2.331  14.648  0.0626  0.2904 -0.4426
    3TMC2    H513914   3.041   2.285  14.632  1.4477 -2.4509  0.0294
    4TMC2    C113915   2.918   3.010  13.776 -1.1403 -0.1133 -0.6031
    4TMC2    C213916   3.012   3.093  13.839  0.1532 -0.0323  0.4671
    4TMC2    C313917   3.092   3.040  13.931  0.8292 -0.3813 -0.3831
    4TMC2    C413918   2.922   2.874  13.797  0.1999 -0.7256 -0.7927
    4TMC2    C513919   3.013   2.821  13.889  0.0670  0.1337 -0.1668
    4TMC2    C613920   3.098   2.904  13.957 -0.5198  0.2642 -1.0228
    4TMC2     C13921   2.868   3.054  13.650  0.2293 -0.1966 -0.1757
    4TMC2     O13922   2.936   3.140  13.602 -1.2026 -0.0272 -0.1292
    4TMC2     H13923   3.016   3.199  13.816 -2.3202 -0.2647 -1.1334
    4TMC2    H113924   2.858   2.812  13.736  0.3605 -1.4454 -0.2256
    4TMC2    H213925   3.168   2.863  14.028 -0.0390  1.3507 -0.8672
    4TMC2    C713926   3.026   2.677  13.913  0.7033  0.3056  1.0132
    4TMC2    C813927   3.206   3.115  13.971  0.2360  0.0978  0.0656
    4TMC2    O113928   3.136   2.643  13.966  0.1585 -0.0123 -0.8835
    4TMC2    O213929   3.319   3.069  13.977  0.3971 -0.2244 -0.0929
    4TMC2    O513930   3.182   3.246  13.959 -0.2121  0.1137 -0.7988
    4TMC2    H513931   3.093   3.273  13.991  0.3796 -0.9608  1.8016
    5MPD2     C13932   2.647   2.915  13.202  0.2792  0.1818 -0.1649
    5MPD2    C113933   2.575   2.863  13.306  1.0105  0.0762 -0.4312
    5MPD2    C213934   2.612   2.898  13.435 -0.0019 -0.0715  0.2697
    5MPD2    C313935   2.723   2.971  13.465 -0.1130 -0.0913 -0.3421
    5MPD2    C413936   2.784   3.032  13.365 -0.5935  0.1317 -0.1704
    5MPD2    C513937   2.746   3.008  13.236  0.1336 -0.9477  0.6851
    5MPD2     H13938   2.575   2.839  13.519  1.7187 -0.6704  0.6232
    5MPD2    H113939   2.868   3.097  13.386 -1.1119  0.8710 -0.3623
    5MPD2    H213940   2.613   2.899  13.100 -0.3263  0.9453 -0.0888
    5MPD2    H313941   2.804   3.065  13.164  1.6928 -2.1093  1.0227
    5MPD2     N13942   2.767   2.970  13.601  0.1998 -0.1323 -0.1242
    5MPD2    H513943   2.710   2.921  13.669 -1.4576 -0.8861 -2.0554
    5MPD2    N113944   2.466   2.776  13.284 -0.0186  0.1074  0.5594
    5MPD2    H713945   2.456   2.750  13.187  0.5674  0.2178  0.4670
    6MPD1     C13946   1.140   3.867  12.899 -1.1161  0.1647 -0.2480
    6MPD1    C113947   1.242   3.886  12.992 -0.8516  0.2025  0.9591
    6MPD1    C213948   1.335   3.788  13.012  0.3826 -0.6226 -0.4653
    6MPD1    C313949   1.341   3.687  12.927  0.2315 -0.6786 -0.5783
    6MPD1    C413950   1.251   3.676  12.825  0.3448  0.2889  0.0820
    6MPD1    C513951   1.145   3.764  12.814  0.0045 -0.0341  0.9547
    6MPD1     H13952   1.405   3.796  13.094 -1.7493  1.1635  1.1882
    6MPD1    H113953   1.237   3.592  12.758 -2.4264  1.9577 -1.4540
    6MPD1    H213954   1.054   3.934  12.892  0.0469  1.7596  0.6633
    6MPD1    H313955   1.060   3.748  12.748 -0.7827 -0.7223  2.1452
    6MPD1     N13956   1.440   3.582  12.942 -0.5097 -0.6661  0.2931
    6MPD1    H513957   1.450   3.521  12.861 -2.4818 -0.8994  0.2289
    6MPD1    N113958   1.227   3.982  13.093 -0.2224  0.5375 -0.4571
    6MPD1    H613959   1.318   4.004  13.133 -0.0589  1.0446 -1.1133
    6MPD1    H713960   1.201   4.068  13.047  3.8445  1.9207 -0.2285
    7MPD2     C13961   1.587   2.908  13.472  0.6938  0.3599  0.1066
    7MPD2    C113962   1.654   2.914  13.354  1.3878 -0.3216  0.0425
    7MPD2    C213963   1.756   2.826  13.321 -0.0573 -1.2064 -0.2816
    7MPD2    C313964   1.795   2.724  13.401  0.3251  0.2363 -0.1258
    7MPD2    C413965   1.722   2.711  13.523  0.3102  0.4336  0.1221
    7MPD2    C513966   1.628   2.808  13.558 -0.2026  0.3193  0.8841
    7MPD2     H13967   1.815   2.834  13.231 -2.1997  0.1243 -1.5573
    7MPD2    H113968   1.741   2.645  13.606  0.3356  1.6426  1.0753
    7MPD2    H213969   1.507   2.976  13.497  0.4044  0.3272 -0.7241
    7MPD2    H313970   1.581   2.812  13.656  1.5192  2.7609  1.6020
    7MPD2     N13971   1.904   2.645  13.353  0.0157  0.4685  0.1106
    7MPD2    H513972   1.926   2.656  13.255  0.3951  0.0865  0.1501
    7MPD2    N113973   1.637   3.017  13.259 -0.6255 -0.0451 -0.1278
    7MPD2    H713974   1.689   3.010  13.172  0.2560 -0.5070  0.4304
    8TMC3    C113975   2.088   2.500  13.351 -0.1189 -0.2499 -0.7326
    8TMC3    C213976   2.208   2.553  13.398 -0.0580  0.3807 -0.5454
    8TMC3    C313977   2.276   2.635  13.320  0.4869 -0.5116 -0.1032
    8TMC3    C413978   2.065   2.517  13.217 -0.0066  0.3325 -0.3480
    8TMC3    C513979   2.135   2.602  13.139 -0.5739  0.5202 -0.1715
    8TMC3    C613980   2.240   2.666  13.191 -0.1715  0.5997  0.0074
    8TMC3     C13981   1.973   2.551  13.426  0.2981  0.6625 -1.1773
    8TMC3     O13982   1.958   2.537  13.545  0.4494  0.8877 -0.1107
    8TMC3     H13983   2.233   2.539  13.502  0.0867  0.4036 -0.5779
    8TMC3    H113984   1.997   2.453  13.162 -1.0026  0.3740  0.8486
    8TMC3    H213985   2.271   2.759  13.146 -1.3616  0.8412 -0.2912
    8TMC3    C713986   2.052   2.687  13.054  0.7866  0.1534 -0.1209
    8TMC3    C813987   2.387   2.703  13.372  0.2030 -0.4567 -0.2493
    8TMC3    O113988   1.933   2.695  13.081  0.3040 -0.0222 -0.3678
    8TMC3    O213989   2.397   2.686  13.491 -0.4146 -0.9063  0.7051
    9TMC3    C113990   1.555   3.420  13.053 -0.6466 -0.2848  0.0812
    9TMC3    C213991   1.603   3.371  12.933 -0.3745  1.4783  0.6930
    9TMC3    C313992   1.622   3.239  12.924 -0.2281  0.0056 -0.1133
    9TMC3    C413993   1.539   3.347  13.175 -0.4170 -0.0892  0.1216
    9TMC3    C513994   1.559   3.213  13.159  0.0583 -0.6376 -0.2711
    9TMC3    C613995   1.601   3.160  13.037 -0.4005 -0.0430  0.6074
    9TMC3     C13996   1.498   3.553  13.060  0.3543 -0.2599  1.1004
    9TMC3     O13997   1.480   3.599  13.171  0.5415  0.0015  0.1113
    9TMC3     H13998   1.623   3.439  12.851 -1.4562  1.7441  0.6419
    9TMC3    H113999   1.498   3.397  13.262  0.3880  0.2942  0.2795
    9TMC3    H214000   1.598   3.054  13.014 -0.6161  0.4565 -1.6248
    9TMC3    C714001   1.565   3.134  13.276 -0.2718  0.4112 -0.3314
    9TMC3    C814002   1.724   3.196  12.823  0.3652  0.3407 -0.5477
    9TMC3    O114003   1.515   3.180  13.377 -0.2580  0.4810 -0.2156
    9TMC3    O214004   1.735   3.261  12.723 -0.2792  0.1956  0.2494
   10MPD2     C14005   2.118   2.873  12.738 -0.0947 -0.1194  0.6129
   10MPD2    C114006   2.059   2.843  12.855  0.0769 -0.4074 -0.7739
   10MPD2    C214007   1.954   2.916  12.896  0.9265  0.1759  0.8846
   10MPD2    C314008   1.907   3.026  12.825  1.1254  0.2570  0.3224
   10MPD2    C414009   1.968   3.062  12.714 -0.5526 -0.7619 -0.6813
   10MPD2    C514010   2.075   2.982  12.668  0.4929 -0.9768  0.1280
   10MPD2     H14011   1.910   2.893  12.992  1.3568 -0.7329  0.8628
   10MPD2    H114012   1.935   3.150  12.659 -0.0207  1.8303  3.2039
   10MPD2    H214013   2.208   2.823  12.704 -0.9998 -1.6800  0.5140
   10MPD2    H314014   2.131   3.012  12.580  2.9336 -0.3685  1.8876
   10MPD2     N14015   1.792   3.090  12.876 -0.4870  0.0743  0.0393
   10MPD2    H514016   1.755   3.054  12.963 -3.7651 -1.0946 -1.8150
   10MPD2    N114017   2.113   2.745  12.939  0.1810  0.0068 -0.5197
   10MPD2    H714018   2.209   2.718  12.917  0.3552  0.0272  0.1913
   11MPD2     C14019   2.828   2.209  13.995  0.5720  0.0646 -0.3709
   11MPD2    C114020   2.931   2.278  14.056 -0.1927 -0.4231  0.1438
   11MPD2    C214021   2.970   2.410  14.022 -0.4886  0.0100 -0.4579
   11MPD2    C314022   2.891   2.469  13.917 -0.2937  0.4112  0.0496
   11MPD2    C414023   2.779   2.409  13.869 -0.1353 -0.8112 -0.1191
   11MPD2    C514024   2.750   2.283  13.902  0.3421  0.0356  0.1430
   11MPD2     H14025   3.044   2.462  14.082 -1.4424  0.4688  0.3264
   11MPD2    H114026   2.701   2.448  13.805  0.3112 -0.6398 -0.5518
   11MPD2    H214027   2.798   2.108  14.021  0.5399  0.0871 -0.3207
   11MPD2    H314028   2.660   2.238  13.862  1.9207 -1.1704 -2.0301
   11MPD2     N14029   2.915   2.600  13.882  0.4124 -0.3075 -0.4653
   11MPD2    H514030   2.847   2.649  13.825  0.7803  0.5160 -0.1960
   11MPD2    N114031   2.999   2.227  14.171 -0.4613  0.3876  0.6236
   11MPD2    H714032   3.061   2.294  14.216 -1.1645  0.5140  1.3867
    1MPD1     C14033   0.778   3.487  17.694  0.9496  0.5931  0.2525
    1MPD1    C114034   0.677   3.455  17.604  0.1991 -0.4347  0.1885
    1MPD1    C214035   0.699   3.467  17.468 -0.2943 -0.0063 -0.2855
    1MPD1    C314036   0.818   3.504  17.416  0.3459 -0.2397  0.1837
    1MPD1    C414037   0.913   3.561  17.505 -0.1845 -0.4868 -0.4251
    1MPD1    C514038   0.895   3.537  17.638  0.0800 -0.0894  0.4369
    1MPD1     H14039   0.612   3.440  17.409  0.0201 -1.2948 -0.1628
    1MPD1    H114040   1.006   3.602  17.467 -0.5277  1.0013  0.3450
    1MPD1    H214041   0.778   3.473   0.052 -0.0465 -1.0520  0.0435
    1MPD1    H314042   0.978   3.562  17.702  1.4018 -0.7157 -1.0221
    1MPD1     N14043   0.850   3.499  17.279  0.1809  0.3617  0.7142
    1MPD1    H514044   0.945   3.531  17.261 -0.2831  0.7584 -0.9338
    1MPD1    N114045   0.556   3.409  17.648  0.6459 -0.5926 -0.0834
    1MPD1    H614046   0.572   3.369  17.740 -3.2672 -0.5917  0.5850
    1MPD1    H714047   0.513   3.347  17.581 -0.3343  3.2389 -2.9871
    2MPD1     C14048   1.691   3.374  17.096  0.0416 -0.3327  0.3062
    2MPD1    C114049   1.609   3.433  17.188  0.1831  0.0535  0.2209
    2MPD1    C214050   1.474   3.450  17.162 -0.1358 -0.0244 -0.1249
    2MPD1    C314051   1.415   3.399  17.045  0.1277 -0.1991  0.6692
    2MPD1    C414052   1.503   3.331  16.959 -0.0469 -0.0763 -0.5296
    2MPD1    C514053   1.636   3.321  16.985 -0.8695 -0.0237 -0.0897
    2MPD1     H14054   1.413   3.507  17.231  0.5319  0.9377 -0.3296
    2MPD1    H114055   1.475   3.287  16.864  0.2340  3.3218 -2.1726
    2MPD1    H214056   1.797   3.354  17.103  0.0088  0.0801  1.8085
    2MPD1    H314057   1.696   3.260  16.919  0.0469  1.0184 -0.2032
    2MPD1     N14058   1.283   3.435  17.020 -0.6048 -0.5772  0.0940
    2MPD1    H514059   1.239   3.489  17.094 -0.5028 -0.4771  0.0802
    2MPD1    N114060   1.668   3.504  17.291 -0.1398 -0.2521 -0.0028
    2MPD1    H614061   1.603   3.532  17.364  0.2950  0.2901  0.1831
    2MPD1    H714062   1.755   3.468  17.330 -1.5065 -1.8904  1.5132
    3TMC3    C114063   1.067   3.414  16.933 -0.1447 -0.4289 -0.0624
    3TMC3    C214064   0.996   3.395  16.816 -0.3501 -0.0644  0.5321
    3TMC3    C314065   0.858   3.392  16.820 -0.4526 -0.7830 -0.2673
    3TMC3    C414066   1.006   3.418  17.058  0.4556 -0.2204  0.1660
    3TMC3    C514067   0.869   3.405  17.056  0.3539  0.6205 -0.0720
    3TMC3    C614068   0.798   3.394  16.942  0.0036 -0.2985 -0.3212
    3TMC3     C14069   1.211   3.387  16.909 -0.3595 -0.2670 -0.1168
    3TMC3     O14070   1.253   3.326  16.808  0.0074  0.5503  0.4483
    3TMC3     H14071   1.048   3.424  16.725 -1.3987  0.1161 -0.0086
    3TMC3    H114072   1.064   3.421  17.150 -0.4493  3.3160  0.6381
    3TMC3    H214073   0.690   3.388  16.949 -0.0084 -2.7248 -2.6784
    3TMC3    C714074   0.786   3.437  17.174  0.5007 -0.3039 -0.1205
    3TMC3    C814075   0.795   3.433  16.696  0.2590 -0.3739  0.4702
    3TMC3    O114076   0.678   3.386  17.181  0.3419  0.4084  0.3122
    3TMC3    O214077   0.858   3.481  16.604 -0.3666  0.5944  0.7914
    4MPD1     C14078   0.372   3.621  16.476 -0.6220 -0.0879 -0.3835
    4MPD1    C114079   0.342   3.583  16.602  0.4194  0.3414  0.3831
    4MPD1    C214080   0.439   3.517  16.675 -0.0682 -1.0283 -0.5160
    4MPD1    C314081   0.568   3.505  16.631  0.3280  0.7267  0.2808
    4MPD1    C414082   0.598   3.550  16.503  0.6242 -0.1025 -0.2492
    4MPD1    C514083   0.496   3.604  16.427 -0.1563  0.2346 -0.1298
    4MPD1     H14084   0.423   3.495  16.780  0.9466 -0.1819 -0.1848
    4MPD1    H114085   0.699   3.556  16.465  1.1586  0.0239  1.2082
    4MPD1    H214086   0.300   3.659  16.404  1.8292  3.2401 -1.0657
    4MPD1    H314087   0.526   3.642  16.330  2.2662  0.9212  0.8988
    4MPD1     N14088   0.658   3.432  16.713  0.3863  0.5287  0.4286
    4MPD1    H514089   0.620   3.386  16.795  1.1817  0.1952  0.6215
    4MPD1    N114090   0.209   3.586  16.647 -0.4096  0.2081  0.1304
    4MPD1    H614091   0.154   3.665  16.613  1.5265  1.4811 -0.0498
    4MPD1    H714092   0.196   3.566  16.746 -2.3707  0.6145 -0.0404
    1TCq1    O114093   2.168   3.554  10.940 -0.3001  0.3668 -0.2620
    1TCq1    C114094   2.159   3.509  11.066 -0.0008  0.5654 -0.2532
    1TCq1    O214095   2.232   3.531  11.166 -0.1004 -0.3757 -0.0942
    1TCq1    C214096   2.022   3.503  11.077 -0.1979 -0.1819  0.0518
    1TCq1    C314097   1.950   3.442  10.984 -0.1560 -0.0589 -0.2095
    1TCq1    C414098   1.812   3.424  11.022 -0.1538  0.4673 -0.3008
    1TCq1    C514099   1.758   3.486  11.135 -0.4054 -0.0248  0.0952
    1TCq1    C614100   1.846   3.557  11.215  0.4200  0.3732  0.3264
    1TCq1    C714101   1.980   3.555  11.188  0.3867 -0.8407  0.3125
    1TCq1    C814102   1.795   3.633  11.329 -0.1671  0.2924  0.1827
    1TCq1    O414103   1.874   3.685  11.410  0.4531  0.1637  0.0640
    1TCq1    C914104   1.741   3.311  10.969 -1.1184 -0.3151 -1.0966
    1TCq1    O514105   1.629   3.281  11.021  0.2399  0.5464  0.6643
    1TCq1    O614106   1.812   3.233  10.905  0.3261 -0.1889 -0.2912
    1TCq1    H114107   2.082   3.538  10.895  0.2031 -0.2891 -0.9906
    1TCq1    H214108   2.002   3.378  10.914  0.9375  0.6916 -0.0893
    1TCq1    H314109   1.655   3.467  11.163 -0.6064  2.2825  0.9428
    1TCq1    H414110   2.036   3.600  11.269 -0.8648  2.1680 -0.4711
    2MPD1     C14111   1.408   3.792  11.633  0.4859  0.0011  0.3097
    2MPD1    C114112   1.358   3.762  11.508  0.4070 -0.4602 -0.1123
    2MPD1    C214113   1.440   3.708  11.410 -0.3347  0.5739  0.5385
    2MPD1    C314114   1.576   3.695  11.432  0.5081  0.7132 -0.5557
    2MPD1    C414115   1.624   3.731  11.559  0.2279  0.0928  0.2158
    2MPD1    C514116   1.541   3.775  11.662 -0.6468  0.1131  0.6809
    2MPD1     H14117   1.405   3.684  11.310  1.3973  0.5109 -0.0526
    2MPD1    H114118   1.730   3.717  11.575  0.4615 -1.1507 -2.3996
    2MPD1    H214119   1.347   3.817  11.718 -0.8031  0.6255 -0.8098
    2MPD1    H314120   1.579   3.788  11.762  2.2090 -1.4691 -0.2101
    2MPD1     N14121   1.658   3.648  11.327 -0.0320 -0.6930 -0.4345
    2MPD1    H514122   1.610   3.622  11.241 -0.2359  2.4443 -1.2485
    2MPD1    N114123   1.215   3.757  11.498 -0.6717  0.1841  0.6176
    2MPD1    H614124   1.180   3.766  11.403  2.3952 -0.0239 -0.5364
    2MPD1    H714125   1.175   3.837  11.546 -3.5641 -0.9189  0.0421
    1TMC1    C114126   4.016   4.065  17.666 -0.3401  0.4763 -0.2137
    1TMC1    C214127   4.132   4.010  17.726  0.0629 -0.6322  0.3753
    1TMC1    C314128   4.117   3.945   0.102  0.2110  0.2353  0.2560
    1TMC1    C414129   3.894   4.044  17.723  0.2537  0.2971 -0.0813
    1TMC1    C514130   3.894   3.988   0.103 -0.1004 -0.5420 -0.4486
    1TMC1    C614131   4.003   3.943   0.170  0.1086  0.2116 -0.3244
    1TMC1     C14132   4.037   4.146  17.550 -0.7260 -0.2661 -0.3384
    1TMC1     O14133   3.939   4.155  17.473 -0.1685 -0.3367  0.4234
    1TMC1     H14134   4.225   4.001  17.672 -1.4723 -2.0114 -2.0599
    1TMC1    H114135   3.797   4.079  17.691 -0.9954 -3.0744  0.0490
    1TMC1    H214136   3.998   3.926   0.277 -0.5831 -0.7318 -0.5108
    1TMC1    C714137   3.780   4.021   0.180  0.4602  0.0430  0.6650
    1TMC1    C814138   4.247   3.902   0.159 -0.4355 -0.0261 -0.2166
    1TMC1    O114139   3.753   3.952   0.276  0.3403  0.8410 -0.5189
    1TMC1    O214140   4.360   3.925   0.110 -0.3198  0.1738  0.6424
    1TMC1    O314141   3.741   4.149   0.153 -0.1909 -0.4570  0.5266
    1TMC1    H314142   3.797   4.191   0.085  0.2605 -1.0761  0.5185
    1TMC1    O514143   4.223   3.810   0.254 -0.0664 -0.3327  0.1513
    1TMC1    H514144   4.131   3.787   0.278  0.4822 -0.8461  1.7267
    2MPD1     C14145   4.272   4.530  17.295 -0.0345  0.0125 -0.3181
    2MPD1    C114146   4.354   4.499  17.403 -0.4439  1.1398  0.3401
    2MPD1    C214147   4.303   4.398  17.485  0.0985  0.0745  0.4354
    2MPD1    C314148   4.186   4.323  17.462  0.5059 -0.7924  0.1755
    2MPD1    C414149   4.118   4.357  17.349 -0.5797  0.1788 -0.2755
    2MPD1    C514150   4.159   4.460  17.271 -0.2381  0.1822  0.3848
    2MPD1     H14151   4.359   4.387  17.577  0.5206  0.6946  0.2528
    2MPD1    H114152   4.029   4.307  17.313 -0.2352 -0.1566 -0.6482
    2MPD1    H214153   4.299   4.602  17.219  0.2279  0.9991  0.6900
    2MPD1    H314154   4.108   4.486  17.180  0.1462 -0.5707 -0.0433
    2MPD1     N14155   4.155   4.221  17.554 -0.5181 -0.0740  0.0489
    2MPD1    H514156   4.217   4.213  17.634  0.7098 -0.8990 -0.9991
    2MPD1    N114157   4.466   4.580  17.435 -0.1029 -0.3753  0.1663
    2MPD1    H614158   4.537   4.532  17.491 -0.3670  0.1940  0.9806
    2MPD1    H714159   4.498   4.630  17.352  0.6634 -0.3655  0.4619
    1MPD1     C14160   2.533   3.364  11.784 -0.2066 -0.8769 -0.1787
    1MPD1    C114161   2.609   3.305  11.876 -0.6746  0.1726  0.4190
    1MPD1    C214162   2.719   3.227  11.839  0.5545  0.1654 -0.9636
    1MPD1    C314163   2.722   3.177  11.706  0.6831 -0.2395 -0.3195
    1MPD1    C414164   2.628   3.225  11.613  0.5754 -0.1102  0.1039
    1MPD1    C514165   2.540   3.324  11.658 -0.2055  0.4446  0.0314
    1MPD1     H14166   2.791   3.204  11.917  1.0549  1.4361 -1.0611
    1MPD1    H114167   2.646   3.220  11.507  1.9394  1.1744  0.2689
    1MPD1    H214168   2.460   3.439  11.809  0.2806 -0.4552 -0.0192
    1MPD1    H314169   2.481   3.380  11.586 -1.6453 -0.6312  0.3773
    1MPD1     N14170   2.842   3.113  11.671  0.1985 -0.0533 -0.5008
    1MPD1    H514171   2.913   3.089  11.739 -0.1855 -0.4461 -0.2430
    1MPD1    N114172   2.616   3.351  12.012 -0.5443 -0.1084  0.3092
    1MPD1    H614173   2.646   3.282  12.081 -0.2965 -0.4660 -0.1476
    1MPD1    H714174   2.528   3.389  12.045 -0.8845 -0.5643 -0.0792
    2MPD1     C14175   2.711   4.616  10.932 -0.1327  0.1336  0.4817
    2MPD1    C114176   2.711   4.512  10.837  0.0218  0.5234 -0.6469
    2MPD1    C214177   2.829   4.481  10.767 -0.6640 -0.6683  0.3622
    2MPD1    C314178   2.952   4.529  10.818 -0.1207 -0.3306 -0.6871
    2MPD1    C414179   2.950   4.614  10.921  0.0056 -0.1838  0.7484
    2MPD1    C514180   2.834   4.662  10.977  0.9642 -0.5184  0.7580
    2MPD1     H14181   2.830   4.408  10.688 -0.1294  0.4179 -0.6354
    2MPD1    H114182   3.046   4.662  10.940  0.7398 -1.2906 -0.1716
    2MPD1    H214183   2.626   4.641  10.994  1.3620  1.5114  2.0046
    2MPD1    H314184   2.828   4.736  11.056 -1.3580  0.3992 -0.2967
    2MPD1     N14185   3.077   4.491  10.765 -0.0682  0.2986  0.3097
    2MPD1    H514186   3.163   4.521  10.810  0.9652  1.2057 -2.2547
    2MPD1    N114187   2.583   4.467  10.793 -0.2410 -0.2079 -0.1404
    2MPD1    H614188   2.529   4.436  10.874  2.1645 -3.5718  0.1423
    2MPD1    H714189   2.595   4.378  10.746 -1.5202  0.5237 -1.8564
    3MPD1     C14190   3.396   3.958   9.960  0.1102  0.1936 -0.1617
    3MPD1    C114191   3.264   3.992  10.000 -0.2711  0.5205  0.4490
    3MPD1    C214192   3.255   4.064  10.117  0.1433 -0.7059 -0.4537
    3MPD1    C314193   3.362   4.075  10.203 -0.6788 -0.0709  1.1187
    3MPD1    C414194   3.486   4.055  10.153  0.9408  0.3764 -0.1257
    3MPD1    C514195   3.501   3.993  10.031 -0.1861 -0.2435 -0.0632
    3MPD1     H14196   3.156   4.099  10.145  0.2852 -1.5241  1.0154
    3MPD1    H114197   3.577   4.078  10.208 -0.8227 -2.3728  3.9825
    3MPD1    H214198   3.418   3.910   9.866 -3.6440  1.8593 -1.8565
    3MPD1    H314199   3.597   3.957   9.995 -0.1119 -0.1479  0.0390
    3MPD1     N14200   3.334   4.123  10.336  0.5130  0.5427 -0.3157
    3MPD1    H514201   3.235   4.137  10.355  0.2682 -2.7519  0.9111
    3MPD1    N114202   3.157   3.978   9.908  0.5482 -0.4048 -0.2428
    3MPD1    H614203   3.171   3.899   9.845 -0.4547 -0.5519 -0.2794
    3MPD1    H714204   3.067   3.977   9.955  0.7385 -1.2272  0.1094
    4MPD2     C14205   3.436   3.296  11.884  0.6222 -0.3398 -0.4894
    4MPD2    C114206   3.478   3.241  11.764  0.4138 -0.7256 -0.1794
    4MPD2    C214207   3.576   3.303  11.688  0.4507  0.8544  0.0214
    4MPD2    C314208   3.640   3.413  11.734  0.1268 -0.7592  0.2373
    4MPD2    C414209   3.600   3.469  11.855 -0.4539  0.2520 -0.3334
    4MPD2    C514210   3.499   3.409  11.923  0.1393 -0.0104  0.1571
    4MPD2     H14211   3.604   3.268  11.589 -1.6512  3.1313 -1.3657
    4MPD2    H114212   3.644   3.562  11.890  1.7231 -0.9609  0.1247
    4MPD2    H214213   3.361   3.258  11.952 -0.7805  2.2846 -0.5861
    4MPD2    H314214   3.463   3.457  12.014  0.4113  0.1743  0.1664
    4MPD2     N14215   3.732   3.479  11.645  0.2902 -0.4390  0.0604
    4MPD2    H514216   3.760   3.426  11.563 -0.4592  0.1077 -0.5546
    4MPD2    N114217   3.427   3.125  11.709 -0.6445  0.2194 -0.5315
    4MPD2    H714218   3.481   3.089  11.631 -0.1930  0.6718 -0.4248
    5TMC3    C114219   3.222   3.053  11.612  0.1970  0.1360 -0.1274
    5TMC3    C214220   3.088   3.023  11.634  0.0126 -0.2815  0.4070
    5TMC3    C314221   3.009   3.025  11.526  0.5441 -0.2358 -0.0900
    5TMC3    C414222   3.265   3.103  11.486 -0.6090  0.1366 -0.5364
    5TMC3    C514223   3.183   3.105  11.379 -0.3187  0.4897 -0.0600
    5TMC3    C614224   3.050   3.072  11.399 -0.2216 -0.4360 -0.6847
    5TMC3     C14225   3.298   3.080  11.736 -0.2356  0.1285 -0.0604
    5TMC3     O14226   3.237   3.067  11.839  0.3321  0.1693 -0.1717
    5TMC3     H14227   3.044   2.996  11.729 -1.5351 -1.2235 -0.5693
    5TMC3    H114228   3.356   3.161  11.481 -0.3127 -0.1794  1.0828
    5TMC3    H214229   2.984   3.092  11.316 -0.0137 -1.6865 -1.1588
    5TMC3    C714230   3.232   3.159  11.253 -0.3455  0.2398  0.1082
    5TMC3    C814231   2.868   3.063  11.542  0.1886 -0.2523 -0.3202
    5TMC3    O114232   3.149   3.202  11.171  0.1598  0.0023  0.4592
    5TMC3    O214233   2.804   3.060  11.440 -0.3671  0.2642  0.0031
    6TMC3    C114234   3.219   4.339  10.663 -0.4593  0.1788 -0.6203
    6TMC3    C214235   3.268   4.289  10.545 -0.1906  0.5640 -0.0106
    6TMC3    C314236   3.377   4.194  10.550 -0.1110 -0.0372 -0.3221
    6TMC3    C414237   3.268   4.294  10.784  0.2346  0.7258 -0.4606
    6TMC3    C514238   3.380   4.213  10.783 -0.5197 -0.2317  0.2210
    6TMC3    C614239   3.442   4.173  10.669 -0.1233  0.5113 -0.1474
    6TMC3     C14240   3.092   4.407  10.660 -0.2085  0.1798  0.2719
    6TMC3     O14241   3.016   4.381  10.569  0.1041 -0.4465  0.0191
    6TMC3     H14242   3.219   4.327  10.456 -1.4549  0.2121  0.5388
    6TMC3    H114243   3.202   4.310  10.868  0.2791  0.8339 -0.4467
    6TMC3    H214244   3.515   4.093  10.673 -0.0525  0.4450 -3.0005
    6TMC3    C714245   3.435   4.165  10.901 -0.3133 -0.3349 -0.2458
    6TMC3    C814246   3.429   4.140  10.427  0.3931  0.0255  0.1062
    6TMC3    O114247   3.538   4.100  10.894 -0.8092 -0.3146  0.1692
    6TMC3    O214248   3.549   4.106  10.433  0.1909  0.2440 -0.6524
    7MPD2     C14249   3.626   3.321  10.979  0.6792 -0.5871  0.1064
    7MPD2    C114250   3.662   3.321  11.113 -0.2349  0.1217  0.2738
    7MPD2    C214251   3.582   3.243  11.197  0.2199  0.9838  0.0442
    7MPD2    C314252   3.453   3.214  11.152  0.3732 -0.4119  0.3898
    7MPD2    C414253   3.411   3.237  11.025 -0.3798  0.6321  0.3570
    7MPD2    C514254   3.510   3.271  10.934  0.9575 -0.0064  0.4091
    7MPD2     H14255   3.601   3.229  11.303 -3.4041 -0.0123  0.5677
    7MPD2    H114256   3.313   3.213  10.985  1.4533 -2.7182 -2.0534
    7MPD2    H214257   3.704   3.355  10.912  0.6568 -0.2608  0.2462
    7MPD2    H314258   3.495   3.270  10.827 -1.2235  0.4444  0.6972
    7MPD2     N14259   3.371   3.160  11.255  0.1741  0.6349  0.6955
    7MPD2    H514260   3.422   3.132  11.338  1.3590 -1.0884 -0.6077
    7MPD2    N114261   3.767   3.398  11.158 -0.0532  0.2736  0.7114
    7MPD2    H714262   3.804   3.466  11.092  0.5663  0.4580  1.2566
    8TMC3    C114263   3.861   3.531  11.329 -0.3246  0.3852 -0.6261
    8TMC3    C214264   3.816   3.640  11.262 -0.0580  0.1498 -0.3579
    8TMC3    C314265   3.783   3.747  11.341 -0.2611  0.5347  0.4023
    8TMC3    C414266   3.888   3.529  11.460  0.7646 -0.4597  0.5304
    8TMC3    C514267   3.858   3.637  11.530 -0.9877 -0.0612 -1.0587
    8TMC3    C614268   3.808   3.746  11.471 -0.2337  0.4570 -0.8119
    8TMC3     C14269   3.808   3.406  11.286 -0.4032  0.4084 -0.8820
    8TMC3     O14270   3.794   3.327  11.379  0.6748 -0.4399  0.2019
    8TMC3     H14271   3.794   3.652  11.157 -0.8902 -0.1547 -0.2157
    8TMC3    H114272   3.950   3.451  11.503  0.0667 -1.6657 -0.6455
    8TMC3    H214273   3.774   3.827  11.535 -1.8313 -0.6343 -0.2774
    8TMC3    C714274   3.796   3.607  11.659 -0.0095 -0.0480 -0.8955
    8TMC3    C814275   3.722   3.865  11.281  0.0758 -0.0269  0.1769
    8TMC3    O114276   3.792   3.699  11.740  0.1830  0.1315 -0.0628
    8TMC3    O214277   3.740   3.886  11.163  0.3292  0.1308 -0.3848
    9MPD2     C14278   3.437   4.060  11.407  0.5774  0.5218 -0.1992
    9MPD2    C114279   3.517   4.006  11.308 -0.3530  0.2817 -0.5522
    9MPD2    C214280   3.498   4.055  11.183 -0.3883  0.2737 -0.0565
    9MPD2    C314281   3.398   4.147  11.151  0.2382 -0.5854  0.3884
    9MPD2    C414282   3.311   4.191  11.251 -0.1702  0.1584  0.1760
    9MPD2    C514283   3.335   4.149  11.375  0.7060 -0.4945 -0.4804
    9MPD2     H14284   3.559   4.017  11.102 -0.5782  1.4362 -0.7334
    9MPD2    H114285   3.243   4.273  11.230  0.4545  0.7165  0.3597
    9MPD2    H214286   3.447   4.021  11.508 -0.6633  1.5020  0.3045
    9MPD2    H314287   3.265   4.174  11.454  1.7015 -1.7764  0.7951
    9MPD2     N14288   3.371   4.199  11.019  0.2697 -0.4290  0.1596
    9MPD2    H514289   3.289   4.259  11.011  0.4978 -0.2004 -0.5180
    9MPD2    N114290   3.618   3.920  11.351 -0.0851  0.8994  0.5918
    9MPD2    H714291   3.606   3.880  11.443 -0.3915 -2.4904 -0.9331
    1MPD1     C14292   3.787   2.788  16.625 -0.7574  0.3092  0.1099
    1MPD1    C114293   3.810   2.704  16.520 -0.4177 -0.2033 -0.3510
    1MPD1    C214294   3.706   2.622  16.488 -0.2108 -0.3700  0.0637
    1MPD1    C314295   3.585   2.625  16.553  0.2931 -0.0765  0.0116
    1MPD1    C414296   3.560   2.720  16.645 -0.9399 -0.1258  0.5609
    1MPD1    C514297   3.667   2.797  16.680  0.2963 -0.2739  0.1972
    1MPD1     H14298   3.728   2.545  16.415 -0.9707 -1.7292  1.2529
    1MPD1    H114299   3.462   2.740  16.688  0.3015  0.2939  3.1489
    1MPD1    H214300   3.869   2.850  16.660 -0.5790 -1.3324  2.5512
    1MPD1    H314301   3.653   2.869  16.760  0.8375  1.9467 -1.7229
    1MPD1     N14302   3.477   2.538  16.524  0.0789  0.2377 -0.6053
    1MPD1    H514303   3.403   2.533  16.593  1.3630 -0.9442  0.6981
    1MPD1    N114304   3.940   2.688  16.470 -0.3876 -0.1970 -0.3977
    1MPD1    H614305   3.995   2.771  16.489 -0.1240 -0.7296  1.1421
    1MPD1    H714306   3.937   2.674  16.369 -0.7950 -1.5846 -0.1978
    2TMC2    C114307   3.268   2.166  16.356  0.0711  0.7446  0.1590
    2TMC2    C214308   3.163   2.179  16.438 -0.1399 -0.3974  0.1608
    2TMC2    C314309   3.162   2.287  16.516  0.4062  0.1085 -0.6024
    2TMC2    C414310   3.364   2.266  16.336 -0.2959  0.5472  0.0828
    2TMC2    C514311   3.354   2.371  16.416 -0.2548  0.6977  0.2747
    2TMC2    C614312   3.258   2.393  16.514 -0.5168 -0.1519  0.1600
    2TMC2     C14313   3.319   2.026  16.359  0.1261  0.3987  0.3084
    2TMC2     O14314   3.255   1.945  16.428  0.5134 -0.2925 -0.6288
    2TMC2     H14315   3.103   2.091  16.457  1.2021 -1.1311  0.9378
    2TMC2    H114316   3.447   2.257  16.267 -1.8927 -2.5200 -1.4515
    2TMC2    H214317   3.243   2.486  16.568  1.4143 -0.2108  0.7889
    2TMC2    C714318   3.469   2.461  16.413  0.1059  1.0476  0.2241
    2TMC2    C814319   3.100   2.276  16.643  0.3187 -0.5303 -0.0660
    2TMC2    O114320   3.537   2.470  16.308 -0.1165 -0.5988  0.0097
    2TMC2    O214321   3.144   2.325  16.745  0.1523  0.0797  0.1337
    2TMC2    O514322   3.010   2.172  16.642 -0.4253  0.1942 -0.0306
    2TMC2    H514323   2.989   2.145  16.550  2.1081  0.3095 -0.6326
    3MPD1     C14324   3.723   1.708  16.371  0.5458 -0.1484 -0.1717
    3MPD1    C114325   3.766   1.821  16.311  0.1899 -0.1033  0.2324
    3MPD1    C214326   3.668   1.918  16.289 -0.7629  0.5561 -0.3225
    3MPD1    C314327   3.536   1.901  16.335  0.2343 -0.3753  0.5057
    3MPD1    C414328   3.505   1.790  16.407  0.0446  0.6466 -0.0650
    3MPD1    C514329   3.597   1.694  16.422  0.4046 -0.5614  0.8561
    3MPD1     H14330   3.691   2.009  16.236 -0.3992  0.5917 -0.1044
    3MPD1    H114331   3.409   1.758  16.446  0.8494 -0.7600  0.7831
    3MPD1    H214332   3.789   1.623  16.386 -0.1898 -0.2155  2.6591
    3MPD1    H314333   3.571   1.607  16.481 -0.0239  0.9533  2.9247
    3MPD1     N14334   3.449   2.011  16.319 -0.2865  0.2768 -0.1588
    3MPD1    H514335   3.489   2.096  16.279 -1.4416  0.7057 -0.3993
    3MPD1    N114336   3.895   1.827  16.245 -0.5877 -0.0223 -0.1527
    3MPD1    H614337   3.916   1.926  16.240 -1.2608  0.1136 -0.2958
    3MPD1    H714338   3.974   1.776  16.285 -2.6102 -1.4177  2.0605
    1TMC1    C114339   0.895   1.647  12.620 -0.2256 -0.0190 -0.1307
    1TMC1    C214340   0.887   1.509  12.612  0.3965 -0.4081 -0.2458
    1TMC1    C314341   0.863   1.453  12.488 -0.7857 -0.2494 -0.7635
    1TMC1    C414342   0.885   1.722  12.510  0.2538  0.4478 -0.0515
    1TMC1    C514343   0.863   1.657  12.392  0.5600 -0.9393 -0.2167
    1TMC1    C614344   0.863   1.527  12.371  0.3986  0.7276 -0.0263
    1TMC1     C14345   0.967   1.712  12.730  0.8983 -0.0878 -0.0964
    1TMC1     O14346   0.966   1.836  12.742  0.5315  0.5885 -0.1556
    1TMC1     H14347   0.887   1.454  12.705 -0.7389 -1.0767 -0.6417
    1TMC1    H114348   0.893   1.830  12.512 -0.3527  0.4655  1.4510
    1TMC1    H214349   0.822   1.488  12.279  2.9423 -2.0875  0.0304
    1TMC1    C714350   0.863   1.735  12.272 -0.0604  0.8554 -0.4281
    1TMC1    C814351   0.836   1.312  12.472  0.1536  0.3738 -0.6603
    1TMC1    O114352   0.909   1.687  12.174  0.2084 -0.4339  0.0336
    1TMC1    O214353   0.873   1.261  12.369 -0.1416  0.2138 -0.6316
    1TMC1    O314354   0.752   1.803  12.288 -0.3710  0.4105  0.1075
    1TMC1    H314355   0.717   1.804  12.379  2.1798 -1.6657  1.1185
    1TMC1    O514356   0.841   1.252  12.595 -0.0485  0.2942  0.4250
    1TMC1    H514357   0.801   1.311  12.661 -1.3499 -0.3760  0.2315
    2MPD2     C14358   1.158   1.780  12.946 -0.3713 -0.2143  0.5536
    2MPD2    C114359   1.081   1.668  12.944 -0.3125  0.6965 -0.4160
    2MPD2    C214360   1.096   1.583  13.051 -0.0741  0.4881  0.1285
    2MPD2    C314361   1.168   1.616  13.160  0.3003 -0.0907  0.1403
    2MPD2    C414362   1.221   1.744  13.170  0.3502  0.1475  0.0250
    2MPD2    C514363   1.217   1.824  13.057 -0.6740  0.1447  0.8358
    2MPD2     H14364   1.058   1.481  13.054  0.6325  0.1846 -1.1968
    2MPD2    H114365   1.276   1.775  13.258 -0.5811 -1.2515  1.1013
    2MPD2    H214366   1.175   1.835  12.854  1.6211  1.0598  1.6881
    2MPD2    H314367   1.273   1.917  13.051  2.3665 -1.8869 -2.3766
    2MPD2     N14368   1.191   1.512  13.257  0.2578  0.1375 -0.1438
    2MPD2    H514369   1.141   1.424  13.251 -0.4424  0.4992  0.3708
    2MPD2    N114370   1.011   1.625  12.827 -0.4958  0.0797 -0.4073
    2MPD2    H714371   0.980   1.529  12.818 -1.8590  0.7133 -2.5260
    3TCq1    O114372   1.498   1.274  13.841 -0.2748 -0.1020  0.4043
    3TCq1    C114373   1.441   1.382  13.787  0.0198 -0.0322 -0.2708
    3TCq1    O214374   1.395   1.473  13.854  0.1260  0.1183 -0.2347
    3TCq1    C214375   1.378   1.348  13.663  0.0500  0.1166  0.3633
    3TCq1    C314376   1.369   1.221  13.620 -0.2936 -0.0231 -0.7030
    3TCq1    C414377   1.302   1.191  13.502 -0.3807 -0.2149 -0.2415
    3TCq1    C514378   1.243   1.289  13.423  0.5735  0.4950  0.5107
    3TCq1    C614379   1.251   1.421  13.470  0.6940 -0.1428  0.2125
    3TCq1    C714380   1.313   1.446  13.591  0.0185  0.9947  0.4898
    3TCq1    C814381   1.270   1.523  13.367 -0.1950  0.9327 -0.8157
    3TCq1    O414382   1.346   1.614  13.394  0.3828  0.1595 -0.3681
    3TCq1    C914383   1.325   1.063  13.437 -0.3269  0.5531  0.4493
    3TCq1    O514384   1.443   1.025  13.433  0.4480 -0.2734  0.4420
    3TCq1    O614385   1.246   1.014  13.355  0.2151 -0.0306  0.7164
    3TCq1    H114386   1.555   1.231  13.774 -1.6806 -1.4272  0.0601
    3TCq1    H214387   1.423   1.141  13.670  2.2817  3.3094  1.8673
    3TCq1    H314388   1.222   1.259  13.321  0.1230 -0.0485  0.7604
    3TCq1    H414389   1.324   1.546  13.631  1.6850  0.4364  1.4737
    1MPD2     C14390   1.125   2.850  14.945  0.0479 -0.4676  0.4197
    1MPD2    C114391   1.028   2.754  14.940 -0.7002 -0.3870 -0.0178
    1MPD2    C214392   1.067   2.622  14.952 -0.7686 -0.3894  0.1984
    1MPD2    C314393   1.204   2.591  14.951  0.3212 -0.5038  0.1658
    1MPD2    C414394   1.301   2.687  14.956 -0.0596  0.1132 -0.5602
    1MPD2    C514395   1.261   2.817  14.942  0.1996 -0.9370  1.0263
    1MPD2     H14396   0.992   2.544  14.959  0.1511 -1.0571  2.6388
    1MPD2    H114397   1.408   2.672  14.960 -0.0097  1.0553  1.6371
    1MPD2    H214398   1.104   2.955  14.929  1.2048 -0.4001 -0.6524
    1MPD2    H314399   1.336   2.894  14.930 -0.0639 -1.0938 -1.5126
    1MPD2     N14400   1.246   2.461  14.913 -0.1979  0.2492  0.2508
    1MPD2    H514401   1.345   2.442  14.907 -0.4124 -0.7416 -0.3884
    1MPD2    N114402   0.893   2.792  14.927  0.1811  0.6894 -0.2196
    1MPD2    H714403   0.877   2.893  14.933 -2.7563  0.3847 -2.7123
    2TMC3    C114404   0.660   2.780  14.863 -0.1615  0.1940  0.1508
    2TMC3    C214405   0.568   2.681  14.861  0.1325  0.1432  0.1368
    2TMC3    C314406   0.474   2.665  14.769 -0.5263  0.3285  0.0675
    2TMC3    C414407   0.671   2.859  14.753 -0.0900  0.4339  0.8116
    2TMC3    C514408   0.583   2.835  14.654 -0.4400  0.4406  0.2354
    2TMC3    C614409   0.479   2.744  14.658 -0.6406 -0.2724 -0.9232
    2TMC3     C14410   0.784   2.714  14.912 -0.0052 -0.1007 -0.1114
    2TMC3     O14411   0.780   2.592  14.920  0.5468  0.0839  0.3997
    2TMC3     H14412   0.561   2.617  14.948  1.9302  0.7335  0.7075
    2TMC3    H114413   0.738   2.943  14.737  0.4303  0.4146  2.8585
    2TMC3    H214414   0.409   2.739  14.576 -0.3036 -0.4375 -1.2026
    2TMC3    C714415   0.566   2.940  14.556 -0.4939 -0.3544  0.3323
    2TMC3    C814416   0.455   2.529  14.727 -0.6960 -0.3218 -0.6344
    2TMC3    O114417   0.454   2.963  14.514  0.0098  0.3503  0.3761
    2TMC3    O214418   0.350   2.499  14.677 -1.0693 -0.1958 -0.2820
    3TCq1    O114419   1.455   3.850  14.482  0.2134 -0.5448  0.2980
    3TCq1    C114420   1.458   3.728  14.423 -0.4349 -0.0398  0.2532
    3TCq1    O214421   1.550   3.701  14.346  0.0234  0.2278 -0.0331
    3TCq1    C214422   1.377   3.623  14.489 -0.2929  0.6016  0.7537
    3TCq1    C314423   1.435   3.547  14.583  0.4254  0.4515 -0.1806
    3TCq1    C414424   1.349   3.457  14.638 -0.1198  0.0950  0.4504
    3TCq1    C514425   1.225   3.431  14.596 -0.2768 -0.4109 -0.6418
    3TCq1    C614426   1.170   3.507  14.499 -0.8235 -0.3999 -0.2534
    3TCq1    C714427   1.248   3.609  14.445 -0.6425 -0.4353 -0.3440
    3TCq1    C814428   1.026   3.504  14.482  0.4483  0.6525 -0.0186
    3TCq1    O414429   0.969   3.611  14.482 -0.4664  0.5158 -0.5810
    3TCq1    C914430   1.386   3.399  14.766 -0.6638 -0.4075  0.1101
    3TCq1    O514431   1.498   3.430  14.819  0.2374  0.4594 -0.2839
    3TCq1    O614432   1.306   3.323  14.826  0.0539 -0.1596 -0.0484
    3TCq1    H114433   1.382   3.843  14.548 -1.0526 -1.0746 -1.1763
    3TCq1    H214434   1.532   3.548  14.630  1.9985 -1.0705 -3.3765
    3TCq1    H314435   1.158   3.375  14.660 -0.3668  0.2144 -0.1857
    3TCq1    H414436   1.214   3.687  14.378  0.0867  0.4708  0.3445
    4MPD2     C14437   0.734   3.426  14.459  0.0448 -0.5166 -0.1782
    4MPD2    C114438   0.839   3.340  14.475 -0.3165 -0.1417 -0.2320
    4MPD2    C214439   0.821   3.203  14.496  0.2972  0.3818  0.2133
    4MPD2    C314440   0.693   3.145  14.502  0.5181 -0.0622  0.1190
    4MPD2    C414441   0.586   3.230  14.480 -0.2622  0.4927 -0.5182
    4MPD2    C514442   0.604   3.367  14.461 -0.2839  0.9420 -0.0055
    4MPD2     H14443   0.909   3.144  14.521 -0.4656 -0.1020  1.7467
    4MPD2    H114444   0.484   3.194  14.470  0.5773 -1.7248 -1.0547
    4MPD2    H214445   0.751   3.530  14.434  1.9477 -0.4426  1.4063
    4MPD2    H314446   0.524   3.434  14.433 -3.2584 -2.5541  0.1452
    4MPD2     N14447   0.684   3.005  14.532 -0.1035  0.3756 -0.3362
    4MPD2    H514448   0.773   2.964  14.557 -0.1188  0.0226 -0.8591
    4MPD2    N114449   0.975   3.378  14.488 -0.6905  0.5145 -0.0726
    4MPD2    H714450   1.041   3.302  14.488  1.3310  2.2636 -0.3212
    5TMC2    C114451   1.099   2.024  14.804  0.6697 -0.3479  0.0427
    5TMC2    C214452   1.156   1.966  14.915  0.0100 -0.6509 -0.0305
    5TMC2    C314453   1.240   2.041  14.995  0.0345 -0.6687 -0.2298
    5TMC2    C414454   1.136   2.153  14.773 -0.2331 -0.0359 -0.3553
    5TMC2    C514455   1.223   2.226  14.856  0.2665  0.3335 -0.3165
    5TMC2    C614456   1.273   2.170  14.971  0.2666  0.2295  0.0446
    5TMC2     C14457   0.959   2.004  14.788 -0.4579 -0.6616 -0.9129
    5TMC2     O14458   0.921   1.888  14.775 -0.3148  0.0825  0.3502
    5TMC2     H14459   1.154   1.859  14.930  2.3126 -0.8019 -0.8491
    5TMC2    H114460   1.088   2.209  14.694 -4.3595 -1.3637  1.2181
    5TMC2    H214461   1.333   2.231  15.038  1.4510 -0.7947 -0.0736
    5TMC2    C714462   1.167   2.363  14.866  0.3299 -0.2939  0.9526
    5TMC2    C814463   1.255   1.984  15.123  0.5741 -0.1136  0.6295
    5TMC2    O114464   1.048   2.376  14.840 -0.4066 -0.1560 -1.0495
    5TMC2    O214465   1.268   1.859  15.133  0.2881 -0.1694 -0.1315
    5TMC2    O514466   1.215   2.071  15.217 -0.4591  0.2305 -0.6668
    5TMC2    H514467   1.227   2.166  15.199 -0.8821  0.1018 -1.6380
    6MPD2     C14468   0.509   2.242  14.670 -0.5053  0.0608 -0.0923
    6MPD2    C114469   0.597   2.327  14.729 -0.5540  0.3606 -0.3493
    6MPD2    C214470   0.719   2.279  14.759 -0.7950  0.8103  0.0146
    6MPD2    C314471   0.761   2.150  14.741  0.1727 -0.9155  0.3553
    6MPD2    C414472   0.673   2.065  14.685 -0.4615  0.4951 -0.0128
    6MPD2    C514473   0.545   2.108  14.658 -0.0577  0.0786  0.3989
    6MPD2     H14474   0.792   2.350  14.795  1.8112 -0.4248 -2.7779
    6MPD2    H114475   0.697   1.959  14.685  0.0258  0.6098  0.0217
    6MPD2    H214476   0.408   2.277  14.651 -0.6915 -2.0957 -2.9262
    6MPD2    H314477   0.488   2.030  14.609  1.4959 -0.9258  0.2005
    6MPD2     N14478   0.890   2.121  14.786 -0.3953 -0.2757  0.0178
    6MPD2    H514479   0.942   2.201  14.821 -0.3586 -0.0241 -0.6062
    6MPD2    N114480   0.567   2.461  14.763  0.9222  0.0754  0.4327
    6MPD2    H714481   0.638   2.504  14.821 -0.0761  0.2762  1.4964
  945NH4     N114482   3.627   0.454   3.365  0.3985  0.4127 -0.0850
  945NH4     H214483   3.699   0.396   3.318  0.3654  1.0560 -0.9083
  945NH4     H314484   3.540   0.399   3.349  0.5205  0.2045 -0.0397
  945NH4     H414485   3.619   0.550   3.328  1.3004  0.1363 -0.9894
  945NH4     H514486   3.640   0.449   3.469 -1.5804  2.3733  0.2497
  946SOD     NA14487   3.723   3.480  13.604 -0.1054  0.3140  0.4325
  947SOD     NA14488   1.440   3.327  15.019 -0.0632 -0.3023 -0.0274
  948SOD     NA14489   2.294   3.396  11.340  0.0358  0.6150 -0.2198
  949SOD     NA14490   1.088   0.658  16.477 -0.0016  0.0414  0.4277
  950SOD     NA14491   3.638   3.932   2.922  0.5336 -0.6719  0.4147
  951SOD     NA14492   1.649   0.732  12.544 -0.2639  0.1889  0.2495
  952SOD     NA14493   1.712   1.180   2.882  0.3393  0.7016  0.1740
  953SOL     OW14494   4.003   2.685   0.704  0.2488 -0.0191 -0.9805
  953SOL    HW114495   4.069   2.635   0.752 -2.7816 -0.3017  2.8301
  953SOL    HW214496   4.002   2.762   0.762 -0.5571  0.1682 -1.2534
  954SOL     OW14497   0.716   3.620   0.310 -0.2961  0.2456  0.0956
  954SOL    HW114498   0.811   3.626   0.297 -0.3728 -0.9825 -1.0083
  954SOL    HW214499   0.699   3.687   0.376  0.7371 -2.8717  3.5139
  955SOL     OW14500   4.486   1.211   5.531 -0.0658 -0.4232  0.0674
  955SOL    HW114501   4.505   1.243   5.443 -3.1363  3.5830  0.8198
  955SOL    HW214502   4.422   1.280   5.548  0.6685  0.8529 -2.2881
  956SOL     OW14503   1.289   1.497  10.539 -0.0816 -0.2249 -0.4360
  956SOL    HW114504   1.382   1.496  10.564  0.3879 -1.0965 -2.2696
  956SOL    HW214505   1.274   1.589  10.560 -1.2049  0.1560 -2.9593
  957SOL     OW14506   3.254   0.461  11.152 -0.0253  0.4800 -0.9340
  957SOL    HW114507   3.322   0.528  11.144 -0.3769  1.2111  2.0905
  957SOL    HW214508   3.309   0.387  11.128 -0.3833 -1.2877  3.7130
  958SOL     OW14509   4.595   2.655   0.817 -0.7483 -0.4984 -0.2018
  958SOL    HW114510   4.634   2.624   0.736 -0.2648 -0.1328 -0.1095
  958SOL    HW214511   4.520   2.596   0.815 -1.6383  0.5974  0.6105
  959SOL     OW14512   0.395   1.002  17.348  0.4092 -0.5107  0.2015
  959SOL    HW114513   0.375   0.996  17.442  0.6473 -2.5338  0.1161
  959SOL    HW214514   0.338   0.931  17.321  1.9329 -1.5703 -0.2609
  960SOL     OW14515   2.435   0.493  14.898 -0.0431 -0.0165 -0.2746
  960SOL    HW114516   2.414   0.414  14.947  1.7327 -1.4794 -1.9000
  960SOL    HW214517   2.439   0.457  14.810  0.1348 -0.4380 -0.0899
  961SOL     OW14518   0.304   3.969   0.186  0.0702  0.3287  0.3804
  961SOL    HW114519   0.314   4.051   0.138 -1.5527 -0.4926 -1.3700
  961SOL    HW214520   0.253   3.914   0.125 -0.8775 -1.3293  2.6787
  962SOL     OW14521   4.603   2.537   7.356 -0.0067  0.3976 -0.0693
  962SOL    HW114522   4.620   2.623   7.318 -0.4392 -0.6285 -2.6031
  962SOL    HW214523   4.557   2.480   7.295 -1.7354  0.5488  1.0849
  963SOL     OW14524   2.720   3.375   2.698 -0.8165 -1.0650 -0.1853
  963SOL    HW114525   2.808   3.345   2.676 -0.6492 -0.5416 -0.2410
  963SOL    HW214526   2.749   3.452   2.747 -3.9363 -1.3128  2.0606
  964SOL     OW14527   0.920   0.456   6.070  0.1125  0.4368  0.0509
  964SOL    HW114528   0.861   0.521   6.111  1.8713  1.7849  0.4365
  964SOL    HW214529   0.924   0.479   5.978  1.7873 -1.7841 -0.3978
  965SOL     OW14530   1.913   0.562   2.073 -0.1934  0.2591  0.4416
  965SOL    HW114531   1.852   0.627   2.108 -0.4678 -0.5111  1.3938
  965SOL    HW214532   1.933   0.610   1.992  2.4086 -1.4529  0.0898
  966SOL     OW14533   3.578   0.353   6.556  0.0393  0.0320 -0.6148
  966SOL    HW114534   3.667   0.352   6.523  0.6387  1.0795  0.9512
  966SOL    HW214535   3.542   0.440   6.537 -0.9528 -0.3653 -0.5751
  967SOL     OW14536   3.037   2.078   8.995 -0.9353 -0.7633 -0.0177
  967SOL    HW114537   3.052   2.021   9.070  0.7600  1.6787  1.4985
  967SOL    HW214538   3.103   2.056   8.928  0.1531 -0.1005  0.8353
  968SOL     OW14539   1.178   4.186  13.427 -0.1415  0.4187  0.2826
  968SOL    HW114540   1.258   4.163  13.476 -0.9682 -1.0102  0.9683
  968SOL    HW214541   1.195   4.140  13.344  2.2239 -0.5350  1.2726
  969SOL     OW14542   0.380   0.369   0.947  0.8280  0.0911  0.2145
  969SOL    HW114543   0.408   0.301   0.885  1.0812  0.5163 -0.1442
  969SOL    HW214544   0.412   0.338   1.031 -0.5959  1.5954  1.2931
  970SOL     OW14545   3.022   0.266   2.980 -0.4737 -0.3632 -0.2654
  970SOL    HW114546   3.078   0.323   2.928 -1.3573 -0.1137 -0.9498
  970SOL    HW214547   3.082   0.224   3.042  0.3082 -0.3103 -0.9944
  971SOL     OW14548   0.439   2.707   1.959  0.1938 -0.0908  0.7324
  971SOL    HW114549   0.429   2.718   2.053 -2.6932 -2.3272  0.6540
  971SOL    HW214550   0.388   2.627   1.954 -0.3418  0.3441 -0.7314
  972SOL     OW14551   3.075   1.214   1.926 -0.2376  0.7101 -0.0831
  972SOL    HW114552   3.147   1.152   1.935  1.0889  2.3804  0.7562
  972SOL    HW214553   3.111   1.287   1.875  0.7193 -0.3846 -0.9705
  973SOL     OW14554   1.322   2.302  12.955  0.7531 -0.1063  0.0332
  973SOL    HW114555   1.370   2.248  13.018 -1.3882 -1.9799  0.0635
  973SOL    HW214556   1.355   2.264  12.874  0.0296  0.1244 -0.3684
  974SOL     OW14557   0.317   3.369  14.209 -0.8896  0.3690  0.3017
  974SOL    HW114558   0.325   3.365  14.304 -0.3357 -1.6098  0.1725
  974SOL    HW214559   0.306   3.275  14.193  0.1453  0.2256  0.3985
  975SOL     OW14560   3.394   4.387  13.075  0.2209  0.0050  0.3478
  975SOL    HW114561   3.314   4.410  13.123  0.4721  0.1447  0.7010
  975SOL    HW214562   3.387   4.292  13.066  1.3175 -0.2486  2.1889
  976SOL     OW14563   2.059   2.465   2.224 -0.5987 -0.4905 -0.0471
  976SOL    HW114564   2.061   2.392   2.286 -0.7034  0.5988  1.2678
  976SOL    HW214565   1.972   2.505   2.237 -0.0678  0.3745  0.8965
  977SOL     OW14566   0.162   4.197   8.308  0.5157  0.5705  0.6757
  977SOL    HW114567   0.232   4.174   8.246 -0.7117  1.2025 -0.9587
  977SOL    HW214568   0.153   4.121   8.365 -1.0069  1.1862  1.2257
  978SOL     OW14569   3.783   1.406   8.869  0.4230 -0.0537 -0.4245
  978SOL    HW114570   3.864   1.453   8.848 -2.6508  5.2231 -0.4367
  978SOL    HW214571   3.730   1.419   8.791 -2.8278  1.9074  2.1401
  979SOL     OW14572   2.569   3.889   6.250  0.2489 -0.1112  0.3222
  979SOL    HW114573   2.523   3.972   6.241  0.6191 -0.0829 -1.3935
  979SOL    HW214574   2.611   3.873   6.165 -1.1856  0.8401 -0.5581
  980SOL     OW14575   4.337   2.686   9.045  0.3477 -0.5969  0.0888
  980SOL    HW114576   4.345   2.595   9.015  0.6511 -1.0464  1.5225
  980SOL    HW214577   4.291   2.678   9.129 -3.6674  1.6261 -1.9006
  981SOL     OW14578   2.805   3.372   5.370 -0.1336 -0.2264  0.3417
  981SOL    HW114579   2.893   3.364   5.335 -0.5633  2.8521 -1.4534
  981SOL    HW214580   2.829   3.418   5.451  1.5797 -0.9994  0.2611
  982SOL     OW14581   2.922   0.695   2.862  0.4850 -0.1741 -0.4261
  982SOL    HW114582   2.968   0.745   2.929 -1.2516  3.2607 -1.7927
  982SOL    HW214583   2.884   0.620   2.907 -1.0806 -0.3998 -2.1318
  983SOL     OW14584   0.478   4.039   2.994  0.0155 -0.1916  0.2247
  983SOL    HW114585   0.455   4.114   2.940 -0.2569 -0.4704 -0.0473
  983SOL    HW214586   0.390   4.019   3.025 -0.1289  0.1022 -0.0005
  984SOL     OW14587   2.219   1.356  12.676 -0.3041 -0.0798 -0.1363
  984SOL    HW114588   2.134   1.400  12.673 -0.8520 -1.1619 -0.7566
  984SOL    HW214589   2.284   1.426  12.685 -2.0271  1.4841  0.2052
  985SOL     OW14590   3.836   2.181   0.786  0.2360  0.2894  0.2465
  985SOL    HW114591   3.889   2.101   0.782 -1.7303 -1.0822  2.1414
  985SOL    HW214592   3.805   2.169   0.875 -3.4925 -1.9367 -1.3611
  986SOL     OW14593   4.248   3.136   6.500  0.6004 -0.1910  0.1436
  986SOL    HW114594   4.193   3.117   6.423  0.2486  1.1056  0.0735
  986SOL    HW214595   4.199   3.088   6.566  1.0505 -1.2354 -0.2803
  987SOL     OW14596   3.754   3.058   6.509  0.5646 -0.4929 -0.4777
  987SOL    HW114597   3.789   3.015   6.587 -0.9977  0.6147  0.8319
  987SOL    HW214598   3.688   2.994   6.481  0.0025 -0.3936  0.6356
  988SOL     OW14599   1.818   3.544   4.013 -0.2968  0.1383  0.7604
  988SOL    HW114600   1.761   3.469   4.031  1.7502 -1.5651  0.2519
  988SOL    HW214601   1.768   3.580   3.940  0.0257  0.6026  0.7703
  989SOL     OW14602   0.070   0.217  10.286 -0.8839 -0.2636  0.1553
  989SOL    HW114603   0.072   0.228  10.381 -0.9781 -0.8554  0.2248
  989SOL    HW214604   0.127   0.140  10.285  0.1253  0.4693  1.1172
  990SOL     OW14605   0.284   2.813  10.242  0.3779 -0.4162  0.0580
  990SOL    HW114606   0.289   2.736  10.186  0.6898  0.6039 -1.3212
  990SOL    HW214607   0.327   2.783  10.322 -0.0162 -1.5370 -0.1522
  991SOL     OW14608   3.409   3.774  12.286  0.0433  0.1584 -0.7136
  991SOL    HW114609   3.362   3.759  12.368  1.4582 -0.0301  0.0750
  991SOL    HW214610   3.484   3.714  12.290  0.7666  1.1949  1.1206
  992SOL     OW14611   3.172   2.520   6.556 -0.5448  0.5124 -0.2154
  992SOL    HW114612   3.202   2.485   6.640 -0.0848 -0.9458 -0.9919
  992SOL    HW214613   3.097   2.570   6.588 -1.7830 -0.9548 -0.8456
  993SOL     OW14614   4.298   4.610   6.228  0.0932  0.0042 -0.2310
  993SOL    HW114615   4.242   4.676   6.269  0.7482  0.1157  0.4988
  993SOL    HW214616   4.314   4.546   6.297 -1.1012 -1.1396 -1.0135
  994SOL     OW14617   3.159   1.828   3.956 -0.3984 -0.4112 -0.9712
  994SOL    HW114618   3.148   1.741   3.992 -1.3146  0.2840  0.4217
  994SOL    HW214619   3.070   1.862   3.962  0.1803  0.6980  1.2249
  995SOL     OW14620   3.360   2.230  16.859 -0.8222  0.1929 -0.2716
  995SOL    HW114621   3.359   2.237  16.954  0.0054 -1.0213 -0.1661
  995SOL    HW214622   3.267   2.239  16.838 -0.8014 -1.4090 -1.1378
  996SOL     OW14623   2.375   0.752   7.282  0.1166 -0.0390  0.2138
  996SOL    HW114624   2.334   0.681   7.331 -0.2910  1.1216  1.5716
  996SOL    HW214625   2.374   0.717   7.193  0.5293  2.0076 -0.6148
  997SOL     OW14626   2.001   2.882   1.263  0.0430  0.3598 -0.4885
  997SOL    HW114627   1.960   2.965   1.287 -2.3297 -0.5458 -1.4301
  997SOL    HW214628   2.089   2.911   1.240  0.2222  1.1975  1.2126
  998SOL     OW14629   3.257   2.920   3.623 -0.5119 -0.0720 -0.0251
  998SOL    HW114630   3.334   2.873   3.656  0.8838  3.0478  1.2245
  998SOL    HW214631   3.197   2.845   3.618 -1.4349  0.7167 -0.6455
  999SOL     OW14632   1.262   4.549   4.786  0.1351 -0.0179  0.1800
  999SOL    HW114633   1.288   4.549   4.878 -2.2713 -0.4209  0.8590
  999SOL    HW214634   1.289   4.463   4.755  0.1936  0.8595 -2.1693
 1000SOL     OW14635   2.903   3.101   6.319  0.0532 -0.3025 -0.2668
 1000SOL    HW114636   2.877   3.192   6.305  1.3651  0.2344  0.6782
 1000SOL    HW214637   2.902   3.091   6.415  2.2382  0.0956 -0.1878
 1001SOL     OW14638   4.496   3.496   3.087  0.0534 -0.1181 -0.4828
 1001SOL    HW114639   4.483   3.490   3.181  0.1887  0.5505 -0.4234
 1001SOL    HW214640   4.588   3.471   3.084  0.0171 -0.3599  0.7567
 1002SOL     OW14641   1.841   2.519   8.383 -0.2627 -0.3002 -0.3007
 1002SOL    HW114642   1.909   2.500   8.319 -1.5608 -0.4565 -1.6211
 1002SOL    HW214643   1.844   2.614   8.374  1.2477 -0.3309 -0.1737
 1003SOL     OW14644   3.800   1.512   7.309 -0.2124 -0.4165  0.4379
 1003SOL    HW114645   3.850   1.586   7.345 -0.1085  0.2275 -1.0092
 1003SOL    HW214646   3.872   1.449   7.308 -0.0592 -0.1963 -3.5630
 1004SOL     OW14647   4.572   4.159   5.410  0.0430  0.1245 -0.4953
 1004SOL    HW114648   4.644   4.099   5.391 -1.7956 -2.5279  0.8537
 1004SOL    HW214649   4.552   4.152   5.503 -0.9982  1.2739 -0.6461
 1005SOL     OW14650   1.913   4.382  14.887  0.1003  0.3511  0.1027
 1005SOL    HW114651   1.937   4.358  14.976 -1.1753 -2.5190 -0.3589
 1005SOL    HW214652   1.912   4.299  14.839  3.1162  0.8710 -0.9150
 1006SOL     OW14653   3.991   4.691   1.136 -0.0074  0.0286 -0.1191
 1006SOL    HW114654   4.046   4.680   1.058 -1.7236 -0.9850 -1.1981
 1006SOL    HW214655   4.046   4.722   1.208 -0.2808 -1.4616  0.7144
 1007SOL     OW14656   2.575   1.900  13.025  0.0272  0.2680  0.1134
 1007SOL    HW114657   2.609   1.983  12.991 -0.3956  0.4343  0.0931
 1007SOL    HW214658   2.602   1.906  13.117 -0.0533  2.1390  0.0065
 1008SOL     OW14659   0.911   3.317   4.324  0.1736  0.7253  0.2787
 1008SOL    HW114660   0.955   3.396   4.293  1.4209  0.2302  0.7755
 1008SOL    HW214661   0.983   3.270   4.367  1.2514  2.2585  0.1764
 1009SOL     OW14662   0.250   1.135   3.785  0.1332 -0.5786 -0.6576
 1009SOL    HW114663   0.193   1.112   3.711 -0.2172  0.4438 -0.7027
 1009SOL    HW214664   0.198   1.200   3.832  0.5966 -0.4504 -0.3286
 1010SOL     OW14665   3.029   0.647   9.930 -0.1282 -1.1136 -0.2838
 1010SOL    HW114666   3.002   0.631  10.020 -1.0371 -0.3366 -0.4242
 1010SOL    HW214667   2.949   0.690   9.901 -0.3520 -2.4369 -1.6538
 1011SOL     OW14668   4.435   2.753   1.025 -0.3938 -0.1591  0.1708
 1011SOL    HW114669   4.479   2.725   0.945  0.1521 -2.2579  1.2235
 1011SOL    HW214670   4.414   2.844   1.002  1.5995  0.8522  2.3567
 1012SOL     OW14671   2.617   3.828   3.961 -0.2864  0.1133  0.1091
 1012SOL    HW114672   2.594   3.741   3.927  0.6933 -0.0850 -0.0466
 1012SOL    HW214673   2.619   3.815   4.056  0.4966 -2.7713 -0.3018
 1013SOL     OW14674   0.960   4.423  14.065  0.2996  0.1681 -0.3534
 1013SOL    HW114675   0.927   4.422  13.976 -0.2834  1.9756 -0.1743
 1013SOL    HW214676   0.938   4.336  14.098 -4.7025  2.7312  3.1473
 1014SOL     OW14677   4.042   3.050   3.533  0.0851  0.4236 -0.0439
 1014SOL    HW114678   3.973   3.064   3.467 -1.6088 -0.1316  1.6211
 1014SOL    HW214679   4.098   2.983   3.493  0.1166  0.3975  0.0438
 1015SOL     OW14680   2.284   2.272  14.052 -0.3670 -0.7714  0.2288
 1015SOL    HW114681   2.202   2.321  14.052  1.0255  1.5514 -0.6847
 1015SOL    HW214682   2.303   2.266  14.146 -0.2500 -0.7509  0.2071
 1016SOL     OW14683   0.036   1.435  13.821 -0.1186  0.2118  0.1974
 1016SOL    HW114684   4.699   1.419  13.764  0.0789 -0.4068  0.1157
 1016SOL    HW214685   0.066   1.518  13.783 -1.3983  0.0020 -1.2781
 1017SOL     OW14686   4.289   0.972   6.599  0.1620  0.1711 -0.2428
 1017SOL    HW114687   4.377   0.955   6.565 -0.0618  2.0154 -1.7024
 1017SOL    HW214688   4.317   1.002   6.685  0.5582  1.5451 -0.8543
 1018SOL     OW14689   0.489   3.512   7.733 -0.7484  0.3552  0.4889
 1018SOL    HW114690   0.477   3.418   7.717 -0.3675  0.5984 -1.2563
 1018SOL    HW214691   0.519   3.501   7.823  0.5323 -0.9195 -0.0851
 1019SOL     OW14692   2.201   1.448   8.325 -0.4174  0.4190 -0.0849
 1019SOL    HW114693   2.184   1.382   8.258 -0.2289 -0.4197  0.7010
 1019SOL    HW214694   2.116   1.492   8.331 -0.8499 -0.2641 -1.3064
 1020SOL     OW14695   1.302   2.886  12.006 -0.2425  0.3258 -0.5575
 1020SOL    HW114696   1.386   2.890  11.960  0.7151 -1.0541  1.0519
 1020SOL    HW214697   1.266   2.829  11.938 -1.0308 -1.2733  1.2104
 1021SOL     OW14698   0.430   3.003   5.762  0.4722 -0.0996  0.4678
 1021SOL    HW114699   0.367   3.044   5.703  2.6105 -0.8057 -2.3149
 1021SOL    HW214700   0.504   2.995   5.703  0.1413 -1.4226  0.2381
 1022SOL     OW14701   3.786   3.496   3.576  0.2999 -0.1534  0.4683
 1022SOL    HW114702   3.853   3.453   3.523 -1.3934  0.5653 -2.2402
 1022SOL    HW214703   3.816   3.585   3.557 -1.4981  0.4524  0.4518
 1023SOL     OW14704   2.251   2.349   7.851  0.2636  0.1346 -0.4336
 1023SOL    HW114705   2.262   2.279   7.787 -3.5751  1.1294 -2.2054
 1023SOL    HW214706   2.220   2.297   7.925 -1.8873  1.3659 -0.4497
 1024SOL     OW14707   0.435   0.006   5.947 -0.1298  0.5767  0.0021
 1024SOL    HW114708   0.456   4.651   5.963 -2.9925  0.1622  1.2852
 1024SOL    HW214709   0.378   0.022   6.022  0.4451  4.1741 -0.3098
 1025SOL     OW14710   2.595   2.136   5.393 -0.2923  0.6543 -0.2188
 1025SOL    HW114711   2.521   2.099   5.442  0.0393  1.4009  0.8346
 1025SOL    HW214712   2.568   2.100   5.308  0.4177  1.5469 -0.8325
 1026SOL     OW14713   1.354   4.044   4.661 -0.3787 -0.3706  0.0625
 1026SOL    HW114714   1.311   3.978   4.714 -1.2629  1.5135  1.6651
 1026SOL    HW214715   1.285   4.079   4.605 -0.0590 -0.2236 -0.2411
 1027SOL     OW14716   1.640   1.225  13.399 -0.0901  0.1279  0.7246
 1027SOL    HW114717   1.678   1.223  13.487 -1.4016  1.3658  1.3160
 1027SOL    HW214718   1.563   1.171  13.411 -1.3320  2.3201  2.6733
 1028SOL     OW14719   1.703   2.562   5.798 -0.1365  0.9727  0.2162
 1028SOL    HW114720   1.747   2.577   5.714 -1.6074  0.0866 -0.7248
 1028SOL    HW214721   1.676   2.650   5.824  0.7963  0.9009  1.4252
 1029SOL     OW14722   2.652   0.937   2.253  0.4818 -0.3322  0.6211
 1029SOL    HW114723   2.736   0.929   2.298  1.7492 -1.1035 -1.8773
 1029SOL    HW214724   2.652   0.866   2.189 -2.3889  0.0575  0.1731
 1030SOL     OW14725   1.756   0.096   7.890 -0.0463 -0.0223 -0.6032
 1030SOL    HW114726   1.807   0.090   7.971  0.6887  1.5100 -0.9585
 1030SOL    HW214727   1.761   0.007   7.853  1.4735 -1.1430  2.2859
 1031SOL     OW14728   0.766   1.995   2.933  0.3556  0.3231 -0.2270
 1031SOL    HW114729   0.810   2.024   2.853  0.7045 -0.1929 -0.2175
 1031SOL    HW214730   0.684   1.958   2.900 -0.6122  1.3971  0.9333
 1032SOL     OW14731   0.677   3.546   1.599  0.7270 -0.3433  0.3357
 1032SOL    HW114732   0.656   3.605   1.526  2.0927  0.5180  0.6385
 1032SOL    HW214733   0.615   3.474   1.589  1.4963 -1.0051  0.3315
 1033SOL     OW14734   4.738   1.873   5.752  0.3048 -0.0282 -0.4352
 1033SOL    HW114735   0.033   1.947   5.702  2.0426  0.2656  1.1472
 1033SOL    HW214736   0.017   1.803   5.689  0.7442 -1.5824  1.3981
 1034SOL     OW14737   0.942   3.848   3.981  0.7465 -0.0433  0.1847
 1034SOL    HW114738   0.963   3.828   3.890  0.0539  4.1396 -0.9163
 1034SOL    HW214739   1.022   3.818   4.025 -0.6584 -0.6994  2.3069
 1035SOL     OW14740   2.235   3.074  15.915  0.4602 -0.1102  0.6400
 1035SOL    HW114741   2.227   2.985  15.879  0.4808 -0.8435  2.4127
 1035SOL    HW214742   2.286   3.047  15.992  3.1256 -0.0208 -1.0812
 1036SOL     OW14743   1.280   2.045   5.406  0.2376 -0.2642 -0.6080
 1036SOL    HW114744   1.297   1.970   5.463 -1.0685  1.2653  1.7975
 1036SOL    HW214745   1.352   2.031   5.344  0.7586  0.0171 -0.0564
 1037SOL     OW14746   3.990   3.405   3.418  0.0600  0.4507  0.2496
 1037SOL    HW114747   4.018   3.362   3.337  2.1827 -2.6159  2.6346
 1037SOL    HW214748   4.039   3.485   3.398  2.7216 -2.2427 -3.9984
 1038SOL     OW14749   3.476   0.210   7.841 -0.4626 -0.4232 -0.1410
 1038SOL    HW114750   3.528   0.215   7.761 -2.3809  3.4044 -1.1370
 1038SOL    HW214751   3.524   0.143   7.889  0.7005  2.3036  2.4774
 1039SOL     OW14752   3.349   4.418   3.874 -0.2511 -0.1237  0.4283
 1039SOL    HW114753   3.385   4.373   3.797 -4.0587  0.4161 -1.7064
 1039SOL    HW214754   3.342   4.346   3.936  0.9599  0.2889  1.0315
 1040SOL     OW14755   2.927   1.758   8.621  0.0224  0.6159  0.0557
 1040SOL    HW114756   2.960   1.837   8.579  1.4721 -0.6565 -1.1737
 1040SOL    HW214757   2.867   1.716   8.560  0.2054 -1.9154  1.6146
 1041SOL     OW14758   1.999   3.361   2.671 -0.4026  0.1713  0.1047
 1041SOL    HW114759   1.952   3.424   2.726 -1.4281 -0.6259  0.1277
 1041SOL    HW214760   2.058   3.320   2.734 -0.8728  0.7281  0.9105
 1042SOL     OW14761   0.790   4.421  12.757  0.1093  0.9392 -0.5363
 1042SOL    HW114762   0.808   4.458  12.844  1.9466  0.0423 -0.5446
 1042SOL    HW214763   0.748   4.342  12.794  2.0926  0.2617  0.2620
 1043SOL     OW14764   1.900   4.323   3.268  0.3014  0.1311  0.7215
 1043SOL    HW114765   1.898   4.325   3.173  1.0616 -2.7998  0.6480
 1043SOL    HW214766   1.976   4.267   3.281  1.3000  0.7442 -2.6055
 1044SOL     OW14767   2.815   1.457   1.341  0.0284 -0.4050 -0.4323
 1044SOL    HW114768   2.742   1.428   1.396 -0.3811  2.9002  0.7437
 1044SOL    HW214769   2.770   1.482   1.260  0.6975 -0.4496 -0.8191
 1045SOL     OW14770   4.036   0.663  11.340 -0.1434 -1.1203  0.1491
 1045SOL    HW114771   4.092   0.676  11.416 -1.9960 -0.0157  1.3105
 1045SOL    HW214772   4.052   0.570  11.324 -1.7077 -1.6126  1.4292
 1046SOL     OW14773   0.183   3.090   3.809 -0.1164  0.4905 -0.4102
 1046SOL    HW114774   0.129   3.167   3.828  2.7003  2.3182  0.2178
 1046SOL    HW214775   0.220   3.086   3.898  0.1682  1.4067 -0.4845
 1047SOL     OW14776   2.186   4.035  10.392 -0.4581  0.9776  0.2120
 1047SOL    HW114777   2.266   3.998  10.429 -2.2269 -1.3457  1.7220
 1047SOL    HW214778   2.202   4.032  10.298 -0.9648 -0.1363  0.1699
 1048SOL     OW14779   2.603   2.909   8.288  0.6695 -0.4527 -0.5069
 1048SOL    HW114780   2.604   2.817   8.264 -0.2811 -0.7071  0.4661
 1048SOL    HW214781   2.666   2.931   8.219  2.5541 -0.7646  1.1021
 1049SOL     OW14782   0.714   4.672  16.544  0.0043 -0.4593 -0.5480
 1049SOL    HW114783   0.647   4.610  16.570  0.2052 -0.4214  0.0652
 1049SOL    HW214784   0.697   0.009  16.602  2.1904  0.7026 -1.3789
 1050SOL     OW14785   0.281   1.744   2.354  0.6385 -0.3107 -0.0832
 1050SOL    HW114786   0.329   1.763   2.273  0.9374 -1.7990 -0.2613
 1050SOL    HW214787   0.349   1.751   2.420 -1.0969  3.0243  1.3218
 1051SOL     OW14788   0.301   0.471   9.973 -0.1130 -0.4748  0.0804
 1051SOL    HW114789   0.255   0.509  10.047 -1.0424  2.1464 -1.8247
 1051SOL    HW214790   0.393   0.478  10.001  0.4812  0.7815 -2.1081
 1052SOL     OW14791   0.483   2.559  11.108 -0.5280 -0.4336  0.0615
 1052SOL    HW114792   0.477   2.486  11.046  2.7314 -1.1847  0.6345
 1052SOL    HW214793   0.418   2.536  11.175 -2.2473  1.6476 -0.8787
 1053SOL     OW14794   1.511   3.133   7.134  0.1407  0.5865 -0.4255
 1053SOL    HW114795   1.465   3.079   7.199  0.5340 -1.6419 -1.9893
 1053SOL    HW214796   1.445   3.170   7.075 -0.5406  2.8380  1.7667
 1054SOL     OW14797   3.084   4.309   6.731  0.4964  0.0962  0.3977
 1054SOL    HW114798   3.124   4.275   6.652 -0.0475 -0.0680  0.1926
 1054SOL    HW214799   3.163   4.346   6.770  0.5752  0.9215 -0.5666
 1055SOL     OW14800   3.052   0.022   9.093 -0.0037 -0.0478 -0.0109
 1055SOL    HW114801   3.086   4.670   9.088  0.4172  0.1250 -0.1573
 1055SOL    HW214802   3.131   0.065   9.126 -2.0806  3.1478  0.7857
 1056SOL     OW14803   1.077   4.553   3.170  0.4925  0.0598  0.3124
 1056SOL    HW114804   1.096   4.572   3.262  0.4036 -2.2422  0.8184
 1056SOL    HW214805   0.983   4.571   3.172  0.6685  0.9665  0.4531
 1057SOL     OW14806   4.374   1.079   6.118  0.2527  0.1049 -0.1397
 1057SOL    HW114807   4.302   1.031   6.079 -1.8348  3.4270 -0.4319
 1057SOL    HW214808   4.335   1.164   6.096 -1.9847 -1.3545 -1.7905
 1058SOL     OW14809   1.223   0.595   3.456  0.6087 -0.0916 -0.1551
 1058SOL    HW114810   1.157   0.526   3.448  1.7929 -0.9032 -2.8235
 1058SOL    HW214811   1.217   0.638   3.371  0.7644 -1.0752 -0.6658
 1059SOL     OW14812   4.622   4.442  13.399  0.2982  0.2405 -0.2238
 1059SOL    HW114813   4.686   4.479  13.337 -0.3339  0.8045 -0.5391
 1059SOL    HW214814   4.680   4.384  13.449 -0.9990 -1.2594 -0.4855
 1060SOL     OW14815   3.298   0.991   9.807  0.0834 -0.7257 -0.1441
 1060SOL    HW114816   3.218   0.944   9.830  0.8375 -2.3708 -0.8805
 1060SOL    HW214817   3.313   1.043   9.886  0.1122 -4.0215  2.0095
 1061SOL     OW14818   4.098   1.534   7.260  0.6571 -0.1241 -0.1960
 1061SOL    HW114819   4.187   1.549   7.228  0.3190 -0.8687 -1.5269
 1061SOL    HW214820   4.111   1.467   7.327 -1.0838  1.1711  1.4456
 1062SOL     OW14821   3.475   2.805  12.732 -0.1796  0.2833 -0.3284
 1062SOL    HW114822   3.565   2.787  12.762 -0.5728  0.0486  0.7310
 1062SOL    HW214823   3.448   2.716  12.710  2.8304 -0.6969 -0.1510
 1063SOL     OW14824   0.671   0.999   0.587  0.4970 -0.1361 -0.0871
 1063SOL    HW114825   0.684   1.079   0.536  1.6855 -0.5530 -0.4398
 1063SOL    HW214826   0.582   1.014   0.618 -0.3556  1.6366 -3.3290
 1064SOL     OW14827   4.487   2.545   2.856 -0.5130  0.0345 -0.5037
 1064SOL    HW114828   4.453   2.456   2.864 -0.3326 -0.2211 -2.5747
 1064SOL    HW214829   4.570   2.548   2.905 -0.3982  1.5472 -0.7768
 1065SOL     OW14830   0.506   0.025   3.105 -0.3477  0.1333 -0.0019
 1065SOL    HW114831   0.447   0.099   3.119 -2.3034 -1.9653  2.9189
 1065SOL    HW214832   0.543   4.736   3.189 -1.7702  1.8563  1.1605
 1066SOL     OW14833   1.032   1.303   3.547  0.0702 -0.3997  0.1033
 1066SOL    HW114834   1.126   1.296   3.563 -0.0406  0.3791  1.0707
 1066SOL    HW214835   1.008   1.395   3.558 -0.5174 -0.6454  0.8173
 1067SOL     OW14836   3.095   3.717   2.872  0.0618  0.2888 -0.1576
 1067SOL    HW114837   3.169   3.751   2.922 -0.4840 -2.4403  2.5220
 1067SOL    HW214838   3.027   3.724   2.939  0.3083 -0.4919  0.1785
 1068SOL     OW14839   2.895   3.678   9.533  0.3078  0.6756  0.3430
 1068SOL    HW114840   2.948   3.753   9.505  0.1066  0.3025 -1.0376
 1068SOL    HW214841   2.827   3.713   9.591 -0.8879 -0.1053 -0.5848
 1069SOL     OW14842   3.623   0.891   2.486 -0.2255 -0.4137  0.1054
 1069SOL    HW114843   3.694   0.956   2.485 -0.5370 -0.1015 -1.1872
 1069SOL    HW214844   3.603   0.879   2.579  1.4593  1.1259  0.6757
 1070SOL     OW14845   3.288   4.218   6.553 -0.5863  0.7831 -0.5337
 1070SOL    HW114846   3.296   4.127   6.582  0.7423  0.9721 -0.3253
 1070SOL    HW214847   3.315   4.222   6.462  0.9866 -0.9969 -0.1533
 1071SOL     OW14848   4.319   4.164   4.815 -0.8481 -0.1530  0.3121
 1071SOL    HW114849   4.395   4.198   4.768 -0.0370 -1.1551  0.9187
 1071SOL    HW214850   4.276   4.240   4.853 -1.9312 -0.6278  0.0493
 1072SOL     OW14851   2.626   0.855   8.573  0.1765  0.2090 -0.0305
 1072SOL    HW114852   2.531   0.859   8.583  0.0396  2.0952 -1.9099
 1072SOL    HW214853   2.635   0.930   8.514 -1.1238  0.2560 -0.1666
 1073SOL     OW14854   0.712   0.138   0.687 -0.2098 -0.0747 -0.0429
 1073SOL    HW114855   0.666   0.057   0.709  0.8308 -0.4838  0.6364
 1073SOL    HW214856   0.800   0.113   0.661 -1.1196 -2.4866 -0.7673
 1074SOL     OW14857   0.705   0.788   0.439  0.2723  0.1043 -0.4663
 1074SOL    HW114858   0.795   0.807   0.413  0.6120 -0.6017  0.2020
 1074SOL    HW214859   0.683   0.867   0.488 -1.5295  0.1452 -1.3318
 1075SOL     OW14860   3.210   0.183   7.323  0.7640 -0.5467 -0.7270
 1075SOL    HW114861   3.293   0.172   7.369  0.3295  0.0391  0.2099
 1075SOL    HW214862   3.239   0.188   7.232  1.4815  0.9622 -0.4157
 1076SOL     OW14863   2.345   4.693  15.639 -0.0996 -0.0983 -0.2390
 1076SOL    HW114864   2.333   4.655  15.553 -1.7403  0.6384 -0.3332
 1076SOL    HW214865   2.255   4.708  15.670  0.0116 -0.5150  0.2810
 1077SOL     OW14866   0.665   2.452   5.990  0.8324  0.3912 -0.3382
 1077SOL    HW114867   0.721   2.529   6.002  2.0624 -0.1034 -3.0408
 1077SOL    HW214868   0.680   2.403   6.071 -0.9893  1.9461  0.9606
 1078SOL     OW14869   1.824   3.399   8.571 -0.3929 -0.2408 -0.4472
 1078SOL    HW114870   1.831   3.309   8.537  0.8000 -0.3816  0.2002
 1078SOL    HW214871   1.738   3.405   8.613 -0.1552 -1.5570  0.2402
 1079SOL     OW14872   1.190   2.019  16.269  0.3919 -0.0014  0.6295
 1079SOL    HW114873   1.233   1.935  16.259 -0.9443 -0.3681 -2.1130
 1079SOL    HW214874   1.137   2.016  16.189  2.7493  0.0043 -0.9184
 1080SOL     OW14875   4.380   1.836  14.709  0.0081  0.1079 -0.2634
 1080SOL    HW114876   4.288   1.813  14.693  0.3906 -0.5657 -1.5120
 1080SOL    HW214877   4.367   1.908  14.771  2.7534 -1.0309  1.6158
 1081SOL     OW14878   3.687   1.953   7.525 -0.9485  0.2903 -0.6382
 1081SOL    HW114879   3.744   2.010   7.577 -1.2785 -0.8015  0.9258
 1081SOL    HW214880   3.603   1.971   7.569 -0.6349  0.1827 -0.0048
 1082SOL     OW14881   0.328   1.166  16.181  0.7753 -0.2555 -0.0788
 1082SOL    HW114882   0.319   1.123  16.266  0.4069 -1.8890 -0.9597
 1082SOL    HW214883   0.324   1.260  16.201 -0.3125 -0.9442  2.9688
 1083SOL     OW14884   1.291   0.300   1.736 -0.6641 -0.3181 -0.1445
 1083SOL    HW114885   1.250   0.336   1.815  0.7277  0.6765  0.1372
 1083SOL    HW214886   1.308   0.209   1.756 -1.0149 -0.1165  1.0333
 1084SOL     OW14887   2.599   3.955  17.741 -0.1373 -0.8260  0.0562
 1084SOL    HW114888   2.591   3.881   0.052  0.2789 -0.2254  0.8476
 1084SOL    HW214889   2.526   3.946  17.680 -0.4622  0.4994  0.2305
 1085SOL     OW14890   3.725   0.191   5.004 -0.6567 -0.2745 -0.2587
 1085SOL    HW114891   3.693   0.127   5.067  2.8468 -0.7101  1.1164
 1085SOL    HW214892   3.730   0.275   5.050 -0.1494  0.8136 -2.2953
 1086SOL     OW14893   2.303   3.008  13.593  0.7177  0.2612 -0.3894
 1086SOL    HW114894   2.333   3.056  13.516 -1.8057 -0.7440 -1.9885
 1086SOL    HW214895   2.213   3.040  13.601  0.8180  0.0469  1.7219
 1087SOL     OW14896   4.064   4.065   1.276 -0.4625 -0.1001  0.4771
 1087SOL    HW114897   3.978   4.079   1.315 -0.8430  2.9824 -1.4621
 1087SOL    HW214898   4.078   4.137   1.214  0.8409 -1.6675 -1.0436
 1088SOL     OW14899   4.167   2.963  10.213 -0.1997  0.0600 -0.4421
 1088SOL    HW114900   4.113   2.885  10.228  2.5100 -2.0328 -1.4421
 1088SOL    HW214901   4.118   3.012  10.148  1.4293 -1.3652 -2.7624
 1089SOL     OW14902   0.027   3.789  12.963 -0.6629 -0.6298  0.0353
 1089SOL    HW114903   0.000   3.797  13.055 -1.0154 -0.8113 -0.0527
 1089SOL    HW214904   0.003   3.865  12.911 -3.1813 -1.7137 -0.3795
 1090SOL     OW14905   1.231   1.737   4.034 -0.0150  0.3018  0.1060
 1090SOL    HW114906   1.202   1.714   3.945  2.2977  0.8869 -0.7879
 1090SOL    HW214907   1.224   1.650   4.071 -0.4894 -0.2275 -1.2111
 1091SOL     OW14908   2.369   0.302   7.413 -0.4765  0.2163  0.2787
 1091SOL    HW114909   2.448   0.331   7.368 -2.1420  0.7512 -2.2484
 1091SOL    HW214910   2.399   0.243   7.483 -1.7177  2.7840  2.9922
 1092SOL     OW14911   0.389   2.766   0.321 -0.3779 -0.5925  0.1508
 1092SOL    HW114912   0.392   2.856   0.354  0.2121 -0.3560 -0.5467
 1092SOL    HW214913   0.446   2.774   0.244 -0.4063 -0.3560  0.1534
 1093SOL     OW14914   1.937   3.884   4.019  0.0711 -0.1928  0.1776
 1093SOL    HW114915   1.866   3.932   3.976 -0.0101 -0.0423  0.4817
 1093SOL    HW214916   1.925   3.922   4.106  0.9029  1.9789 -0.6470
 1094SOL     OW14917   4.151   3.308   3.616 -0.1511  0.3980 -0.2079
 1094SOL    HW114918   4.092   3.331   3.545 -1.1827 -0.3541  0.4123
 1094SOL    HW214919   4.152   3.214   3.599 -2.1647  0.7687 -2.3084
 1095SOL     OW14920   4.182   2.384   2.252 -0.0612 -0.0108 -0.5439
 1095SOL    HW114921   4.101   2.398   2.204  0.3900  1.9608 -0.7095
 1095SOL    HW214922   4.182   2.448   2.323  1.9101 -0.1687 -0.3977
 1096SOL     OW14923   1.409   3.793   6.081 -0.2924  0.1692  0.4605
 1096SOL    HW114924   1.339   3.766   6.022  0.5076  0.1699 -0.4835
 1096SOL    HW214925   1.454   3.710   6.096  1.8618  1.0979 -0.7354
 1097SOL     OW14926   3.403   4.537  11.250  0.1442 -0.3235  0.0280
 1097SOL    HW114927   3.390   4.491  11.333 -3.4049  0.9224  0.1912
 1097SOL    HW214928   3.328   4.597  11.244 -1.0582 -1.7613  0.8854
 1098SOL     OW14929   3.207   2.375   4.088  0.2241  0.2600 -0.0325
 1098SOL    HW114930   3.128   2.323   4.103  0.2554  0.2533  0.1172
 1098SOL    HW214931   3.183   2.446   4.147  0.2945  1.5402 -1.5717
 1099SOL     OW14932   4.319   1.991   1.989 -0.2062  0.1232 -0.1151
 1099SOL    HW114933   4.266   2.040   2.052 -1.9190 -2.1676  0.2264
 1099SOL    HW214934   4.262   1.926   1.947 -0.2406 -0.7967  1.3640
 1100SOL     OW14935   1.638   3.344  13.968 -0.0562  0.1390 -0.0733
 1100SOL    HW114936   1.665   3.314  13.880 -0.4208  1.7212 -0.7274
 1100SOL    HW214937   1.555   3.300  13.985  0.4529 -0.5640  0.5514
 1101SOL     OW14938   4.461   3.252   6.290 -0.2377  0.1268 -0.6954
 1101SOL    HW114939   4.425   3.175   6.333 -0.9424  1.6350  1.4408
 1101SOL    HW214940   4.412   3.324   6.331 -1.0358  0.8523 -2.9517
 1102SOL     OW14941   3.373   3.916   9.530 -0.4783  0.3734  0.0025
 1102SOL    HW114942   3.457   3.879   9.557 -0.7166  0.3734  0.7473
 1102SOL    HW214943   3.395   4.007   9.511 -0.0025  0.3496  0.4361
 1103SOL     OW14944   0.435   0.465   7.951 -0.0839  0.5880  0.1207
 1103SOL    HW114945   0.496   0.468   7.877  0.8503  0.3664  0.8780
 1103SOL    HW214946   0.423   0.371   7.963 -1.9941  0.7880 -0.2583
 1104SOL     OW14947   0.647   2.792  12.926 -0.3394  0.2152  0.3065
 1104SOL    HW114948   0.642   2.815  12.833 -3.4365 -0.9781  0.1500
 1104SOL    HW214949   0.733   2.827  12.948 -1.0998  1.3858  1.4034
 1105SOL     OW14950   0.519   1.189   2.724  0.1019 -0.2594 -0.5075
 1105SOL    HW114951   0.513   1.124   2.794  0.0511  2.2591  1.8388
 1105SOL    HW214952   0.614   1.205   2.718 -0.3499  2.5116 -0.0812
 1106SOL     OW14953   0.273   0.796   2.436 -0.0088  0.0105  0.0996
 1106SOL    HW114954   0.250   0.887   2.453  3.2778  0.7930  0.1844
 1106SOL    HW214955   0.193   0.755   2.471 -1.0377  0.9137 -1.2065
 1107SOL     OW14956   0.015   0.463  13.642  0.1523 -0.1371  0.1029
 1107SOL    HW114957   0.094   0.457  13.697  0.2499 -0.1979 -0.0443
 1107SOL    HW214958   4.714   0.386  13.686 -1.0792  0.9228  0.8762
 1108SOL     OW14959   0.476   1.298   0.297  0.0865  0.1452 -0.0931
 1108SOL    HW114960   0.511   1.386   0.308 -0.0242 -0.0844  2.1788
 1108SOL    HW214961   0.416   1.301   0.372 -0.0956 -2.5660 -0.1308
 1109SOL     OW14962   0.506   3.615   1.363 -0.8872 -0.2022 -0.4015
 1109SOL    HW114963   0.460   3.664   1.432  1.6349  0.1732  1.0124
 1109SOL    HW214964   0.507   3.678   1.291  1.0621  1.1112  0.7483
 1110SOL     OW14965   1.930   2.038   2.449  0.0978  0.0907 -0.5544
 1110SOL    HW114966   1.987   2.111   2.427 -1.7096  1.4376 -0.7540
 1110SOL    HW214967   1.929   1.990   2.366 -2.7732  0.7193 -0.8881
 1111SOL     OW14968   2.898   3.146  10.694  0.3645 -0.3081 -0.5746
 1111SOL    HW114969   2.952   3.160  10.772 -0.1431  1.0076 -0.4510
 1111SOL    HW214970   2.861   3.060  10.710  0.0061 -0.1538 -0.5830
 1112SOL     OW14971   0.805   3.168   1.434  0.4878 -0.3192 -0.3307
 1112SOL    HW114972   0.762   3.112   1.369 -2.4638  1.7103 -0.1444
 1112SOL    HW214973   0.736   3.181   1.500  1.1367 -1.3520  0.5571
 1113SOL     OW14974   1.695   2.855   4.374 -0.2636 -0.5424 -0.6377
 1113SOL    HW114975   1.773   2.909   4.390 -0.5932  0.0354 -0.9700
 1113SOL    HW214976   1.669   2.850   4.466  0.3918 -0.2280 -0.4300
 1114SOL     OW14977   4.608   3.711  17.719 -0.2059 -0.1095  0.3648
 1114SOL    HW114978   4.615   3.616  17.727  2.3609  0.0574  0.0683
 1114SOL    HW214979   4.650   3.734  17.636 -1.5301 -0.6469 -0.4560
 1115SOL     OW14980   4.436   2.087   4.113 -0.4032 -0.4286 -0.3923
 1115SOL    HW114981   4.498   2.150   4.150 -0.6931  0.5109 -1.5133
 1115SOL    HW214982   4.373   2.077   4.185  1.7518 -0.3451  1.4841
 1116SOL     OW14983   3.814   2.125   2.259 -0.2379  0.2299  0.0146
 1116SOL    HW114984   3.811   2.207   2.308 -2.0432  0.5374 -0.6080
 1116SOL    HW214985   3.843   2.153   2.173 -0.9486 -0.1619 -0.3550
 1117SOL     OW14986   1.076   0.820   9.564 -0.3136  0.5502  0.3887
 1117SOL    HW114987   1.107   0.855   9.481 -0.7040  0.7410  0.3220
 1117SOL    HW214988   1.002   0.771   9.528 -0.5802  0.5985  0.8696
 1118SOL     OW14989   0.660   0.361   6.831 -0.0008 -0.1978  0.3127
 1118SOL    HW114990   0.660   0.383   6.924 -1.8080  1.0107  0.0202
 1118SOL    HW214991   0.569   0.378   6.807  0.9927  0.3841 -2.9789
 1119SOL     OW14992   0.487   1.466   7.224  0.0743 -0.1010 -0.2123
 1119SOL    HW114993   0.435   1.500   7.152  0.4085  0.3946 -0.2190
 1119SOL    HW214994   0.559   1.528   7.230  0.3511 -0.3088 -1.3791
 1120SOL     OW14995   4.103   0.385   4.132  0.0524  0.0785 -0.5199
 1120SOL    HW114996   4.117   0.479   4.143  1.0842 -0.3471  1.9721
 1120SOL    HW214997   4.025   0.365   4.184 -0.7171  0.5486 -1.5273
 1121SOL     OW14998   2.906   2.526   4.036 -0.2691 -0.4147  0.0490
 1121SOL    HW114999   2.872   2.474   4.109 -0.1939 -0.0286  0.3562
 1121SOL    HW215000   2.844   2.514   3.964  0.7564 -0.2001 -0.8698
 1122SOL     OW15001   3.541   2.799   4.590 -0.2434 -0.0789  0.7094
 1122SOL    HW115002   3.591   2.772   4.513 -0.7549  1.7211 -0.2643
 1122SOL    HW215003   3.516   2.715   4.628  2.0770 -1.3549 -0.5950
 1123SOL     OW15004   2.647   1.746   4.143  0.1187 -0.0414  0.4994
 1123SOL    HW115005   2.621   1.821   4.196 -1.0198  0.2535 -0.4847
 1123SOL    HW215006   2.563   1.700   4.136 -0.8966  1.9202  0.0003
 1124SOL     OW15007   2.141   0.022   8.665  0.3622  0.6280 -0.7484
 1124SOL    HW115008   2.175   4.674   8.641  0.1098  0.3797 -0.2039
 1124SOL    HW215009   2.095   0.051   8.587  0.6827  1.0502 -0.7817
 1125SOL     OW15010   1.981   1.205  10.864  0.0238  0.1748 -0.0700
 1125SOL    HW115011   1.938   1.278  10.908  0.3894 -0.1425  0.8179
 1125SOL    HW215012   2.070   1.215  10.898 -0.3234 -1.5730  1.3316
 1126SOL     OW15013   4.150   2.136   8.690 -0.4395  0.1862  0.2266
 1126SOL    HW115014   4.106   2.202   8.636  2.1321  0.9830 -0.9445
 1126SOL    HW215015   4.179   2.080   8.618 -3.0213 -1.9590  0.8550
 1127SOL     OW15016   3.703   0.524  13.390  0.0673  0.3083  0.1031
 1127SOL    HW115017   3.767   0.569  13.445 -0.0258 -0.5125  0.8829
 1127SOL    HW215018   3.638   0.593  13.379 -0.1127  0.1948  0.4313
 1128SOL     OW15019   3.450   1.612   6.957 -0.3247  0.1795 -0.1678
 1128SOL    HW115020   3.509   1.647   6.890  0.3404 -0.6925 -0.0330
 1128SOL    HW215021   3.500   1.654   7.028  0.6753 -0.6533 -0.3781
 1129SOL     OW15022   2.412   4.343   8.898  0.4101 -0.0907  0.6293
 1129SOL    HW115023   2.449   4.383   8.819  0.0961 -0.1077  0.4763
 1129SOL    HW215024   2.452   4.405   8.959 -0.3367  2.8099 -1.8318
 1130SOL     OW15025   1.866   2.603   3.728 -0.8528 -0.1348  0.1921
 1130SOL    HW115026   1.871   2.545   3.804 -1.5710  0.3054  0.5689
 1130SOL    HW215027   1.864   2.686   3.774 -2.0105 -0.7903  1.3314
 1131SOL     OW15028   0.787   1.111   4.002  0.1124 -0.0213  0.2477
 1131SOL    HW115029   0.850   1.040   4.014  0.3534  0.3119  0.9484
 1131SOL    HW215030   0.799   1.150   3.915  0.3482 -1.5554 -0.4191
 1132SOL     OW15031   2.542   0.045  13.281  0.4297  0.1262  0.2130
 1132SOL    HW115032   2.520   0.004  13.197 -0.5275  1.6435 -0.2708
 1132SOL    HW215033   2.491   0.125  13.269 -0.0619 -0.2517 -0.2448
 1133SOL     OW15034   1.264   2.562  13.076 -0.4700  0.8690 -0.3437
 1133SOL    HW115035   1.178   2.594  13.051 -0.7434  0.9815  0.7725
 1133SOL    HW215036   1.258   2.471  13.048  0.1175  0.9556 -0.7650
 1134SOL     OW15037   4.639   1.486   8.849  0.0921  0.0484  0.2771
 1134SOL    HW115038   4.553   1.507   8.810 -0.1162 -1.0191  0.1696
 1134SOL    HW215039   4.650   1.569   8.895  0.5955 -0.2931  0.7644
 1135SOL     OW15040   1.893   0.614   9.141  0.1732 -0.0006 -1.1976
 1135SOL    HW115041   1.986   0.629   9.156 -0.1573 -1.2654  1.8985
 1135SOL    HW215042   1.886   0.682   9.073 -1.2143 -1.2185 -2.2763
 1136SOL     OW15043   0.699   0.893   5.911  0.5706  0.1782  0.2692
 1136SOL    HW115044   0.784   0.856   5.935  0.6305  0.9981  1.3706
 1136SOL    HW215045   0.659   0.860   5.992 -1.0601 -2.2896 -1.5409
 1137SOL     OW15046   4.671   0.457  15.611 -0.6463  0.6074 -0.1199
 1137SOL    HW115047   4.702   0.522  15.548 -1.2813  1.6988  0.6934
 1137SOL    HW215048   4.647   0.517  15.682  5.0911 -0.1289  2.4612
 1138SOL     OW15049   2.391   2.969   9.143  0.6294  0.0306 -0.1837
 1138SOL    HW115050   2.324   2.970   9.075  2.1314 -3.3535 -1.7176
 1138SOL    HW215051   2.334   2.942   9.215  0.8931  0.0917  0.0493
 1139SOL     OW15052   2.710   0.716   2.095  0.3868 -0.0837 -0.1386
 1139SOL    HW115053   2.675   0.627   2.100  0.2205 -0.0565 -0.8355
 1139SOL    HW215054   2.711   0.730   2.001  0.6173  0.5079 -0.0468
 1140SOL     OW15055   2.768   1.346   8.705 -0.0720 -0.4484  0.6312
 1140SOL    HW115056   2.719   1.313   8.781 -2.5900  1.8447  0.0221
 1140SOL    HW215057   2.853   1.322   8.742  0.6542 -1.0360 -1.4760
 1141SOL     OW15058   0.629   3.067  16.970  0.0149 -0.1145 -0.5932
 1141SOL    HW115059   0.618   3.009  17.045 -1.1275  1.3712  0.3989
 1141SOL    HW215060   0.595   3.014  16.898 -1.1787 -0.6109  0.3314
 1142SOL     OW15061   1.824   1.878   4.385 -0.3005 -0.1716  0.2606
 1142SOL    HW115062   1.733   1.879   4.356  0.0083 -1.4682 -0.7361
 1142SOL    HW215063   1.871   1.844   4.309 -1.2994  1.0651 -0.9219
 1143SOL     OW15064   3.595   1.895   5.291 -0.8822 -0.3259 -0.3167
 1143SOL    HW115065   3.613   1.971   5.346 -2.1400  0.8245 -1.4979
 1143SOL    HW215066   3.647   1.823   5.326  0.1812  0.2471 -0.7148
 1144SOL     OW15067   4.095   0.760   8.370  0.0290  0.0452  0.1338
 1144SOL    HW115068   4.078   0.815   8.446  1.1670 -0.0151  0.4207
 1144SOL    HW215069   4.097   0.675   8.414 -2.6322  0.1264  0.4521
 1145SOL     OW15070   4.352   2.575   8.654  0.1423  0.6293  0.3255
 1145SOL    HW115071   4.282   2.568   8.719  1.0027 -2.6957  0.8992
 1145SOL    HW215072   4.303   2.624   8.588  1.3327  1.3701 -0.0136
 1146SOL     OW15073   3.418   4.524   9.193  0.3695  0.2807 -0.5473
 1146SOL    HW115074   3.473   4.570   9.130 -1.1850  1.8341 -0.7473
 1146SOL    HW215075   3.443   4.565   9.276  1.7988 -0.2763 -0.6978
 1147SOL     OW15076   2.795   4.514  12.995 -0.1684  0.4959 -0.7150
 1147SOL    HW115077   2.787   4.522  13.090 -1.0914  3.0345 -1.0210
 1147SOL    HW215078   2.738   4.440  12.975  0.6696 -0.6226  0.9999
 1148SOL     OW15079   1.606   0.714  10.563 -0.2652  0.4813 -0.3205
 1148SOL    HW115080   1.603   0.663  10.644  0.5274 -0.0978 -0.6538
 1148SOL    HW215081   1.539   0.780  10.577  0.6106  1.9144 -2.7773
 1149SOL     OW15082   4.002   1.035   4.210 -0.4812  0.5429 -0.0875
 1149SOL    HW115083   3.959   0.965   4.260 -1.0668  2.0787  1.5307
 1149SOL    HW215084   4.097   1.022   4.219 -0.8000 -1.0840  1.0391
 1150SOL     OW15085   3.418   1.924  17.604  0.3686  0.0657  0.1688
 1150SOL    HW115086   3.328   1.910  17.631  1.2724  2.4359  4.3276
 1150SOL    HW215087   3.455   1.899  17.688 -1.4398  0.5650  1.1131
 1151SOL     OW15088   0.616   1.679   7.533 -0.2468 -0.4025  0.2049
 1151SOL    HW115089   0.568   1.761   7.547 -1.3410 -0.8509 -0.9337
 1151SOL    HW215090   0.556   1.635   7.473 -0.4032  0.9468 -0.6169
 1152SOL     OW15091   0.939   3.136   8.037 -0.2870  0.3137  0.7351
 1152SOL    HW115092   1.017   3.139   8.092 -0.0877 -1.3181  0.5543
 1152SOL    HW215093   0.954   3.048   8.002 -0.0244  0.7481 -0.2339
 1153SOL     OW15094   3.392   0.628  15.933  0.5647  0.2656  0.0599
 1153SOL    HW115095   3.446   0.695  15.974  2.5840 -2.0787  1.2277
 1153SOL    HW215096   3.442   0.548  15.950  1.7595  1.0022 -0.0028
 1154SOL     OW15097   3.127   3.758  13.197 -0.5608  0.0885  0.6006
 1154SOL    HW115098   3.094   3.793  13.280 -0.5308  4.4216 -1.2184
 1154SOL    HW215099   3.197   3.699  13.226 -1.3882 -0.0625  2.3072
 1155SOL     OW15100   4.460   4.126   5.970 -0.6786  0.2374  0.2405
 1155SOL    HW115101   4.412   4.189   5.915 -0.0518  0.4005 -0.1136
 1155SOL    HW215102   4.542   4.173   5.983 -1.5602  2.1231 -0.8139
 1156SOL     OW15103   1.095   4.308   3.553  0.7114 -0.2655 -0.2326
 1156SOL    HW115104   1.000   4.316   3.547  0.6937 -0.2630  0.0324
 1156SOL    HW215105   1.095   4.219   3.588  1.0648 -1.3348 -2.9375
 1157SOL     OW15106   4.081   3.615  16.117  0.8404  0.4155  0.6132
 1157SOL    HW115107   4.039   3.701  16.107  0.4545  0.1613  0.0881
 1157SOL    HW215108   4.116   3.609  16.029  1.6359 -3.2080  1.1700
 1158SOL     OW15109   2.530   4.258   0.959 -0.3278  0.2454 -0.2166
 1158SOL    HW115110   2.472   4.186   0.984 -0.7557  0.4698 -0.5717
 1158SOL    HW215111   2.486   4.294   0.882 -2.6605 -0.4326  0.8231
 1159SOL     OW15112   0.244   3.256   5.091  0.7288  0.2338 -0.5879
 1159SOL    HW115113   0.150   3.242   5.086  0.7811  0.4164 -2.0600
 1159SOL    HW215114   0.246   3.318   5.164  0.0389 -0.4409  0.0096
 1160SOL     OW15115   1.849   2.796   8.412  0.3772 -0.2338 -0.5585
 1160SOL    HW115116   1.762   2.830   8.390 -1.0262 -3.8200 -0.5676
 1160SOL    HW215117   1.872   2.845   8.491 -0.8845 -0.4611 -0.0500
 1161SOL     OW15118   0.866   0.988   4.381 -0.1533  0.0530  0.0395
 1161SOL    HW115119   0.849   0.899   4.413 -1.1624 -0.0095 -0.6853
 1161SOL    HW215120   0.927   1.017   4.449  1.5958 -0.2080 -1.4236
 1162SOL     OW15121   2.058   3.486  11.750  0.3264 -0.3198 -0.3484
 1162SOL    HW115122   2.115   3.452  11.819 -0.2818  1.2361  0.9087
 1162SOL    HW215123   1.978   3.437  11.768 -0.0673  0.9122  1.2432
 1163SOL     OW15124   0.258   4.224   2.970  0.1059  0.0170 -0.7530
 1163SOL    HW115125   0.169   4.189   2.979  0.5473 -0.8235  0.3322
 1163SOL    HW215126   0.273   4.276   3.049  1.1439  0.5490 -1.3003
 1164SOL     OW15127   4.642   1.788  10.277  0.4029 -0.4399  0.5068
 1164SOL    HW115128   4.689   1.836  10.209 -0.0271 -0.9878 -0.1820
 1164SOL    HW215129   4.706   1.720  10.298  0.6339 -0.6000 -0.6771
 1165SOL     OW15130   0.366   2.281   7.094  0.3681  0.3739 -0.0012
 1165SOL    HW115131   0.419   2.322   7.025  0.5335  1.0082  0.5059
 1165SOL    HW215132   0.346   2.356   7.149 -0.6113 -0.2078  0.4380
 1166SOL     OW15133   3.348   2.023   7.716 -0.1061  0.4905 -0.3168
 1166SOL    HW115134   3.294   2.089   7.760 -1.0998 -0.4203 -0.1758
 1166SOL    HW215135   3.439   2.047   7.734  0.0717 -1.0504  0.7557
 1167SOL     OW15136   1.429   0.180  16.021 -0.3053 -0.1028  0.6758
 1167SOL    HW115137   1.466   0.141  15.942 -0.5082  2.7878 -0.8199
 1167SOL    HW215138   1.498   0.243  16.039  0.2994 -0.4956 -0.2986
 1168SOL     OW15139   3.188   0.357   1.929  0.3138 -0.1145  0.3817
 1168SOL    HW115140   3.203   0.439   1.881  2.2391 -0.7422 -0.0878
 1168SOL    HW215141   3.134   0.302   1.872 -1.7106  1.4418  0.7862
 1169SOL     OW15142   1.107   1.687  15.344 -0.3890  0.0824 -0.4354
 1169SOL    HW115143   1.051   1.749  15.391  1.5754  0.6404  1.1677
 1169SOL    HW215144   1.118   1.744  15.268  0.9799 -0.6121 -0.7539
 1170SOL     OW15145   4.339   0.989   0.589 -0.0993  0.2159 -0.0969
 1170SOL    HW115146   4.259   0.937   0.596  0.4210 -0.6728 -0.7857
 1170SOL    HW215147   4.404   0.920   0.605  1.6112  1.7184 -0.4667
 1171SOL     OW15148   1.086   0.371   7.398  0.1737 -0.0762 -0.1268
 1171SOL    HW115149   1.153   0.438   7.412  0.6509 -0.8965  1.4605
 1171SOL    HW215150   1.108   0.302   7.460  1.0011  0.7602  0.5099
 1172SOL     OW15151   0.903   2.656   2.672 -0.4712  0.2196 -0.0287
 1172SOL    HW115152   0.823   2.677   2.720  0.3672 -1.1046  1.9800
 1172SOL    HW215153   0.956   2.605   2.734 -0.6677 -1.7146 -1.4556
 1173SOL     OW15154   4.170   1.993   5.662  0.3621 -0.0491  0.1240
 1173SOL    HW115155   4.136   1.914   5.620 -1.6000 -0.3016  2.1692
 1173SOL    HW215156   4.263   1.979   5.643  0.9644 -0.3030  3.1576
 1174SOL     OW15157   2.002   0.342   8.313 -0.5140  0.4452 -0.0431
 1174SOL    HW115158   2.085   0.388   8.304 -0.5003  0.4788  0.2737
 1174SOL    HW215159   1.965   0.400   8.379  1.6071  0.9330  0.7170
 1175SOL     OW15160   3.535   2.382   7.513 -0.0900 -0.2020  0.0804
 1175SOL    HW115161   3.440   2.377   7.508 -0.0730  0.0991 -0.6081
 1175SOL    HW215162   3.564   2.301   7.471  2.4441  2.0766 -2.6044
 1176SOL     OW15163   0.594   3.019   4.468 -0.4633 -0.1052  0.4100
 1176SOL    HW115164   0.617   3.073   4.543  1.1812 -0.9002  0.4766
 1176SOL    HW215165   0.503   3.003   4.492 -0.2006  0.3531  1.7214
 1177SOL     OW15166   1.998   4.301   4.605 -0.1402 -0.3958 -0.2442
 1177SOL    HW115167   1.974   4.320   4.695  0.8382  1.1594 -0.3086
 1177SOL    HW215168   2.080   4.349   4.594  0.2785 -1.2604 -0.9541
 1178SOL     OW15169   4.582   2.370  16.293  0.1110  0.1737  0.5243
 1178SOL    HW115170   4.511   2.379  16.229 -0.7618 -2.1312  1.1522
 1178SOL    HW215171   4.533   2.338  16.369  0.5982 -0.5174  0.5423
 1179SOL     OW15172   0.153   0.923   4.993 -0.5565  0.2263 -0.0134
 1179SOL    HW115173   0.235   0.944   5.038 -0.1011  0.7782 -1.0904
 1179SOL    HW215174   0.081   0.957   5.045  0.9367 -0.2447  2.3587
 1180SOL     OW15175   3.358   1.318   1.293 -0.3509  0.1200  0.7470
 1180SOL    HW115176   3.432   1.368   1.327 -0.1125 -1.1014  2.0474
 1180SOL    HW215177   3.297   1.389   1.279  0.0624 -0.4250 -3.7282
 1181SOL     OW15178   0.291   1.138   4.837  0.4258  0.0165  0.4367
 1181SOL    HW115179   0.202   1.112   4.863  0.3413 -2.3201 -2.2242
 1181SOL    HW215180   0.317   1.078   4.767 -2.5181  1.8862 -2.2900
 1182SOL     OW15181   2.158   0.907   3.488  0.5156  0.0832  0.1450
 1182SOL    HW115182   2.222   0.975   3.507 -1.4495  1.9013  0.3204
 1182SOL    HW215183   2.213   0.830   3.472  0.2158  0.1435 -1.1738
 1183SOL     OW15184   0.853   0.664   7.934 -0.3499  0.3202 -0.0242
 1183SOL    HW115185   0.944   0.635   7.924 -0.0252  1.2470  0.2411
 1183SOL    HW215186   0.821   0.615   8.010 -1.4672  2.1597  0.6929
 1184SOL     OW15187   2.423   2.661   5.373 -0.1002  0.2669 -0.1512
 1184SOL    HW115188   2.460   2.749   5.365 -0.0907  0.2216 -0.5894
 1184SOL    HW215189   2.452   2.635   5.285  1.5697  0.6483  0.2759
 1185SOL     OW15190   0.330   3.786   2.339  0.5362  0.4612  0.4272
 1185SOL    HW115191   0.400   3.846   2.366  0.5898  1.3325 -1.6009
 1185SOL    HW215192   0.297   3.836   2.264 -1.4799 -0.6144  0.6103
 1186SOL     OW15193   0.033   1.811   5.303  0.0676  0.7131  0.1938
 1186SOL    HW115194   0.117   1.854   5.291 -0.0504  0.8220 -0.2518
 1186SOL    HW215195   0.053   1.761   5.382  0.6612 -0.5793 -0.7697
 1187SOL     OW15196   1.443   3.055   1.410 -0.0596  0.3312 -0.8646
 1187SOL    HW115197   1.405   3.142   1.405  1.3695  0.9900 -0.3360
 1187SOL    HW215198   1.536   3.076   1.400  0.1327 -0.2860 -0.4049
 1188SOL     OW15199   2.381   3.067   3.279  0.2801 -0.0887  0.6240
 1188SOL    HW115200   2.385   3.132   3.350 -1.2992  0.7736 -0.0623
 1188SOL    HW215201   2.334   3.126   3.220 -2.0501 -4.0030 -1.4088
 1189SOL     OW15202   2.658   2.284   1.258  0.2764 -0.2505 -0.3747
 1189SOL    HW115203   2.627   2.247   1.175 -2.2343 -0.3821  0.6231
 1189SOL    HW215204   2.576   2.304   1.303 -0.4546 -2.5657 -0.6650
 1190SOL     OW15205   4.165   3.862   2.000 -0.2920 -0.2640  0.0567
 1190SOL    HW115206   4.229   3.795   2.025  2.2037  1.4526 -1.6779
 1190SOL    HW215207   4.160   3.913   2.081 -1.7335  1.6703 -1.2341
 1191SOL     OW15208   0.931   2.128   2.244 -0.5733 -0.1664  0.1446
 1191SOL    HW115209   0.978   2.210   2.232 -3.4868  1.2326 -1.7860
 1191SOL    HW215210   0.943   2.079   2.162  0.6641 -0.1965  0.3525
 1192SOL     OW15211   4.316   1.677   7.146 -0.3805  0.4136 -0.1596
 1192SOL    HW115212   4.302   1.751   7.088 -0.6692 -0.3939 -1.1231
 1192SOL    HW215213   4.410   1.681   7.160  0.2986  0.5234 -4.6597
 1193SOL     OW15214   3.733   0.559  12.198  0.2874 -0.1445  0.1495
 1193SOL    HW115215   3.793   0.541  12.271 -0.3864 -0.8842  0.5185
 1193SOL    HW215216   3.732   0.655  12.193 -1.5940 -0.1713  0.2680
 1194SOL     OW15217   2.638   0.798   4.202 -0.2230  0.8076  0.4170
 1194SOL    HW115218   2.544   0.814   4.200 -0.5151 -0.8918  0.3423
 1194SOL    HW215219   2.667   0.837   4.284 -0.8825 -1.4614  1.7153
 1195SOL     OW15220   1.131   0.983   9.252  0.3469  0.0080  0.4566
 1195SOL    HW115221   1.123   1.073   9.219  0.5454 -0.0844  0.1579
 1195SOL    HW215222   1.223   0.971   9.228 -0.2391 -0.7090 -1.4204
 1196SOL     OW15223   1.356   4.576   9.486  0.5279  0.0395 -0.6179
 1196SOL    HW115224   1.391   4.615   9.566  1.5255 -1.3655 -0.3642
 1196SOL    HW215225   1.327   4.491   9.518 -1.1930  0.6503 -0.5448
 1197SOL     OW15226   3.019   2.794   6.460 -0.1724 -1.0378  0.3050
 1197SOL    HW115227   3.003   2.869   6.518  0.1652 -0.9791  0.3202
 1197SOL    HW215228   2.932   2.754   6.454 -1.0638  1.0436 -0.7869
 1198SOL     OW15229   3.916   2.748   3.810  0.7068  0.2458  0.1153
 1198SOL    HW115230   3.978   2.817   3.833  2.3775 -1.4367  0.6947
 1198SOL    HW215231   3.956   2.675   3.857  0.0693  0.2501  0.6590
 1199SOL     OW15232   4.386   0.306   2.644  0.4442 -0.3643  1.4179
 1199SOL    HW115233   4.349   0.236   2.589 -0.1244  0.6163  0.5604
 1199SOL    HW215234   4.478   0.284   2.653 -0.0461 -2.3751  1.6893
 1200SOL     OW15235   3.641   3.842   5.768 -0.4629  0.0435 -0.0653
 1200SOL    HW115236   3.691   3.818   5.691  0.1189  0.5957  0.1454
 1200SOL    HW215237   3.555   3.804   5.748 -0.4268  0.1072 -0.3324
 1201SOL     OW15238   3.631   1.339   9.325 -0.2835 -0.1890  0.1860
 1201SOL    HW115239   3.662   1.418   9.281  0.9712  0.0683  1.4977
 1201SOL    HW215240   3.626   1.276   9.254 -2.5022  1.6436 -1.2685
 1202SOL     OW15241   3.799   3.773   8.683 -0.0938  0.0941  0.6272
 1202SOL    HW115242   3.894   3.760   8.684 -0.2313 -1.1770 -1.5300
 1202SOL    HW215243   3.791   3.831   8.758 -1.4029 -1.9573  2.0464
 1203SOL     OW15244   2.472   3.809   7.376 -0.3501  0.3395  0.2555
 1203SOL    HW115245   2.553   3.801   7.326 -0.6836 -0.2572 -0.1985
 1203SOL    HW215246   2.471   3.905   7.379  2.2136  0.3316  0.7954
 1204SOL     OW15247   3.386   4.232   4.064  0.1176 -0.1844  0.0284
 1204SOL    HW115248   3.457   4.167   4.060  0.1919 -0.1533  0.7114
 1204SOL    HW215249   3.311   4.184   4.099 -1.4284  1.4426 -1.0795
 1205SOL     OW15250   4.569   4.502   9.057  0.0310 -0.0564 -0.1078
 1205SOL    HW115251   4.641   4.525   9.116 -0.2645  1.2005 -0.2201
 1205SOL    HW215252   4.597   4.415   9.029  1.5670 -0.0391  1.3582
 1206SOL     OW15253   1.889   0.800  10.214  0.1850  0.2535  0.1894
 1206SOL    HW115254   1.909   0.839  10.299 -2.8770  0.4292  0.8390
 1206SOL    HW215255   1.811   0.749  10.236 -0.8881  1.8761  0.1091
 1207SOL     OW15256   2.978   1.982   8.439  0.1501  0.1427 -0.1027
 1207SOL    HW115257   2.898   1.957   8.392 -0.2044  0.4966  0.3094
 1207SOL    HW215258   2.960   2.076   8.449 -0.8870  0.1204 -1.6668
 1208SOL     OW15259   0.219   4.413   3.981  0.2238 -0.0791 -0.3939
 1208SOL    HW115260   0.311   4.434   3.998  0.3489  0.8135 -2.1927
 1208SOL    HW215261   0.174   4.474   4.040 -0.3498  1.0125 -1.9728
 1209SOL     OW15262   4.539   3.124   7.259 -0.3482 -0.2819 -0.4251
 1209SOL    HW115263   4.483   3.151   7.331 -0.9705  2.2145 -1.8491
 1209SOL    HW215264   4.629   3.154   7.273 -0.5161  0.4169 -0.8745
 1210SOL     OW15265   2.686   2.994   2.994  0.0702 -0.7988  0.3556
 1210SOL    HW115266   2.671   2.924   2.931 -3.1866  0.6840 -0.4940
 1210SOL    HW215267   2.649   3.071   2.951  0.4339  0.0445  1.5480
 1211SOL     OW15268   2.422   4.350   3.074 -0.5096 -0.0155 -0.0256
 1211SOL    HW115269   2.512   4.377   3.096 -0.7204  0.2019  0.5717
 1211SOL    HW215270   2.419   4.360   2.979  1.3681 -0.7598 -0.1715
 1212SOL     OW15271   0.282   1.247   5.505 -0.0882 -0.2000  0.0396
 1212SOL    HW115272   0.299   1.156   5.480 -0.5111 -0.0723 -0.7218
 1212SOL    HW215273   0.361   1.272   5.553 -0.6862  0.4914  0.6601
 1213SOL     OW15274   2.573   0.588  11.073 -0.3886 -0.8644  0.5433
 1213SOL    HW115275   2.510   0.529  11.114 -0.4479  0.0153  1.7044
 1213SOL    HW215276   2.634   0.610  11.143  3.2006  0.0499 -2.8684
 1214SOL     OW15277   3.436   4.271   8.875  0.6837 -0.0866  0.1113
 1214SOL    HW115278   3.503   4.339   8.869  1.4242 -0.8883 -0.8647
 1214SOL    HW215279   3.418   4.266   8.781  0.7625 -1.2410  0.1548
 1215SOL     OW15280   1.495   0.555   3.742  0.0202  0.6638  0.3531
 1215SOL    HW115281   1.588   0.574   3.740  0.3728 -1.1371  0.0334
 1215SOL    HW215282   1.482   0.532   3.833 -0.9307 -1.3302 -0.2901
 1216SOL     OW15283   0.941   2.844   5.830  0.0611 -0.1177  0.3341
 1216SOL    HW115284   0.892   2.847   5.912  1.5509  0.6886  1.1973
 1216SOL    HW215285   0.889   2.783   5.777 -0.8994  1.4393 -0.5012
 1217SOL     OW15286   1.535   4.284   3.730 -0.2742  0.4238  0.3990
 1217SOL    HW115287   1.589   4.289   3.808 -0.9385  1.0881  0.8137
 1217SOL    HW215288   1.593   4.330   3.668  0.0826  2.1709  2.0042
 1218SOL     OW15289   0.013   0.543   3.190  0.0332  0.6052  0.2232
 1218SOL    HW115290   0.039   0.624   3.144 -0.5045  0.3139 -0.6072
 1218SOL    HW215291   0.023   0.574   3.280  1.2419  1.2320 -0.1337
 1219SOL     OW15292   3.516   2.280  13.332  0.2272 -0.4164 -0.1999
 1219SOL    HW115293   3.519   2.248  13.242 -0.8612 -1.8043  0.2612
 1219SOL    HW215294   3.602   2.264  13.371 -1.3398  0.3739  3.6755
 1220SOL     OW15295   2.326   2.068   4.698  0.1447  0.0970 -0.0983
 1220SOL    HW115296   2.383   1.991   4.688 -2.0855 -1.4373 -1.0703
 1220SOL    HW215297   2.266   2.039   4.767 -1.1492  0.6979 -0.9642
 1221SOL     OW15298   3.605   1.452   1.405  0.2864  0.0306  0.2238
 1221SOL    HW115299   3.691   1.493   1.397 -0.8539  2.6641  1.5897
 1221SOL    HW215300   3.636   1.370   1.443 -2.3665 -0.8312  0.5340
 1222SOL     OW15301   2.042   2.830  11.744 -0.7093  0.1543 -0.1450
 1222SOL    HW115302   1.978   2.898  11.722  0.3971  0.7397 -1.5849
 1222SOL    HW215303   2.043   2.829  11.839 -2.6983 -0.0172 -0.1275
 1223SOL     OW15304   2.817   4.214   9.136 -0.0075 -0.0104  0.0519
 1223SOL    HW115305   2.804   4.273   9.210 -0.1048 -0.6348  0.5309
 1223SOL    HW215306   2.726   4.197   9.111  0.5327  0.8065 -2.4487
 1224SOL     OW15307   0.193   3.424   7.946  0.6509  0.2474 -0.0800
 1224SOL    HW115308   0.221   3.354   8.004  1.9447  0.6941 -0.1757
 1224SOL    HW215309   0.206   3.506   7.994 -2.3285  0.3971  0.4608
 1225SOL     OW15310   4.202   2.549   0.819  0.0169 -0.4841 -0.1834
 1225SOL    HW115311   4.286   2.504   0.829 -0.3520 -0.5773  2.6245
 1225SOL    HW215312   4.154   2.518   0.896  0.0802  1.0594  0.4905
 1226SOL     OW15313   2.982   2.937   7.091  0.9873  0.2777 -1.1040
 1226SOL    HW115314   2.907   2.879   7.102 -1.2634  3.2054 -0.8804
 1226SOL    HW215315   3.046   2.894   7.148  1.3346  0.0138 -1.6880
 1227SOL     OW15316   0.082   1.667   5.542 -0.0630 -0.3994  0.5900
 1227SOL    HW115317   0.064   1.578   5.511  1.6372 -0.1123 -1.2453
 1227SOL    HW215318   0.175   1.672   5.562 -0.1850  0.7901  0.8618
 1228SOL     OW15319   4.366   0.816  16.742  0.7054 -0.0050 -0.1411
 1228SOL    HW115320   4.430   0.826  16.672 -0.1642 -0.6745 -1.0478
 1228SOL    HW215321   4.318   0.737  16.715  0.8209 -0.0612 -0.1804
 1229SOL     OW15322   2.934   3.274  12.562  0.6814 -0.3845 -0.2944
 1229SOL    HW115323   2.856   3.322  12.592  1.6169 -0.4097  2.1484
 1229SOL    HW215324   2.978   3.269  12.646 -0.4558  0.4422  0.3578
 1230SOL     OW15325   1.798   0.000   5.786 -0.1201 -0.4505  0.1002
 1230SOL    HW115326   1.739   4.710   5.716  0.3724 -2.3763  0.4585
 1230SOL    HW215327   1.791   4.673   5.856  0.7085 -0.1570  0.4472
 1231SOL     OW15328   4.155   4.470   3.294 -0.3146 -0.7698  0.4119
 1231SOL    HW115329   4.247   4.442   3.289 -0.6314 -1.7179 -0.1935
 1231SOL    HW215330   4.148   4.456   3.389  0.2631 -2.1090  0.2698
 1232SOL     OW15331   3.259   1.375   6.926 -0.2699  0.4068  0.3867
 1232SOL    HW115332   3.271   1.326   7.008  2.1059 -0.7993 -0.6952
 1232SOL    HW215333   3.325   1.443   6.926  3.1444 -2.9428  2.0263
 1233SOL     OW15334   0.603   1.529  13.503  0.6265 -0.1381 -0.1138
 1233SOL    HW115335   0.646   1.596  13.450  0.7212  0.4097  0.6480
 1233SOL    HW215336   0.661   1.453  13.493 -0.0148 -0.4737 -1.2342
 1234SOL     OW15337   2.739   3.683  17.549 -0.1099  0.7216 -0.7657
 1234SOL    HW115338   2.818   3.640  17.583 -0.8953 -0.7993 -0.8636
 1234SOL    HW215339   2.676   3.652  17.615 -0.2195  1.2990 -0.5989
 1235SOL     OW15340   4.604   3.381   0.828  0.2980  0.2902  0.2364
 1235SOL    HW115341   4.559   3.300   0.805  1.2973 -0.5985  1.3616
 1235SOL    HW215342   4.561   3.435   0.762  0.9454 -1.2642 -1.4395
 1236SOL     OW15343   2.933   3.009   8.483 -0.3527 -0.1879 -0.3903
 1236SOL    HW115344   3.028   2.999   8.473 -0.1725  1.9754 -0.9602
 1236SOL    HW215345   2.903   2.920   8.467  0.3880 -0.4014 -0.5847
 1237SOL     OW15346   0.871   1.126   2.225 -0.4732  0.3813 -0.1668
 1237SOL    HW115347   0.839   1.216   2.212  0.0616  0.9022  2.0871
 1237SOL    HW215348   0.795   1.072   2.205  1.2450 -2.4070  0.8480
 1238SOL     OW15349   3.391   4.396   8.395 -0.3408 -0.2541  0.3194
 1238SOL    HW115350   3.340   4.434   8.324  0.2462  0.6638  0.3883
 1238SOL    HW215351   3.475   4.379   8.353 -0.1450 -5.5034  2.6793
 1239SOL     OW15352   3.686   2.796   2.759  0.0928 -0.1391 -0.1972
 1239SOL    HW115353   3.728   2.710   2.754 -2.3232 -1.3523  0.2123
 1239SOL    HW215354   3.771   2.839   2.763  0.1122  0.1616 -3.8753
 1240SOL     OW15355   1.143   4.382   4.242 -0.4411 -0.9075  0.0403
 1240SOL    HW115356   1.215   4.329   4.277 -0.3824  0.4016  1.8906
 1240SOL    HW215357   1.195   4.418   4.169  0.5568  2.1304  2.2232
 1241SOL     OW15358   3.956   1.024   9.547 -0.4148  0.5405  0.7316
 1241SOL    HW115359   3.894   0.977   9.491  0.2443 -0.8322  1.1649
 1241SOL    HW215360   4.028   0.963   9.533 -1.4524 -0.6273  0.4926
 1242SOL     OW15361   1.196   3.616   1.725 -0.1665 -0.2300  0.2408
 1242SOL    HW115362   1.135   3.576   1.663  1.0484 -1.4542 -0.1377
 1242SOL    HW215363   1.152   3.627   1.810 -1.5706  1.6634 -0.7255
 1243SOL     OW15364   4.707   1.843  15.992 -0.0153 -0.0969 -0.0141
 1243SOL    HW115365   0.061   1.871  15.990  0.7766 -2.5065  2.4314
 1243SOL    HW215366   4.704   1.778  15.922  0.0064 -2.6077  2.3104
 1244SOL     OW15367   4.699   4.001   4.208  0.4257 -0.7950 -0.2275
 1244SOL    HW115368   4.617   3.955   4.224  1.5484 -2.1653  1.6267
 1244SOL    HW215369   0.025   3.961   4.269 -0.7606  0.5617  1.8969
 1245SOL     OW15370   3.282   2.426   9.235 -0.9879  0.0599 -0.1269
 1245SOL    HW115371   3.191   2.416   9.206  0.0529 -2.1414 -2.6477
 1245SOL    HW215372   3.302   2.333   9.222 -0.8395  0.1998 -0.9273
 1246SOL     OW15373   2.641   0.350   6.216  1.0639  0.1591  0.0381
 1246SOL    HW115374   2.581   0.334   6.289 -0.2616 -0.3905 -1.1548
 1246SOL    HW215375   2.682   0.432   6.245  0.3228  0.4259  0.3341
 1247SOL     OW15376   1.689   4.221   7.920  0.2646 -0.0339  0.2576
 1247SOL    HW115377   1.631   4.148   7.943  1.5992 -0.9937  0.5688
 1247SOL    HW215378   1.777   4.198   7.951 -0.0549 -0.9881  0.4430
 1248SOL     OW15379   0.040   3.818   3.924  0.3534  0.7523 -0.0907
 1248SOL    HW115380   0.103   3.768   3.976 -0.7310 -0.7661 -0.2499
 1248SOL    HW215381   0.012   3.751   3.862  1.8118 -1.1740  1.3295
 1249SOL     OW15382   2.641   4.396   5.654  0.4272  0.3363  0.0502
 1249SOL    HW115383   2.602   4.457   5.717  0.5178  0.5263 -0.0780
 1249SOL    HW215384   2.693   4.457   5.602 -0.1979 -1.4334 -2.6432
 1250SOL     OW15385   0.432   3.338   1.379  0.8163  0.0581  0.3377
 1250SOL    HW115386   0.488   3.414   1.361  0.3896  0.0023 -1.2434
 1250SOL    HW215387   0.345   3.374   1.362  1.6711  0.3715 -3.4280
 1251SOL     OW15388   3.374   3.002   7.251  0.0293 -0.3728  0.2431
 1251SOL    HW115389   3.329   3.072   7.298  0.2122 -2.0813  2.9393
 1251SOL    HW215390   3.299   2.946   7.229  0.4138 -1.0102  0.5648
 1252SOL     OW15391   4.438   1.531   4.045 -0.3963  0.1051  0.0032
 1252SOL    HW115392   4.388   1.532   4.127  1.1710  1.6470  0.9281
 1252SOL    HW215393   4.458   1.624   4.039  1.6591 -0.3364 -0.0148
 1253SOL     OW15394   2.988   4.552   0.895 -0.2142  0.8770  0.2235
 1253SOL    HW115395   3.055   4.621   0.893 -0.6953  1.3594  0.6755
 1253SOL    HW215396   2.940   4.583   0.972 -3.1939 -0.1122 -1.2535
 1254SOL     OW15397   1.936   3.385   7.535 -0.6047 -0.6853  0.1716
 1254SOL    HW115398   1.960   3.361   7.445 -1.7979 -1.5228  0.0772
 1254SOL    HW215399   2.024   3.382   7.571 -0.4127  0.2833 -0.2022
 1255SOL     OW15400   3.574   1.810   1.608  0.4274 -0.2146  0.0811
 1255SOL    HW115401   3.487   1.772   1.623 -0.4381  0.8697 -2.1824
 1255SOL    HW215402   3.620   1.726   1.609  0.5963 -0.0920  2.6031
 1256SOL     OW15403   4.296   3.366   2.548  0.1138 -0.2416 -0.1860
 1256SOL    HW115404   4.339   3.403   2.625  2.3343 -1.2666 -0.9480
 1256SOL    HW215405   4.334   3.279   2.542  2.8253  0.9883 -0.8175
 1257SOL     OW15406   2.648   2.112  14.620  0.0661 -0.3342  0.2011
 1257SOL    HW115407   2.599   2.040  14.659 -0.6489  0.1886  0.2782
 1257SOL    HW215408   2.651   2.176  14.692 -1.2957  0.2472 -0.2486
 1258SOL     OW15409   2.148   0.208  12.256 -0.6572 -0.5250  0.4755
 1258SOL    HW115410   2.229   0.258  12.248 -0.6442 -0.1145  3.0922
 1258SOL    HW215411   2.185   0.128  12.221  0.2421  0.7379 -1.4516
 1259SOL     OW15412   3.426   3.857   4.817 -0.2916 -0.0583  0.3464
 1259SOL    HW115413   3.404   3.815   4.900  0.7935 -2.1757 -0.4433
 1259SOL    HW215414   3.366   3.807   4.762 -0.4765  2.6420 -1.8830
 1260SOL     OW15415   0.079   2.132   5.655  0.2542 -0.3188 -0.3554
 1260SOL    HW115416   0.161   2.156   5.612 -0.3751  0.6081 -1.0522
 1260SOL    HW215417   0.012   2.188   5.614 -2.5478 -3.4245 -0.0823
 1261SOL     OW15418   1.580   0.189   0.113 -0.1627  0.1757 -0.3556
 1261SOL    HW115419   1.633   0.121   0.072  0.5475 -1.6503  3.6135
 1261SOL    HW215420   1.634   0.226   0.183 -2.4394  1.3852  0.7537
 1262SOL     OW15421   4.086   1.289   2.231 -0.0904  0.2762  0.0714
 1262SOL    HW115422   4.180   1.306   2.237 -0.1843 -0.2488  2.9027
 1262SOL    HW215423   4.064   1.314   2.141 -0.0002 -0.8975 -0.2722
 1263SOL     OW15424   0.410   1.001   0.298  0.2597  1.0081  0.4672
 1263SOL    HW115425   0.505   0.997   0.285  0.2567  0.9386  0.4658
 1263SOL    HW215426   0.384   1.070   0.237 -2.0969 -1.2444 -1.0400
 1264SOL     OW15427   0.530   2.537   6.577 -0.2489 -0.3826  0.0182
 1264SOL    HW115428   0.623   2.516   6.569  0.0904  1.2321 -0.2148
 1264SOL    HW215429   0.527   2.533   6.672  2.3646 -2.1275  0.0144
 1265SOL     OW15430   0.976   4.408  13.496  0.1290  0.2919 -0.1002
 1265SOL    HW115431   1.034   4.335  13.475  2.8248  1.8959  1.6439
 1265SOL    HW215432   0.890   4.376  13.523 -0.1121  0.7564 -0.3088
 1266SOL     OW15433   1.319   0.944   3.204  0.2308 -0.0991  0.3982
 1266SOL    HW115434   1.273   0.862   3.220  0.9859 -0.6861 -0.4248
 1266SOL    HW215435   1.252   1.011   3.218  0.8954  0.7630 -0.6066
 1267SOL     OW15436   0.001   1.686   4.871 -0.5804  0.5481  0.0811
 1267SOL    HW115437   0.094   1.671   4.888 -0.2735  0.2382 -1.8498
 1267SOL    HW215438   4.697   1.604   4.897  1.1890 -0.8545 -1.4707
 1268SOL     OW15439   2.235   1.253  17.546  0.0478  0.2688  0.0236
 1268SOL    HW115440   2.205   1.209  17.467 -0.2432 -0.5293  0.5844
 1268SOL    HW215441   2.304   1.196  17.579 -0.3378 -0.3973 -0.3285
 1269SOL     OW15442   1.143   3.335   6.617  0.2541  0.6554  0.5191
 1269SOL    HW115443   1.121   3.367   6.529  0.1805 -0.0664  0.2696
 1269SOL    HW215444   1.133   3.406   6.681  0.2173  1.1387 -0.0242
 1270SOL     OW15445   4.186   1.111   6.367 -0.2811 -0.7115 -0.4642
 1270SOL    HW115446   4.251   1.106   6.297 -0.3863 -1.1112 -0.5373
 1270SOL    HW215447   4.235   1.099   6.449 -0.5917  0.4982 -0.1118
 1271SOL     OW15448   3.110   0.822  10.261  0.2166 -0.1348 -0.6716
 1271SOL    HW115449   3.025   0.802  10.223 -0.4900  1.0575  0.2837
 1271SOL    HW215450   3.136   0.905  10.221  0.3447  0.4859  0.6894
 1272SOL     OW15451   0.129   2.043  10.334  0.2448 -0.3832  0.4128
 1272SOL    HW115452   0.058   2.106  10.341 -0.4406 -1.0325 -0.7290
 1272SOL    HW215453   0.130   2.010  10.424 -1.1779 -2.4772 -0.3286
 1273SOL     OW15454   4.209   0.293   6.268 -0.6586  0.1351 -0.6201
 1273SOL    HW115455   4.143   0.318   6.203 -0.4387 -2.3090 -1.8176
 1273SOL    HW215456   4.277   0.267   6.206 -1.2434  1.0645 -1.6586
 1274SOL     OW15457   3.081   2.244   9.937 -0.2200  0.0344  1.0347
 1274SOL    HW115458   3.036   2.290   9.867 -0.3904 -0.5787  0.7396
 1274SOL    HW215459   3.017   2.261  10.006  0.6198  0.0934  1.8033
 1275SOL     OW15460   4.620   3.027   9.956 -0.5259 -0.2122 -0.2567
 1275SOL    HW115461   4.534   3.008   9.993 -0.5159 -0.1212 -0.1868
 1275SOL    HW215462   4.679   3.010  10.029 -0.8989 -2.9857 -0.5950
 1276SOL     OW15463   3.021   0.699   3.625 -0.0355  0.2456  0.1366
 1276SOL    HW115464   3.045   0.627   3.565  0.6605  0.1006  0.5862
 1276SOL    HW215465   3.105   0.721   3.666  0.2743  0.2288 -0.4833
 1277SOL     OW15466   0.564   0.834   4.828  0.0158 -0.1547  0.2898
 1277SOL    HW115467   0.564   0.844   4.733  1.4213  0.5757  0.3699
 1277SOL    HW215468   0.606   0.916   4.854  1.0560  0.2947 -2.7885
 1278SOL     OW15469   2.535   3.339   4.353  1.0654  0.0079  0.2959
 1278SOL    HW115470   2.485   3.402   4.301  1.5595  0.0918 -0.0788
 1278SOL    HW215471   2.530   3.261   4.298 -3.2064  0.5007 -0.0259
 1279SOL     OW15472   1.203   0.496  11.028 -0.1853 -0.4591  0.5716
 1279SOL    HW115473   1.184   0.577  11.075 -0.4514 -0.4227  0.4036
 1279SOL    HW215474   1.184   0.431  11.096 -1.3350 -1.9205 -1.1170
 1280SOL     OW15475   0.302   0.048   4.527  0.1888  0.3975 -0.1343
 1280SOL    HW115476   0.366   0.117   4.510 -0.2643  0.7321 -0.4945
 1280SOL    HW215477   0.227   0.108   4.527 -1.4689 -1.6656  0.8876
 1281SOL     OW15478   4.499   2.341  13.370 -0.2941 -0.8814 -0.3883
 1281SOL    HW115479   4.448   2.307  13.297  1.3861 -0.0746 -1.9376
 1281SOL    HW215480   4.466   2.291  13.444 -0.4927 -0.0406  0.0962
 1282SOL     OW15481   4.292   0.071   2.832  0.2611 -0.1436  0.3474
 1282SOL    HW115482   4.229   0.008   2.867  0.7440 -0.0986  1.3087
 1282SOL    HW215483   4.259   0.072   2.742  0.5463 -2.3011  0.2340
 1283SOL     OW15484   4.074   2.282   7.717 -0.2172  0.5110  0.2490
 1283SOL    HW115485   4.133   2.356   7.732  1.6830 -0.4407 -2.4532
 1283SOL    HW215486   4.124   2.204   7.740 -1.8442 -1.0979 -1.6476
 1284SOL     OW15487   3.858   1.006  10.798  0.2170 -0.2515 -0.1924
 1284SOL    HW115488   3.787   0.973  10.743 -0.8033  2.3930 -0.4186
 1284SOL    HW215489   3.896   1.079  10.749  0.3043 -0.7613 -0.8905
 1285SOL     OW15490   1.330   4.194   8.184  0.5317  0.1155 -0.3054
 1285SOL    HW115491   1.367   4.216   8.269 -1.7059 -2.4624  1.3039
 1285SOL    HW215492   1.246   4.238   8.191  0.0837 -0.7756 -0.1534
 1286SOL     OW15493   2.030   3.661   3.403 -0.0267 -0.2183  0.3336
 1286SOL    HW115494   1.975   3.704   3.337 -0.5572 -0.7739  0.4102
 1286SOL    HW215495   2.118   3.672   3.366 -0.3174  1.1065  0.0285
 1287SOL     OW15496   2.159   0.831  10.865  0.3056  0.4360 -0.1624
 1287SOL    HW115497   2.116   0.756  10.906 -1.8897  1.1522 -1.1149
 1287SOL    HW215498   2.249   0.814  10.893  0.2678 -0.5789 -0.6727
 1288SOL     OW15499   4.231   0.649   2.871  0.6018 -0.7207  0.2362
 1288SOL    HW115500   4.231   0.554   2.874 -1.1220 -0.7282 -0.1026
 1288SOL    HW215501   4.146   0.668   2.832  0.6125  3.6661  2.3162
 1289SOL     OW15502   3.568   3.392   8.417  0.1978 -0.1660  0.1791
 1289SOL    HW115503   3.637   3.357   8.473 -0.4640 -0.4487  0.8160
 1289SOL    HW215504   3.579   3.342   8.336 -1.7397  0.5160 -0.4900
 1290SOL     OW15505   3.196   0.378   0.499  0.2000 -0.3089  0.1949
 1290SOL    HW115506   3.263   0.313   0.477  0.2896  0.0038 -0.4734
 1290SOL    HW215507   3.255   0.442   0.540 -0.0910 -0.0644  0.2328
 1291SOL     OW15508   0.953   0.427   8.952  0.3214 -0.4376  0.2145
 1291SOL    HW115509   0.931   0.432   8.859  1.0860  1.0623  0.1195
 1291SOL    HW215510   0.981   0.337   8.966  0.2479 -0.6008 -0.7417
 1292SOL     OW15511   0.723   1.653   4.669 -0.2365  0.3146 -0.3765
 1292SOL    HW115512   0.783   1.715   4.628 -0.7942  1.6450  0.8352
 1292SOL    HW215513   0.642   1.703   4.677 -2.8011 -3.9352  0.3618
 1293SOL     OW15514   2.631   0.495   4.889  0.4101  0.0212  1.0990
 1293SOL    HW115515   2.556   0.477   4.946 -0.3532  0.1276  0.1324
 1293SOL    HW215516   2.593   0.459   4.809  1.3278 -0.0990  0.7111
 1294SOL     OW15517   4.336   4.204  16.581 -0.1018 -0.1983 -0.4177
 1294SOL    HW115518   4.311   4.253  16.503 -0.3773  1.7164  0.8850
 1294SOL    HW215519   4.399   4.266  16.619 -0.3911  0.1423 -0.5020
 1295SOL     OW15520   1.171   2.530   1.817 -0.5574 -0.1207  0.5272
 1295SOL    HW115521   1.149   2.439   1.796  1.8885 -0.6084  0.1410
 1295SOL    HW215522   1.110   2.560   1.749  0.6022 -0.2069 -0.5457
 1296SOL     OW15523   0.138   0.077   6.866  0.1062 -0.2971 -0.1219
 1296SOL    HW115524   0.176   0.065   6.779  2.9122 -2.3282  1.3739
 1296SOL    HW215525   0.202   0.097   6.935  0.6627 -1.8224 -0.1972
 1297SOL     OW15526   2.549   4.425   6.312 -0.1123  0.1756  0.0536
 1297SOL    HW115527   2.517   4.503   6.266 -0.9870 -0.1571  0.0959
 1297SOL    HW215528   2.498   4.453   6.388  0.9489 -1.5463  1.3925
 1298SOL     OW15529   1.537   0.163  11.160 -0.0879 -0.7676 -0.1946
 1298SOL    HW115530   1.598   0.095  11.190 -0.6339 -1.3810 -0.4956
 1298SOL    HW215531   1.493   0.174  11.245  1.1571  0.2409  0.3228
 1299SOL     OW15532   1.724   1.852   0.264  0.9019 -0.1432  0.1149
 1299SOL    HW115533   1.648   1.842   0.322 -0.1130  2.3787 -0.7845
 1299SOL    HW215534   1.737   1.757   0.261  0.3297 -0.2909  2.2349
 1300SOL     OW15535   0.890   2.561   3.526 -0.2148 -0.1032 -0.5095
 1300SOL    HW115536   0.881   2.519   3.612  0.6887  1.3512  0.2944
 1300SOL    HW215537   0.978   2.597   3.525  0.0196 -0.6269  0.5463
 1301SOL     OW15538   1.460   2.156   6.516  0.2254 -0.0318 -0.9835
 1301SOL    HW115539   1.465   2.180   6.608  3.0431 -0.8105 -0.9402
 1301SOL    HW215540   1.454   2.244   6.480 -2.1241  0.2752  0.1755
 1302SOL     OW15541   3.579   3.576   7.974  0.7868 -0.1822 -0.3948
 1302SOL    HW115542   3.590   3.613   8.062 -0.6254  0.0521 -0.3120
 1302SOL    HW215543   3.670   3.573   7.946  1.2972  1.6098  0.9903
 1303SOL     OW15544   4.538   0.384   8.765  0.0951 -0.2677  0.0002
 1303SOL    HW115545   4.613   0.398   8.823 -0.5557 -0.1256  0.8024
 1303SOL    HW215546   4.542   0.290   8.749  1.4176  0.0886 -1.8348
 1304SOL     OW15547   2.468   0.894   9.331 -0.9632 -0.4184 -0.4342
 1304SOL    HW115548   2.539   0.831   9.316 -0.6480  0.5287 -2.9985
 1304SOL    HW215549   2.524   0.949   9.387 -1.4282  0.0973 -0.4784
 1305SOL     OW15550   4.425   2.008  11.167 -0.4350 -0.4928 -0.0406
 1305SOL    HW115551   4.446   1.951  11.092  0.1250 -0.8678  0.4017
 1305SOL    HW215552   4.513   2.018  11.201 -0.2958 -4.1174  0.6970
 1306SOL     OW15553   0.807   0.500  11.832  0.2341  0.2929  0.1351
 1306SOL    HW115554   0.813   0.581  11.780 -0.0233  0.4735  0.3863
 1306SOL    HW215555   0.836   0.432  11.771  2.3144  2.4115 -1.2446
 1307SOL     OW15556   2.353   0.883   4.155  0.3869 -0.3454 -0.0226
 1307SOL    HW115557   2.381   0.945   4.088  2.6203 -0.5123  0.7576
 1307SOL    HW215558   2.298   0.936   4.214 -2.2762 -1.9080 -1.1227
 1308SOL     OW15559   0.353   3.855   3.207  0.4694 -0.0730  0.4547
 1308SOL    HW115560   0.365   3.942   3.245  2.3144  1.1939 -3.0785
 1308SOL    HW215561   0.433   3.809   3.231  0.0542 -2.4835 -2.7754
 1309SOL     OW15562   3.229   2.578   1.340 -0.2614  0.0408  0.2105
 1309SOL    HW115563   3.232   2.506   1.402  2.2629 -0.0727 -0.0613
 1309SOL    HW215564   3.135   2.576   1.319  0.5465  0.1799 -3.3013
 1310SOL     OW15565   4.540   2.719  11.393  0.8301  0.4257  0.2568
 1310SOL    HW115566   4.463   2.757  11.351  1.4223  1.1157 -0.1995
 1310SOL    HW215567   4.593   2.690  11.319 -1.8855 -0.5962 -1.2583
 1311SOL     OW15568   1.547   0.235   4.046  0.3622 -0.3855  0.2608
 1311SOL    HW115569   1.475   0.214   3.985 -0.9776  3.3917  0.5214
 1311SOL    HW215570   1.509   0.223   4.133  3.1595  1.3543  1.6986
 1312SOL     OW15571   3.715   0.260   2.373 -0.4243 -0.9845  0.4083
 1312SOL    HW115572   3.620   0.268   2.380 -0.4052  0.5035 -1.0714
 1312SOL    HW215573   3.715   0.170   2.338 -0.3587 -0.3847 -1.1472
 1313SOL     OW15574   1.910   2.552  17.592 -0.4020 -0.0755  0.2322
 1313SOL    HW115575   1.984   2.611  17.580  0.9461 -1.6387  0.9865
 1313SOL    HW215576   1.951   2.466  17.599  0.5825  0.2618 -1.4604
 1314SOL     OW15577   0.013   4.236   1.388 -0.2559 -0.6271  0.1763
 1314SOL    HW115578   4.729   4.279   1.471  0.5468 -1.1676  0.6668
 1314SOL    HW215579   0.074   4.172   1.424  0.7052 -0.0673 -0.4571
 1315SOL     OW15580   4.181   0.578   8.539  0.0478 -0.8742 -0.1388
 1315SOL    HW115581   4.206   0.590   8.630 -0.2843 -1.7763  0.0717
 1315SOL    HW215582   4.252   0.529   8.497 -0.5896 -0.6155 -1.5269
 1316SOL     OW15583   1.033   3.225  10.597  0.0224  0.3258  0.3492
 1316SOL    HW115584   1.106   3.192  10.649 -2.0711 -1.8648  1.8776
 1316SOL    HW215585   0.974   3.150  10.587 -0.8398  1.1194 -0.5424
 1317SOL     OW15586   2.741   1.494  16.742  0.1406  0.5834 -0.4477
 1317SOL    HW115587   2.771   1.549  16.669 -0.3501 -0.7221 -1.6229
 1317SOL    HW215588   2.671   1.545  16.783  1.0278  0.6062  1.0590
 1318SOL     OW15589   1.654   1.249   8.062  0.3472 -0.4521 -0.3909
 1318SOL    HW115590   1.732   1.211   8.102  0.1174  0.4323  0.9243
 1318SOL    HW215591   1.672   1.226   7.971 -2.0933 -1.2808 -0.6865
 1319SOL     OW15592   0.736   4.005   7.738  0.0327  0.3133  0.5036
 1319SOL    HW115593   0.721   4.083   7.792 -2.1974 -0.5203  1.0952
 1319SOL    HW215594   0.764   4.044   7.655 -2.2296  1.5310  0.3140
 1320SOL     OW15595   2.811   0.666   7.628  0.1197  0.0734 -0.2291
 1320SOL    HW115596   2.808   0.576   7.660  2.2947  0.6984  1.7272
 1320SOL    HW215597   2.739   0.669   7.566  0.5881  0.5921 -0.7428
 1321SOL     OW15598   3.061   3.521  17.327  0.2084 -0.0053 -0.2463
 1321SOL    HW115599   3.156   3.530  17.314  0.1237  0.6673 -0.3947
 1321SOL    HW215600   3.050   3.455  17.396  0.4728  1.1087  0.8521
 1322SOL     OW15601   0.794   1.400   6.455  0.5489  0.4720 -0.3336
 1322SOL    HW115602   0.844   1.481   6.462 -0.5213  0.8712  2.3942
 1322SOL    HW215603   0.745   1.376   6.533  0.8694  0.2125 -0.2156
 1323SOL     OW15604   1.300   1.904   6.900 -0.7285  0.2350  0.5710
 1323SOL    HW115605   1.206   1.908   6.880 -0.4575  0.9678 -0.5364
 1323SOL    HW215606   1.324   1.996   6.886  0.3273  0.1088  1.5061
 1324SOL     OW15607   1.357   1.498   1.650 -0.0508  0.4748 -0.2184
 1324SOL    HW115608   1.385   1.537   1.567 -0.8500  0.3976 -0.5327
 1324SOL    HW215609   1.285   1.548   1.687 -0.0210  0.2133  0.1868
 1325SOL     OW15610   1.093   1.678   2.076  0.1545 -0.5182 -0.0275
 1325SOL    HW115611   1.115   1.771   2.063 -0.5035 -0.4851 -0.9240
 1325SOL    HW215612   1.177   1.656   2.116 -0.3730 -0.8414  0.9110
 1326SOL     OW15613   4.441   4.722   8.967 -0.1559 -0.2021  0.4891
 1326SOL    HW115614   4.482   0.025   8.891 -0.4344  0.6097  0.7691
 1326SOL    HW215615   4.503   4.658   9.003  1.4481  2.7360  2.9871
 1327SOL     OW15616   0.753   4.181  13.696  0.0636  0.4684 -0.0682
 1327SOL    HW115617   0.822   4.127  13.658 -2.0573 -0.5715 -2.4516
 1327SOL    HW215618   0.682   4.159  13.635  0.3816 -1.4384  0.2517
 1328SOL     OW15619   0.022   1.455   0.846 -0.2937  0.1936  1.0927
 1328SOL    HW115620   0.028   1.407   0.764  0.4663 -0.2836  1.4327
 1328SOL    HW215621   4.665   1.467   0.847 -0.3208 -0.0755  2.1263
 1329SOL     OW15622   3.319   3.729   6.419  0.0731 -0.2001  0.3027
 1329SOL    HW115623   3.366   3.809   6.442 -0.9764  0.1794  1.1108
 1329SOL    HW215624   3.257   3.716   6.491  0.1915 -0.0488  0.4331
 1330SOL     OW15625   3.991   3.195   2.481  0.1491 -0.1946 -0.3180
 1330SOL    HW115626   3.992   3.168   2.389  1.4938  0.2235 -0.4331
 1330SOL    HW215627   4.047   3.135   2.530 -0.5730 -2.6369 -2.4846
 1331SOL     OW15628   0.817   4.192  16.897  0.4841 -0.2782  0.4963
 1331SOL    HW115629   0.795   4.254  16.827 -0.7262 -0.1952  0.9477
 1331SOL    HW215630   0.753   4.122  16.887 -0.3469  0.6123 -0.4498
 1332SOL     OW15631   2.638   2.522   6.765 -0.5200  0.1534 -0.3438
 1332SOL    HW115632   2.574   2.452   6.763 -1.3906  0.9204  0.6349
 1332SOL    HW215633   2.628   2.538   6.671 -2.6383 -2.9553 -0.6126
 1333SOL     OW15634   1.314   0.992   6.827 -0.3048 -0.6732 -0.2405
 1333SOL    HW115635   1.284   0.907   6.795  0.4668 -0.7521 -0.7669
 1333SOL    HW215636   1.410   0.985   6.834 -0.3400  0.0717  0.9152
 1334SOL     OW15637   3.335   2.251   8.917  0.4093  0.1659  0.0101
 1334SOL    HW115638   3.314   2.168   8.874 -1.2639  0.4481  0.3078
 1334SOL    HW215639   3.255   2.301   8.903 -1.0103 -1.7796  1.3584
 1335SOL     OW15640   2.921   2.020  12.130  0.3957  0.1189 -0.1690
 1335SOL    HW115641   2.859   2.019  12.058  0.9841 -4.0157 -0.6223
 1335SOL    HW215642   2.870   2.054  12.203 -1.1690 -3.0620  0.1924
 1336SOL     OW15643   3.149   4.177   5.596 -0.3095 -0.0702  0.1790
 1336SOL    HW115644   3.130   4.145   5.508 -1.2278  0.2375  0.2668
 1336SOL    HW215645   3.226   4.123   5.616  1.9465  2.7604 -0.7460
 1337SOL     OW15646   2.329   3.416   5.906  0.1312 -0.4920 -0.6501
 1337SOL    HW115647   2.287   3.424   5.992  0.9364  1.1574 -0.4094
 1337SOL    HW215648   2.345   3.321   5.909  2.1813 -0.1368 -0.5874
 1338SOL     OW15649   2.173   2.535   4.256  0.1707  0.0925  0.0531
 1338SOL    HW115650   2.233   2.557   4.327 -0.2894  1.2541  0.0873
 1338SOL    HW215651   2.132   2.621   4.247  0.8762  0.5898  1.8023
 1339SOL     OW15652   1.976   1.818  17.198  1.0880 -1.0170  0.5760
 1339SOL    HW115653   1.907   1.882  17.213  2.3648  0.1239  1.6273
 1339SOL    HW215654   2.024   1.860  17.127  1.0701  0.9479  1.7062
 1340SOL     OW15655   3.684   4.671   5.134 -0.7157 -0.3779 -0.9093
 1340SOL    HW115656   3.643   4.608   5.074  0.6192 -1.5401 -0.5977
 1340SOL    HW215657   3.751   4.615   5.173 -0.4291  1.5558  1.3943
 1341SOL     OW15658   0.024   4.065   2.941 -0.2185 -0.4439  0.0544
 1341SOL    HW115659   4.709   4.141   2.966  1.8471  0.6976  0.9244
 1341SOL    HW215660   0.033   4.022   3.026  1.5535  0.6541  0.4184
 1342SOL     OW15661   1.525   4.047   6.143  0.2342  0.1357  0.5923
 1342SOL    HW115662   1.473   4.103   6.086  0.0304 -0.8301 -0.1708
 1342SOL    HW215663   1.485   3.960   6.133  0.1505  0.2919 -0.4444
 1343SOL     OW15664   0.085   3.351   9.704  0.4770  0.7404 -0.4037
 1343SOL    HW115665   0.021   3.332   9.773 -0.0633  2.3461 -0.4462
 1343SOL    HW215666   0.030   3.395   9.640 -0.0236  1.7192  0.6908
 1344SOL     OW15667   2.331   2.822  15.853  0.3141  0.5168  0.2484
 1344SOL    HW115668   2.298   2.792  15.938  0.7489 -1.1293 -0.1489
 1344SOL    HW215669   2.391   2.748  15.842 -1.3119 -0.5272 -1.7009
 1345SOL     OW15670   3.672   0.612   4.315 -0.0415  0.0665  0.1712
 1345SOL    HW115671   3.679   0.606   4.411 -1.0483 -1.1728  0.1669
 1345SOL    HW215672   3.578   0.596   4.318  0.1044 -0.5150  1.8715
 1346SOL     OW15673   1.992   3.139  14.267  0.1149 -0.5569 -0.9322
 1346SOL    HW115674   1.998   3.049  14.233  1.4353 -0.6625 -0.4450
 1346SOL    HW215675   2.075   3.175  14.235 -0.1282 -0.0930 -1.0371
 1347SOL     OW15676   1.928   4.371   9.723 -0.2644  0.1296 -0.0173
 1347SOL    HW115677   1.852   4.314   9.712  0.3984 -0.7030 -0.2629
 1347SOL    HW215678   1.897   4.412   9.804  1.4460  2.8534 -0.7320
 1348SOL     OW15679   2.787   4.457   0.760 -0.2982  0.1066  0.1543
 1348SOL    HW115680   2.862   4.471   0.818 -1.0156  0.4559  0.9847
 1348SOL    HW215681   2.796   4.531   0.700  1.0999  0.6477  1.0329
 1349SOL     OW15682   2.999   2.064   7.521 -0.8711 -0.0025 -0.3013
 1349SOL    HW115683   3.017   2.005   7.594 -2.4802 -0.4436 -0.2679
 1349SOL    HW215684   3.039   2.142   7.558  0.8048 -0.1542 -1.7832
 1350SOL     OW15685   2.684   3.559   7.107  0.0746  0.1113 -0.0258
 1350SOL    HW115686   2.640   3.526   7.028  0.2971  3.1746 -1.4132
 1350SOL    HW215687   2.643   3.506   7.176 -2.0245 -0.0019 -1.3658
 1351SOL     OW15688   1.974   4.558   6.193 -0.0350  0.2684  0.2238
 1351SOL    HW115689   2.062   4.597   6.199  0.0729  0.0326  0.1790
 1351SOL    HW215690   1.944   4.596   6.110 -1.5929 -1.0126  0.2016
 1352SOL     OW15691   3.358   3.789   5.070  0.0338 -0.3703 -0.0117
 1352SOL    HW115692   3.427   3.817   5.131  2.3379  0.3056 -2.9025
 1352SOL    HW215693   3.362   3.697   5.094 -1.7517 -0.6485 -0.7893
 1353SOL     OW15694   1.716   2.753  16.231 -0.0139  0.0104  0.1341
 1353SOL    HW115695   1.748   2.712  16.151  0.2337  2.5073 -1.0605
 1353SOL    HW215696   1.621   2.741  16.221  0.0656 -1.1150  0.7197
 1354SOL     OW15697   3.090   4.015   1.644  0.1774  0.1074  0.1285
 1354SOL    HW115698   3.027   4.078   1.610  2.2399  1.0783 -1.8928
 1354SOL    HW215699   3.114   3.989   1.555 -3.0889  0.9832 -1.0109
 1355SOL     OW15700   2.587   1.349   5.155 -0.2237  0.5615  0.0147
 1355SOL    HW115701   2.560   1.336   5.246 -0.0534 -0.4742 -0.0878
 1355SOL    HW215702   2.499   1.372   5.125 -0.0718 -0.6260 -1.3165
 1356SOL     OW15703   1.934   2.155  10.889  0.3050  0.6276 -0.5298
 1356SOL    HW115704   1.972   2.084  10.941  1.9102  1.0989 -1.0456
 1356SOL    HW215705   1.940   2.233  10.943 -0.4241 -0.7404  1.5218
 1357SOL     OW15706   2.180   0.588  11.335 -0.7813 -0.4881  0.2162
 1357SOL    HW115707   2.259   0.564  11.288  0.0476  0.5065  1.1096
 1357SOL    HW215708   2.140   0.501  11.328 -1.5762  0.0303 -1.7601
 1358SOL     OW15709   3.400   3.769   5.680 -0.2389  0.0191 -0.4752
 1358SOL    HW115710   3.307   3.759   5.702 -0.1697  1.8910  0.7077
 1358SOL    HW215711   3.406   3.693   5.623  3.1716  1.4070 -1.9842
 1359SOL     OW15712   3.498   1.054  12.110  0.4345  0.2017 -0.2762
 1359SOL    HW115713   3.455   1.140  12.111  0.0609  0.0392 -3.0035
 1359SOL    HW215714   3.508   1.048  12.015 -1.7312 -0.0376 -0.4690
 1360SOL     OW15715   4.276   1.974   4.691 -0.2791  0.0512 -0.1252
 1360SOL    HW115716   4.350   1.954   4.749 -0.3898 -0.7275 -0.2497
 1360SOL    HW215717   4.292   1.934   4.605 -2.1308 -0.0400 -0.4357
 1361SOL     OW15718   0.710   4.575  16.904  0.7360 -0.3072 -0.1144
 1361SOL    HW115719   0.658   4.655  16.911  0.4509 -0.6347  1.5122
 1361SOL    HW215720   0.763   4.571  16.983 -0.6214 -2.9423  0.6735
 1362SOL     OW15721   4.466   3.495   5.325 -0.4030 -0.5787 -0.2834
 1362SOL    HW115722   4.457   3.530   5.414  2.5254 -0.2827 -0.0990
 1362SOL    HW215723   4.560   3.479   5.329 -0.1121  1.4459  0.7148
 1363SOL     OW15724   2.287   1.491  17.745 -0.4024  0.8240 -0.5063
 1363SOL    HW115725   2.224   1.454   0.058  0.0318  0.9478  0.0146
 1363SOL    HW215726   2.300   1.413  17.691  3.1216 -0.4764  2.1797
 1364SOL     OW15727   2.449   1.191   1.815 -0.0469  0.1045 -0.5382
 1364SOL    HW115728   2.384   1.182   1.885  0.9742  0.9695  0.5280
 1364SOL    HW215729   2.527   1.198   1.871 -0.5618 -0.1038  0.2125
 1365SOL     OW15730   0.728   3.479   4.558  0.3592 -0.6782 -0.1212
 1365SOL    HW115731   0.789   3.553   4.567  1.2354 -1.5800  1.3960
 1365SOL    HW215732   0.651   3.512   4.604  1.4060 -0.4938  1.5177
 1366SOL     OW15733   2.325   3.096   4.392  0.4993  0.2485 -0.4139
 1366SOL    HW115734   2.362   3.183   4.410 -0.4855  1.2841 -3.3817
 1366SOL    HW215735   2.241   3.124   4.357  2.1180  2.2968 -2.6787
 1367SOL     OW15736   3.824   3.437   7.307 -0.1755 -0.6878 -0.0763
 1367SOL    HW115737   3.763   3.368   7.284 -0.1542 -0.9899  0.7657
 1367SOL    HW215738   3.771   3.516   7.313 -0.9498 -1.0714 -1.9188
 1368SOL     OW15739   3.203   3.460   8.165  0.2543 -0.4938 -0.5568
 1368SOL    HW115740   3.145   3.451   8.240  1.5831  1.6373  0.7227
 1368SOL    HW215741   3.265   3.530   8.182 -1.4475  1.6192 -3.0945
 1369SOL     OW15742   0.530   2.154   9.138 -0.0770 -0.1787 -0.0548
 1369SOL    HW115743   0.513   2.142   9.231 -2.2043 -0.5835 -0.5058
 1369SOL    HW215744   0.459   2.211   9.110  0.2394  0.5208  0.5464
 1370SOL     OW15745   0.728   3.367  11.431 -0.2302  0.6612 -0.1706
 1370SOL    HW115746   0.786   3.443  11.435  2.0394 -0.9500 -2.9418
 1370SOL    HW215747   0.739   3.338  11.522  2.5533  1.8260 -0.1475
 1371SOL     OW15748   3.626   1.830  17.458  0.0556 -0.1540 -0.5735
 1371SOL    HW115749   3.619   1.804  17.366 -2.1759 -1.5057 -0.0128
 1371SOL    HW215750   3.548   1.879  17.483  1.2197  0.3695  2.0844
 1372SOL     OW15751   1.832   1.760  14.157 -0.2460 -0.3505  0.2530
 1372SOL    HW115752   1.817   1.788  14.066 -1.9950 -0.0764  0.6302
 1372SOL    HW215753   1.744   1.723  14.156  0.0453 -1.0453 -1.4985
 1373SOL     OW15754   3.756   0.298  13.630 -0.3570 -0.5387 -0.3875
 1373SOL    HW115755   3.723   0.237  13.695 -3.5597  0.0888 -1.4620
 1373SOL    HW215756   3.689   0.296  13.562  0.2345 -0.8341 -0.9672
 1374SOL     OW15757   0.575   0.873   1.890  0.5622 -0.1153 -0.2018
 1374SOL    HW115758   0.540   0.897   1.804  2.7733  1.7455 -0.5854
 1374SOL    HW215759   0.557   0.779   1.889 -0.6101  0.1088 -0.2984
 1375SOL     OW15760   3.190   1.742   4.405 -0.1924 -0.1300 -0.1129
 1375SOL    HW115761   3.202   1.650   4.383 -0.4154 -0.6982  2.1452
 1375SOL    HW215762   3.103   1.762   4.441  0.0249 -3.4047  2.2607
 1376SOL     OW15763   4.364   1.569   2.631 -0.5501  0.0745  0.2413
 1376SOL    HW115764   4.323   1.500   2.684 -1.0273  0.5212  0.4461
 1376SOL    HW215765   4.288   1.597   2.581 -0.8816 -0.8095  0.2530
 1377SOL     OW15766   0.606   4.523   7.595 -0.0031  0.8957  0.2060
 1377SOL    HW115767   0.564   4.470   7.663 -0.1122  0.8458  0.0999
 1377SOL    HW215768   0.603   4.471   7.514  1.3365  1.8374 -0.4483
 1378SOL     OW15769   3.076   2.813  12.731 -0.4134 -0.4627 -0.1931
 1378SOL    HW115770   3.069   2.732  12.782 -0.2429  0.4634  1.3227
 1378SOL    HW215771   3.099   2.778  12.645  0.1667 -0.7802  0.0908
 1379SOL     OW15772   1.678   0.982   3.776  0.4179  0.4899 -0.4076
 1379SOL    HW115773   1.655   0.928   3.851  0.7388  0.3510 -0.4074
 1379SOL    HW215774   1.774   0.983   3.784  0.4153  0.3231 -0.3631
 1380SOL     OW15775   1.284   1.737   2.279  0.0268  0.2396 -0.2873
 1380SOL    HW115776   1.307   1.673   2.346  0.1622  1.2634  0.6469
 1380SOL    HW215777   1.267   1.812   2.336  0.2166  1.6914 -2.1356
 1381SOL     OW15778   1.333   2.529  10.421 -0.5134 -0.6453 -0.1260
 1381SOL    HW115779   1.356   2.603  10.477 -1.2222 -0.8084  0.3662
 1381SOL    HW215780   1.312   2.466  10.490 -2.0782 -2.4299 -2.2221
 1382SOL     OW15781   3.518   1.767   7.411  0.3001 -0.7528  0.2566
 1382SOL    HW115782   3.561   1.753   7.326 -0.7041  1.5088 -0.6169
 1382SOL    HW215783   3.587   1.823   7.446 -0.7581  1.8802 -1.8675
 1383SOL     OW15784   4.722   2.757  15.101  0.5573 -0.1559  0.0408
 1383SOL    HW115785   4.668   2.827  15.065 -0.9494 -1.2612  0.1161
 1383SOL    HW215786   4.737   2.786  15.191  0.9837 -2.5610  0.7629
 1384SOL     OW15787   2.933   4.367   2.134 -0.3096  0.5537 -0.3406
 1384SOL    HW115788   2.952   4.408   2.218 -1.9028 -0.5172  0.5371
 1384SOL    HW215789   2.975   4.281   2.147  1.4665  1.2491 -1.4567
 1385SOL     OW15790   1.198   3.077  16.127  0.4231  0.6215 -0.2518
 1385SOL    HW115791   1.228   2.987  16.143 -0.2302  0.7487  1.7661
 1385SOL    HW215792   1.277   3.102  16.080  0.5424  0.1436 -0.3095
 1386SOL     OW15793   4.441   2.970  15.935  0.3255  0.0227 -0.3650
 1386SOL    HW115794   4.530   2.995  15.911  0.8863 -0.5987  1.0700
 1386SOL    HW215795   4.464   2.923  16.015 -1.4347  3.3805  2.1052
 1387SOL     OW15796   4.064   2.209   1.915  0.6874  0.0286  0.1299
 1387SOL    HW115797   4.080   2.165   1.832 -2.1287  2.0157 -1.4624
 1387SOL    HW215798   3.972   2.187   1.929 -0.0363  1.6711 -2.1513
 1388SOL     OW15799   2.731   1.145  14.123  0.7593 -0.1189  0.0761
 1388SOL    HW115800   2.807   1.191  14.159 -0.7565  1.9914  0.6132
 1388SOL    HW215801   2.743   1.149  14.029  0.0535 -2.0415 -0.1002
 1389SOL     OW15802   3.320   0.214   7.085  0.2574 -0.1216 -0.2431
 1389SOL    HW115803   3.258   0.200   7.013  0.2908  0.6843 -0.4265
 1389SOL    HW215804   3.353   0.303   7.076  1.8278 -0.5295  1.3848
 1390SOL     OW15805   3.070   1.221   5.577  0.3852 -0.4893  0.5745
 1390SOL    HW115806   3.157   1.197   5.609  0.2669 -0.6549  0.7780
 1390SOL    HW215807   3.038   1.273   5.651 -1.1719 -1.4257  0.5688
 1391SOL     OW15808   0.109   1.455   5.954 -0.3541 -0.8054  0.3410
 1391SOL    HW115809   0.195   1.470   5.914  0.7902 -1.1626  2.6913
 1391SOL    HW215810   0.054   1.448   5.876 -1.2510  3.7582  0.5822
 1392SOL     OW15811   0.991   3.395   5.409 -0.1787  0.3439  0.1349
 1392SOL    HW115812   0.964   3.444   5.486  0.4281 -1.7497  1.6835
 1392SOL    HW215813   1.044   3.332   5.457  0.6662  1.4891  0.6925
 1393SOL     OW15814   0.451   3.116  15.900  0.4068  0.2544  0.2526
 1393SOL    HW115815   0.396   3.047  15.936  0.9941  1.0572  2.7232
 1393SOL    HW215816   0.522   3.143  15.959  0.7659 -0.2698  0.0673
 1394SOL     OW15817   2.758   3.025  15.462 -0.2551 -0.1216  0.5342
 1394SOL    HW115818   2.747   3.092  15.395 -2.0215  0.6569  1.6020
 1394SOL    HW215819   2.757   3.071  15.546  2.2483 -1.8070  1.5018
 1395SOL     OW15820   1.866   1.114   8.164  0.2111 -0.2396  0.3767
 1395SOL    HW115821   1.864   1.038   8.222 -1.1133 -0.2187  0.3450
 1395SOL    HW215822   1.919   1.084   8.090 -0.4135 -1.0043  0.2451
 1396SOL     OW15823   1.130   3.722   5.359  0.1209  0.5875 -0.0601
 1396SOL    HW115824   1.062   3.784   5.385  0.7965  0.9375  0.8951
 1396SOL    HW215825   1.132   3.714   5.263  0.6749  1.5238 -0.1343
 1397SOL     OW15826   3.020   0.632  11.613  0.2342 -0.5389  0.4087
 1397SOL    HW115827   2.998   0.576  11.539  0.0657 -1.1450  0.9087
 1397SOL    HW215828   3.057   0.572  11.679  2.4202  0.9884  0.5488
 1398SOL     OW15829   2.837   1.952   8.780  0.3021  0.3457  0.4127
 1398SOL    HW115830   2.862   1.872   8.734  0.1295  0.2366  0.5053
 1398SOL    HW215831   2.851   1.917   8.869  0.3676 -0.1649  0.2028
 1399SOL     OW15832   1.686   4.237  14.110 -0.8099  0.3097 -0.6655
 1399SOL    HW115833   1.616   4.198  14.162 -0.2163  0.1815  0.0396
 1399SOL    HW215834   1.755   4.180  14.145  0.1288  1.2438 -1.0058
 1400SOL     OW15835   2.718   2.047   4.173  0.7704  0.2085  0.7625
 1400SOL    HW115836   2.789   2.000   4.129  1.3511  0.4665  1.4207
 1400SOL    HW215837   2.751   2.033   4.261  1.2982  1.0647  0.7010
 1401SOL     OW15838   2.612   1.377   1.143  0.1544  0.1269 -0.1193
 1401SOL    HW115839   2.530   1.393   1.189  0.0025  0.0124 -0.3554
 1401SOL    HW215840   2.577   1.295   1.107  0.5619 -0.1548  0.1158
 1402SOL     OW15841   0.703   4.473  15.719 -1.2295 -0.1804  0.0261
 1402SOL    HW115842   0.742   4.456  15.805  0.9136 -4.0765 -1.7164
 1402SOL    HW215843   0.689   4.567  15.729  2.8758  0.5874 -1.3341
 1403SOL     OW15844   3.518   4.287   4.353 -0.1245 -1.0230 -0.1787
 1403SOL    HW115845   3.447   4.239   4.394  0.6881  0.0924  2.5344
 1403SOL    HW215846   3.557   4.341   4.422 -0.8074 -0.2147 -0.4120
 1404SOL     OW15847   1.474   1.172  11.256  0.2804  0.3893 -0.2770
 1404SOL    HW115848   1.527   1.174  11.176  1.2146 -0.0035  0.3228
 1404SOL    HW215849   1.539   1.209  11.317 -1.5915  2.9248  0.1698
 1405SOL     OW15850   1.536   0.353   7.130  0.1178 -0.6309 -0.0635
 1405SOL    HW115851   1.589   0.290   7.081 -0.2670 -1.0067  0.0029
 1405SOL    HW215852   1.464   0.354   7.067 -1.5084  1.9495  1.8868
 1406SOL     OW15853   2.183   1.161  10.654 -0.0873  0.9669 -0.3912
 1406SOL    HW115854   2.099   1.185  10.694 -0.2073 -0.5789  0.2637
 1406SOL    HW215855   2.210   1.247  10.621  0.6262  1.1455  0.6713
 1407SOL     OW15856   4.568   2.874  12.505  0.3317  0.4550  0.0859
 1407SOL    HW115857   4.657   2.889  12.472  0.8701 -0.9085  0.9360
 1407SOL    HW215858   4.571   2.780  12.520 -1.6604  0.3897  0.0798
 1408SOL     OW15859   1.808   2.071   0.674  0.4459  0.0778 -0.3209
 1408SOL    HW115860   1.813   2.074   0.579  1.4294 -0.6977 -0.2870
 1408SOL    HW215861   1.755   1.993   0.690 -1.5499  1.8402  1.7082
 1409SOL     OW15862   4.719   2.617  17.355 -0.0447 -0.1135 -0.1067
 1409SOL    HW115863   0.022   2.686  17.408  0.5973 -0.2431 -0.4206
 1409SOL    HW215864   4.665   2.581  17.425  0.5111  0.5028  0.6417
 1410SOL     OW15865   0.732   2.665   5.161 -0.3152 -0.5232 -0.6103
 1410SOL    HW115866   0.745   2.672   5.256 -1.2216  0.7053 -0.5716
 1410SOL    HW215867   0.797   2.596   5.148 -0.5565 -0.9982  0.6220
 1411SOL     OW15868   1.541   1.221  14.349  0.0162  0.4456 -0.2095
 1411SOL    HW115869   1.595   1.289  14.309 -0.7092  1.1133 -0.0671
 1411SOL    HW215870   1.515   1.164  14.276  0.5573 -1.0276  0.7397
 1412SOL     OW15871   4.072   4.623   6.853 -0.9952 -0.0087 -0.6724
 1412SOL    HW115872   4.010   4.692   6.877  0.2313  0.6578  0.6217
 1412SOL    HW215873   4.030   4.552   6.902  2.4851  0.1690  2.6035
 1413SOL     OW15874   2.946   1.331  14.186 -0.2311  0.0652  0.5071
 1413SOL    HW115875   2.914   1.375  14.107  1.0044  0.5836  0.2899
 1413SOL    HW215876   3.024   1.382  14.205 -1.0738  0.7166  2.2133
 1414SOL     OW15877   1.038   1.237  17.566  0.0584 -0.1463  0.0684
 1414SOL    HW115878   1.032   1.266  17.475  0.2317 -0.8508 -0.1706
 1414SOL    HW215879   0.980   1.163  17.546  1.0633 -0.8729 -0.1301
 1415SOL     OW15880   1.699   2.980  10.603  0.0735 -0.1539 -0.2830
 1415SOL    HW115881   1.654   2.901  10.633 -3.5021  1.5662 -1.0776
 1415SOL    HW215882   1.762   2.945  10.540 -0.7807 -3.2484  0.5816
 1416SOL     OW15883   2.904   3.005   8.929 -0.0504 -0.4081  0.0541
 1416SOL    HW115884   2.909   3.059   9.007 -1.1305  0.5720 -0.5596
 1416SOL    HW215885   2.954   3.061   8.869  0.9425  0.3118  1.5649
 1417SOL     OW15886   4.313   0.547   5.327  0.4286  0.5579  0.0753
 1417SOL    HW115887   4.266   0.464   5.327 -0.7751  1.2382  2.4263
 1417SOL    HW215888   4.385   0.521   5.268  1.1387  4.0439 -0.5887
 1418SOL     OW15889   0.202   0.693   4.765  0.3107 -0.7096  0.1873
 1418SOL    HW115890   0.136   0.756   4.793  0.8055  0.1427 -0.5461
 1418SOL    HW215891   0.228   0.709   4.674  1.1100  2.8108  1.0267
 1419SOL     OW15892   0.728   2.418   7.987 -0.0360  0.2140  0.4981
 1419SOL    HW115893   0.661   2.386   7.926  0.6315  2.4484 -1.4352
 1419SOL    HW215894   0.686   2.407   8.071 -2.8105 -1.2786 -1.0839
 1420SOL     OW15895   4.327   0.513  13.011 -0.0749  0.1859 -0.6337
 1420SOL    HW115896   4.345   0.535  13.102  1.7982 -0.6639 -0.8001
 1420SOL    HW215897   4.234   0.493  13.022 -0.0071  1.0652  1.5162
 1421SOL     OW15898   1.385   4.315   4.719 -0.5022 -0.0422 -0.7689
 1421SOL    HW115899   1.401   4.221   4.724 -0.2599  0.1062  1.2257
 1421SOL    HW215900   1.477   4.340   4.714 -0.4182  0.0682  1.1810
 1422SOL     OW15901   1.747   1.601  12.101  0.0440  0.4039 -0.8664
 1422SOL    HW115902   1.745   1.506  12.096 -0.9924  0.5705 -3.5594
 1422SOL    HW215903   1.653   1.615  12.114  0.2456  0.7069  0.2447
 1423SOL     OW15904   3.605   4.544   6.956  0.5639  0.5318  0.0556
 1423SOL    HW115905   3.613   4.454   6.987 -1.7692 -0.0929 -1.1662
 1423SOL    HW215906   3.552   4.579   7.027  0.7827 -0.6894  0.8284
 1424SOL     OW15907   3.853   1.122   1.914 -0.5393  0.1511 -0.1755
 1424SOL    HW115908   3.780   1.102   1.974  1.0266  1.9300  2.3522
 1424SOL    HW215909   3.835   1.048   1.857 -1.1126 -1.1794  1.7247
 1425SOL     OW15910   2.314   2.293   5.919 -0.2666 -0.4189  0.2114
 1425SOL    HW115911   2.247   2.348   5.959  0.4656  0.3971  0.3303
 1425SOL    HW215912   2.259   2.225   5.880 -0.0945  0.5230 -1.6938
 1426SOL     OW15913   3.037   1.011   2.205 -0.1670 -0.1395 -0.1753
 1426SOL    HW115914   3.003   0.960   2.279 -1.9914  0.8369 -0.3390
 1426SOL    HW215915   3.085   0.945   2.155  0.1233 -0.2079  0.1984
 1427SOL     OW15916   1.860   1.785   1.745 -0.0738 -0.1124 -0.2704
 1427SOL    HW115917   1.879   1.875   1.774  2.0462 -0.9125  0.8047
 1427SOL    HW215918   1.831   1.792   1.654  2.6894 -0.2897 -1.1466
 1428SOL     OW15919   1.483   3.355   1.335  0.9726  0.3562 -0.1410
 1428SOL    HW115920   1.444   3.347   1.422  0.6742  0.4394 -0.2672
 1428SOL    HW215921   1.433   3.295   1.280 -2.9335  1.9971  1.6033
 1429SOL     OW15922   4.542   3.410   2.145 -0.4982  0.0919  0.4744
 1429SOL    HW115923   4.557   3.396   2.238 -0.5652  1.1148  0.6328
 1429SOL    HW215924   4.624   3.376   2.109  0.0566  0.6250  1.2597
 1430SOL     OW15925   3.121   3.886   8.661  1.0492 -0.3698  0.0767
 1430SOL    HW115926   3.176   3.933   8.723  0.5321  0.4640 -0.0947
 1430SOL    HW215927   3.030   3.885   8.690  1.0181  0.0165 -0.0080
 1431SOL     OW15928   1.137   0.930   3.493  0.2834  0.0390 -0.4090
 1431SOL    HW115929   1.217   0.901   3.536 -0.1170 -1.7963 -0.8732
 1431SOL    HW215930   1.075   0.938   3.567 -0.1842  1.3462 -0.9477
 1432SOL     OW15931   4.077   0.210   3.230 -0.1829 -0.5046 -0.1060
 1432SOL    HW115932   4.111   0.292   3.193 -1.0189 -0.4609 -0.7606
 1432SOL    HW215933   4.146   0.185   3.291  0.6578 -2.6335 -1.9248
 1433SOL     OW15934   2.115   2.222  11.168  0.9720 -0.3152 -0.0869
 1433SOL    HW115935   2.078   2.215  11.256  1.3009  0.5627  0.1225
 1433SOL    HW215936   2.121   2.131  11.138  0.5855 -1.2765  2.8063
 1434SOL     OW15937   3.184   1.201   6.617  0.0250 -0.1296 -0.3107
 1434SOL    HW115938   3.163   1.172   6.706  1.7804 -0.4950 -0.0184
 1434SOL    HW215939   3.185   1.296   6.622 -0.4199 -0.1364 -0.1362
 1435SOL     OW15940   3.060   3.303   5.255 -0.3005 -0.1963 -0.4118
 1435SOL    HW115941   3.017   3.225   5.219 -0.6034  0.0976 -0.6974
 1435SOL    HW215942   3.070   3.359   5.177 -0.8840 -0.8325 -0.9395
 1436SOL     OW15943   4.345   4.348   7.421 -0.0634  0.0530  0.2000
 1436SOL    HW115944   4.340   4.342   7.516  1.7600 -0.3662  0.2569
 1436SOL    HW215945   4.301   4.434   7.420 -0.2424 -0.0470 -1.2048
 1437SOL     OW15946   0.074   2.068  13.539 -0.5579 -0.3769 -0.3050
 1437SOL    HW115947   0.046   2.160  13.539  1.7225  0.3289  0.3665
 1437SOL    HW215948   0.169   2.078  13.551 -0.5972  0.6116 -0.7883
 1438SOL     OW15949   2.538   3.928   3.524 -0.2469  0.0950 -0.2656
 1438SOL    HW115950   2.447   3.954   3.540  0.0078  1.1111 -0.4728
 1438SOL    HW215951   2.556   3.945   3.432 -0.3524  3.3267  0.3355
 1439SOL     OW15952   3.069   4.605   4.461  0.2492 -0.2274 -0.2758
 1439SOL    HW115953   3.130   4.542   4.500  0.5945 -1.1561 -2.3197
 1439SOL    HW215954   3.011   4.599   4.537 -0.3372  1.0569 -0.6092
 1440SOL     OW15955   0.090   3.769   6.690 -0.0943  0.4537  0.1475
 1440SOL    HW115956   0.035   3.755   6.613  1.2114  0.0447 -0.7163
 1440SOL    HW215957   0.175   3.767   6.645 -0.6394 -0.2796 -0.8552
 1441SOL     OW15958   3.992   1.518   9.899  0.1909  0.2232 -0.3565
 1441SOL    HW115959   3.923   1.530   9.965  0.2630  1.1758 -0.4428
 1441SOL    HW215960   3.949   1.557   9.822 -3.2852 -1.8492  0.5542
 1442SOL     OW15961   4.313   3.649   2.113 -0.0996 -0.6364  0.0116
 1442SOL    HW115962   4.287   3.579   2.173 -0.3512  0.5611  1.3028
 1442SOL    HW215963   4.409   3.642   2.105 -0.1039 -4.3291  3.1085
 1443SOL     OW15964   2.343   1.029   9.138  0.2107  0.2480 -0.3136
 1443SOL    HW115965   2.371   0.959   9.197  2.6106  2.0565  0.6470
 1443SOL    HW215966   2.418   1.085   9.153 -0.5077  0.9210  0.7483
 1444SOL     OW15967   0.549   4.055   0.957 -0.0683  0.5274  0.6738
 1444SOL    HW115968   0.464   4.042   0.998 -0.3040 -1.0907 -0.3442
 1444SOL    HW215969   0.540   4.135   0.905  3.0124  0.3129 -0.2317
 1445SOL     OW15970   3.373   1.124   7.209  0.1335  0.3636  0.2404
 1445SOL    HW115971   3.467   1.141   7.212 -0.1938  2.1676  0.5006
 1445SOL    HW215972   3.372   1.076   7.126  0.2081  1.1683 -0.2389
 1446SOL     OW15973   1.273   3.106  14.731  0.7935  0.3178 -0.2005
 1446SOL    HW115974   1.364   3.088  14.711 -0.0738 -2.5162 -1.5986
 1446SOL    HW215975   1.279   3.194  14.769 -1.6312  1.4002 -2.2332
 1447SOL     OW15976   2.469   3.316  13.585 -0.1014 -0.3506  0.4281
 1447SOL    HW115977   2.554   3.343  13.620 -0.3604  2.3892 -1.0123
 1447SOL    HW215978   2.495   3.315  13.493  0.4829 -0.0565  0.5850
 1448SOL     OW15979   1.017   0.018   6.114  0.6938  0.3705 -0.1701
 1448SOL    HW115980   1.048   0.063   6.193 -0.3170  2.3464 -0.9000
 1448SOL    HW215981   0.959   4.695   6.159  0.6193  0.9397  0.5030
 1449SOL     OW15982   1.958   1.066   5.291 -0.0907 -0.2754 -0.6996
 1449SOL    HW115983   2.028   1.129   5.309 -4.0356  2.9097  3.4612
 1449SOL    HW215984   1.945   1.092   5.200  0.2750  0.7112 -0.4743
 1450SOL     OW15985   4.502   2.763  15.366  0.4842 -0.3353 -0.1512
 1450SOL    HW115986   4.521   2.820  15.440 -0.9013 -0.4413  0.2786
 1450SOL    HW215987   4.580   2.709  15.352 -0.8003 -1.9196 -1.1852
 1451SOL     OW15988   4.582   4.109   7.071  0.1483  0.0252  0.3450
 1451SOL    HW115989   4.608   4.115   6.979  1.6439 -0.8330  0.7087
 1451SOL    HW215990   4.553   4.199   7.086 -2.3464 -0.8157  0.5810
 1452SOL     OW15991   3.094   2.458  12.198  0.3259 -0.1982  0.4611
 1452SOL    HW115992   3.125   2.383  12.248  1.0466 -1.5901 -2.0585
 1452SOL    HW215993   3.004   2.460  12.232 -0.3564 -2.4529 -1.2189
 1453SOL     OW15994   2.527   0.781   7.999 -0.0264  0.3638 -0.1391
 1453SOL    HW115995   2.558   0.836   7.927 -1.1650  3.0059  1.3433
 1453SOL    HW215996   2.598   0.789   8.062  0.4817  0.7925 -0.7708
 1454SOL     OW15997   1.778   2.325   5.949 -0.7448  0.2531  0.2138
 1454SOL    HW115998   1.802   2.409   5.912  1.7391  0.0237  1.2953
 1454SOL    HW215999   1.795   2.338   6.043  0.5574 -1.5786  0.2307
 1455SOL     OW16000   3.212   1.927   5.897  0.1381 -0.5299  0.1236
 1455SOL    HW116001   3.240   1.926   5.805 -0.6136 -0.0868 -0.1137
 1455SOL    HW216002   3.136   1.984   5.882  1.0481  0.1484 -2.0245
 1456SOL     OW16003   0.097   2.768   5.512  0.6793  0.6369 -0.3149
 1456SOL    HW116004   0.083   2.700   5.446 -0.4018  0.6596 -0.0994
 1456SOL    HW216005   0.070   2.848   5.466 -2.1072 -1.1490 -1.7674
 1457SOL     OW16006   4.010   0.769   2.768 -0.3878  0.0782  0.0119
 1457SOL    HW116007   3.941   0.712   2.734  0.5478 -0.8149 -0.3942
 1457SOL    HW216008   4.009   0.823   2.689  1.8510 -1.3352 -1.0017
 1458SOL     OW16009   0.407   1.798  16.944  0.3571  0.6330 -0.4352
 1458SOL    HW116010   0.447   1.860  17.005  2.6269 -1.9079  0.6741
 1458SOL    HW216011   0.355   1.743  17.003 -0.3522  2.3622  0.5315
 1459SOL     OW16012   3.183   1.239   3.397 -0.3838  0.2877 -0.1652
 1459SOL    HW116013   3.267   1.253   3.354  0.6829  0.4453  1.9966
 1459SOL    HW216014   3.175   1.144   3.410  2.3735 -0.0492 -1.0501
 1460SOL     OW16015   3.259   1.147   9.253  0.3218  0.4543 -0.1254
 1460SOL    HW116016   3.301   1.146   9.339 -2.7504 -3.2656  1.3264
 1460SOL    HW216017   3.176   1.113   9.286  1.4196 -0.7889  1.3525
 1461SOL     OW16018   0.003   0.574   7.535 -0.0846  0.5334  0.4363
 1461SOL    HW116019   4.737   0.584   7.440 -1.5715 -1.6615  0.2615
 1461SOL    HW216020   0.098   0.587   7.532  0.0691 -0.5697  0.3136
 1462SOL     OW16021   1.880   3.658   7.556  0.2516  0.0854  0.2773
 1462SOL    HW116022   1.948   3.649   7.623  1.3313  1.3172 -0.6407
 1462SOL    HW216023   1.887   3.572   7.515 -0.9683  0.0111  0.2307
 1463SOL     OW16024   3.064   1.303   0.647  0.1150 -0.2970  0.1164
 1463SOL    HW116025   3.057   1.322   0.740 -0.5971  0.2914 -0.0569
 1463SOL    HW216026   2.974   1.325   0.621  0.5495 -0.1121 -1.2222
 1464SOL     OW16027   3.450   0.191  11.709 -0.2133  0.6584 -0.1217
 1464SOL    HW116028   3.528   0.226  11.753  1.2528  1.1854 -3.1069
 1464SOL    HW216029   3.496   0.130  11.650 -0.5849  1.2327 -1.0051
 1465SOL     OW16030   1.701   4.463   3.578 -0.1754  0.2398  0.5220
 1465SOL    HW116031   1.763   4.492   3.511 -0.0569 -1.4563 -0.0974
 1465SOL    HW216032   1.702   4.540   3.635 -0.1740  1.1198 -0.6679
 1466SOL     OW16033   3.160   0.372  15.782 -0.0632  0.4510  0.0115
 1466SOL    HW116034   3.084   0.343  15.732  0.5228  1.0410 -1.2172
 1466SOL    HW216035   3.229   0.337  15.725  0.1386 -0.8002  1.0248
 1467SOL     OW16036   1.977   1.404   7.953  0.3964 -0.3381 -0.2631
 1467SOL    HW116037   2.003   1.336   8.015  2.2691  1.5058  0.9539
 1467SOL    HW216038   1.893   1.370   7.921 -0.1705 -0.4088  1.3408
 1468SOL     OW16039   2.850   4.539   6.586  0.2624 -0.1642  0.4089
 1468SOL    HW116040   2.818   4.610   6.531  1.0021  1.0330  1.5259
 1468SOL    HW216041   2.927   4.579   6.625  0.3608 -0.5892  0.6564
 1469SOL     OW16042   0.861   1.849   0.512  0.3827  0.5147 -0.1691
 1469SOL    HW116043   0.824   1.919   0.566 -1.7928  0.4760 -1.5990
 1469SOL    HW216044   0.893   1.892   0.433  2.8255  0.6456  0.8773
 1470SOL     OW16045   2.267   2.671   4.841  1.1422 -0.0536 -0.1580
 1470SOL    HW116046   2.315   2.729   4.782 -2.4277  0.2365 -2.8466
 1470SOL    HW216047   2.275   2.592   4.788  0.4453  0.2419 -0.7144
 1471SOL     OW16048   0.512   3.547   4.759 -0.2206 -0.3608 -0.1781
 1471SOL    HW116049   0.536   3.564   4.850 -2.3729  1.0949  0.0989
 1471SOL    HW216050   0.500   3.452   4.768 -1.1838 -0.1008  1.2295
 1472SOL     OW16051   4.707   4.674   7.912 -0.2508  0.0856 -0.0517
 1472SOL    HW116052   0.033   4.689   7.982  0.0529 -0.5224 -0.1915
 1472SOL    HW216053   0.006   4.730   7.843  2.4828 -1.5736  0.0321
 1473SOL     OW16054   3.943   0.824   3.985 -0.2912 -0.0794 -0.0603
 1473SOL    HW116055   3.935   0.757   3.917 -2.3961 -0.4160  0.4983
 1473SOL    HW216056   3.879   0.887   3.952 -1.8399 -1.7572 -0.3067
 1474SOL     OW16057   4.415   0.127   1.731 -0.0932 -0.1082 -0.0738
 1474SOL    HW116058   4.504   0.154   1.755  0.4775 -0.2111 -2.0832
 1474SOL    HW216059   4.368   0.208   1.750 -1.8835 -1.0404 -0.5614
 1475SOL     OW16060   1.298   0.068   2.397  0.4522  0.0475 -0.3400
 1475SOL    HW116061   1.204   0.080   2.411  0.7797  1.6837  0.5360
 1475SOL    HW216062   1.301   0.054   2.303 -1.1297  0.0876 -0.3889
 1476SOL     OW16063   1.231   3.447   2.566 -0.5962 -0.5186  0.3592
 1476SOL    HW116064   1.323   3.426   2.554 -0.0988  1.7441  0.2194
 1476SOL    HW216065   1.202   3.458   2.475  1.0804 -2.3648 -0.3910
 1477SOL     OW16066   3.741   2.266  15.820 -0.4168 -0.0705 -0.2180
 1477SOL    HW116067   3.696   2.297  15.742 -0.4282  1.3832  0.3750
 1477SOL    HW216068   3.805   2.335  15.836 -2.2363  1.0124  2.2504
 1478SOL     OW16069   4.423   2.513   3.777 -0.4357 -0.3346 -0.2890
 1478SOL    HW116070   4.497   2.564   3.745 -2.9684  3.3797 -0.2271
 1478SOL    HW216071   4.365   2.501   3.702 -0.0984  2.7967 -1.0509
 1479SOL     OW16072   0.000   3.667   6.465  1.4278 -0.2831 -0.3504
 1479SOL    HW116073   4.736   3.628   6.378 -0.8648 -1.3065  0.1529
 1479SOL    HW216074   4.650   3.641   6.492  1.5041  0.3189  0.4662
 1480SOL     OW16075   4.648   4.525  16.418  0.3196 -0.1524  0.3964
 1480SOL    HW116076   4.642   4.506  16.324 -0.3508  3.1035 -0.2126
 1480SOL    HW216077   4.721   4.587  16.420  1.0047 -0.8961 -0.9825
 1481SOL     OW16078   4.708   2.034  11.248 -0.2945 -0.3574 -0.2115
 1481SOL    HW116079   4.690   2.122  11.283  0.7843 -0.3359  0.3200
 1481SOL    HW216080   0.048   2.037  11.193  0.1101  1.2407  0.4432
 1482SOL     OW16081   1.230   1.166   1.837 -0.0550  0.0039 -0.0659
 1482SOL    HW116082   1.303   1.104   1.835  1.7635  2.1806 -0.5493
 1482SOL    HW216083   1.286   1.237   1.866 -1.7588  0.7691  1.3629
 1483SOL     OW16084   1.719   4.054   3.990  0.7723  0.0242  0.3019
 1483SOL    HW116085   1.717   4.055   3.894 -0.8859 -1.4599  0.3297
 1483SOL    HW216086   1.628   4.081   4.003  0.1835 -2.9685  2.3045
 1484SOL     OW16087   4.245   2.292   2.631  0.3667 -0.1799 -0.7822
 1484SOL    HW116088   4.220   2.200   2.625 -0.7367  0.1965 -1.7578
 1484SOL    HW216089   4.341   2.294   2.626  0.5165 -0.4640  2.0941
 1485SOL     OW16090   4.120   2.570  15.950  0.6030  0.9662 -0.3857
 1485SOL    HW116091   4.172   2.498  15.912  2.2722  0.5010  2.8159
 1485SOL    HW216092   4.039   2.531  15.918  2.1733 -2.7533  0.1189
 1486SOL     OW16093   0.119   4.334   1.866  0.5365 -0.1098  0.0875
 1486SOL    HW116094   0.037   4.354   1.912  0.1644 -1.4605  0.0250
 1486SOL    HW216095   0.130   4.250   1.910  0.6747 -0.5686 -0.8283
 1487SOL     OW16096   0.818   3.338   7.742 -0.0288  0.4242 -0.5948
 1487SOL    HW116097   0.750   3.322   7.808  2.5755 -0.6133  1.8033
 1487SOL    HW216098   0.789   3.421   7.705 -2.6279  0.0391  0.5881
 1488SOL     OW16099   2.768   0.981   3.259 -0.1439  0.3712 -0.1502
 1488SOL    HW116100   2.864   0.984   3.256  0.0041 -0.8102  2.7510
 1488SOL    HW216101   2.747   1.022   3.175 -4.2898  0.5928  0.9835
 1489SOL     OW16102   2.550   1.899   4.691 -0.5463 -1.0775 -0.0356
 1489SOL    HW116103   2.609   1.895   4.766  0.2643 -3.1405 -0.8115
 1489SOL    HW216104   2.610   1.906   4.617 -0.5215  0.8721  0.1666
 1490SOL     OW16105   2.026   4.134  14.799  0.4502  0.7566 -0.2659
 1490SOL    HW116106   2.056   4.137  14.708 -2.5395 -0.6556 -1.2971
 1490SOL    HW216107   2.103   4.139  14.856  0.8843  0.7769 -0.8557
 1491SOL     OW16108   1.669   0.679  10.291 -0.5356  0.5511  0.2844
 1491SOL    HW116109   1.666   0.664  10.385 -1.1558  0.9156  0.3192
 1491SOL    HW216110   1.576   0.663  10.274 -0.2815  0.2603 -0.8213
 1492SOL     OW16111   2.154   0.197   0.974  0.2482 -0.4549  0.5038
 1492SOL    HW116112   2.201   0.121   1.008  0.2434 -0.6468  0.0798
 1492SOL    HW216113   2.066   0.161   0.979 -0.2653  0.6206 -0.5883
 1493SOL     OW16114   3.025   0.760  13.009 -0.7436  0.1428 -0.1158
 1493SOL    HW116115   3.006   0.835  12.952 -1.0084  0.2390  0.0973
 1493SOL    HW216116   3.027   0.693  12.941 -0.7236 -0.0009  0.0272
 1494SOL     OW16117   4.105   2.498  17.041  0.4052  0.1344 -0.6811
 1494SOL    HW116118   4.073   2.564  16.979 -1.5732 -0.1170  0.0710
 1494SOL    HW216119   4.075   2.535  17.124 -1.2527  0.7514 -1.5403
 1495SOL     OW16120   1.197   2.177   5.042  0.1730 -0.2461 -0.0212
 1495SOL    HW116121   1.193   2.269   5.019  0.8534 -0.0344  0.6972
 1495SOL    HW216122   1.106   2.167   5.069  0.9802 -1.9584  2.1714
 1496SOL     OW16123   4.406   1.200   3.366  0.8769  0.4039  0.7519
 1496SOL    HW116124   4.324   1.235   3.399  0.1642  0.6328 -1.2316
 1496SOL    HW216125   4.453   1.203   3.449  1.1762  2.0626  0.5252
 1497SOL     OW16126   0.219   4.727   5.623  0.5943  0.4456  0.3709
 1497SOL    HW116127   0.161   4.694   5.553  0.2638  2.9708 -0.5535
 1497SOL    HW216128   0.181   4.700   5.706 -1.1792  0.4433 -0.4309
 1498SOL     OW16129   0.930   3.391   0.993  0.1375 -0.6192  0.2146
 1498SOL    HW116130   0.845   3.349   1.000 -0.1182 -0.1208  0.1433
 1498SOL    HW216131   0.896   3.479   1.010 -0.8285 -0.9551  0.0054
 1499SOL     OW16132   0.525   2.510   0.198  0.2087  0.5505 -0.0213
 1499SOL    HW116133   0.558   2.421   0.212 -3.5100 -0.9477 -0.6618
 1499SOL    HW216134   0.432   2.499   0.220 -0.3326  1.8229 -1.6323
 1500SOL     OW16135   4.706   0.553   5.492  0.3092  0.7866  0.6837
 1500SOL    HW116136   0.027   0.629   5.501  0.7070  0.4613  0.8207
 1500SOL    HW216137   4.668   0.555   5.404 -0.0464  1.3959  0.8513
 1501SOL     OW16138   0.206   2.558   7.170 -0.2033 -0.3351 -0.2968
 1501SOL    HW116139   0.240   2.647   7.155 -0.2195  0.1147  2.2491
 1501SOL    HW216140   0.146   2.547   7.097 -1.1552 -1.2439  0.6315
 1502SOL     OW16141   0.015   1.546   9.986  0.0827 -0.5415 -0.6352
 1502SOL    HW116142   0.068   1.581  10.057 -1.5603 -0.1714  0.3961
 1502SOL    HW216143   0.022   1.605   9.910  0.9235 -2.0815 -1.7668
 1503SOL     OW16144   0.084   4.410   1.191 -0.4501 -0.6874 -0.3928
 1503SOL    HW116145   0.076   4.326   1.236 -1.4924 -0.7228 -0.6564
 1503SOL    HW216146   0.095   4.460   1.272 -2.8703  0.5282 -0.7961
 1504SOL     OW16147   2.140   2.005   3.151 -0.6096  0.1170 -0.5059
 1504SOL    HW116148   2.061   2.008   3.205 -1.7844 -1.4875 -2.1285
 1504SOL    HW216149   2.137   2.097   3.126  2.1710 -0.0888 -1.6804
 1505SOL     OW16150   0.252   3.377   2.059  0.3831 -0.0031  0.4722
 1505SOL    HW116151   0.212   3.459   2.087  2.6025  0.5261  2.0959
 1505SOL    HW216152   0.318   3.383   2.128  1.3617  0.7623 -0.5528
 1506SOL     OW16153   1.943   1.660  16.262 -0.0050  0.3681  0.2853
 1506SOL    HW116154   1.969   1.568  16.255 -3.2876 -0.5946  0.7391
 1506SOL    HW216155   1.961   1.678  16.355 -2.7608  2.6382  0.3714
 1507SOL     OW16156   1.186   1.427   4.132  0.6391 -0.8269 -0.4112
 1507SOL    HW116157   1.281   1.412   4.126  0.7350 -0.8322  1.0342
 1507SOL    HW216158   1.166   1.384   4.050 -1.1697 -0.8589  0.0585
 1508SOL     OW16159   4.455   2.515   6.822  0.0786  0.2995  0.0935
 1508SOL    HW116160   4.366   2.506   6.786  0.3254  0.9594 -0.6904
 1508SOL    HW216161   4.493   2.429   6.800  0.1704 -0.0154  1.5113
 1509SOL     OW16162   1.084   0.105   1.930 -0.1891 -0.1961 -0.0599
 1509SOL    HW116163   0.991   0.118   1.949 -0.0565  0.3693  0.2040
 1509SOL    HW216164   1.111   0.197   1.925 -0.5955 -0.0459  0.5150
 1510SOL     OW16165   0.233   2.375   7.767 -0.1707 -0.2216 -0.3096
 1510SOL    HW116166   0.176   2.314   7.721 -1.9879  0.8715  0.5090
 1510SOL    HW216167   0.184   2.455   7.752  3.1700  1.4364 -2.3316
 1511SOL     OW16168   1.303   4.335   3.294 -0.3123  0.2574 -0.5657
 1511SOL    HW116169   1.369   4.279   3.334  1.0883  0.9633 -1.8553
 1511SOL    HW216170   1.227   4.288   3.326 -0.5259  1.3745  0.5278
 1512SOL     OW16171   3.430   0.301   4.681 -0.0159 -0.3083 -0.3554
 1512SOL    HW116172   3.505   0.247   4.705  0.6451  0.8226  0.0829
 1512SOL    HW216173   3.403   0.257   4.601 -0.5022  0.3639 -0.5580
 1513SOL     OW16174   3.771   3.314   9.185  0.5305  0.0425 -0.4270
 1513SOL    HW116175   3.718   3.285   9.111  0.6671 -1.2334 -0.0286
 1513SOL    HW216176   3.708   3.287   9.251 -0.9736 -1.0243 -2.3019
 1514SOL     OW16177   2.316   3.779   4.481  0.3645 -0.1006  0.0602
 1514SOL    HW116178   2.331   3.871   4.459 -2.5191  0.1853 -0.7234
 1514SOL    HW216179   2.299   3.745   4.393  1.2280 -1.6217  0.4810
 1515SOL     OW16180   1.288   4.578   9.072  0.7324  0.3601 -0.3698
 1515SOL    HW116181   1.254   4.489   9.059  1.6359 -0.2556  1.4943
 1515SOL    HW216182   1.316   4.600   8.983  0.8319  0.7661 -0.2395
 1516SOL     OW16183   3.055   2.720   2.471 -0.3880  0.4096 -0.4084
 1516SOL    HW116184   3.034   2.706   2.378  2.7731  1.0277 -1.2187
 1516SOL    HW216185   3.023   2.809   2.489 -1.8711  0.3716 -2.8755
 1517SOL     OW16186   0.053   4.481   3.729  0.0548 -0.4905 -0.2289
 1517SOL    HW116187   4.711   4.514   3.771 -1.3640 -0.1829 -3.1904
 1517SOL    HW216188   0.085   4.420   3.795 -2.5472 -1.1057  0.4928
 1518SOL     OW16189   4.541   1.387  15.789  0.3725 -0.3643 -0.0165
 1518SOL    HW116190   4.563   1.432  15.708 -1.8425 -1.3818 -1.1788
 1518SOL    HW216191   4.526   1.456  15.853 -2.3388  0.8697 -1.9920
 1519SOL     OW16192   4.373   4.446  15.551 -0.4346  0.4290 -0.2849
 1519SOL    HW116193   4.298   4.408  15.596  1.3408 -2.0466  0.6045
 1519SOL    HW216194   4.349   4.449  15.459 -3.5326 -1.2909  0.4934
 1520SOL     OW16195   4.024   2.094   4.476  0.4220  0.6810 -0.7804
 1520SOL    HW116196   4.007   2.000   4.469  1.3402  0.5039 -0.5846
 1520SOL    HW216197   4.118   2.099   4.493  0.4844 -0.0571 -0.9321
 1521SOL     OW16198   2.905   3.510   0.385 -0.0216 -0.1839 -0.3936
 1521SOL    HW116199   2.896   3.595   0.342 -3.7436 -1.3545 -1.9423
 1521SOL    HW216200   2.903   3.543   0.475 -2.8096 -0.0805 -0.4816
 1522SOL     OW16201   0.239   4.246   4.269 -0.4172 -0.0370  0.2189
 1522SOL    HW116202   0.299   4.319   4.286 -0.4117 -0.2041  0.9402
 1522SOL    HW216203   0.285   4.195   4.203  0.2711  1.7548 -0.6732
 1523SOL     OW16204   1.798   3.630   1.972 -0.1575  0.1055 -0.0301
 1523SOL    HW116205   1.888   3.628   1.942  0.6957 -0.9655  2.6235
 1523SOL    HW216206   1.776   3.542   1.942 -0.1532  0.2395 -0.4303
 1524SOL     OW16207   2.557   4.316   9.888  0.2630 -0.3329 -0.5197
 1524SOL    HW116208   2.580   4.397   9.843 -1.6189  0.8414  0.6143
 1524SOL    HW216209   2.606   4.244   9.848 -0.9989 -0.2944 -2.1338
 1525SOL     OW16210   1.285   3.004  10.344  0.1707 -0.3126  0.5554
 1525SOL    HW116211   1.350   3.053  10.395  0.9492 -0.5903 -0.1683
 1525SOL    HW216212   1.299   2.921  10.389  0.7771 -0.4269  0.1555
 1526SOL     OW16213   3.600   3.197   9.005  0.1424 -1.0110 -0.2207
 1526SOL    HW116214   3.552   3.194   8.922 -0.3203 -0.0941  0.0193
 1526SOL    HW216215   3.535   3.164   9.066 -0.5265 -1.5131 -1.2093
 1527SOL     OW16216   4.659   3.978  10.134 -0.3240  0.2408  0.1954
 1527SOL    HW116217   0.003   4.020  10.107 -0.1356  0.4337  1.0676
 1527SOL    HW216218   4.676   3.885  10.115  3.0970  0.9754 -0.3646
 1528SOL     OW16219   1.094   4.471   1.973 -0.2819 -0.3981  0.1387
 1528SOL    HW116220   1.130   4.401   2.028  1.3042  0.1055 -0.2697
 1528SOL    HW216221   1.080   4.430   1.888 -0.1985 -2.8177  1.2874
 1529SOL     OW16222   2.307   1.231   5.016 -0.2460  0.0829  0.3836
 1529SOL    HW116223   2.296   1.314   4.969  1.8153  0.0202 -0.2083
 1529SOL    HW216224   2.395   1.206   4.986 -0.7759  1.4195 -2.2267
 1530SOL     OW16225   3.319   1.240   4.017  0.0633 -0.1115 -0.2098
 1530SOL    HW116226   3.385   1.309   4.025  2.1110 -1.7740 -2.7857
 1530SOL    HW216227   3.250   1.279   3.964 -1.4434 -1.1533  0.9750
 1531SOL     OW16228   1.757   4.222   5.047  0.1543 -0.1953 -0.4669
 1531SOL    HW116229   1.722   4.283   5.112  3.5136  0.6342  0.5292
 1531SOL    HW216230   1.673   4.196   5.010 -1.1756 -0.3886  2.7056
 1532SOL     OW16231   1.357   3.980   7.629  0.4162 -0.5743  0.3071
 1532SOL    HW116232   1.344   3.979   7.724 -0.0599  0.0901  0.2441
 1532SOL    HW216233   1.360   3.885   7.615 -0.7921 -0.4558 -0.6909
 1533SOL     OW16234   2.196   0.062  12.657  0.2826  0.1111 -0.1689
 1533SOL    HW116235   2.274   0.083  12.606  1.4525 -2.2888  0.6197
 1533SOL    HW216236   2.123   0.084  12.599 -0.0161 -1.5408 -0.4016
 1534SOL     OW16237   2.664   1.977  15.110  0.1491  0.6378 -0.0846
 1534SOL    HW116238   2.739   2.036  15.109 -0.2677  1.1745  0.6201
 1534SOL    HW216239   2.671   1.930  15.026 -1.2867 -2.7067  1.6714
 1535SOL     OW16240   2.989   0.656   5.125 -0.4033  0.0916 -0.0322
 1535SOL    HW116241   3.048   0.730   5.136 -0.3067  0.0260 -0.1157
 1535SOL    HW216242   3.041   0.594   5.074 -1.1639  1.7469 -2.7826
 1536SOL     OW16243   4.321   3.010   4.129 -0.4301  0.4262 -0.0332
 1536SOL    HW116244   4.235   2.970   4.144  1.1932 -3.5216 -1.3006
 1536SOL    HW216245   4.374   2.931   4.134  1.6179  1.8248  0.1242
 1537SOL     OW16246   0.537   2.424  14.017  0.1488  0.5654  0.2275
 1537SOL    HW116247   0.628   2.395  14.011  0.8242  2.3967  1.7252
 1537SOL    HW216248   0.526   2.428  14.112  0.4803  0.3176  0.2767
 1538SOL     OW16249   4.513   2.286   9.167 -0.4362  0.0788  0.1883
 1538SOL    HW116250   4.530   2.197   9.137 -0.1629  0.2355 -0.1216
 1538SOL    HW216251   4.584   2.297   9.231  0.7502  0.6264 -1.2107
 1539SOL     OW16252   1.582   0.805   8.111 -0.0231 -0.0875 -0.0294
 1539SOL    HW116253   1.642   0.765   8.048  0.3942 -0.6764  0.7292
 1539SOL    HW216254   1.576   0.894   8.076  0.7237 -1.0520 -2.6268
 1540SOL     OW16255   1.601   2.533   1.755 -0.1818 -0.2075  0.4601
 1540SOL    HW116256   1.544   2.602   1.791  0.2616  0.7205 -0.6136
 1540SOL    HW216257   1.536   2.469   1.727  1.6753 -1.9053  0.0632
 1541SOL     OW16258   0.404   1.263  15.928  0.0896  0.4135 -0.3060
 1541SOL    HW116259   0.489   1.220  15.918 -0.1246  0.6021 -2.9085
 1541SOL    HW216260   0.390   1.251  16.022 -1.9506 -2.5830 -0.9821
 1542SOL     OW16261   4.452   4.549  10.601 -0.3747 -0.1068  0.1458
 1542SOL    HW116262   4.444   4.496  10.522  0.0524 -0.0765  0.0830
 1542SOL    HW216263   4.360   4.563  10.621 -0.2752 -0.4193  0.8335
 1543SOL     OW16264   1.764   4.517  17.237 -0.0486 -0.0121  0.5976
 1543SOL    HW116265   1.727   4.591  17.287  0.0729  0.3500  0.1546
 1543SOL    HW216266   1.786   4.468  17.316 -1.2736 -2.2657 -0.4773
 1544SOL     OW16267   0.508   3.302   5.642 -0.0698  0.0766  0.0274
 1544SOL    HW116268   0.600   3.292   5.618  0.2811 -0.4881  1.6229
 1544SOL    HW216269   0.514   3.349   5.726 -1.2410 -0.4016  0.3703
 1545SOL     OW16270   3.077   1.677   6.519  0.2801 -0.3610 -0.4564
 1545SOL    HW116271   2.991   1.716   6.535  0.8925  1.0135 -0.5171
 1545SOL    HW216272   3.126   1.746   6.475  1.3920 -0.9945 -0.2148
 1546SOL     OW16273   2.032   2.329  17.646  0.4557 -0.2084 -0.1509
 1546SOL    HW116274   2.019   2.291  17.734  3.2002 -1.2894 -0.2127
 1546SOL    HW216275   1.978   2.266  17.598 -1.4681 -0.6578  2.5834
 1547SOL     OW16276   4.135   0.400   6.744  0.1529  0.1051 -0.5381
 1547SOL    HW116277   4.150   0.490   6.772 -0.1969 -0.4044  1.2984
 1547SOL    HW216278   4.158   0.411   6.652  1.9333  2.9027  0.2352
 1548SOL     OW16279   0.753   0.951  13.295 -0.1295 -0.5961  0.0450
 1548SOL    HW116280   0.707   0.939  13.378 -0.3784 -1.7743 -0.2722
 1548SOL    HW216281   0.842   0.977  13.318 -0.2829  0.2787 -0.3207
 1549SOL     OW16282   3.678   2.576  16.960 -0.2401 -0.4260 -0.0943
 1549SOL    HW116283   3.649   2.524  16.885 -1.2491 -0.0949  0.0599
 1549SOL    HW216284   3.692   2.511  17.028 -0.0661 -1.3153 -0.9744
 1550SOL     OW16285   2.926   3.632   3.111  0.2222 -0.6690 -0.2375
 1550SOL    HW116286   2.888   3.691   3.176 -0.3500 -2.0279  0.6557
 1550SOL    HW216287   2.869   3.558   3.133 -2.0709  1.5168  1.1298
 1551SOL     OW16288   3.408   0.887  17.151  0.3100  1.0940 -0.2122
 1551SOL    HW116289   3.435   0.848  17.068  0.8788 -0.3662  0.6649
 1551SOL    HW216290   3.493   0.922  17.176  0.5364  1.0658 -0.9561
 1552SOL     OW16291   3.796   3.807   5.552 -0.4108  0.0348 -0.3106
 1552SOL    HW116292   3.771   3.721   5.518  0.5107 -1.1399  1.9971
 1552SOL    HW216293   3.789   3.863   5.475 -1.1106 -3.9961 -3.1771
 1553SOL     OW16294   0.914   2.346  13.136  0.2464 -0.3515 -0.5874
 1553SOL    HW116295   0.835   2.389  13.166  0.4657 -0.5718  0.2888
 1553SOL    HW216296   0.976   2.364  13.206 -2.6007  2.2145  1.2381
 1554SOL     OW16297   4.483   2.326   6.613 -0.3106 -0.4791  0.0764
 1554SOL    HW116298   4.565   2.355   6.574  2.2018 -2.7526  3.7139
 1554SOL    HW216299   4.419   2.377   6.563  1.2131  1.4720  0.0942
 1555SOL     OW16300   3.639   4.134   0.478 -0.6028  0.1330 -0.0554
 1555SOL    HW116301   3.720   4.133   0.426 -0.9460  1.9413 -0.6484
 1555SOL    HW216302   3.667   4.125   0.569 -0.0044 -0.4071 -0.2948
 1556SOL     OW16303   1.744   2.970   1.604 -0.0351  0.0224 -0.4394
 1556SOL    HW116304   1.681   3.018   1.657  1.7406  0.4595  1.3058
 1556SOL    HW216305   1.734   3.028   1.528 -0.3373  0.8010  0.1956
 1557SOL     OW16306   1.341   2.854  11.190 -0.2914 -0.2844  0.6243
 1557SOL    HW116307   1.340   2.780  11.250  1.2974 -0.5998  0.2641
 1557SOL    HW216308   1.288   2.911  11.246 -0.2089  0.9669 -0.5705
 1558SOL     OW16309   3.882   1.941   7.131 -0.1112  0.2716 -0.3650
 1558SOL    HW116310   3.825   1.966   7.205  2.0647 -0.5290  1.5728
 1558SOL    HW216311   3.935   1.874   7.174 -2.0277 -1.4759 -0.7410
 1559SOL     OW16312   4.722   2.727   9.326 -0.3404 -0.2959 -0.0335
 1559SOL    HW116313   0.068   2.731   9.373 -1.0271  0.0645  1.1362
 1559SOL    HW216314   4.673   2.785   9.384  0.1291 -1.2232  1.2670
 1560SOL     OW16315   3.562   3.138   9.647 -0.6754  0.1285 -0.2817
 1560SOL    HW116316   3.516   3.210   9.690 -0.7663 -0.8305  1.2037
 1560SOL    HW216317   3.655   3.155   9.662 -0.6133 -0.8646  0.4492
 1561SOL     OW16318   3.171   0.036  13.398  0.2293  0.0647  0.5489
 1561SOL    HW116319   3.266   0.040  13.388  0.1160 -0.0397 -0.6001
 1561SOL    HW216320   3.149   0.128  13.414 -0.6072 -0.5796  3.0567
 1562SOL     OW16321   0.466   2.761  11.357 -0.4114 -0.1451 -1.0801
 1562SOL    HW116322   0.420   2.843  11.378  1.7155  1.2766 -1.9371
 1562SOL    HW216323   0.393   2.705  11.329 -1.1473  0.8091 -1.0685
 1563SOL     OW16324   4.121   4.680   6.460  0.2162  0.2023  0.0745
 1563SOL    HW116325   4.078   4.607   6.505  0.7090  0.9463  1.7340
 1563SOL    HW216326   4.047   4.700   6.403 -0.5987 -0.7043  0.8206
 1564SOL     OW16327   3.853   0.676  13.532 -0.3145 -0.1728  0.0018
 1564SOL    HW116328   3.830   0.767  13.512  0.0796  0.4166  2.1872
 1564SOL    HW216329   3.914   0.684  13.605  1.2962  1.5719 -1.5383
 1565SOL     OW16330   1.696   2.652  15.249  0.8983  0.3470 -0.3811
 1565SOL    HW116331   1.734   2.670  15.335  0.4992 -1.1877  0.1028
 1565SOL    HW216332   1.746   2.580  15.211  2.0274 -0.1231  1.9829
 1566SOL     OW16333   3.961   2.241   5.410 -0.5900 -0.7999  0.2467
 1566SOL    HW116334   4.018   2.164   5.416  0.1266 -0.3611 -0.7031
 1566SOL    HW216335   3.885   2.207   5.363 -0.7167 -1.4061  0.9034
 1567SOL     OW16336   3.921   2.156   8.903  0.4702 -0.5214 -0.1821
 1567SOL    HW116337   3.991   2.205   8.861 -0.5965  0.7088 -0.4900
 1567SOL    HW216338   3.967   2.092   8.959  2.1703 -1.3436 -2.4855
 1568SOL     OW16339   4.464   3.998  14.791 -0.1206 -0.4822 -0.1093
 1568SOL    HW116340   4.451   4.062  14.721  2.0136  0.4119  0.3200
 1568SOL    HW216341   4.439   4.056  14.863  1.7839 -0.9982  0.9510
 1569SOL     OW16342   4.321   0.255   5.572  0.5697  0.7883  0.2350
 1569SOL    HW116343   4.404   0.302   5.564  0.1118  1.1917 -2.1257
 1569SOL    HW216344   4.335   0.169   5.533 -0.5324 -0.3366  2.2991
 1570SOL     OW16345   2.331   3.696   3.329  0.0057  0.4610 -0.2822
 1570SOL    HW116346   2.361   3.738   3.409 -1.6942  0.9845  0.0806
 1570SOL    HW216347   2.363   3.746   3.254 -0.9709  0.4222 -0.7231
 1571SOL     OW16348   4.391   3.850   5.845  0.3497  0.0010  0.2206
 1571SOL    HW116349   4.358   3.782   5.904 -0.2787 -0.3842 -0.5855
 1571SOL    HW216350   4.442   3.903   5.907 -1.6864  1.5294  0.5740
 1572SOL     OW16351   0.770   2.570   0.406 -0.0826 -0.2789 -0.4182
 1572SOL    HW116352   0.756   2.639   0.341  1.1934  0.8576  0.5122
 1572SOL    HW216353   0.698   2.577   0.469 -1.7441 -1.2823 -2.2138
 1573SOL     OW16354   2.945   1.869   7.064  0.4570  0.0122 -0.0337
 1573SOL    HW116355   2.976   1.947   7.109  1.9753  0.3838 -1.7061
 1573SOL    HW216356   2.851   1.867   7.080  0.4701 -1.8496 -0.1806
 1574SOL     OW16357   4.679   1.351   3.010 -0.1549  0.5765 -0.0645
 1574SOL    HW116358   0.010   1.410   3.042  1.7742 -0.1316 -2.9309
 1574SOL    HW216359   4.677   1.397   2.926 -2.8457  2.2616  0.9189
 1575SOL     OW16360   0.575   3.618  15.298 -0.8767  0.2694  0.4157
 1575SOL    HW116361   0.527   3.694  15.266 -1.5667 -0.6117 -0.6351
 1575SOL    HW216362   0.523   3.594  15.375  1.5750 -0.4328  1.8384
 1576SOL     OW16363   1.678   1.300   1.508  0.6113  0.0105  0.1731
 1576SOL    HW116364   1.653   1.346   1.427 -1.3991 -0.7823  0.3360
 1576SOL    HW216365   1.740   1.241   1.466  3.1400  2.2046  0.8177
 1577SOL     OW16366   3.109   0.980   3.461  0.0236  0.0140  0.0672
 1577SOL    HW116367   3.134   0.904   3.410  1.5719  0.6889 -0.1882
 1577SOL    HW216368   3.070   0.927   3.531  1.6913  3.2883  3.5357
 1578SOL     OW16369   0.764   3.643   7.142  0.1681 -0.0840  0.0313
 1578SOL    HW116370   0.715   3.684   7.071 -1.2998 -0.4189  0.8498
 1578SOL    HW216371   0.777   3.718   7.200 -1.7339 -1.1359  1.8199
 1579SOL     OW16372   2.172   0.744   7.849  0.0304 -0.8859  0.0075
 1579SOL    HW116373   2.160   0.754   7.944  3.1227  0.3223  0.2765
 1579SOL    HW216374   2.252   0.795   7.836 -0.8085 -0.0834 -2.0769
 1580SOL     OW16375   2.757   3.910   1.513  0.0131 -0.3556 -0.2438
 1580SOL    HW116376   2.796   3.854   1.580 -0.4474 -2.8305 -2.0500
 1580SOL    HW216377   2.780   3.996   1.550  2.2507  0.2320 -3.0229
 1581SOL     OW16378   2.735   3.572  11.886  0.0142  0.2249  0.1755
 1581SOL    HW116379   2.710   3.491  11.930 -1.9127  0.3161 -0.7627
 1581SOL    HW216380   2.809   3.599  11.939  1.1171  0.1654 -1.3287
 1582SOL     OW16381   0.660   3.009   6.733 -0.3694  0.2011 -0.3016
 1582SOL    HW116382   0.744   3.041   6.765 -0.2807  0.2681 -0.6117
 1582SOL    HW216383   0.611   2.974   6.808  0.9372 -0.8484  0.0623
 1583SOL     OW16384   3.700   4.386   6.658  0.0323 -0.4184 -0.0487
 1583SOL    HW116385   3.618   4.408   6.702 -0.3743 -0.0953 -0.9510
 1583SOL    HW216386   3.694   4.290   6.655 -1.5493 -0.2107 -3.4249
 1584SOL     OW16387   1.465   0.499   4.002  0.7417  0.1033 -0.0045
 1584SOL    HW116388   1.388   0.503   4.058 -0.1132  0.5259 -1.2058
 1584SOL    HW216389   1.489   0.410   4.026 -0.0843 -0.1813 -0.2480
 1585SOL     OW16390   1.045   4.262   4.713  0.4946 -0.1726  0.3264
 1585SOL    HW116391   1.052   4.353   4.685 -0.6570  0.3898  1.8964
 1585SOL    HW216392   1.083   4.221   4.635  0.4214  1.2896 -0.4799
 1586SOL     OW16393   0.298   4.613  14.933 -0.7852 -0.3376  0.2883
 1586SOL    HW116394   0.310   4.706  14.913 -0.6236 -0.9639 -2.5548
 1586SOL    HW216395   0.378   4.582  14.891 -0.6517  1.3417 -0.7135
 1587SOL     OW16396   1.941   0.604   4.995 -0.0807  0.4077  1.0377
 1587SOL    HW116397   1.989   0.673   4.949 -1.2841  2.5138  2.8972
 1587SOL    HW216398   1.861   0.644   5.029  0.0155  1.3072  0.1962
 1588SOL     OW16399   0.149   4.324  12.339 -0.0947  0.0313 -0.3903
 1588SOL    HW116400   0.216   4.381  12.377 -1.5680  0.9513  0.8613
 1588SOL    HW216401   0.095   4.381  12.284  0.3734  0.2947 -0.5733
 1589SOL     OW16402   0.132   1.260   8.592 -0.3865 -0.5744  0.0379
 1589SOL    HW116403   0.076   1.329   8.556 -1.4173 -0.9848  0.8340
 1589SOL    HW216404   0.216   1.300   8.571 -1.3452  0.6362 -1.5089
 1590SOL     OW16405   3.571   0.189  16.210  0.1116 -0.0227  0.0248
 1590SOL    HW116406   3.560   0.221  16.300 -0.2790 -0.0791 -0.0034
 1590SOL    HW216407   3.505   0.121  16.200 -1.1712  0.9721  1.6992
 1591SOL     OW16408   3.603   2.991   8.504  0.9513 -0.5059  0.5727
 1591SOL    HW116409   3.658   3.058   8.463 -0.8730  0.3880 -0.4003
 1591SOL    HW216410   3.527   2.972   8.450  1.5221 -1.5443  0.1323
 1592SOL     OW16411   0.232   0.966   5.518 -0.0594  0.1132  0.4693
 1592SOL    HW116412   0.251   0.885   5.565 -2.4125  1.5511  3.8737
 1592SOL    HW216413   0.137   0.978   5.520 -0.0149  0.3131  1.6539
 1593SOL     OW16414   0.264   2.268   5.907  0.7241 -0.2825 -0.7032
 1593SOL    HW116415   0.205   2.201   5.943  0.4804 -0.0817 -0.7311
 1593SOL    HW216416   0.209   2.317   5.847 -0.3219 -0.7778 -0.1545
 1594SOL     OW16417   0.325   2.497  10.821 -0.4485  0.1099  0.7219
 1594SOL    HW116418   0.371   2.559  10.764  1.7673 -0.8956  1.3963
 1594SOL    HW216419   0.394   2.433  10.839  0.9518  1.4256  0.0766
 1595SOL     OW16420   2.372   0.165   3.259  0.3893  0.2613  0.5644
 1595SOL    HW116421   2.296   0.113   3.233 -1.1869  2.4128  0.8866
 1595SOL    HW216422   2.426   0.108   3.315  0.1338 -1.0020 -0.4752
 1596SOL     OW16423   0.730   4.295   6.238  0.3051 -0.3353  0.4020
 1596SOL    HW116424   0.687   4.352   6.301 -1.1581 -1.1971  0.1978
 1596SOL    HW216425   0.674   4.220   6.258  0.4268 -0.4937  0.1522
 1597SOL     OW16426   3.316   1.060   4.230  0.8076 -0.0069 -0.3607
 1597SOL    HW116427   3.311   1.127   4.162  0.3229  1.8544  1.5438
 1597SOL    HW216428   3.334   1.125   4.297 -0.8837 -1.0155  1.1003
 1598SOL     OW16429   0.086   1.208   2.670  0.0414 -0.0672 -0.0840
 1598SOL    HW116430   0.153   1.273   2.688 -0.1217  0.4758 -1.4611
 1598SOL    HW216431   0.015   1.261   2.634  0.3466  0.4895  0.1377
 1599SOL     OW16432   2.217   3.446  13.461  0.2133  0.1295  0.3260
 1599SOL    HW116433   2.269   3.522  13.432  1.3413 -1.0442 -0.7632
 1599SOL    HW216434   2.285   3.392  13.500  2.7460  0.3003 -3.8006
 1600SOL     OW16435   2.018   3.365   2.056 -0.2690  0.1667  0.7231
 1600SOL    HW116436   2.047   3.301   2.121  1.6444  0.9219  0.6380
 1600SOL    HW216437   2.030   3.320   1.973 -0.8980  0.9888  0.1850
 1601SOL     OW16438   3.278   4.173   7.759  0.0655  0.1899  0.4744
 1601SOL    HW116439   3.367   4.194   7.790 -0.2930 -1.9656  2.9471
 1601SOL    HW216440   3.292   4.214   7.674  1.2878 -1.9598 -0.3411
 1602SOL     OW16441   4.422   4.321  10.345 -0.1257 -0.3252  0.5427
 1602SOL    HW116442   4.516   4.302  10.339 -0.3970 -1.6052  0.2305
 1602SOL    HW216443   4.378   4.240  10.372  1.6802 -1.2871  0.6266
 1603SOL     OW16444   0.931   0.106   8.881 -0.1819 -0.3783  0.5405
 1603SOL    HW116445   1.014   0.062   8.899  1.8831  2.4963 -2.0453
 1603SOL    HW216446   0.912   0.152   8.963  3.9889  0.3231  1.1076
 1604SOL     OW16447   2.539   3.237   5.357  0.0386 -0.2433  0.0757
 1604SOL    HW116448   2.508   3.268   5.442 -0.5139  0.3118 -0.3280
 1604SOL    HW216449   2.628   3.271   5.347  0.1017 -0.7353 -1.0568
 1605SOL     OW16450   0.829   1.662   8.836  0.3402  0.1530 -0.2549
 1605SOL    HW116451   0.746   1.614   8.845  0.6236 -0.2081  0.4118
 1605SOL    HW216452   0.790   1.748   8.856  1.2119 -0.2301  2.9796
 1606SOL     OW16453   3.740   0.013   3.795 -0.0201 -0.8142  0.5377
 1606SOL    HW116454   3.648   4.734   3.819 -0.2011  1.3973  1.4072
 1606SOL    HW216455   3.744   0.101   3.833 -0.3683 -1.3613  1.8657
 1607SOL     OW16456   2.230   2.710   2.738  0.2845  0.0683  0.3379
 1607SOL    HW116457   2.192   2.730   2.653  0.6451 -0.6059  0.0158
 1607SOL    HW216458   2.269   2.796   2.757  0.6976 -0.3631  1.4403
 1608SOL     OW16459   2.822   2.436  10.615 -0.0300  0.5053  0.1689
 1608SOL    HW116460   2.841   2.360  10.670 -0.7102 -0.0380 -0.3455
 1608SOL    HW216461   2.777   2.496  10.675 -1.2724 -0.8720  0.6389
 1609SOL     OW16462   3.475   2.752  16.951  0.1814 -0.6170  0.0887
 1609SOL    HW116463   3.549   2.703  16.917  0.4627  0.1230 -0.3701
 1609SOL    HW216464   3.399   2.702  16.921 -0.6048  0.1775  0.7288
 1610SOL     OW16465   4.189   0.925  14.755 -0.1538  0.4638  0.8657
 1610SOL    HW116466   4.266   0.982  14.760  0.4046 -0.4088  2.3090
 1610SOL    HW216467   4.140   0.964  14.683 -0.3791  0.3770  0.9734
 1611SOL     OW16468   4.437   3.167   3.941  0.1628 -0.6747 -0.0645
 1611SOL    HW116469   4.388   3.129   4.014 -3.9062  0.3235 -2.2805
 1611SOL    HW216470   4.505   3.100   3.950  2.0999  0.9475 -2.7748
 1612SOL     OW16471   1.180   2.310   5.504  0.2491  0.6622 -0.3630
 1612SOL    HW116472   1.234   2.268   5.437 -0.0911 -0.7848  0.2665
 1612SOL    HW216473   1.212   2.269   5.584 -0.7210 -0.1859 -0.4125
 1613SOL     OW16474   3.634   1.970   2.860 -0.1834 -0.3475  0.0881
 1613SOL    HW116475   3.625   1.886   2.905  1.7604 -0.0914  0.9348
 1613SOL    HW216476   3.543   1.998   2.865 -0.5383 -1.7507  1.4155
 1614SOL     OW16477   0.178   2.498   6.742  0.3310 -0.4283  0.2716
 1614SOL    HW116478   0.132   2.485   6.659  2.5451 -0.5636 -0.9369
 1614SOL    HW216479   0.236   2.422   6.745 -0.4615 -0.9852  1.2954
 1615SOL     OW16480   2.326   4.080   3.271  0.1408  0.5508 -0.4589
 1615SOL    HW116481   2.270   4.068   3.194 -1.8808 -3.6243  1.6702
 1615SOL    HW216482   2.350   4.172   3.262  1.0785  0.2726 -0.8128
 1616SOL     OW16483   4.199   4.304  12.279 -0.2945  0.0339  0.1624
 1616SOL    HW116484   4.222   4.313  12.371 -0.0576  0.2693  0.0813
 1616SOL    HW216485   4.266   4.240  12.256  1.5256  1.5122  1.3415
 1617SOL     OW16486   3.600   3.065   3.796 -0.1388 -0.6808  0.6395
 1617SOL    HW116487   3.515   3.106   3.811  1.0579  2.4890 -1.0924
 1617SOL    HW216488   3.652   3.146   3.799  1.0352 -1.5168  3.0267
 1618SOL     OW16489   0.643   2.965   5.561  0.2680 -0.4738  0.0822
 1618SOL    HW116490   0.697   3.039   5.533  0.4397  0.3409  2.6212
 1618SOL    HW216491   0.666   2.904   5.491  0.3293  1.3071 -1.4682
 1619SOL     OW16492   1.985   2.762   9.702  0.0691 -0.3798  0.3814
 1619SOL    HW116493   1.893   2.754   9.727  0.4837 -0.8663  1.7457
 1619SOL    HW216494   2.022   2.685   9.746 -0.8514 -0.4027  1.1186
 1620SOL     OW16495   1.560   4.263   9.574  0.4033  0.7852 -0.5773
 1620SOL    HW116496   1.470   4.263   9.609  0.6338  1.5388  0.0325
 1620SOL    HW216497   1.588   4.349   9.605 -0.3395  0.5729  0.6950
 1621SOL     OW16498   1.160   1.943   3.398 -0.3839  0.4030  0.1164
 1621SOL    HW116499   1.205   2.027   3.389 -2.2202  1.6620  2.9128
 1621SOL    HW216500   1.071   1.972   3.413 -1.4685 -1.8159 -1.9804
 1622SOL     OW16501   1.267   1.694   7.629 -0.1072 -0.5053  0.4426
 1622SOL    HW116502   1.192   1.637   7.644  0.0825 -0.3313  2.0822
 1622SOL    HW216503   1.317   1.700   7.711  1.2529  2.3622 -0.5938
 1623SOL     OW16504   0.757   2.220   6.112 -0.0423 -0.8489 -0.2698
 1623SOL    HW116505   0.701   2.142   6.122 -0.3811 -1.1522 -4.8558
 1623SOL    HW216506   0.838   2.180   6.081 -0.0394 -1.7993  0.9195
 1624SOL     OW16507   1.085   2.893   2.449  0.7169 -0.0171  0.6121
 1624SOL    HW116508   1.068   2.882   2.542 -0.2632 -0.3963  0.3853
 1624SOL    HW216509   1.122   2.979   2.469  1.0906  0.2578 -1.2022
 1625SOL     OW16510   1.131   3.390   1.262 -0.4532 -0.0361 -0.0937
 1625SOL    HW116511   1.149   3.382   1.168 -1.2024 -2.6737 -0.0129
 1625SOL    HW216512   1.035   3.395   1.265 -0.5460 -1.0783 -1.1469
 1626SOL     OW16513   0.999   2.021   2.498  0.6971 -0.4541  0.0236
 1626SOL    HW116514   0.991   1.926   2.485 -1.7735 -0.1531 -0.5774
 1626SOL    HW216515   0.987   2.053   2.409 -2.1139  0.0737  0.6145
 1627SOL     OW16516   3.082   1.657   5.041  0.2968 -0.0652  0.1881
 1627SOL    HW116517   3.092   1.581   4.984  1.1717  0.8664 -0.9291
 1627SOL    HW216518   3.084   1.733   4.983  0.9453 -0.7722 -0.7146
 1628SOL     OW16519   4.611   1.851  16.558 -0.1687 -0.0541  0.3957
 1628SOL    HW116520   4.576   1.812  16.478  0.2797  0.3360  0.0082
 1628SOL    HW216521   4.655   1.927  16.520 -0.0595 -0.3756 -0.1335
 1629SOL     OW16522   2.381   1.348   1.309  0.3981 -0.3753 -0.3228
 1629SOL    HW116523   2.340   1.352   1.222 -2.7924 -2.1942  1.1167
 1629SOL    HW216524   2.346   1.264   1.339  1.3306 -1.2255 -1.5629
 1630SOL     OW16525   1.510   3.415   2.620  0.0391 -0.0246  0.1208
 1630SOL    HW116526   1.568   3.476   2.573 -2.0740  0.9543 -1.2182
 1630SOL    HW216527   1.583   3.383   2.673 -1.3326 -1.9985  0.8204
 1631SOL     OW16528   3.946   3.213   7.732 -0.1909 -0.0688  0.0300
 1631SOL    HW116529   4.003   3.271   7.782  0.8744  0.4204 -1.7226
 1631SOL    HW216530   3.997   3.207   7.651  3.3269 -0.1692  2.2599
 1632SOL     OW16531   3.516   4.548  16.692  0.2681  0.0372  0.1216
 1632SOL    HW116532   3.548   4.561  16.603  0.1160  1.7189  0.3291
 1632SOL    HW216533   3.432   4.592  16.687 -0.2062 -0.8809 -0.1349
 1633SOL     OW16534   0.062   3.980   4.981  0.1691 -0.1300 -0.1765
 1633SOL    HW116535   4.708   3.953   4.975 -0.4643  1.7131  1.4230
 1633SOL    HW216536   0.094   3.986   4.891 -1.6155  1.1670 -0.7099
 1634SOL     OW16537   0.152   4.058  12.372  0.4243  0.4405  0.0284
 1634SOL    HW116538   0.151   4.148  12.338 -0.7914 -0.1371 -1.4645
 1634SOL    HW216539   0.195   4.012  12.299  2.3997  1.3132  0.6252
 1635SOL     OW16540   3.285   1.840   6.384 -0.0397 -0.2421  0.9565
 1635SOL    HW116541   3.340   1.866   6.310  0.1419 -4.2334 -0.3221
 1635SOL    HW216542   3.358   1.819   6.442  1.0835 -1.3643 -0.8754
 1636SOL     OW16543   3.243   0.380  16.403 -0.6805  0.1563 -0.4651
 1636SOL    HW116544   3.174   0.343  16.458 -1.3261 -0.3799 -1.6274
 1636SOL    HW216545   3.223   0.473  16.394 -0.5464  0.3930  1.9007
 1637SOL     OW16546   0.729   0.352   2.715 -0.4441  0.0960 -0.3280
 1637SOL    HW116547   0.780   0.279   2.680  0.7049  0.9175 -0.3595
 1637SOL    HW216548   0.675   0.383   2.642 -1.0525 -0.0678  0.0499
 1638SOL     OW16549   2.660   4.678   9.403 -0.4766 -0.5737 -0.6978
 1638SOL    HW116550   2.746   4.719   9.410 -1.3370  1.3064 -1.1895
 1638SOL    HW216551   2.605   0.014   9.428 -0.9132 -0.9400 -0.5952
 1639SOL     OW16552   2.064   1.094  11.918 -0.5174  0.0779 -0.3822
 1639SOL    HW116553   2.125   1.155  11.957 -0.6057 -0.6400  0.8958
 1639SOL    HW216554   2.039   1.040  11.994  0.0842 -0.6398 -0.6997
 1640SOL     OW16555   3.078   1.969  13.818  0.1583  0.0217 -0.5002
 1640SOL    HW116556   3.164   1.990  13.854  0.2786 -1.1070 -0.1042
 1640SOL    HW216557   3.052   1.908  13.887  1.0993  0.4400  0.2236
 1641SOL     OW16558   3.306   1.512   5.662  0.7567  0.4608  0.4178
 1641SOL    HW116559   3.254   1.506   5.742 -0.3248  0.0220 -0.3043
 1641SOL    HW216560   3.249   1.569   5.609 -0.6098 -1.5055 -0.2126
 1642SOL     OW16561   3.790   4.254   7.133 -0.3676 -0.4604  0.1062
 1642SOL    HW116562   3.776   4.260   7.228 -0.0721  1.3240  0.0522
 1642SOL    HW216563   3.735   4.183   7.101 -0.1724 -0.2721 -0.6490
 1643SOL     OW16564   3.788   3.666   4.017 -0.4058  0.7800  0.6447
 1643SOL    HW116565   3.797   3.617   4.099  2.0804  0.0853 -0.0475
 1643SOL    HW216566   3.713   3.627   3.974  0.1634  0.5756 -0.1672
 1644SOL     OW16567   3.266   4.306   3.511  0.1655 -0.5096  0.0946
 1644SOL    HW116568   3.290   4.368   3.442  0.1388 -1.0849 -0.4288
 1644SOL    HW216569   3.224   4.358   3.580 -1.2370 -1.4102 -0.0840
 1645SOL     OW16570   0.636   2.065   8.788 -1.1119 -0.5918 -0.6142
 1645SOL    HW116571   0.721   2.035   8.822  0.7011  3.6774 -1.3289
 1645SOL    HW216572   0.661   2.090   8.699  3.6626 -0.6659  0.6967
 1646SOL     OW16573   1.251   3.342   4.401  0.0913 -0.4535  0.2649
 1646SOL    HW116574   1.204   3.393   4.466  0.4160 -0.0643  0.1930
 1646SOL    HW216575   1.292   3.270   4.449 -0.0590 -0.0490  1.0047
 1647SOL     OW16576   0.733   4.572   5.531 -0.1937 -0.4433  0.0859
 1647SOL    HW116577   0.776   4.505   5.584 -1.8033  0.2912  2.3600
 1647SOL    HW216578   0.643   4.542   5.542 -0.3888 -0.0081 -0.3532
 1648SOL     OW16579   4.543   2.007   9.218 -0.0212  0.5011 -0.0801
 1648SOL    HW116580   4.484   2.001   9.293  0.9607  0.3674  0.6847
 1648SOL    HW216581   4.624   1.967   9.250  0.5314  1.1419 -0.6938
 1649SOL     OW16582   1.759   4.191  17.160  0.0833 -0.0898  0.7633
 1649SOL    HW116583   1.811   4.266  17.189  1.3892 -0.6026 -0.2130
 1649SOL    HW216584   1.790   4.181  17.070 -0.0477 -3.0541  1.0479
 1650SOL     OW16585   3.136   2.710  15.115  0.3497 -0.0135  0.0830
 1650SOL    HW116586   3.129   2.650  15.041 -1.0824 -0.4389  0.5399
 1650SOL    HW216587   3.162   2.648  15.184 -0.6511 -0.3786  0.1437
 1651SOL     OW16588   3.996   4.046   8.306 -0.2642  0.5585 -0.3952
 1651SOL    HW116589   4.000   4.032   8.401  0.8174 -0.3117 -0.5763
 1651SOL    HW216590   4.088   4.050   8.280  0.0376 -0.3762  0.5138
 1652SOL     OW16591   0.652   4.298   1.205 -0.0866  0.1432 -0.2182
 1652SOL    HW116592   0.725   4.322   1.148 -0.1558 -1.0045 -0.7757
 1652SOL    HW216593   0.691   4.234   1.264  1.5180  0.9127 -0.4394
 1653SOL     OW16594   4.164   2.827  12.740 -0.1764 -0.1271  0.0483
 1653SOL    HW116595   4.072   2.838  12.765 -0.0026  1.5745 -0.0507
 1653SOL    HW216596   4.173   2.776  12.660 -0.3252 -1.9046  1.1601
 1654SOL     OW16597   3.641   2.338   8.122 -0.3258 -0.5941 -0.4594
 1654SOL    HW116598   3.580   2.265   8.112  1.6511 -2.3910  0.4883
 1654SOL    HW216599   3.637   2.377   8.035 -3.2596 -1.9638 -0.9252
 1655SOL     OW16600   3.781   0.066   7.241  1.0586 -0.1994  0.6025
 1655SOL    HW116601   3.763   0.059   7.147  1.2422 -0.6554  0.6032
 1655SOL    HW216602   3.726   4.737   7.280  1.7435  0.4742  2.7417
 1656SOL     OW16603   0.174   0.355   6.707 -0.2876 -0.0229  0.8390
 1656SOL    HW116604   0.113   0.419   6.745 -0.7345  0.7523 -1.1934
 1656SOL    HW216605   0.122   0.277   6.685  0.9363  0.2841 -3.1219
 1657SOL     OW16606   0.146   4.432   9.060 -0.0391  0.7388  0.0049
 1657SOL    HW116607   0.169   4.341   9.039 -1.6165  0.2657  0.3527
 1657SOL    HW216608   0.102   4.416   9.144  1.4887  0.6682  0.8035
 1658SOL     OW16609   1.721   0.815   5.913  0.0649 -0.0576  0.1814
 1658SOL    HW116610   1.733   0.897   5.866  0.2428 -1.0635 -1.5116
 1658SOL    HW216611   1.772   0.759   5.855 -0.2651  0.4105 -0.5561
 1659SOL     OW16612   4.056   3.995   8.556  0.1701 -0.4144 -0.0921
 1659SOL    HW116613   4.050   3.904   8.584 -2.4506 -1.0605 -2.7285
 1659SOL    HW216614   4.066   4.048   8.635  0.9720  0.2678 -0.6514
 1660SOL     OW16615   3.223   4.359   2.693  0.3558  0.3637 -0.2652
 1660SOL    HW116616   3.186   4.345   2.606 -2.0114  0.0279  0.7888
 1660SOL    HW216617   3.219   4.271   2.730 -1.0360  0.8539  0.7455
 1661SOL     OW16618   1.824   4.001  14.228  0.7966  0.0884 -0.1645
 1661SOL    HW116619   1.824   3.980  14.321  0.4807  0.4825 -0.0752
 1661SOL    HW216620   1.745   3.948  14.214  0.8563  0.1894 -0.8920
 1662SOL     OW16621   3.514   3.459  10.649 -0.1290 -0.1635  0.3274
 1662SOL    HW116622   3.496   3.524  10.717  1.6911 -0.6317  1.2528
 1662SOL    HW216623   3.440   3.463  10.588  0.2772  0.4517 -0.1188
 1663SOL     OW16624   1.471   0.162   4.302 -0.2042  0.3900 -0.1509
 1663SOL    HW116625   1.551   0.189   4.348  0.3403 -0.1405 -0.7826
 1663SOL    HW216626   1.403   0.182   4.365  1.0078  1.3721  0.8550
 1664SOL     OW16627   1.471   4.243   1.677 -0.0396 -0.1973  0.6121
 1664SOL    HW116628   1.471   4.197   1.593  0.1776 -0.4189  0.7314
 1664SOL    HW216629   1.422   4.178   1.727 -2.1796  1.2872  0.4423
 1665SOL     OW16630   1.414   4.150  10.843 -0.3527  0.4530 -0.4347
 1665SOL    HW116631   1.467   4.202  10.783  0.8639  1.1595  1.2518
 1665SOL    HW216632   1.436   4.063  10.812  1.4782  0.9873 -0.6403
 1666SOL     OW16633   1.360   3.360   3.229 -0.7786 -0.3976 -0.5647
 1666SOL    HW116634   1.383   3.381   3.138 -3.3814 -0.9455 -1.3391
 1666SOL    HW216635   1.284   3.304   3.215 -0.7771 -0.5322 -0.0309
 1667SOL     OW16636   2.987   1.805  14.021  1.0167 -0.2644 -0.4155
 1667SOL    HW116637   2.947   1.883  14.059  1.1955 -0.8291  0.9529
 1667SOL    HW216638   2.915   1.743  14.035 -0.0631  1.1737  0.2800
 1668SOL     OW16639   0.596   0.257   4.725  0.4776  0.1380 -0.2593
 1668SOL    HW116640   0.504   0.274   4.706  0.3306  0.1264  0.4323
 1668SOL    HW216641   0.644   0.312   4.663 -2.0558  1.0946 -1.3869
 1669SOL     OW16642   3.051   1.567   4.112  0.2221  0.1024 -0.3491
 1669SOL    HW116643   3.063   1.478   4.078 -1.3665  0.2951 -1.4202
 1669SOL    HW216644   3.124   1.570   4.173  2.7452  0.9591 -3.4303
 1670SOL     OW16645   1.994   0.837   4.867  0.5695 -0.1316  0.4329
 1670SOL    HW116646   1.927   0.899   4.837 -0.8189 -2.7034 -1.7132
 1670SOL    HW216647   2.054   0.903   4.904  1.6777  0.0706 -1.7254
 1671SOL     OW16648   3.931   3.191   5.122  0.0416 -0.5810  0.4925
 1671SOL    HW116649   3.875   3.179   5.044  0.5044 -1.8820  0.3698
 1671SOL    HW216650   3.961   3.281   5.107 -1.0776 -0.2337  0.2981
 1672SOL     OW16651   2.884   4.561   3.454 -0.1627  0.2138  0.3371
 1672SOL    HW116652   2.942   4.485   3.442 -1.4351 -1.1169  2.5098
 1672SOL    HW216653   2.946   4.633   3.454 -0.1639  0.2144  0.1951
 1673SOL     OW16654   2.391   1.113  12.351 -0.0481  0.1654  0.0536
 1673SOL    HW116655   2.440   1.047  12.402  0.3170  0.9020  0.6594
 1673SOL    HW216656   2.458   1.166  12.307  0.5900  0.0531  0.8853
 1674SOL     OW16657   3.232   4.616   8.271 -0.1601  0.5884 -0.0219
 1674SOL    HW116658   3.141   4.610   8.241 -0.4357  1.1971  0.7000
 1674SOL    HW216659   3.231   4.628   8.366 -0.3171  0.5514 -0.0185
 1675SOL     OW16660   3.850   3.894   4.506 -0.4129 -0.3730 -0.0720
 1675SOL    HW116661   3.818   3.885   4.596  1.3019 -3.0438  0.2843
 1675SOL    HW216662   3.802   3.819   4.471 -0.3438 -0.3335 -0.2503
 1676SOL     OW16663   0.863   2.884   4.476 -0.5138  0.5410  0.6534
 1676SOL    HW116664   0.827   2.860   4.391  1.8092  2.8584 -1.0143
 1676SOL    HW216665   0.788   2.938   4.499 -0.3668  1.1187 -0.2213
 1677SOL     OW16666   0.681   3.573  12.606 -0.4751  0.1725  0.7876
 1677SOL    HW116667   0.629   3.607  12.533 -0.0612  0.8434  0.8052
 1677SOL    HW216668   0.626   3.606  12.677  1.4398  2.9176  0.9837
 1678SOL     OW16669   2.579   1.992   8.662 -0.0034  0.0238 -0.0461
 1678SOL    HW116670   2.674   1.992   8.659 -0.0039  1.9766  0.3425
 1678SOL    HW216671   2.568   2.030   8.749 -0.2063 -0.9715  0.3624
 1679SOL     OW16672   2.882   2.444   3.454  0.3381 -0.2278  0.1992
 1679SOL    HW116673   2.952   2.467   3.393  0.5027 -0.2532  0.3766
 1679SOL    HW216674   2.929   2.378   3.504 -2.7331 -3.2236 -0.8694
 1680SOL     OW16675   4.678   3.917   1.425 -0.0238  0.1802  0.6440
 1680SOL    HW116676   4.700   3.834   1.467  0.6877 -1.0753 -2.1684
 1680SOL    HW216677   4.608   3.946   1.483 -1.8094 -2.1795 -0.3244
 1681SOL     OW16678   4.135   4.166   7.908 -0.2716 -0.1758 -0.0417
 1681SOL    HW116679   4.182   4.082   7.910 -1.7760 -1.0595 -1.1661
 1681SOL    HW216680   4.201   4.217   7.955 -2.0890  0.9927  1.2127
 1682SOL     OW16681   1.910   2.337   4.585 -0.2247  0.1531 -0.5953
 1682SOL    HW116682   1.994   2.293   4.573 -0.4202 -0.6507  1.0682
 1682SOL    HW216683   1.854   2.262   4.565  0.6484 -0.3858 -1.0329
 1683SOL     OW16684   4.646   2.090   2.249  0.2848 -0.2880 -0.2502
 1683SOL    HW116685   4.565   2.136   2.225 -0.2325 -1.4642 -0.7649
 1683SOL    HW216686   4.630   2.004   2.211 -0.4980 -0.4114  0.3474
 1684SOL     OW16687   1.432   4.412   1.427  0.2203  0.3988 -0.9447
 1684SOL    HW116688   1.484   4.388   1.504 -2.0601 -0.8538  0.1912
 1684SOL    HW216689   1.469   4.498   1.407  1.5255  0.0170 -0.2127
 1685SOL     OW16690   2.151   3.704  17.579 -0.2897 -0.2773  0.0256
 1685SOL    HW116691   2.189   3.676  17.495  1.8919  1.1506  0.5409
 1685SOL    HW216692   2.186   3.790  17.601 -0.2267  0.1879 -1.8719
 1686SOL     OW16693   0.437   0.191   8.029 -0.2408  0.3276  0.0417
 1686SOL    HW116694   0.500   0.136   8.077 -1.0308  0.3070  1.0462
 1686SOL    HW216695   0.391   0.235   8.100  1.5624  1.2360  0.6449
 1687SOL     OW16696   4.416   4.382   3.300 -0.3414 -0.2979  0.1409
 1687SOL    HW116697   4.460   4.297   3.299 -2.2786 -1.3047  1.4108
 1687SOL    HW216698   4.454   4.418   3.380 -0.2290 -1.8011  0.7694
 1688SOL     OW16699   2.446   4.630  13.087 -0.8355 -0.6136 -0.4677
 1688SOL    HW116700   2.399   4.577  13.151 -0.1360 -1.2856 -0.5105
 1688SOL    HW216701   2.376   4.639  13.023  1.3254  1.6837 -2.5231
 1689SOL     OW16702   2.987   4.673  12.896 -1.0248  0.0886  0.0678
 1689SOL    HW116703   2.920   4.606  12.910  0.8925 -2.1658 -1.5160
 1689SOL    HW216704   3.037   4.673  12.977 -0.7122 -0.5803 -0.1289
 1690SOL     OW16705   0.908   1.367   5.813 -0.3197 -0.6777  0.1585
 1690SOL    HW116706   0.863   1.375   5.729 -1.3976 -0.3197  0.7647
 1690SOL    HW216707   0.986   1.316   5.793  0.1365 -0.4198  1.2216
 1691SOL     OW16708   4.335   2.524  15.620  0.4927 -0.0865  0.9924
 1691SOL    HW116709   4.273   2.596  15.610  0.1309 -0.3793  1.1123
 1691SOL    HW216710   4.345   2.509  15.714 -0.1410  0.0935  1.0907
 1692SOL     OW16711   0.078   1.764   0.454 -0.0358 -0.0016 -0.3470
 1692SOL    HW116712   0.070   1.841   0.398 -1.4309  0.2096  0.1496
 1692SOL    HW216713   0.041   1.788   0.539 -0.2811 -0.9516 -0.1889
 1693SOL     OW16714   1.098   2.218   0.660  0.2591  0.7327  0.3741
 1693SOL    HW116715   1.106   2.313   0.656 -1.3339  0.6761 -4.2412
 1693SOL    HW216716   1.024   2.200   0.602  0.7232  2.0289 -0.6140
 1694SOL     OW16717   2.718   3.461   7.835 -0.4223 -0.0067  0.0912
 1694SOL    HW116718   2.652   3.392   7.847 -1.7219  1.4689  1.4061
 1694SOL    HW216719   2.676   3.542   7.862  0.8452  1.4403 -2.3206
 1695SOL     OW16720   0.738   1.153   4.599  0.2592 -0.0186  0.1496
 1695SOL    HW116721   0.804   1.196   4.545  1.9044 -2.1633  0.4509
 1695SOL    HW216722   0.736   1.208   4.678  2.5933  1.4054 -0.7848
 1696SOL     OW16723   0.412   0.409   7.051 -0.4683 -0.3595 -0.4173
 1696SOL    HW116724   0.428   0.481   6.990 -2.0021  2.2945  2.3627
 1696SOL    HW216725   0.499   0.396   7.090 -1.3950 -3.2204  0.6757
 1697SOL     OW16726   2.137   2.185   8.066 -0.3420  0.2820 -0.1882
 1697SOL    HW116727   2.154   2.091   8.079 -1.0217  0.4020  1.6211
 1697SOL    HW216728   2.138   2.227   8.152 -0.5995 -0.1359  0.0214
 1698SOL     OW16729   3.996   2.953   5.922  0.0542  0.0052  0.5877
 1698SOL    HW116730   3.998   2.946   6.017  0.2924 -2.0458  0.4162
 1698SOL    HW216731   3.969   3.045   5.916  0.6127  0.1757  0.6819
 1699SOL     OW16732   4.484   4.194   2.222 -0.6015  0.6615 -0.0355
 1699SOL    HW116733   4.512   4.103   2.213 -0.3921  0.4213  2.8942
 1699SOL    HW216734   4.416   4.206   2.156 -1.3829  1.5786  0.9149
 1700SOL     OW16735   3.568   1.953   9.646 -0.2097  0.6547  0.2267
 1700SOL    HW116736   3.541   1.936   9.736  1.5483  1.5205  0.9303
 1700SOL    HW216737   3.489   1.980   9.599 -0.8247  0.1167  0.9654
 1701SOL     OW16738   2.578   0.771  10.715  0.5079  0.0168 -0.7182
 1701SOL    HW116739   2.626   0.711  10.658 -0.2940 -1.8088  0.5134
 1701SOL    HW216740   2.541   0.831  10.650 -0.7614 -0.4307 -0.4240
 1702SOL     OW16741   0.256   0.758   8.418 -0.0742 -0.0005  0.0833
 1702SOL    HW116742   0.285   0.770   8.508 -0.8765 -0.2487  0.3753
 1702SOL    HW216743   0.173   0.802   8.434  0.1991  0.0025  1.4933
 1703SOL     OW16744   1.334   2.686   8.310 -0.1354  0.5745 -0.4225
 1703SOL    HW116745   1.399   2.712   8.375  0.6511 -1.7161 -0.2857
 1703SOL    HW216746   1.264   2.657   8.369  2.5306 -1.8616  1.5623
 1704SOL     OW16747   1.856   3.829  10.039 -0.1759  0.0515  0.4088
 1704SOL    HW116748   1.875   3.865   9.952 -2.1801 -0.8130 -0.4018
 1704SOL    HW216749   1.821   3.908  10.081 -0.8380 -0.2660  0.4558
 1705SOL     OW16750   2.147   1.207   3.579 -0.9067  0.0804  0.0041
 1705SOL    HW116751   2.111   1.243   3.660 -0.0706  1.5152 -0.2654
 1705SOL    HW216752   2.236   1.183   3.605 -1.3765 -1.4129  0.2306
 1706SOL     OW16753   2.084   2.009  10.477 -0.7984 -0.5556 -0.3194
 1706SOL    HW116754   2.093   1.973  10.389  0.1719 -1.5858  0.1896
 1706SOL    HW216755   2.099   2.099  10.450 -0.7050 -0.2978  0.5858
 1707SOL     OW16756   4.192   2.991  15.800 -0.6363 -0.2252  0.0606
 1707SOL    HW116757   4.142   3.068  15.826 -2.5982 -1.3924 -0.2033
 1707SOL    HW216758   4.282   3.011  15.825 -0.7818  2.3904 -1.5220
 1708SOL     OW16759   2.435   4.233   2.525  0.4668 -0.2098  0.1364
 1708SOL    HW116760   2.530   4.220   2.530  0.9069  2.5020 -1.1790
 1708SOL    HW216761   2.413   4.225   2.433  0.0383  1.4470  0.1022
 1709SOL     OW16762   1.969   2.146   0.111 -0.0529 -0.3079 -0.5334
 1709SOL    HW116763   1.888   2.121   0.067 -0.2792  0.8503 -0.7642
 1709SOL    HW216764   2.020   2.065   0.113 -0.4906 -0.6225 -2.1832
 1710SOL     OW16765   3.150   4.605   5.427  0.0636 -0.2430  0.5074
 1710SOL    HW116766   3.113   4.541   5.489 -1.7900  1.7138  1.3961
 1710SOL    HW216767   3.241   4.622   5.454  1.3531 -1.8350 -2.8661
 1711SOL     OW16768   3.657   2.847  12.269  0.0641 -0.5098 -0.4276
 1711SOL    HW116769   3.618   2.902  12.337 -0.2813 -0.1722 -0.9041
 1711SOL    HW216770   3.646   2.758  12.303  0.5173 -1.5314 -2.9531
 1712SOL     OW16771   2.205   3.661   2.705 -0.0233 -0.6993  0.1843
 1712SOL    HW116772   2.139   3.631   2.642 -0.4044  0.9492 -0.1981
 1712SOL    HW216773   2.236   3.739   2.660 -1.9341 -0.8450 -1.4164
 1713SOL     OW16774   1.381   0.707   0.602 -0.0882 -0.2912 -0.0237
 1713SOL    HW116775   1.461   0.677   0.646 -0.1924 -0.2170  0.2171
 1713SOL    HW216776   1.408   0.785   0.554  0.0419 -1.1482 -1.3225
 1714SOL     OW16777   3.676   2.611  17.320  0.3493 -0.0114 -0.1937
 1714SOL    HW116778   3.640   2.532  17.280 -0.9785  1.2169 -1.4232
 1714SOL    HW216779   3.678   2.577  17.409  0.3863  1.7494  0.4767
 1715SOL     OW16780   4.197   4.081   6.098  1.1675 -0.1316  0.2991
 1715SOL    HW116781   4.225   3.990   6.108  0.9122 -0.0163  2.1323
 1715SOL    HW216782   4.265   4.111   6.038  1.0573  1.2526  0.8714
 1716SOL     OW16783   3.708   3.513   0.624  0.3146  0.1288  0.2080
 1716SOL    HW116784   3.663   3.596   0.606 -0.6741 -1.0520 -2.7721
 1716SOL    HW216785   3.643   3.444   0.609  0.3219  0.3835 -1.0250
 1717SOL     OW16786   2.036   0.924  12.138 -0.4416 -0.5382 -0.5958
 1717SOL    HW116787   2.123   0.887  12.127 -0.0738  0.8103 -2.1865
 1717SOL    HW216788   1.986   0.850  12.172  3.8860 -2.8512  0.6588
 1718SOL     OW16789   0.257   1.592   0.346  0.6029 -0.3418  0.0282
 1718SOL    HW116790   0.183   1.650   0.364  1.3971  0.4380  0.8368
 1718SOL    HW216791   0.331   1.646   0.375  0.3734  0.4283 -0.7936
 1719SOL     OW16792   1.444   3.732  10.225  0.1993 -0.1698  0.0651
 1719SOL    HW116793   1.392   3.662  10.265  1.3677 -1.4361 -0.6494
 1719SOL    HW216794   1.524   3.683  10.208  0.7280 -0.0448  2.2347
 1720SOL     OW16795   1.281   4.645  17.414  0.6231  0.3690  0.4533
 1720SOL    HW116796   1.368   4.605  17.409  0.9716  1.2162 -0.2608
 1720SOL    HW216797   1.224   4.590  17.468  0.0877  1.7392  1.2851
 1721SOL     OW16798   2.316   2.680   8.413  0.2200 -1.1042 -0.0658
 1721SOL    HW116799   2.380   2.717   8.473 -0.8296 -0.5896  0.7403
 1721SOL    HW216800   2.290   2.594   8.445 -2.3251 -0.7150 -1.0889
 1722SOL     OW16801   1.618   0.014  11.371 -0.2551  0.0105 -0.4375
 1722SOL    HW116802   1.666   4.671  11.387  0.0379 -0.0041 -1.3968
 1722SOL    HW216803   1.633   0.051  11.458  0.3035 -0.1479 -0.4652
 1723SOL     OW16804   0.281   2.414   0.254  0.0360  0.2965 -0.2283
 1723SOL    HW116805   0.220   2.340   0.252 -0.2443  0.4510  2.1686
 1723SOL    HW216806   0.230   2.486   0.292 -0.5518 -1.2567  1.9460
 1724SOL     OW16807   0.326   0.635  17.134  0.5831  0.0166 -0.7006
 1724SOL    HW116808   0.243   0.594  17.110  0.8586  0.2495 -2.0760
 1724SOL    HW216809   0.309   0.680  17.217  1.2536 -2.3822  0.7186
 1725SOL     OW16810   3.130   4.270   4.374 -0.0703 -0.1922 -0.2786
 1725SOL    HW116811   3.174   4.195   4.335 -1.8220 -0.8403 -1.0125
 1725SOL    HW216812   3.064   4.293   4.308  0.4970  1.1231 -0.3859
 1726SOL     OW16813   3.644   2.344  17.181 -0.5718 -0.1574  0.0651
 1726SOL    HW116814   3.553   2.337  17.155 -0.3014 -0.3424 -0.8462
 1726SOL    HW216815   3.646   2.259  17.225 -1.5899 -0.7948 -1.1461
 1727SOL     OW16816   3.250   3.792   3.118  0.4778  0.0300  0.1033
 1727SOL    HW116817   3.215   3.744   3.193 -0.3608  2.6493  1.3642
 1727SOL    HW216818   3.253   3.880   3.154 -0.5116  1.0704 -2.4222
 1728SOL     OW16819   2.535   0.831  16.572  0.0979  0.6748 -0.2824
 1728SOL    HW116820   2.579   0.777  16.638 -1.5165  2.5201  2.3301
 1728SOL    HW216821   2.589   0.910  16.572 -1.2000  1.5710 -1.6299
 1729SOL     OW16822   1.864   0.652   3.173 -0.7343  0.1620 -0.9384
 1729SOL    HW116823   1.944   0.600   3.187 -0.6758  0.5311  0.1157
 1729SOL    HW216824   1.788   0.609   3.213 -1.7822  0.8745 -2.1740
 1730SOL     OW16825   0.901   3.267   3.584 -0.1622  0.3563 -0.0006
 1730SOL    HW116826   0.893   3.177   3.554  1.4941  0.1579  0.1348
 1730SOL    HW216827   0.993   3.278   3.611 -0.2807 -1.1504  0.9816
 1731SOL     OW16828   2.849   2.525  12.534 -0.0659 -0.3606 -0.4542
 1731SOL    HW116829   2.902   2.603  12.518  0.3972 -0.3572  1.0585
 1731SOL    HW216830   2.763   2.553  12.565 -0.0088 -0.5096 -0.1612
 1732SOL     OW16831   0.392   2.876   9.743  0.5049 -0.4389  0.2137
 1732SOL    HW116832   0.331   2.936   9.785  0.6366 -0.1487 -0.0083
 1732SOL    HW216833   0.446   2.852   9.818  0.6781  1.4994  0.7114
 1733SOL     OW16834   4.468   3.767  14.901  0.4067  0.0771  0.2584
 1733SOL    HW116835   4.437   3.848  14.860 -1.2695 -1.2097 -1.0095
 1733SOL    HW216836   4.545   3.802  14.945 -1.1037 -0.6899  3.5081
 1734SOL     OW16837   4.274   4.272   8.487  1.1610 -0.2971  0.3968
 1734SOL    HW116838   4.309   4.226   8.563  0.1646 -0.3130  0.8464
 1734SOL    HW216839   4.267   4.203   8.422 -2.6216  1.5793 -1.1858
 1735SOL     OW16840   2.873   4.679   4.675  0.0833  0.1780 -0.3968
 1735SOL    HW116841   2.861   4.649   4.766 -2.4368  1.5180 -0.2876
 1735SOL    HW216842   2.824   0.024   4.679 -1.3951 -0.7631  1.1610
 1736SOL     OW16843   2.446   0.530   4.021 -0.3883  0.2664  0.0379
 1736SOL    HW116844   2.449   0.516   3.927  1.1045  0.9846 -0.0154
 1736SOL    HW216845   2.525   0.582   4.036 -1.0404  1.8387 -2.0983
 1737SOL     OW16846   1.160   1.139   4.270  1.0169 -0.0529 -0.2206
 1737SOL    HW116847   1.222   1.076   4.233  0.1205 -1.6278  0.9748
 1737SOL    HW216848   1.091   1.150   4.205 -0.2806 -0.3495  1.1205
 1738SOL     OW16849   1.075   3.464   6.386  0.3028 -0.1422  0.0482
 1738SOL    HW116850   0.988   3.501   6.396  0.5478  0.7408 -1.0685
 1738SOL    HW216851   1.069   3.436   6.294 -0.7857  0.6172 -0.1100
 1739SOL     OW16852   2.467   3.407   3.199  0.2356 -0.1194 -0.1051
 1739SOL    HW116853   2.400   3.344   3.175  0.8989 -0.5741 -0.7785
 1739SOL    HW216854   2.409   3.483   3.202 -0.5369 -0.7278  0.2643
 1740SOL     OW16855   1.419   4.128  11.676 -0.1370  0.2690  0.3074
 1740SOL    HW116856   1.451   4.100  11.762  2.0261  2.5171  0.2416
 1740SOL    HW216857   1.328   4.107  11.698 -0.0449 -0.2410  0.2059
 1741SOL     OW16858   3.526   0.547   4.601 -0.3170 -0.6811 -0.2106
 1741SOL    HW116859   3.592   0.563   4.668 -0.1808 -1.3449 -0.1883
 1741SOL    HW216860   3.497   0.462   4.633  2.9118 -0.6824  2.6819
 1742SOL     OW16861   1.321   3.231   5.269  0.1892 -0.0690  0.2208
 1742SOL    HW116862   1.286   3.280   5.194  0.6744 -1.0413 -0.6387
 1742SOL    HW216863   1.266   3.152   5.268  0.8059 -0.4936 -1.3602
 1743SOL     OW16864   1.637   2.999  10.983  0.2380 -0.1222  0.2504
 1743SOL    HW116865   1.695   2.980  10.909  0.8513  1.7091  0.2596
 1743SOL    HW216866   1.674   3.084  11.008  0.5889  0.6002 -2.7429
 1744SOL     OW16867   0.008   4.604   9.237  0.2014 -0.2047  0.1512
 1744SOL    HW116868   4.681   4.665   9.271  0.4513  0.5605 -0.7661
 1744SOL    HW216869   0.053   4.579   9.318 -1.6459  2.7407  2.0728
 1745SOL     OW16870   0.833   0.197   1.914  0.0212  0.0741  0.3086
 1745SOL    HW116871   0.826   0.264   1.982  0.3283  0.5762 -0.1590
 1745SOL    HW216872   0.750   0.155   1.935 -0.6037  0.8805 -0.5276
 1746SOL     OW16873   1.507   3.748   8.876  0.5204 -0.0922 -0.0074
 1746SOL    HW116874   1.514   3.684   8.946 -2.4681  0.3534  0.7075
 1746SOL    HW216875   1.445   3.704   8.818 -0.2291 -1.3312  1.7446
 1747SOL     OW16876   3.487   2.005   7.098  0.3481 -0.0494  0.5903
 1747SOL    HW116877   3.481   1.971   7.009 -0.3170 -2.2376  1.4871
 1747SOL    HW216878   3.427   1.950   7.147 -1.3715  2.7637  1.6859
 1748SOL     OW16879   3.725   3.227   6.099 -0.2316  0.3555  0.3357
 1748SOL    HW116880   3.716   3.282   6.177  1.0675 -2.3587  2.4205
 1748SOL    HW216881   3.683   3.145   6.124 -1.0455  0.2285 -1.4732
 1749SOL     OW16882   0.992   4.146   5.364 -0.4577 -0.3376 -0.5697
 1749SOL    HW116883   0.951   4.172   5.282  2.3045  0.6583 -1.6560
 1749SOL    HW216884   1.037   4.229   5.384 -2.0970  0.2986  0.4359
 1750SOL     OW16885   2.643   1.368   9.272  0.2207  0.1440  0.4874
 1750SOL    HW116886   2.566   1.317   9.297  0.4839 -0.3326  0.3353
 1750SOL    HW216887   2.711   1.304   9.290  1.4587  1.9170  2.0753
 1751SOL     OW16888   4.430   0.226   5.106  0.2578  0.2845 -0.1522
 1751SOL    HW116889   4.483   0.223   5.026  2.2373 -1.4142  1.2313
 1751SOL    HW216890   4.443   0.138   5.139 -1.3790 -0.1715 -0.7339
 1752SOL     OW16891   4.105   0.409  15.029  0.3448  0.0846 -0.9999
 1752SOL    HW116892   4.076   0.318  15.025  1.9770 -0.4916  0.4281
 1752SOL    HW216893   4.054   0.448  15.100  1.3730  0.4620 -0.4710
 1753SOL     OW16894   0.383   4.628   8.313 -0.2446 -0.3292 -0.3238
 1753SOL    HW116895   0.414   4.549   8.267  0.1246 -0.2866 -0.1465
 1753SOL    HW216896   0.403   4.608   8.404 -1.7418  1.7616  0.4570
 1754SOL     OW16897   2.773   0.110   7.957  0.0518 -0.4373  0.3953
 1754SOL    HW116898   2.794   0.168   8.030  0.9638 -1.6531  1.1188
 1754SOL    HW216899   2.766   0.021   7.993 -0.4018 -0.3599  0.4948
 1755SOL     OW16900   2.313   3.418   2.532 -0.4450 -0.5613  0.3045
 1755SOL    HW116901   2.305   3.480   2.606  0.2147 -1.4100  1.0815
 1755SOL    HW216902   2.224   3.417   2.496 -0.2251  0.3328 -0.2697
 1756SOL     OW16903   0.765   3.229   5.517 -0.8223  0.4336  0.0748
 1756SOL    HW116904   0.803   3.315   5.534 -1.6979  1.2527 -2.0868
 1756SOL    HW216905   0.839   3.170   5.531 -0.7634  0.4242 -0.2895
 1757SOL     OW16906   1.963   0.285   3.295 -0.0218 -0.1509  0.3641
 1757SOL    HW116907   1.871   0.309   3.311  0.1748  1.2434 -0.5585
 1757SOL    HW216908   1.957   0.217   3.228 -1.2614 -1.3777  1.7100
 1758SOL     OW16909   1.560   4.065   9.391  0.5477  0.0861 -0.7070
 1758SOL    HW116910   1.651   4.061   9.363  0.2330  0.2640 -1.7517
 1758SOL    HW216911   1.558   4.154   9.427 -0.1782 -0.0795 -0.3319
 1759SOL     OW16912   2.895   1.582   6.185  0.7831  0.0082  0.4968
 1759SOL    HW116913   2.945   1.663   6.171 -0.6639  1.3706  3.3501
 1759SOL    HW216914   2.847   1.585   6.102  0.2215  0.9869  0.8574
 1760SOL     OW16915   0.323   0.944  12.856  0.6300  0.1986  0.0323
 1760SOL    HW116916   0.260   0.952  12.928  0.9291  2.4397  0.0321
 1760SOL    HW216917   0.300   1.012  12.794 -1.2035  0.7451  1.3060
 1761SOL     OW16918   2.858   1.256   5.384 -0.0595 -0.0881 -0.3066
 1761SOL    HW116919   2.951   1.240   5.397  0.2414  1.1131 -1.0033
 1761SOL    HW216920   2.838   1.336   5.432 -2.2991  0.3178 -1.8868
 1762SOL     OW16921   3.656   4.251   7.388  0.5698  0.0246 -0.0210
 1762SOL    HW116922   3.682   4.192   7.459  0.8965  1.0367  0.6959
 1762SOL    HW216923   3.637   4.331   7.436  2.3351  0.3472  0.1559
 1763SOL     OW16924   3.089   0.578   8.607  0.8674  0.4767  0.2550
 1763SOL    HW116925   3.119   0.508   8.550 -0.0757 -0.8105  1.3424
 1763SOL    HW216926   3.037   0.532   8.672 -0.5219  3.4267  1.2295
 1764SOL     OW16927   4.705   0.742   4.478  0.3346  0.0226 -0.2963
 1764SOL    HW116928   4.707   0.759   4.572 -0.7566  0.4530 -0.3480
 1764SOL    HW216929   0.058   0.751   4.450  0.1370  1.6224 -0.4197
 1765SOL     OW16930   0.283   0.143   8.566 -0.6027  0.0595  0.1332
 1765SOL    HW116931   0.370   0.141   8.525 -0.8663 -1.7092 -0.3074
 1765SOL    HW216932   0.279   0.220   8.624  2.2233  1.2366 -1.2459
 1766SOL     OW16933   0.295   2.568  17.620  0.2175  0.4302 -0.0164
 1766SOL    HW116934   0.260   2.535  17.537 -0.0386 -1.7663  0.9876
 1766SOL    HW216935   0.364   2.631  17.596 -0.0655  1.1804  1.1424
 1767SOL     OW16936   2.727   2.496   3.839  0.3886 -0.0632 -0.5769
 1767SOL    HW116937   2.731   2.431   3.769 -0.9254 -1.1688  0.3561
 1767SOL    HW216938   2.669   2.448   3.899  3.0663 -0.0770  1.9649
 1768SOL     OW16939   4.454   0.278   4.253 -0.1576 -0.5504 -0.0344
 1768SOL    HW116940   4.429   0.363   4.215  0.6649  0.4346  1.6315
 1768SOL    HW216941   4.513   0.253   4.181 -0.2485  0.9094 -0.6312
 1769SOL     OW16942   0.156   1.059   4.222  0.1535  0.0475  0.0399
 1769SOL    HW116943   0.151   1.154   4.220 -1.3408 -0.0802 -1.6788
 1769SOL    HW216944   0.077   1.034   4.271  0.1384 -1.5652 -0.7997
 1770SOL     OW16945   2.971   2.070   8.144  0.2381  0.1728 -0.2064
 1770SOL    HW116946   2.924   2.022   8.076 -0.1991 -0.8090  0.7883
 1770SOL    HW216947   2.901   2.124   8.178  1.1781  0.3152  1.4948
 1771SOL     OW16948   0.080   3.671  13.324 -0.4487  0.4463 -0.2147
 1771SOL    HW116949   4.736   3.691  13.369 -0.6608  1.5629 -1.1107
 1771SOL    HW216950   0.073   3.577  13.309 -6.3285  0.5419  2.0222
 1772SOL     OW16951   3.915   2.464   2.129 -0.1007  0.4175  0.5400
 1772SOL    HW116952   3.840   2.502   2.083 -0.0876 -0.2130 -0.0008
 1772SOL    HW216953   3.866   2.422   2.201 -2.6452  1.4095 -0.6177
 1773SOL     OW16954   0.997   3.535   9.921  0.1364 -0.7965 -0.0308
 1773SOL    HW116955   1.091   3.519   9.908  0.5473  0.1839  1.7907
 1773SOL    HW216956   0.994   3.583  10.003 -2.2058 -1.1862  0.1041
 1774SOL     OW16957   4.135   0.671   4.149 -0.2746  0.1503 -0.0722
 1774SOL    HW116958   4.201   0.728   4.188 -0.9934  0.4879  0.6373
 1774SOL    HW216959   4.092   0.731   4.088 -1.1411 -1.8051 -1.3755
 1775SOL     OW16960   2.578   1.826   5.707  0.1051  0.1237  0.3095
 1775SOL    HW116961   2.542   1.902   5.663 -1.1953 -0.4798  0.3478
 1775SOL    HW216962   2.544   1.851   5.793  0.8939  0.8622  0.4092
 1776SOL     OW16963   3.125   3.565  12.985 -0.4710  0.3683 -0.3076
 1776SOL    HW116964   3.132   3.509  13.062 -0.8971 -1.0485 -1.3050
 1776SOL    HW216965   3.117   3.652  13.025  1.0877  1.1502 -1.7252
 1777SOL     OW16966   1.951   3.889  16.929 -0.5322  0.5026  0.5370
 1777SOL    HW116967   1.878   3.836  16.898 -1.3264  3.1225 -2.0733
 1777SOL    HW216968   2.034   3.866  16.887 -0.0928  0.6174  1.3447
 1778SOL     OW16969   1.060   0.709  14.349 -0.4951 -0.2426 -0.1088
 1778SOL    HW116970   1.009   0.662  14.283 -0.7223 -2.4237  1.6231
 1778SOL    HW216971   1.011   0.676  14.425  0.3847 -0.5306  0.3421
 1779SOL     OW16972   2.423   1.661   4.815 -0.0102  0.5093 -0.0113
 1779SOL    HW116973   2.469   1.736   4.776  2.8620 -0.1814  1.9925
 1779SOL    HW216974   2.504   1.623   4.850  0.5346  2.2194  0.6196
 1780SOL     OW16975   4.342   4.242  12.806 -0.0610  0.6735 -0.6776
 1780SOL    HW116976   4.305   4.299  12.874 -0.4916  0.8493 -1.0552
 1780SOL    HW216977   4.287   4.167  12.829 -1.9523  1.7249 -1.7238
 1781SOL     OW16978   2.272   2.583   7.032 -0.0087  0.0284 -0.2078
 1781SOL    HW116979   2.230   2.600   7.116 -0.7027 -2.6212 -0.0239
 1781SOL    HW216980   2.227   2.503   7.003 -2.7414 -0.1438  4.5487
 1782SOL     OW16981   2.489   3.087  13.808  0.0740 -0.3890 -0.4086
 1782SOL    HW116982   2.421   3.096  13.742 -0.9670 -1.9032  0.4664
 1782SOL    HW216983   2.466   3.004  13.849 -0.5542 -0.1515 -0.2809
 1783SOL     OW16984   1.083   0.265   6.861  0.1539  0.3114  0.4106
 1783SOL    HW116985   1.025   0.246   6.935 -0.0034  1.2710  0.5318
 1783SOL    HW216986   1.020   0.289   6.793 -0.6246 -2.3217  0.1818
 1784SOL     OW16987   4.254   1.849   7.407  0.1047  0.7508  0.2722
 1784SOL    HW116988   4.301   1.766   7.408  0.1341  0.7836  1.7784
 1784SOL    HW216989   4.306   1.899   7.344 -0.5014 -0.4862 -1.2207
 1785SOL     OW16990   4.072   2.803   5.085  0.0109  0.0741 -0.2017
 1785SOL    HW116991   4.106   2.886   5.119  0.4545 -0.7165  1.2931
 1785SOL    HW216992   4.116   2.739   5.141 -0.2366  0.0621 -0.0246
 1786SOL     OW16993   2.787   3.884   2.198  0.8927 -0.0083 -0.5769
 1786SOL    HW116994   2.706   3.928   2.222 -0.0203 -1.2727 -1.3327
 1786SOL    HW216995   2.748   3.810   2.151  0.0993  0.5305 -0.7558
 1787SOL     OW16996   0.122   2.953   9.147  0.1989  0.1088 -0.2557
 1787SOL    HW116997   0.148   2.877   9.198  2.4970  0.1859 -1.3440
 1787SOL    HW216998   0.079   3.011   9.211 -1.5447 -1.7838  0.3041
 1788SOL     OW16999   3.148   4.610   7.149  0.1577  0.2149  0.8189
 1788SOL    HW117000   3.081   4.672   7.175  0.6349  0.6822  0.9357
 1788SOL    HW217001   3.195   4.589   7.230  2.2503 -1.1111 -0.7365
 1789SOL     OW17002   2.211   3.296  15.770  0.0159 -0.0420  0.1911
 1789SOL    HW117003   2.294   3.343  15.780  0.6418 -0.5295 -2.7958
 1789SOL    HW217004   2.217   3.216  15.823 -1.3022  1.5746  2.7787
 1790SOL     OW17005   1.828   1.930  14.828 -0.1342 -0.5711 -0.2292
 1790SOL    HW117006   1.884   1.854  14.843  1.5006  0.2268 -2.2678
 1790SOL    HW217007   1.742   1.899  14.855  0.4922 -2.7212 -0.6889
 1791SOL     OW17008   1.369   0.244   3.586  0.7081  0.5298  0.3396
 1791SOL    HW117009   1.291   0.211   3.543  0.1937  1.5946  0.4582
 1791SOL    HW217010   1.385   0.327   3.542 -0.6083  1.0588  0.8555
 1792SOL     OW17011   0.672   4.037   6.737 -0.5117  0.8866  0.1740
 1792SOL    HW117012   0.673   4.114   6.795  1.3489 -0.0952  1.4217
 1792SOL    HW217013   0.581   4.011   6.752 -0.1599 -1.6645 -2.2522
 1793SOL     OW17014   2.052   1.476   7.007  0.0606  0.2859  0.6336
 1793SOL    HW117015   2.033   1.469   7.100  0.6006 -0.7999  0.6621
 1793SOL    HW217016   1.969   1.458   6.963  2.1360  0.7973 -3.4814
 1794SOL     OW17017   3.334   1.014   1.925  0.6259  0.0290 -0.1324
 1794SOL    HW117018   3.355   1.054   2.009  0.4005 -0.4503  0.1463
 1794SOL    HW217019   3.298   0.934   1.962  1.2579 -0.2978 -0.2341
 1795SOL     OW17020   1.967   0.795   4.207 -0.1463  0.1068 -0.4784
 1795SOL    HW117021   1.906   0.797   4.133 -1.9966  0.3390  1.0745
 1795SOL    HW217022   2.039   0.757   4.156  1.6268 -1.8599  3.4571
 1796SOL     OW17023   3.525   1.795   8.600  0.6465  0.1060  0.1050
 1796SOL    HW117024   3.447   1.833   8.559  0.0766  0.5399  1.5780
 1796SOL    HW217025   3.550   1.730   8.535  0.2960 -1.5107  1.5557
 1797SOL     OW17026   4.554   0.620   5.950  0.3831  0.2150 -0.2008
 1797SOL    HW117027   4.519   0.575   6.026  0.4708  0.3408 -0.0833
 1797SOL    HW217028   4.522   0.710   5.958  2.1955  0.9843 -1.5706
 1798SOL     OW17029   0.290   4.021   1.082 -0.0626  0.6155  0.2860
 1798SOL    HW117030   0.261   4.102   1.123  0.6853  0.1533  1.7324
 1798SOL    HW217031   0.267   4.035   0.990 -0.6800 -0.1373  0.3304
 1799SOL     OW17032   4.016   2.164  16.773  0.5741 -0.1703 -0.3218
 1799SOL    HW117033   4.008   2.253  16.740  1.1036 -0.4595 -1.2280
 1799SOL    HW217034   3.950   2.180  16.840 -1.4200 -2.1273 -1.8156
 1800SOL     OW17035   1.492   3.138   6.446  0.2642 -0.1212 -0.2511
 1800SOL    HW117036   1.469   3.174   6.360 -0.8242 -0.8940 -0.2902
 1800SOL    HW217037   1.543   3.207   6.488  0.2820 -0.8802  0.9613
 1801SOL     OW17038   4.059   2.996   3.803  0.6026  0.2314  0.8682
 1801SOL    HW117039   4.023   3.029   3.721  2.2474  0.9323  0.4355
 1801SOL    HW217040   4.090   3.077   3.844  0.7773  0.6083 -0.0285
 1802SOL     OW17041   2.946   0.622  14.767  0.6300 -0.0447  0.0597
 1802SOL    HW117042   2.935   0.570  14.687 -1.0539 -1.4463  1.2115
 1802SOL    HW217043   2.901   0.567  14.831 -1.8711  2.8700  0.7926
 1803SOL     OW17044   1.525   0.782  15.981  0.0594  0.3521 -0.6161
 1803SOL    HW117045   1.454   0.776  15.916  0.5284  0.2232 -1.1188
 1803SOL    HW217046   1.601   0.776  15.923 -1.7455 -2.8056 -2.7269
 1804SOL     OW17047   1.447   3.839   2.169  0.0594  0.1369 -0.2477
 1804SOL    HW117048   1.432   3.765   2.228  1.1074  0.6234  0.6195
 1804SOL    HW217049   1.535   3.815   2.142 -0.4768 -2.3358  0.1084
 1805SOL     OW17050   2.228   4.680   7.350  0.2538 -0.2827 -0.4994
 1805SOL    HW117051   2.279   4.619   7.297 -1.4393 -0.4869 -1.9063
 1805SOL    HW217052   2.225   0.022   7.297  0.1796  0.1399  0.1445
 1806SOL     OW17053   0.737   2.541   9.226 -0.3806  0.9182  0.6887
 1806SOL    HW117054   0.729   2.508   9.136 -0.0205 -0.3165  1.1202
 1806SOL    HW217055   0.832   2.533   9.225 -0.1800  3.2635 -0.5937
 1807SOL     OW17056   4.244   0.247  12.286 -0.0642  0.0131 -0.4025
 1807SOL    HW117057   4.299   0.170  12.282  1.0862  0.6774  2.6766
 1807SOL    HW217058   4.290   0.299  12.352  1.5397 -1.4869 -0.3517
 1808SOL     OW17059   4.497   0.891   5.928 -0.5057 -0.2980  0.0754
 1808SOL    HW117060   4.589   0.894   5.905 -0.1220 -0.6986  1.5448
 1808SOL    HW217061   4.487   0.953   6.000 -1.4440 -0.3187 -0.0271
 1809SOL     OW17062   0.135   0.197  15.085 -0.2523 -0.0180  0.0916
 1809SOL    HW117063   0.142   0.283  15.128 -1.3855 -0.9296  2.1046
 1809SOL    HW217064   0.189   0.203  15.006 -0.7922 -0.1451 -0.2859
 1810SOL     OW17065   2.871   2.224  16.405 -0.1351  0.0499  0.2410
 1810SOL    HW117066   2.784   2.185  16.407  0.1619 -0.4522  3.8039
 1810SOL    HW217067   2.886   2.237  16.312 -0.3474  0.2336  0.2315
 1811SOL     OW17068   4.378   1.078  16.938  0.7434 -0.1163  0.1410
 1811SOL    HW117069   4.350   1.071  16.847 -1.2674 -0.9221  0.8297
 1811SOL    HW217070   4.291   1.075  16.977 -0.7086  2.0046 -2.8684
 1812SOL     OW17071   0.711   3.286  12.590  0.0602 -0.1284  0.1109
 1812SOL    HW117072   0.707   3.278  12.495 -1.3770 -0.5843  0.2029
 1812SOL    HW217073   0.696   3.380  12.598  0.8532  0.1505 -1.6667
 1813SOL     OW17074   2.947   1.659   7.778  0.1608 -0.3151 -0.1678
 1813SOL    HW117075   2.905   1.716   7.842  0.8974  2.7979 -2.4895
 1813SOL    HW217076   3.007   1.725   7.744  0.1929  0.2761  1.0360
 1814SOL     OW17077   0.270   2.403   1.711  0.0989  0.2225  0.3112
 1814SOL    HW117078   0.200   2.367   1.658  0.8636  0.8979 -1.1644
 1814SOL    HW217079   0.308   2.461   1.645  1.3360 -0.6199  0.2937
 1815SOL     OW17080   4.609   2.437  14.544  0.1223  0.2749 -0.2543
 1815SOL    HW117081   4.616   2.416  14.637 -0.5564 -1.4456 -0.5877
 1815SOL    HW217082   4.697   2.472  14.533  0.4843 -1.4147 -2.6838
 1816SOL     OW17083   0.671   3.452   7.346  0.0723  0.2580 -0.4037
 1816SOL    HW117084   0.690   3.517   7.278  0.2570 -0.3003 -0.8785
 1816SOL    HW217085   0.660   3.378   7.287 -1.3078 -1.1750  1.6534
 1817SOL     OW17086   1.646   0.721   5.549  0.0300  0.0674 -0.0273
 1817SOL    HW117087   1.678   0.714   5.639 -2.0172 -0.3478  0.6688
 1817SOL    HW217088   1.729   0.735   5.504  0.6286 -1.2400  0.6618
 1818SOL     OW17089   1.093   2.204   4.310  0.0503 -0.1391 -0.4399
 1818SOL    HW117090   1.032   2.138   4.344 -1.0706  1.2322  0.2403
 1818SOL    HW217091   1.078   2.263   4.384  2.7841  2.0857 -1.6263
 1819SOL     OW17092   0.287   2.060   2.863  0.0384 -0.6434  0.4986
 1819SOL    HW117093   0.323   2.144   2.837  0.3709 -1.1502 -0.6659
 1819SOL    HW217094   0.193   2.060   2.841  0.1073 -0.1166  0.2100
 1820SOL     OW17095   1.489   2.581   5.614 -0.0204 -0.2641  0.0287
 1820SOL    HW117096   1.507   2.633   5.693  2.0373 -1.7563  0.5341
 1820SOL    HW217097   1.473   2.497   5.657 -0.1402 -0.3084 -0.1047
 1821SOL     OW17098   3.734   1.717   9.488  0.1644 -0.0866 -0.4756
 1821SOL    HW117099   3.798   1.675   9.545 -0.3317  0.0577  0.1771
 1821SOL    HW217100   3.794   1.772   9.436  1.5947 -0.7364  0.5042
 1822SOL     OW17101   2.363   1.741  17.720 -0.5193  0.2332  0.4832
 1822SOL    HW117102   2.325   1.653  17.725 -0.9632  0.4475  0.8624
 1822SOL    HW217103   2.452   1.718  17.692 -0.4470 -1.6060  2.2843
 1823SOL     OW17104   1.723   1.669   5.143  0.8985 -0.0025 -0.9034
 1823SOL    HW117105   1.788   1.737   5.160 -0.8383  1.5509 -0.5339
 1823SOL    HW217106   1.710   1.683   5.049 -1.5414  2.5741 -0.1543
 1824SOL     OW17107   0.351   1.693   5.633  0.4590  0.1947  0.7138
 1824SOL    HW117108   0.441   1.719   5.651  0.0913  1.3834  0.8458
 1824SOL    HW217109   0.330   1.627   5.699  1.1175 -2.0329 -1.3039
 1825SOL     OW17110   3.651   3.742   3.317  0.1945 -0.5949  0.0820
 1825SOL    HW117111   3.687   3.663   3.276  1.8732 -1.6396  3.5660
 1825SOL    HW217112   3.595   3.759   3.241 -0.3673  1.3580  0.9421
 1826SOL     OW17113   4.289   1.501   7.638 -0.0803  0.4786 -0.4587
 1826SOL    HW117114   4.196   1.523   7.649  0.0030  0.2625  0.5988
 1826SOL    HW217115   4.317   1.533   7.552 -0.7619 -0.6799 -1.1146
 1827SOL     OW17116   3.173   2.953   3.317 -0.2086 -0.8422  0.2725
 1827SOL    HW117117   3.107   2.900   3.273 -0.9423  2.3671 -2.4280
 1827SOL    HW217118   3.192   2.888   3.385  0.2023 -0.6041  0.3881
 1828SOL     OW17119   3.609   4.063   8.474 -0.2753 -0.0214  0.0058
 1828SOL    HW117120   3.673   4.069   8.545 -0.6616 -2.2315  0.5433
 1828SOL    HW217121   3.622   4.139   8.417 -0.5836 -0.6411 -0.8965
 1829SOL     OW17122   1.090   2.282   1.691 -0.2786 -0.2100  0.0195
 1829SOL    HW117123   1.146   2.206   1.708 -1.7094 -1.3771 -0.5191
 1829SOL    HW217124   1.146   2.316   1.621 -2.6603  3.2773 -0.1737
 1830SOL     OW17125   2.412   1.050   8.423  0.2993  0.5402 -0.5804
 1830SOL    HW117126   2.487   1.103   8.396  1.0003 -0.6737 -1.0195
 1830SOL    HW217127   2.395   1.062   8.517  0.2045 -0.7129 -0.4357
 1831SOL     OW17128   0.674   0.065   9.062 -0.6109  0.8201  0.4302
 1831SOL    HW117129   0.683   0.127   8.989 -0.0573  1.7196  1.2751
 1831SOL    HW217130   0.644   4.721   9.021 -2.3964  1.3031  0.7434
 1832SOL     OW17131   4.077   3.258   9.278 -0.3709 -1.2307 -0.0223
 1832SOL    HW117132   4.146   3.252   9.345 -0.0864 -0.2123 -0.2172
 1832SOL    HW217133   4.048   3.349   9.282  1.3735 -0.6390 -0.7649
 1833SOL     OW17134   1.384   2.201  16.358  0.2494  0.0982 -0.9310
 1833SOL    HW117135   1.394   2.244  16.273  2.7945 -0.3473 -0.8535
 1833SOL    HW217136   1.306   2.148  16.343 -0.4488  0.7653  0.3258
 1834SOL     OW17137   0.382   3.105   7.458 -0.0797  0.2929 -0.2765
 1834SOL    HW117138   0.323   3.035   7.486  1.2617 -1.4017 -1.6904
 1834SOL    HW217139   0.339   3.180   7.500  0.5003  0.1719  0.5154
 1835SOL     OW17140   0.217   4.134   7.412 -0.4880  0.7879 -0.3475
 1835SOL    HW117141   0.177   4.207   7.366 -1.5137  0.4625  0.0395
 1835SOL    HW217142   0.255   4.087   7.337 -1.8134  0.9708 -1.1289
 1836SOL     OW17143   2.229   1.028  13.999  0.6034  0.5809  0.2221
 1836SOL    HW117144   2.299   1.067  13.947 -0.8746  2.0765 -0.6418
 1836SOL    HW217145   2.248   1.067  14.084  0.4519 -1.2637  1.0952
 1837SOL     OW17146   1.254   1.325   2.992 -0.0492 -0.0637 -0.8620
 1837SOL    HW117147   1.252   1.250   2.933  2.6769 -0.9909  0.2139
 1837SOL    HW217148   1.215   1.283   3.069 -2.6309  0.1330 -2.0564
 1838SOL     OW17149   0.891   3.601  11.353 -0.0474 -0.7398  0.0846
 1838SOL    HW117150   0.969   3.578  11.404  1.1250  3.8618  0.4196
 1838SOL    HW217151   0.935   3.629  11.273 -0.0234 -0.1679  0.2970
 1839SOL     OW17152   1.530   3.039   5.135  0.5315  0.5769  0.4322
 1839SOL    HW117153   1.476   3.010   5.208 -1.4330  0.4582 -1.0681
 1839SOL    HW217154   1.461   3.057   5.071  0.7121  0.1791  0.1268
 1840SOL     OW17155   0.199   2.677  10.557  0.0688 -0.1544 -0.1892
 1840SOL    HW117156   0.214   2.745  10.624  0.4592 -1.8362  1.4391
 1840SOL    HW217157   0.277   2.693  10.504  1.5164 -0.3505  1.8671
 1841SOL     OW17158   3.926   2.858   2.516  0.4553 -0.5648 -0.6363
 1841SOL    HW117159   3.987   2.845   2.443  1.7797 -0.4277  0.4412
 1841SOL    HW217160   3.985   2.869   2.591 -0.8457  1.9340  0.0336
 1842SOL     OW17161   3.006   0.619   2.108  0.3492  0.0532 -0.2901
 1842SOL    HW117162   2.924   0.666   2.118 -1.0694 -2.1904 -1.3760
 1842SOL    HW217163   2.982   0.527   2.121 -1.1995  0.9609  3.1562
 1843SOL     OW17164   2.958   3.462   7.670 -0.1761 -0.0349 -0.0803
 1843SOL    HW117165   2.872   3.459   7.714 -0.7570  0.4670 -1.1945
 1843SOL    HW217166   3.022   3.462   7.741  0.8167  0.2161 -0.9722
 1844SOL     OW17167   4.193   2.031   0.241 -0.3297 -0.0429 -0.5275
 1844SOL    HW117168   4.137   1.998   0.171 -0.2280 -1.7205  0.1853
 1844SOL    HW217169   4.130   2.055   0.308 -0.6212  0.6727 -1.0542
 1845SOL     OW17170   0.301   1.369   2.715 -0.1142  0.5896 -0.0744
 1845SOL    HW117171   0.378   1.315   2.734  0.2550  0.3326 -2.3764
 1845SOL    HW217172   0.327   1.402   2.629  1.2053 -0.7504 -0.1807
 1846SOL     OW17173   0.777   4.062   1.391 -0.4841 -0.3111  0.4800
 1846SOL    HW117174   0.851   4.119   1.410 -1.4599  1.1167  0.0561
 1846SOL    HW217175   0.711   4.100   1.450  1.4481  0.5174  2.1056
 1847SOL     OW17176   3.086   2.238   6.578 -0.3377 -0.8029  0.4852
 1847SOL    HW117177   3.108   2.186   6.501  0.0501  0.6204 -0.3531
 1847SOL    HW217178   3.052   2.314   6.532 -0.4255 -1.7688 -1.0525
 1848SOL     OW17179   2.859   2.497   4.914  0.3157 -0.0193  0.4083
 1848SOL    HW117180   2.793   2.564   4.896  0.6185  0.5521  1.4290
 1848SOL    HW217181   2.852   2.450   4.830 -0.2239 -0.5027  0.7216
 1849SOL     OW17182   2.277   0.415   8.295  0.1469  0.2441 -0.4258
 1849SOL    HW117183   2.320   0.479   8.353  0.4466 -0.4520  0.1221
 1849SOL    HW217184   2.333   0.420   8.218  0.5322  2.3464 -0.0016
 1850SOL     OW17185   1.418   2.793  10.469  0.0119 -0.1978 -0.4207
 1850SOL    HW117186   1.469   2.790  10.549 -0.5562 -1.4058 -0.0994
 1850SOL    HW217187   1.484   2.803  10.400  1.3986  1.1451  1.1223
 1851SOL     OW17188   3.389   3.475   9.504  0.1583 -0.3812  0.2040
 1851SOL    HW117189   3.479   3.486   9.534  0.4030  1.7346 -1.2836
 1851SOL    HW217190   3.365   3.561   9.470 -0.0797 -0.3934  0.3427
 1852SOL     OW17191   3.602   4.543  13.168  0.0772  0.1404 -0.0651
 1852SOL    HW117192   3.540   4.513  13.101  3.7900 -0.0729 -3.4504
 1852SOL    HW217193   3.682   4.508  13.130 -0.4339 -1.6916  0.5715
 1853SOL     OW17194   2.058   0.639  14.312  0.2430 -0.0215 -0.4039
 1853SOL    HW117195   2.044   0.715  14.369  2.6483  0.5195 -0.5556
 1853SOL    HW217196   2.146   0.621  14.346 -0.3970 -3.0978 -0.3565
 1854SOL     OW17197   3.991   1.789   4.480 -0.1478  0.8534 -0.4742
 1854SOL    HW117198   4.065   1.764   4.425 -0.5504  1.2481 -1.1869
 1854SOL    HW217199   3.921   1.745   4.433  1.3593 -0.3048 -1.6464
 1855SOL     OW17200   3.073   1.892   4.889 -0.4554 -0.0113 -0.3511
 1855SOL    HW117201   3.081   1.954   4.961  2.5431 -0.8524  0.0276
 1855SOL    HW217202   3.079   1.958   4.820 -1.1668  0.5334  0.1110
 1856SOL     OW17203   2.938   2.795   4.791  0.0798 -0.2110 -0.2427
 1856SOL    HW117204   2.916   2.888   4.783  1.7153  0.1384 -0.6975
 1856SOL    HW217205   2.926   2.786   4.885  1.5626 -1.9411 -0.2087
 1857SOL     OW17206   4.107   2.865   8.129  0.2206  0.0727  0.5376
 1857SOL    HW117207   4.098   2.955   8.161 -0.1124 -0.2603  1.3767
 1857SOL    HW217208   4.031   2.824   8.168  2.4996 -2.3815  2.4108
 1858SOL     OW17209   2.680   0.788   6.363  0.5854  0.6130  0.0770
 1858SOL    HW117210   2.636   0.716   6.408 -0.3907 -1.0813 -3.6716
 1858SOL    HW217211   2.617   0.790   6.292 -1.1594  2.2638  1.6659
 1859SOL     OW17212   0.333   4.529  12.399 -0.1328 -0.0284  0.4572
 1859SOL    HW117213   0.322   4.540  12.493 -1.5090 -2.3048  0.5656
 1859SOL    HW217214   0.429   4.532  12.399 -0.2213  2.1007  4.5621
 1860SOL     OW17215   4.444   4.530   3.067  0.2576  0.2983 -0.5784
 1860SOL    HW117216   4.360   4.539   3.022 -0.9142  0.1379  1.6202
 1860SOL    HW217217   4.427   4.487   3.150 -2.1606 -0.1889 -1.3418
 1861SOL     OW17218   4.181   4.571   2.405 -0.5398  0.6466  0.2270
 1861SOL    HW117219   4.211   4.640   2.346  0.9475  1.0344  1.4560
 1861SOL    HW217220   4.108   4.531   2.357  0.6569 -2.7462  1.1936
 1862SOL     OW17221   0.934   4.647  14.284 -0.9321  0.2747 -0.1241
 1862SOL    HW117222   1.024   4.654  14.316 -0.1185  0.0559 -2.3644
 1862SOL    HW217223   0.950   4.593  14.206  0.5530  0.9218 -0.2608
 1863SOL     OW17224   0.275   2.829   6.588 -0.5033 -0.2598 -0.0611
 1863SOL    HW117225   0.331   2.835   6.511  0.4930  1.8784  0.8299
 1863SOL    HW217226   0.220   2.907   6.579 -0.8147 -0.4138  0.4931
 1864SOL     OW17227   4.307   0.396   3.150 -0.4009 -0.0061  0.2508
 1864SOL    HW117228   4.335   0.310   3.182  1.9692  0.2785 -1.0695
 1864SOL    HW217229   4.263   0.378   3.067 -0.5471 -0.5951  0.4568
 1865SOL     OW17230   4.669   1.451   7.472 -0.2459 -0.0052  0.2070
 1865SOL    HW117231   4.720   1.405   7.538  0.1572  0.9499  0.5643
 1865SOL    HW217232   4.726   1.512   7.424  0.1565 -0.6122 -0.0966
 1866SOL     OW17233   2.197   3.328   7.555  0.1114 -0.5204  0.1593
 1866SOL    HW117234   2.279   3.360   7.592  0.1961 -0.8592  0.2645
 1866SOL    HW217235   2.221   3.281   7.476  1.6982  0.5504  0.0044
 1867SOL     OW17236   3.823   1.647   4.324 -0.0994 -0.3792 -0.8539
 1867SOL    HW117237   3.794   1.577   4.266 -0.2061 -0.6597 -0.4572
 1867SOL    HW217238   3.766   1.625   4.398 -0.2776 -2.6422 -1.6592
 1868SOL     OW17239   4.109   1.304   7.396  0.4618  0.1834  0.0792
 1868SOL    HW117240   4.109   1.262   7.482 -1.9601 -1.0276 -0.5095
 1868SOL    HW217241   4.129   1.226   7.344  0.7752  0.2216  0.1417
 1869SOL     OW17242   3.651   1.457   3.626  0.2785  0.1629 -0.4585
 1869SOL    HW117243   3.738   1.419   3.616 -0.6753 -1.9190 -0.7210
 1869SOL    HW217244   3.642   1.481   3.533  1.0214  0.3110 -0.4940
 1870SOL     OW17245   2.027   4.443  10.355  0.0213 -0.5426  0.4364
 1870SOL    HW117246   2.119   4.420  10.346 -0.0555  0.0068 -1.9157
 1870SOL    HW217247   2.041   4.527  10.311 -1.4812 -0.3343  0.3541
 1871SOL     OW17248   0.351   2.930   8.141  0.2413  0.2592  0.4580
 1871SOL    HW117249   0.347   2.838   8.118  0.3110 -0.2377  2.3748
 1871SOL    HW217250   0.258   2.946   8.158 -0.2757 -0.9185 -1.3405
 1872SOL     OW17251   3.021   0.524   8.279  0.1262 -0.3847  0.8312
 1872SOL    HW117252   3.069   0.545   8.200 -0.1680 -1.5823  0.3392
 1872SOL    HW217253   3.071   0.449   8.312  2.1582  1.1957  1.3240
 1873SOL     OW17254   1.231   4.332  10.784 -0.6424 -0.6973 -0.2043
 1873SOL    HW117255   1.273   4.368  10.706  0.2082 -0.8051  0.1957
 1873SOL    HW217256   1.290   4.259  10.802  0.3816  0.4082  0.9492
 1874SOL     OW17257   1.507   4.008  10.209 -0.1429 -0.8073  0.4523
 1874SOL    HW117258   1.489   3.916  10.229 -1.0206 -0.2950  2.0065
 1874SOL    HW217259   1.591   4.013  10.255 -1.6278  0.4641  3.0347
 1875SOL     OW17260   2.548   0.265   2.967 -0.1833  0.0034  0.1012
 1875SOL    HW117261   2.628   0.294   2.921 -0.3821  1.4038  0.6483
 1875SOL    HW217262   2.582   0.251   3.055 -1.6948  0.8998  0.8074
 1876SOL     OW17263   3.944   0.348   2.824  0.6227  0.1257  0.6499
 1876SOL    HW117264   3.909   0.287   2.758  0.1019  0.9556  0.1555
 1876SOL    HW217265   3.937   0.290   2.900  0.6227 -0.0362  0.5269
 1877SOL     OW17266   4.567   2.603  14.031 -0.3371 -0.1935 -0.4999
 1877SOL    HW117267   4.500   2.567  13.972 -0.3954 -4.0433  1.9453
 1877SOL    HW217268   4.574   2.690  13.992  1.6813  0.7535  2.0304
 1878SOL     OW17269   3.526   3.525   6.299 -0.6058  0.2035  0.1598
 1878SOL    HW117270   3.478   3.592   6.346 -0.3247 -0.0152  0.7542
 1878SOL    HW217271   3.481   3.447   6.333  0.5841 -0.7745 -0.4931
 1879SOL     OW17272   2.633   1.714   2.084 -0.3010 -0.3286 -0.8780
 1879SOL    HW117273   2.537   1.710   2.093 -0.2335  2.7529  1.2390
 1879SOL    HW217274   2.657   1.628   2.118 -2.1334 -0.8939 -1.0072
 1880SOL     OW17275   2.257   4.157   5.105 -0.4992  0.1515 -0.5037
 1880SOL    HW117276   2.348   4.163   5.076 -0.1494  0.5966  0.6968
 1880SOL    HW217277   2.230   4.248   5.115  1.9896  0.8725 -0.5154
 1881SOL     OW17278   0.197   0.556   2.920 -0.6097 -0.2009 -0.7045
 1881SOL    HW117279   0.109   0.539   2.886 -0.5103 -0.4055 -0.8626
 1881SOL    HW217280   0.246   0.505   2.855 -0.8938 -1.3376 -0.0425
 1882SOL     OW17281   1.784   2.671  11.618  0.8197  0.0630  0.1519
 1882SOL    HW117282   1.732   2.744  11.653  1.1611 -0.5082  1.8854
 1882SOL    HW217283   1.824   2.716  11.544 -1.5679  1.1985 -0.4746
 1883SOL     OW17284   3.805   2.705   3.053  0.2151  0.2876 -0.1021
 1883SOL    HW117285   3.730   2.740   3.101 -3.1881 -0.0727 -5.1735
 1883SOL    HW217286   3.839   2.779   3.003  0.3374 -1.0662 -1.9941
 1884SOL     OW17287   4.571   3.268   9.834 -0.2761 -0.2378 -0.1023
 1884SOL    HW117288   4.526   3.218   9.765 -1.6022  0.7071  0.0911
 1884SOL    HW217289   4.595   3.194   9.890 -0.3946  1.5136  2.2309
 1885SOL     OW17290   3.015   2.679   1.913  0.5170 -0.2096 -0.0204
 1885SOL    HW117291   3.036   2.634   1.831 -0.2410 -2.1448  0.8377
 1885SOL    HW217292   3.038   2.771   1.897  2.1641 -0.6996 -0.4836
 1886SOL     OW17293   3.284   3.293   2.191 -0.4165 -0.7359 -0.1985
 1886SOL    HW117294   3.314   3.271   2.103 -0.6647  0.3912 -0.5660
 1886SOL    HW217295   3.340   3.247   2.254  1.4877 -1.3488 -2.3308
 1887SOL     OW17296   1.455   1.099   5.828  0.2993  0.4694  0.2311
 1887SOL    HW117297   1.407   1.161   5.773 -1.5273 -1.2663 -0.1296
 1887SOL    HW217298   1.392   1.032   5.854 -0.0546  0.6872 -0.0739
 1888SOL     OW17299   1.108   1.609   0.462  0.9380 -0.0568  0.2462
 1888SOL    HW117300   1.134   1.700   0.446  0.2046 -0.2651 -2.2072
 1888SOL    HW217301   1.043   1.606   0.391 -1.9211 -1.5624  2.9527
 1889SOL     OW17302   0.146   4.262  14.823  0.2181  0.9906 -0.1280
 1889SOL    HW117303   0.134   4.340  14.770  0.5600  1.3443  0.3148
 1889SOL    HW217304   0.142   4.192  14.758  0.0051  1.3729 -0.5281
 1890SOL     OW17305   2.731   0.107   3.260  0.1794 -0.2264 -0.0625
 1890SOL    HW117306   2.691   0.037   3.209  1.1482 -1.9233  1.5054
 1890SOL    HW217307   2.825   0.097   3.243  0.8474  2.0563  2.1564
 1891SOL     OW17308   0.556   3.221   1.589  0.3515  0.1285  0.3652
 1891SOL    HW117309   0.494   3.274   1.539  0.2511 -0.3995 -0.0629
 1891SOL    HW217310   0.514   3.136   1.600 -0.6320  0.4607 -0.7830
 1892SOL     OW17311   0.034   1.455  16.005 -0.4096  0.4298  0.3411
 1892SOL    HW117312   4.719   1.479  16.080 -0.1666 -1.1997  1.0402
 1892SOL    HW217313   0.040   1.359  16.009  0.3286  0.3717 -1.7562
 1893SOL     OW17314   1.249   3.126   4.688  0.1943  0.3545  0.1226
 1893SOL    HW117315   1.171   3.070   4.698 -0.0317  0.1744 -2.5103
 1893SOL    HW217316   1.307   3.074   4.632 -1.1373  1.1410 -1.9867
 1894SOL     OW17317   4.584   4.692   2.472  0.1436 -0.6037  0.0504
 1894SOL    HW117318   4.659   4.632   2.471  1.1728  0.6473  1.4833
 1894SOL    HW217319   4.567   4.717   2.382 -1.8241 -2.7213 -0.1569
 1895SOL     OW17320   0.564   0.122   2.124  0.4987  0.0055  0.2895
 1895SOL    HW117321   0.634   0.168   2.170 -0.2859  0.1145  1.3705
 1895SOL    HW217322   0.516   0.078   2.194 -0.5022  0.4911 -0.0936
 1896SOL     OW17323   2.952   0.444   0.394 -0.3951  0.2245 -0.1050
 1896SOL    HW117324   3.029   0.425   0.447  0.5995  0.3602 -1.5225
 1896SOL    HW217325   2.980   0.532   0.370 -1.0180  0.4828  0.1055
 1897SOL     OW17326   4.511   3.408   2.694 -0.7667 -0.4023 -0.4776
 1897SOL    HW117327   4.554   3.335   2.738  0.5410 -0.5816 -2.0724
 1897SOL    HW217328   4.529   3.482   2.751  2.1483  0.2163 -2.2297
 1898SOL     OW17329   4.247   1.331   8.805  0.3271  0.2463  0.4962
 1898SOL    HW117330   4.293   1.359   8.884 -0.9527 -1.1329  1.7313
 1898SOL    HW217331   4.198   1.408   8.774 -0.6971 -0.4674  0.3208
 1899SOL     OW17332   3.455   4.074   2.926  0.7081  0.1974 -0.3267
 1899SOL    HW117333   3.360   4.066   2.932  0.5426  0.9857 -1.7325
 1899SOL    HW217334   3.465   4.169   2.924 -0.7991  0.3284 -1.3036
 1900SOL     OW17335   4.534   2.458  10.777  0.2259  0.0165 -0.2235
 1900SOL    HW117336   4.466   2.429  10.715  0.4608  0.5051 -0.7133
 1900SOL    HW217337   4.578   2.523  10.722  1.2415 -2.7728 -2.7366
 1901SOL     OW17338   0.439   0.158  14.269 -0.4788 -0.9147 -0.2183
 1901SOL    HW117339   0.532   0.144  14.251  0.2964  1.4014  2.0322
 1901SOL    HW217340   0.439   0.247  14.305  2.0396 -0.5972 -1.0401
 1902SOL     OW17341   0.113   3.643   4.946  0.4074 -0.5086  0.5035
 1902SOL    HW117342   0.044   3.692   4.902  0.9581 -0.7184 -0.5793
 1902SOL    HW217343   0.164   3.612   4.871 -2.1797 -2.7865 -0.3135
 1903SOL     OW17344   4.726   4.477  12.156  0.0273  0.0420  0.9089
 1903SOL    HW117345   4.631   4.489  12.165 -0.3546 -2.1097 -0.3092
 1903SOL    HW217346   4.723   4.454  12.064  1.5466 -0.1972  0.9277
 1904SOL     OW17347   2.058   1.354   6.619  0.2512  0.6356  0.1595
 1904SOL    HW117348   2.093   1.416   6.683  0.2983  0.6734  0.0967
 1904SOL    HW217349   2.051   1.405   6.538 -0.2929  2.5767  1.4197
 1905SOL     OW17350   1.535   4.112   0.940  0.4343  0.4037  0.4683
 1905SOL    HW117351   1.509   4.058   0.865  0.7565  0.9977 -0.0767
 1905SOL    HW217352   1.466   4.176   0.951 -1.7728 -1.1983 -4.2403
 1906SOL     OW17353   3.661   4.514   4.473 -0.1694  0.3501 -0.0766
 1906SOL    HW117354   3.747   4.526   4.513 -0.8588 -1.9923  2.0705
 1906SOL    HW217355   3.598   4.547   4.536 -2.5889  0.6246 -2.6423
 1907SOL     OW17356   4.007   3.286   5.708 -0.3503 -0.6852 -0.0019
 1907SOL    HW117357   3.989   3.286   5.802 -3.3203  1.0830 -0.5738
 1907SOL    HW217358   3.917   3.302   5.681 -0.6877 -1.2749  0.7728
 1908SOL     OW17359   2.881   2.857   7.847 -0.3085  0.4293  0.2703
 1908SOL    HW117360   2.847   2.888   7.931  2.4494  1.7802  0.8721
 1908SOL    HW217361   2.811   2.876   7.784  1.1499 -1.4644 -1.9231
 1909SOL     OW17362   1.251   4.468  17.080 -0.2402  0.1500 -0.5590
 1909SOL    HW117363   1.187   4.398  17.064 -0.2177  0.2526 -1.1199
 1909SOL    HW217364   1.278   4.454  17.171  0.4128 -1.9977 -1.0831
 1910SOL     OW17365   0.443   0.246   1.196 -0.2757  0.0873  0.5430
 1910SOL    HW117366   0.494   0.270   1.274 -1.0894  0.4016  0.9761
 1910SOL    HW217367   0.353   0.274   1.214 -1.4424 -3.2266 -0.0218
 1911SOL     OW17368   3.622   4.111   5.809  0.4368 -0.0384 -0.1068
 1911SOL    HW117369   3.594   4.021   5.825  1.1291 -0.0710  0.9020
 1911SOL    HW217370   3.706   4.097   5.764  2.5717  0.6862  3.7069
 1912SOL     OW17371   2.768   4.144   6.659  0.2250  0.0310  0.7897
 1912SOL    HW117372   2.807   4.065   6.695 -0.9891 -0.9165  0.0247
 1912SOL    HW217373   2.775   4.205   6.733  0.7348  0.9024  0.0156
 1913SOL     OW17374   0.936   1.285   7.772 -0.4238  0.1317  0.1501
 1913SOL    HW117375   0.913   1.267   7.681 -0.0263  0.0842  0.0602
 1913SOL    HW217376   0.864   1.245   7.822 -0.5472 -2.0716 -1.8124
 1914SOL     OW17377   4.675   4.714  11.847  0.6776 -0.7168  0.4913
 1914SOL    HW117378   4.730   0.004  11.774 -0.0153  0.6309  0.4870
 1914SOL    HW217379   4.732   4.642  11.874  0.6013 -1.5779 -1.6318
 1915SOL     OW17380   2.343   1.943   0.149 -0.0054  0.6552 -0.1814
 1915SOL    HW117381   2.250   1.926   0.137 -0.2031  0.4391  1.7658
 1915SOL    HW217382   2.386   1.883   0.087  1.5825  1.4677  0.1371
 1916SOL     OW17383   4.191   2.586   2.476 -0.1878 -0.2374 -0.0800
 1916SOL    HW117384   4.185   2.680   2.460 -0.0510 -0.3141 -0.5894
 1916SOL    HW217385   4.278   2.579   2.516  0.4722  1.4392 -1.2450
 1917SOL     OW17386   0.547   2.541   4.508  0.0522 -0.4036  0.2061
 1917SOL    HW117387   0.476   2.486   4.474  0.0773  0.8691 -1.9181
 1917SOL    HW217388   0.590   2.569   4.428 -1.8510  0.8933 -0.3777
 1918SOL     OW17389   4.009   1.791   2.177 -0.3291  0.4764 -0.0805
 1918SOL    HW117390   3.918   1.768   2.158 -0.5654  0.3988  1.0992
 1918SOL    HW217391   4.000   1.838   2.260 -0.4927  0.4830 -0.1028
 1919SOL     OW17392   2.482   2.397  17.586 -0.3020 -0.1243 -0.0739
 1919SOL    HW117393   2.424   2.405  17.510  0.1797 -2.1420 -0.6743
 1919SOL    HW217394   2.430   2.350  17.651  0.9475 -2.4522 -0.7399
 1920SOL     OW17395   1.332   3.082   7.949  0.5581 -0.0006 -0.1160
 1920SOL    HW117396   1.396   3.148   7.923 -0.4051  0.5867 -1.0070
 1920SOL    HW217397   1.283   3.127   8.018  2.9765  2.2103  0.1498
 1921SOL     OW17398   4.330   1.616   2.119 -0.7894 -0.1954 -0.3020
 1921SOL    HW117399   4.242   1.600   2.153 -0.3130 -1.9885  0.1065
 1921SOL    HW217400   4.378   1.608   2.201  0.6786  0.6238 -1.0980
 1922SOL     OW17401   1.943   2.525   1.808  0.2906 -0.4437 -0.3611
 1922SOL    HW117402   1.931   2.620   1.816 -0.2051 -0.5287 -0.0873
 1922SOL    HW217403   2.028   2.528   1.852 -0.6927  0.6607  1.4519
 1923SOL     OW17404   4.570   2.097   6.826  0.2650  0.0186  0.4393
 1923SOL    HW117405   4.595   2.108   6.734  1.3370 -0.2188  0.6958
 1923SOL    HW217406   4.535   2.007   6.827  0.9345 -0.2234  3.0576
 1924SOL     OW17407   3.114   2.368   2.205  0.4616 -0.3601  0.3053
 1924SOL    HW117408   3.125   2.327   2.119  0.0303 -2.4068  1.2191
 1924SOL    HW217409   3.079   2.296   2.258  0.6738 -2.1807 -1.9807
 1925SOL     OW17410   1.356   0.374   2.951  0.4949  0.5753 -0.2089
 1925SOL    HW117411   1.339   0.324   2.871  3.1951 -1.4832  0.5048
 1925SOL    HW217412   1.437   0.419   2.926  0.5592  0.4297 -0.2598
 1926SOL     OW17413   1.095   2.879   6.429 -0.1822 -0.1128  0.6783
 1926SOL    HW117414   1.010   2.922   6.417 -0.7991 -2.1417 -2.0131
 1926SOL    HW217415   1.133   2.949   6.483 -2.1935  0.2302  1.6553
 1927SOL     OW17416   1.424   4.636  14.120  0.4393 -0.4107 -0.4160
 1927SOL    HW117417   1.445   4.703  14.055  0.1717 -0.4147 -0.5089
 1927SOL    HW217418   1.432   4.556  14.068  0.5785 -0.3180 -0.5366
 1928SOL     OW17419   2.135   1.810   1.017  1.0852 -0.4912 -0.2620
 1928SOL    HW117420   2.215   1.766   0.989  1.4994 -0.1801  0.4422
 1928SOL    HW217421   2.170   1.888   1.059  3.6187 -1.1071 -1.2489
 1929SOL     OW17422   2.735   1.138   9.640 -0.1900 -0.3046  0.3871
 1929SOL    HW117423   2.721   1.086   9.561 -2.4578  0.3542  0.3520
 1929SOL    HW217424   2.770   1.221   9.606  0.2763 -1.0006 -0.8296
 1930SOL     OW17425   0.728   1.112  15.294  0.1391 -0.4976 -0.4271
 1930SOL    HW117426   0.771   1.147  15.215  0.0074 -0.2614 -0.3953
 1930SOL    HW217427   0.788   1.043  15.323  0.4947 -0.7727 -1.8132
 1931SOL     OW17428   1.131   2.820   3.304  0.0191 -0.1960  0.2505
 1931SOL    HW117429   1.081   2.791   3.380 -0.8613  1.2531  0.2371
 1931SOL    HW217430   1.065   2.818   3.234 -0.6660  1.3394  0.8578
 1932SOL     OW17431   4.519   2.437   5.245 -0.1823 -0.6141 -0.7359
 1932SOL    HW117432   4.453   2.387   5.293  0.8652 -0.0138  1.3548
 1932SOL    HW217433   4.520   2.377   5.171 -0.6934 -3.0306  1.2240
 1933SOL     OW17434   4.449   4.487   0.101 -0.5916 -0.0507  0.5142
 1933SOL    HW117435   4.371   4.463   0.152  0.4405 -1.5416  1.3682
 1933SOL    HW217436   4.418   4.567   0.058  0.6954  1.5162  2.5088
 1934SOL     OW17437   0.918   3.697   8.797 -0.0884 -0.0820 -0.0204
 1934SOL    HW117438   0.825   3.691   8.819 -0.0770  3.5600  0.8756
 1934SOL    HW217439   0.953   3.608   8.789  0.7329  0.1603  0.8605
 1935SOL     OW17440   1.523   0.487   5.470  0.4451  0.3977  0.5555
 1935SOL    HW117441   1.491   0.463   5.558 -3.0839  1.6665 -0.3780
 1935SOL    HW217442   1.569   0.566   5.497  0.5503  0.4582  0.1875
 1936SOL     OW17443   2.896   3.507  17.654  0.4868 -0.0746 -0.0672
 1936SOL    HW117444   2.851   3.442  17.708  0.3618  1.8158  2.1232
 1936SOL    HW217445   2.970   3.453  17.627  0.7112  0.0288  0.3310
 1937SOL     OW17446   0.739   3.929   0.779 -0.2033 -0.7389  0.5234
 1937SOL    HW117447   0.799   3.995   0.743 -0.2688 -0.6671  0.5460
 1937SOL    HW217448   0.721   3.969   0.864 -0.3878  1.4924 -0.5614
 1938SOL     OW17449   2.470   4.554   2.618 -0.2319  0.4423 -0.4094
 1938SOL    HW117450   2.407   4.625   2.608 -1.8359 -1.1259 -1.5215
 1938SOL    HW217451   2.444   4.503   2.541  0.0869  0.1183 -0.2987
 1939SOL     OW17452   2.600   3.199   2.220  0.1022  0.5284  0.0933
 1939SOL    HW117453   2.673   3.245   2.178 -0.1398 -0.8482 -1.8422
 1939SOL    HW217454   2.596   3.229   2.310 -0.2404  0.4794  0.0919
 1940SOL     OW17455   4.676   3.569   6.194  0.1717  0.0445  0.3877
 1940SOL    HW117456   4.720   3.626   6.130  1.9776 -1.2123  0.5195
 1940SOL    HW217457   4.617   3.635   6.229  0.2328  1.0185 -1.3037
 1941SOL     OW17458   3.484   1.624   4.815  0.0486  0.2790  0.7383
 1941SOL    HW117459   3.450   1.702   4.859 -0.7736  0.2405  0.1786
 1941SOL    HW217460   3.510   1.579   4.895 -0.8908  1.9039  1.9690
 1942SOL     OW17461   0.772   4.734   8.658 -0.4455  0.2112 -0.4166
 1942SOL    HW117462   0.782   0.040   8.742 -0.0455  0.8706 -0.8040
 1942SOL    HW217463   0.711   0.057   8.615 -1.2337  0.6815  1.3991
 1943SOL     OW17464   0.145   1.530   8.748 -0.0111 -0.4607 -0.4359
 1943SOL    HW117465   0.148   1.608   8.803 -2.0065  0.8100 -2.0928
 1943SOL    HW217466   0.058   1.493   8.761 -0.3988  0.2002 -1.1228
 1944SOL     OW17467   4.699   1.947   8.794 -0.0426  0.8547  0.4023
 1944SOL    HW117468   0.030   2.013   8.793  0.1860  0.6307  2.3619
 1944SOL    HW217469   4.630   1.996   8.838 -0.5451  1.2214 -0.7974
 1945SOL     OW17470   2.909   1.056   0.525  0.5023 -0.6524 -0.3072
 1945SOL    HW117471   2.992   1.068   0.572 -0.5744 -0.8122  1.6267
 1945SOL    HW217472   2.866   0.992   0.582  1.8291 -1.6212 -0.3843
 1946SOL     OW17473   1.876   1.862   1.074  0.5783  0.3082  0.3381
 1946SOL    HW117474   1.891   1.957   1.068 -0.8563  0.5993  1.2155
 1946SOL    HW217475   1.969   1.844   1.063  0.3354 -1.5711  1.3408
 1947SOL     OW17476   2.244   2.229   2.581 -0.2601 -0.1334  0.3898
 1947SOL    HW117477   2.197   2.184   2.511  2.6116 -1.8955 -0.3979
 1947SOL    HW217478   2.328   2.260   2.547  0.3868 -3.5234 -1.0413
 1948SOL     OW17479   0.316   1.912   5.846 -0.5522  0.0868 -0.3767
 1948SOL    HW117480   0.237   1.893   5.897 -0.1583  2.4207  1.0932
 1948SOL    HW217481   0.307   1.858   5.767  0.7754 -0.6951  0.0150
 1949SOL     OW17482   4.688   0.490   2.780  0.0077  0.6300  0.7172
 1949SOL    HW117483   4.628   0.559   2.752  1.4632  1.5202 -0.2069
 1949SOL    HW217484   4.630   0.421   2.811 -0.1967 -0.0643 -1.2680
 1950SOL     OW17485   1.049   3.875   5.898 -0.2823  0.2590 -0.2039
 1950SOL    HW117486   1.061   3.910   5.810  1.9808  2.5010  1.0083
 1950SOL    HW217487   1.102   3.796   5.891  1.0858  1.3412 -1.9699
 1951SOL     OW17488   0.555   0.802  12.810 -0.0891  0.4066 -0.0208
 1951SOL    HW117489   0.461   0.816  12.822 -0.3873  0.2516 -2.2909
 1951SOL    HW217490   0.577   0.880  12.862 -1.1242  0.8402 -0.2269
 1952SOL     OW17491   1.018   2.531   8.948 -0.1554  0.6871  0.0864
 1952SOL    HW117492   1.107   2.560   8.926  0.1073 -1.0736 -1.1510
 1952SOL    HW217493   1.004   2.591   9.021 -1.9194  0.4265 -0.0501
 1953SOL     OW17494   1.775   2.707  13.909 -0.1308  0.2825 -0.4238
 1953SOL    HW117495   1.820   2.664  13.982  2.0797 -1.3847 -2.7826
 1953SOL    HW217496   1.712   2.640  13.883  0.7645 -1.0748  0.8799
 1954SOL     OW17497   3.615   0.068  12.862  0.0259 -0.0592 -0.0860
 1954SOL    HW117498   3.618   0.121  12.783  0.5819  0.8209  0.5310
 1954SOL    HW217499   3.705   0.051  12.889 -0.2050  0.2449  0.8798
 1955SOL     OW17500   3.146   2.071   5.081  1.1224  0.3694  0.3479
 1955SOL    HW117501   3.180   2.128   5.150 -1.9429  1.2959  1.0583
 1955SOL    HW217502   3.199   2.112   5.013  0.6089 -1.3597 -1.0790
 1956SOL     OW17503   3.312   3.962   6.636  0.1057  0.1675  0.2880
 1956SOL    HW117504   3.371   3.932   6.705 -0.8182  1.2744  1.5392
 1956SOL    HW217505   3.239   3.912   6.672 -0.7954  1.0956 -0.2504
 1957SOL     OW17506   0.519   0.552   6.374 -0.4003  0.5753 -0.7381
 1957SOL    HW117507   0.490   0.635   6.414  2.7152  0.5321  1.5905
 1957SOL    HW217508   0.535   0.505   6.456 -0.6401 -1.0931 -1.6572
 1958SOL     OW17509   0.870   1.523   6.746  0.2499  0.4467  0.0667
 1958SOL    HW117510   0.832   1.586   6.807  1.3772 -0.9701  2.2477
 1958SOL    HW217511   0.940   1.489   6.801  0.6818 -0.4366 -1.0228
 1959SOL     OW17512   4.606   1.837  16.281  0.7819 -0.1588 -0.1900
 1959SOL    HW117513   4.607   1.821  16.186 -3.3819  1.1692 -0.4581
 1959SOL    HW217514   4.527   1.889  16.296 -0.2763 -1.5584 -0.8273
 1960SOL     OW17515   2.257   2.219  10.024  0.1361 -0.5158 -0.5537
 1960SOL    HW117516   2.307   2.191  10.100 -2.5902  0.5090  1.6181
 1960SOL    HW217517   2.172   2.203  10.066  1.2079 -1.6160  1.2007
 1961SOL     OW17518   0.418   2.492   5.892 -0.2578  0.4486  0.2282
 1961SOL    HW117519   0.361   2.417   5.909  0.1961  0.4377  1.7145
 1961SOL    HW217520   0.497   2.457   5.933 -0.3998  0.1864  0.2816
 1962SOL     OW17521   4.091   4.333  15.466  0.2653  0.2404 -0.2364
 1962SOL    HW117522   4.000   4.306  15.459  0.4394 -0.4418  0.1193
 1962SOL    HW217523   4.089   4.420  15.426 -1.1271 -1.3305 -3.5363
 1963SOL     OW17524   2.889   2.253   8.517 -0.3645  0.3056 -0.4034
 1963SOL    HW117525   2.889   2.252   8.613  0.0818  3.5843 -0.3845
 1963SOL    HW217526   2.952   2.322   8.498 -0.6868  0.6589 -0.1932
 1964SOL     OW17527   3.023   0.039   7.556 -0.1749  0.1106 -0.0146
 1964SOL    HW117528   3.020   0.078   7.643 -0.4001  1.6675 -0.7115
 1964SOL    HW217529   3.074   0.106   7.510 -1.8162 -0.2954 -2.4409
 1965SOL     OW17530   1.844   1.948   3.949  0.3225 -0.3431 -0.1080
 1965SOL    HW117531   1.902   1.900   3.890  1.4838  0.4388  0.4072
 1965SOL    HW217532   1.899   1.959   4.027  1.1715  1.1103 -0.9197
 1966SOL     OW17533   2.369   2.943   7.054 -0.2452 -0.2290  0.2329
 1966SOL    HW117534   2.293   2.895   7.088 -1.7176  1.7605 -0.2364
 1966SOL    HW217535   2.424   2.872   7.022  0.0575  1.1567 -2.3283
 1967SOL     OW17536   0.246   2.188   2.481 -0.1667  0.4833 -0.0311
 1967SOL    HW117537   0.217   2.234   2.402 -0.3613 -2.7619 -1.8540
 1967SOL    HW217538   0.168   2.150   2.524 -0.2242  0.7808  0.1260
 1968SOL     OW17539   2.416   3.347   5.568 -0.0834 -0.5972  0.1000
 1968SOL    HW117540   2.436   3.410   5.637 -1.4318  0.4076 -0.4059
 1968SOL    HW217541   2.353   3.286   5.608  0.8776 -1.8448 -0.2980
 1969SOL     OW17542   4.567   3.689   7.850  1.0465 -0.2327  0.3592
 1969SOL    HW117543   4.529   3.612   7.807  0.4179  0.5454 -0.4732
 1969SOL    HW217544   4.545   3.769   7.802  2.7953 -0.0775 -0.2120
 1970SOL     OW17545   4.211   2.635   3.213 -0.2695  0.0104 -0.7204
 1970SOL    HW117546   4.284   2.588   3.252  0.8678  2.1910 -0.1833
 1970SOL    HW217547   4.235   2.727   3.227 -1.6484  0.5490 -1.8357
 1971SOL     OW17548   1.897   0.350   8.612 -0.0016  0.3972 -1.0181
 1971SOL    HW117549   1.847   0.420   8.654 -0.6703 -0.4154 -0.4524
 1971SOL    HW217550   1.983   0.372   8.647 -0.4912 -1.1607  1.1905
 1972SOL     OW17551   4.608   4.043   6.375 -0.2143  0.7199  0.3414
 1972SOL    HW117552   4.604   4.135   6.349  1.8354  0.9845  0.9742
 1972SOL    HW217553   4.531   4.033   6.431  0.6980 -0.4377  1.3843
 1973SOL     OW17554   1.923   0.923   6.942 -0.1160  0.2044  0.0848
 1973SOL    HW117555   1.958   0.982   6.875 -0.2894  1.6824  1.2892
 1973SOL    HW217556   1.893   0.989   7.005 -0.2767  0.3556 -0.1531
 1974SOL     OW17557   2.303   4.193   4.791  0.1087 -0.1443 -0.1286
 1974SOL    HW117558   2.281   4.279   4.755  1.0018 -0.3989 -1.2881
 1974SOL    HW217559   2.357   4.166   4.716  1.2520  0.1069  0.6112
 1975SOL     OW17560   0.088   2.966   4.567 -0.0286  0.0475 -0.7711
 1975SOL    HW117561   0.086   2.880   4.609 -2.0064 -0.1049 -1.2227
 1975SOL    HW217562   0.030   3.020   4.620 -0.0460  0.1632 -0.9092
 1976SOL     OW17563   4.170   1.588   6.220  0.3150  0.6773 -0.1105
 1976SOL    HW117564   4.108   1.642   6.269 -1.9677 -2.8286  0.7903
 1976SOL    HW217565   4.140   1.606   6.131 -2.5690 -1.6260  0.4265
 1977SOL     OW17566   1.934   3.596   5.613 -0.1299 -0.2574  0.0265
 1977SOL    HW117567   2.009   3.579   5.670 -0.8775  0.0194  1.0904
 1977SOL    HW217568   1.983   3.632   5.540  1.1598 -1.2017  0.4106
 1978SOL     OW17569   2.429   3.190   6.795 -0.2690  0.3267 -0.1591
 1978SOL    HW117570   2.348   3.232   6.826 -0.1008  1.6248 -1.4898
 1978SOL    HW217571   2.423   3.212   6.703  1.9049  1.3363 -0.0591
 1979SOL     OW17572   2.834   1.781   4.798 -0.3577 -0.5664 -0.2283
 1979SOL    HW117573   2.927   1.800   4.811 -0.6924  2.5684 -2.4436
 1979SOL    HW217574   2.804   1.857   4.849 -0.6621 -0.8540  0.0175
 1980SOL     OW17575   2.199   0.300   5.702 -0.0642 -0.0804 -0.0080
 1980SOL    HW117576   2.234   0.381   5.737 -2.0451  1.0403 -0.6244
 1980SOL    HW217577   2.107   0.306   5.728  0.0752 -3.0893  1.1994
 1981SOL     OW17578   3.805   4.705   2.422  0.4498  0.0024  0.1933
 1981SOL    HW117579   3.832   4.728   2.511 -0.7654  0.9609  0.3102
 1981SOL    HW217580   3.792   4.612   2.438  0.6455 -0.0575  0.0086
 1982SOL     OW17581   4.456   0.839   3.544  0.0202 -0.5608  0.5200
 1982SOL    HW117582   4.487   0.862   3.457  0.4980  0.6156  0.9985
 1982SOL    HW217583   4.501   0.756   3.560 -0.3181 -1.0124 -0.8819
 1983SOL     OW17584   2.978   3.665   4.756 -0.1550 -0.6320 -0.3927
 1983SOL    HW117585   3.038   3.683   4.829 -1.1592  2.4857 -0.3561
 1983SOL    HW217586   2.900   3.716   4.777 -0.1896 -1.5063  1.6412
 1984SOL     OW17587   2.168   4.113   0.710  0.1287 -0.0551 -0.0613
 1984SOL    HW117588   2.073   4.110   0.698 -0.1173  1.6714  1.4512
 1984SOL    HW217589   2.172   4.077   0.799  0.8752 -0.5932 -0.3118
 1985SOL     OW17590   1.174   2.832   6.990 -0.1871  0.1345 -0.2804
 1985SOL    HW117591   1.170   2.889   7.067 -0.0355  2.0606 -1.6898
 1985SOL    HW217592   1.149   2.887   6.916  1.3597  3.2280  1.4920
 1986SOL     OW17593   4.134   2.360  15.750  0.5331  0.0686  0.1200
 1986SOL    HW117594   4.173   2.362  15.663 -1.3608  0.4064 -0.7079
 1986SOL    HW217595   4.045   2.361  15.716  0.3940 -3.3010  0.4572
 1987SOL     OW17596   4.561   3.508  10.654  0.2215  0.2986 -0.0841
 1987SOL    HW117597   4.650   3.474  10.647  0.4849  1.2090 -1.1058
 1987SOL    HW217598   4.505   3.442  10.613  1.8239 -1.8205  1.1273
 1988SOL     OW17599   1.652   3.229  15.365  0.3622 -0.5359  0.0428
 1988SOL    HW117600   1.674   3.141  15.335 -2.4371 -0.6761 -1.5805
 1988SOL    HW217601   1.723   3.242  15.428 -0.8504  1.0434  1.0971
 1989SOL     OW17602   4.531   2.865   1.264  0.3053 -0.1360  0.0762
 1989SOL    HW117603   4.489   2.829   1.186  0.5602 -0.6017  0.1568
 1989SOL    HW217604   4.455   2.860   1.323  2.3030 -0.0546  2.6817
 1990SOL     OW17605   4.407   1.107  16.574 -0.1349 -0.1382  0.0184
 1990SOL    HW117606   4.448   1.044  16.515 -1.4235 -2.4124  1.6003
 1990SOL    HW217607   4.331   1.065  16.614  1.8345 -2.2612  1.5252
 1991SOL     OW17608   3.228   3.813  11.271  0.2304 -0.4984 -0.2180
 1991SOL    HW117609   3.312   3.830  11.314  0.8308  0.3033 -1.6877
 1991SOL    HW217610   3.206   3.727  11.308  1.1639 -1.3402 -1.6434
 1992SOL     OW17611   4.077   0.298   7.849 -0.5347 -0.1115  0.6090
 1992SOL    HW117612   4.162   0.278   7.809 -0.9466  0.9299 -0.7790
 1992SOL    HW217613   4.085   0.388   7.817 -0.6924 -0.4651 -0.4280
 1993SOL     OW17614   2.055   3.868  12.789 -0.1367  0.4306 -0.2643
 1993SOL    HW117615   1.992   3.937  12.768 -1.3267 -0.6926 -0.3652
 1993SOL    HW217616   2.033   3.822  12.708 -3.4587  1.0448  0.2779
 1994SOL     OW17617   1.702   3.048  17.109 -0.3012  0.3069  0.1884
 1994SOL    HW117618   1.675   3.094  17.188  2.2143 -1.6286  2.1422
 1994SOL    HW217619   1.709   3.115  17.041 -0.7840 -0.4055 -0.5812
 1995SOL     OW17620   3.359   2.099   4.102 -0.3108  0.2477 -0.1583
 1995SOL    HW117621   3.408   2.049   4.167 -0.6111  0.4087  0.1887
 1995SOL    HW217622   3.275   2.102   4.147  0.6016  1.8344  1.4269
 1996SOL     OW17623   2.230   2.917   8.577 -0.2401  0.2122 -0.3112
 1996SOL    HW117624   2.318   2.882   8.592 -0.1080  0.9772  0.6685
 1996SOL    HW217625   2.232   2.918   8.482 -0.9273 -0.5430 -0.3388
 1997SOL     OW17626   2.623   0.416   9.395 -0.0605  0.0518 -0.3376
 1997SOL    HW117627   2.712   0.417   9.428 -1.0478  1.5717  2.2660
 1997SOL    HW217628   2.648   0.390   9.306 -3.3216  0.1181 -1.2823
 1998SOL     OW17629   3.253   1.189   4.967 -0.0889  0.3211 -0.0221
 1998SOL    HW117630   3.248   1.171   4.874  0.8552 -2.8408  0.5244
 1998SOL    HW217631   3.190   1.137   5.018 -0.9528  0.3541 -1.0724
 1999SOL     OW17632   0.754   0.528   8.434  0.0777 -0.1818 -0.1407
 1999SOL    HW117633   0.808   0.581   8.375 -0.9261  0.7525 -0.2198
 1999SOL    HW217634   0.796   0.444   8.418  0.8956 -0.2134  2.1121
 2000SOL     OW17635   0.478   2.970  11.677  0.0842  0.3865 -0.2318
 2000SOL    HW117636   0.536   3.039  11.711  2.3291 -1.2846 -0.6667
 2000SOL    HW217637   0.443   3.013  11.599 -0.8020 -0.7192 -0.4436
 2001SOL     OW17638   2.849   4.562  13.653 -0.1848  0.2515 -0.2911
 2001SOL    HW117639   2.888   4.632  13.600 -0.6639 -0.8649 -2.1155
 2001SOL    HW217640   2.762   4.586  13.621 -0.0095 -0.9704 -1.7109
 2002SOL     OW17641   3.527   1.135   8.621  0.0118  0.1180  0.3295
 2002SOL    HW117642   3.577   1.152   8.541  0.0071  0.2787  0.3605
 2002SOL    HW217643   3.550   1.044   8.637  0.6496  0.0946 -0.7356
 2003SOL     OW17644   0.733   2.286   1.360 -0.4229  0.0314  0.5638
 2003SOL    HW117645   0.685   2.349   1.414  0.7950  0.2177  1.4479
 2003SOL    HW217646   0.716   2.206   1.411  0.6565  1.0582  2.5591
 2004SOL     OW17647   2.107   0.872   6.622 -0.3233 -0.8215 -0.0018
 2004SOL    HW117648   2.065   0.951   6.589  0.2759 -0.4905  0.0236
 2004SOL    HW217649   2.051   0.847   6.696  0.8076 -0.9918  0.8042
 2005SOL     OW17650   2.481   2.118   4.936 -0.2829 -0.3241  0.0131
 2005SOL    HW117651   2.431   2.139   4.857 -0.3393 -0.2661  0.0643
 2005SOL    HW217652   2.455   2.192   4.990  0.3263 -1.8500  2.4004
 2006SOL     OW17653   2.899   3.416   4.319  0.1117 -0.0969 -0.3553
 2006SOL    HW117654   2.850   3.351   4.370 -0.7330  0.2964 -0.6725
 2006SOL    HW217655   2.885   3.498   4.365 -0.3603 -0.9825  1.0716
 2007SOL     OW17656   0.715   3.931   5.193 -0.1102  0.6288  0.4912
 2007SOL    HW117657   0.635   3.879   5.193  0.2069  0.1444 -0.4741
 2007SOL    HW217658   0.732   3.960   5.104 -0.2007 -1.9254 -0.3509
 2008SOL     OW17659   1.670   2.909   1.985 -0.3493 -0.3061  0.3242
 2008SOL    HW117660   1.603   2.859   1.938 -0.8983  0.4845  0.2491
 2008SOL    HW217661   1.647   2.894   2.076  1.8203 -0.6206  0.8083
 2009SOL     OW17662   1.591   3.635   3.920 -0.0709  0.1768  0.0353
 2009SOL    HW117663   1.544   3.708   3.879  1.8768  1.3533 -0.1290
 2009SOL    HW217664   1.526   3.565   3.910  1.9667 -1.7789  0.5624
 2010SOL     OW17665   2.543   1.346   7.503 -0.2719 -0.1584  0.0431
 2010SOL    HW117666   2.565   1.372   7.413  2.6299  1.6670  1.2914
 2010SOL    HW217667   2.604   1.394   7.559 -0.2598 -0.0203 -0.0869
 2011SOL     OW17668   4.420   3.307  10.893 -0.0119 -0.1834 -0.2351
 2011SOL    HW117669   4.349   3.275  10.838 -1.6413  0.7602  1.3378
 2011SOL    HW217670   4.408   3.401  10.876 -2.2927 -0.4137  0.1102
 2012SOL     OW17671   0.808   3.819   3.271 -0.3085  0.2797 -0.1616
 2012SOL    HW117672   0.841   3.744   3.321 -1.0298  0.8778  1.2382
 2012SOL    HW217673   0.874   3.837   3.204  0.1919  1.3429  0.6204
 2013SOL     OW17674   4.217   1.111   2.862  0.2738  0.2528  0.2853
 2013SOL    HW117675   4.220   1.093   2.768  0.2044  0.0335  0.3252
 2013SOL    HW217676   4.296   1.068   2.892  2.1197  2.8163 -0.8816
 2014SOL     OW17677   2.705   4.416   2.457 -0.0665  0.0282  0.3802
 2014SOL    HW117678   2.654   4.495   2.476 -2.7725 -0.7417 -3.7989
 2014SOL    HW217679   2.658   4.380   2.382 -0.6143 -0.8136  1.1220
 2015SOL     OW17680   2.640   4.017   3.302 -0.1120 -0.3918  0.2394
 2015SOL    HW117681   2.652   4.043   3.211  1.1717  0.6985  0.7246
 2015SOL    HW217682   2.666   4.092   3.355 -1.9132  1.2142 -1.1732
 2016SOL     OW17683   4.270   3.292   0.520 -0.0199  0.2405  0.0275
 2016SOL    HW117684   4.364   3.274   0.529  0.0300  0.7380  0.5293
 2016SOL    HW217685   4.225   3.222   0.567  0.1410  0.2769  0.2412
 2017SOL     OW17686   0.932   1.871   0.817  0.2457  0.8428  0.1308
 2017SOL    HW117687   0.864   1.913   0.763  0.7426  2.7109  0.9902
 2017SOL    HW217688   0.987   1.947   0.836  1.5543 -0.0331 -0.1575
 2018SOL     OW17689   4.215   3.302   1.850 -0.6194  0.5664 -0.4366
 2018SOL    HW117690   4.249   3.217   1.823 -1.0016  0.7287 -1.4460
 2018SOL    HW217691   4.213   3.298   1.945  0.5866 -0.7238 -0.4639
 2019SOL     OW17692   3.993   4.607   3.887  0.1209 -0.0570  0.0435
 2019SOL    HW117693   4.002   4.620   3.981 -0.3771  0.6717 -0.0067
 2019SOL    HW217694   3.902   4.636   3.884  0.5832  1.3729 -0.2163
 2020SOL     OW17695   0.418   2.532  16.836  0.4441 -0.1402 -0.2356
 2020SOL    HW117696   0.325   2.511  16.841  0.2711  0.6647  0.0434
 2020SOL    HW217697   0.426   2.539  16.741 -0.2777 -2.2859 -0.4503
 2021SOL     OW17698   2.518   2.951  12.805 -0.0412  0.6396 -0.5844
 2021SOL    HW117699   2.509   3.014  12.733 -0.4393 -0.0395 -1.1317
 2021SOL    HW217700   2.611   2.935  12.796  0.4561  1.8326  2.4324
 2022SOL     OW17701   2.989   4.326  11.629  0.9236 -0.6068  0.3024
 2022SOL    HW117702   2.940   4.408  11.637  0.4315 -0.8626 -0.1213
 2022SOL    HW217703   2.981   4.293  11.719  1.1611  2.3275  1.3956
 2023SOL     OW17704   1.540   1.995   2.520 -0.7023 -0.4253  0.1760
 2023SOL    HW117705   1.470   2.025   2.462  0.2220  0.1095 -0.6585
 2023SOL    HW217706   1.571   2.076   2.560 -4.1292  1.4168 -0.8389
 2024SOL     OW17707   1.417   3.017   4.476 -0.2518  0.2730 -0.5436
 2024SOL    HW117708   1.457   2.935   4.503 -2.9550 -1.7151 -2.5547
 2024SOL    HW217709   1.493   3.075   4.471 -0.8198  1.0893  0.5205
 2025SOL     OW17710   3.939   4.120   4.413 -0.1168 -0.3123  0.1710
 2025SOL    HW117711   3.887   4.062   4.468 -1.4656  0.0440 -0.7419
 2025SOL    HW217712   3.905   4.207   4.435  1.1647 -0.4516  2.6647
 2026SOL     OW17713   2.842   0.628   4.710 -0.3351  0.0534 -0.1615
 2026SOL    HW117714   2.779   0.666   4.649 -0.4635 -0.3335 -0.2708
 2026SOL    HW217715   2.827   0.674   4.793 -1.6621 -0.5885 -0.0421
 2027SOL     OW17716   4.338   0.181   6.765  0.0763 -0.9307  0.2992
 2027SOL    HW117717   4.400   0.157   6.834 -1.1642  1.1542  2.1300
 2027SOL    HW217718   4.351   0.276   6.754  0.1293 -1.2742 -2.5722
 2028SOL     OW17719   1.447   4.410   5.293  0.0513 -0.4692 -0.0371
 2028SOL    HW117720   1.528   4.443   5.255  0.8414 -0.0162  2.0280
 2028SOL    HW217721   1.471   4.324   5.327  0.6553  0.5346  2.0684
 2029SOL     OW17722   0.735   1.889   3.661 -0.5077  0.0406 -0.2406
 2029SOL    HW117723   0.691   1.845   3.588  0.4866 -1.6055  0.1698
 2029SOL    HW217724   0.701   1.838   3.734  2.4774 -0.6795  0.6429
 2030SOL     OW17725   3.019   2.351   5.451 -0.4072  0.0088 -0.2894
 2030SOL    HW117726   2.939   2.329   5.500 -0.4895 -1.7924 -1.2392
 2030SOL    HW217727   3.006   2.446   5.444  1.7080  0.2853 -0.4726
 2031SOL     OW17728   0.111   2.429   3.568  0.4657 -0.5686 -0.2549
 2031SOL    HW117729   0.167   2.357   3.595 -0.2453 -1.1582 -0.3574
 2031SOL    HW217730   0.097   2.411   3.475 -1.1825  0.7380 -0.2529
 2032SOL     OW17731   3.324   0.073   4.011  0.1230  0.2455  0.1857
 2032SOL    HW117732   3.345   0.090   4.103 -3.9362  0.0978  1.1014
 2032SOL    HW217733   3.323   0.160   3.970 -4.1944  0.3539  0.5439
 2033SOL     OW17734   1.021   2.610  12.127  0.3893  0.1656 -0.2437
 2033SOL    HW117735   1.045   2.702  12.133 -0.8563  0.4808  0.0003
 2033SOL    HW217736   0.995   2.602  12.035  0.3360 -1.3623 -0.0954
 2034SOL     OW17737   0.882   4.525   7.615 -0.2465 -0.1056 -0.0572
 2034SOL    HW117738   0.897   4.433   7.595 -1.1200 -0.6265  1.7285
 2034SOL    HW217739   0.787   4.527   7.602 -0.5298 -1.1080  1.8722
 2035SOL     OW17740   4.153   0.317   0.954 -0.0730  0.4384 -0.1849
 2035SOL    HW117741   4.211   0.332   0.879  0.8373  0.4401  0.5326
 2035SOL    HW217742   4.068   0.350   0.927  0.5259  0.9985 -1.3718
 2036SOL     OW17743   4.124   1.927  13.331  0.2337  0.3208 -0.3409
 2036SOL    HW117744   4.124   1.937  13.427 -0.2982  0.9415 -0.4050
 2036SOL    HW217745   4.198   1.866  13.327  0.8786  1.0674  0.2337
 2037SOL     OW17746   0.547   2.820   9.504 -0.3116  0.6455  0.3245
 2037SOL    HW117747   0.487   2.826   9.578  0.7667  1.2361  1.1471
 2037SOL    HW217748   0.516   2.736   9.468 -0.6568  0.6615  0.5888
 2038SOL     OW17749   4.152   4.597   4.498  0.4418 -0.3306  0.2264
 2038SOL    HW117750   4.213   4.580   4.570  1.1507  1.0911 -0.0434
 2038SOL    HW217751   4.191   4.674   4.457 -1.8196  0.4946 -0.3789
 2039SOL     OW17752   0.673   1.075   4.908  0.2786  0.0349  1.1626
 2039SOL    HW117753   0.758   1.111   4.934 -0.6376  2.3709  0.8690
 2039SOL    HW217754   0.613   1.147   4.926  1.2715  0.3832  3.0324
 2040SOL     OW17755   0.714   1.203   0.441 -0.4991  0.0754 -0.5068
 2040SOL    HW117756   0.653   1.242   0.377  0.7259  1.5320 -0.7708
 2040SOL    HW217757   0.801   1.223   0.406  0.5780 -0.6156  1.8378
 2041SOL     OW17758   0.364   2.200   6.196 -0.4894  0.5514  0.0377
 2041SOL    HW117759   0.379   2.217   6.103 -0.4704  1.0697  0.1374
 2041SOL    HW217760   0.308   2.124   6.178  0.9099 -1.1427  2.8875
 2042SOL     OW17761   1.652   1.769   5.693 -0.3063 -0.1482  0.0630
 2042SOL    HW117762   1.641   1.790   5.786  0.7445  0.4513  0.0465
 2042SOL    HW217763   1.610   1.683   5.688  0.2140 -0.5487  2.7256
 2043SOL     OW17764   3.632   4.063   7.221 -0.1419 -0.6536 -0.1178
 2043SOL    HW117765   3.541   4.052   7.192 -0.5265 -0.0803  0.8362
 2043SOL    HW217766   3.630   4.135   7.285  3.5888  0.5619 -1.3942
 2044SOL     OW17767   0.334   0.735   5.649  0.6122  0.7148  0.4265
 2044SOL    HW117768   0.294   0.649   5.647  0.7360  0.7029 -1.8211
 2044SOL    HW217769   0.373   0.729   5.736  0.6920  2.8650  0.5578
 2045SOL     OW17770   0.765   2.755   3.398  0.2015  0.0831 -0.0501
 2045SOL    HW117771   0.797   2.671   3.432 -2.1924 -0.4839  0.8065
 2045SOL    HW217772   0.674   2.727   3.404  0.0252 -0.2089 -4.3794
 2046SOL     OW17773   0.356   0.148   0.673  0.1080  0.0845 -0.2565
 2046SOL    HW117774   0.380   0.219   0.612  0.6775  0.6853  0.6758
 2046SOL    HW217775   0.428   0.087   0.660 -0.9449 -1.9679  3.7612
 2047SOL     OW17776   4.200   4.618   9.527 -0.1290 -0.4569 -0.0398
 2047SOL    HW117777   4.210   4.678   9.601 -0.2710 -0.3344 -0.1188
 2047SOL    HW217778   4.274   4.559   9.544 -0.9263 -0.5088  3.1714
 2048SOL     OW17779   1.833   4.731   2.729 -0.3948  0.3058 -0.2947
 2048SOL    HW117780   1.809   0.029   2.644 -1.5002 -2.4287 -1.1146
 2048SOL    HW217781   1.894   0.063   2.753 -2.0585  1.3172  0.9552
 2049SOL     OW17782   2.269   4.584  10.655  0.3656 -0.4430 -0.5229
 2049SOL    HW117783   2.319   4.560  10.577  0.5949  0.2016 -0.5753
 2049SOL    HW217784   2.326   4.650  10.695 -1.0339  0.7870 -0.5730
 2050SOL     OW17785   3.533   4.699   2.951 -0.0860 -0.4724 -0.2450
 2050SOL    HW117786   3.609   4.676   2.897 -1.3278 -0.2237 -2.0958
 2050SOL    HW217787   3.561   0.021   3.020  0.3773 -0.3145 -0.5728
 2051SOL     OW17788   0.526   1.550   2.824  0.1558  0.5461  0.0852
 2051SOL    HW117789   0.501   1.500   2.746  0.6964 -1.4559  1.2133
 2051SOL    HW217790   0.549   1.632   2.780  0.2108 -0.3227 -1.5112
 2052SOL     OW17791   1.648   2.867  11.219 -0.9416 -0.2286 -0.3716
 2052SOL    HW117792   1.664   2.913  11.137 -4.2079  0.0175 -0.8455
 2052SOL    HW217793   1.554   2.866  11.205 -0.9949  1.5248 -0.0748
 2053SOL     OW17794   3.206   1.131   4.666 -0.2857 -0.2264 -0.3803
 2053SOL    HW117795   3.129   1.188   4.663 -1.0415 -1.2262  0.1310
 2053SOL    HW217796   3.192   1.057   4.606  0.1009 -2.8351  2.7488
 2054SOL     OW17797   0.230   4.000  13.120 -0.0606 -0.1853 -0.1040
 2054SOL    HW117798   0.279   3.922  13.148  1.5061  0.7015 -0.4416
 2054SOL    HW217799   0.190   3.969  13.039  0.6131 -0.4376 -0.3428
 2055SOL     OW17800   1.135   2.923   2.909  0.5950  0.4800  0.1339
 2055SOL    HW117801   1.171   2.855   2.852 -1.0105  1.4368 -2.0243
 2055SOL    HW217802   1.200   2.935   2.978 -1.2588  0.3731  1.9027
 2056SOL     OW17803   4.644   3.450   4.625 -0.6371 -0.2492 -1.1361
 2056SOL    HW117804   4.563   3.462   4.674 -1.1006  0.0669 -1.9974
 2056SOL    HW217805   4.614   3.396   4.552 -1.8896 -0.8020 -0.2257
 2057SOL     OW17806   0.281   4.513   1.421  0.5073  0.2625 -0.2919
 2057SOL    HW117807   0.252   4.560   1.343  2.3612  0.5189 -0.8143
 2057SOL    HW217808   0.256   4.566   1.497  0.5435 -0.1007 -0.0255
 2058SOL     OW17809   1.396   2.708   4.157  0.0456 -0.1592 -0.4374
 2058SOL    HW117810   1.344   2.633   4.130 -0.5152  1.0859 -2.8458
 2058SOL    HW217811   1.343   2.766   4.212 -1.7738 -0.8296 -1.4792
 2059SOL     OW17812   3.120   3.468   6.171 -0.2160 -0.4116 -0.0545
 2059SOL    HW117813   3.197   3.431   6.213 -0.3768 -1.5954 -0.8054
 2059SOL    HW217814   3.051   3.455   6.237  0.8876 -2.1548  0.7366
 2060SOL     OW17815   4.551   4.711   6.249  0.0592 -0.3299  0.4778
 2060SOL    HW117816   4.569   4.677   6.337  1.8772 -1.7287 -0.4128
 2060SOL    HW217817   4.467   4.667   6.235 -0.8367  1.1253  1.3801
 2061SOL     OW17818   0.004   4.027   8.156  0.3381  0.2232  0.4262
 2061SOL    HW117819   0.063   4.080   8.210 -0.2969  0.6864  0.6611
 2061SOL    HW217820   0.032   4.049   8.067  2.4200 -0.1470  0.9687
 2062SOL     OW17821   0.949   3.816   2.050 -0.6916  0.0549  0.1626
 2062SOL    HW117822   0.934   3.788   1.959  1.3243 -1.9379  0.4664
 2062SOL    HW217823   1.039   3.785   2.058 -0.3160  1.4612  1.3885
 2063SOL     OW17824   4.440   4.231   7.962  0.0259  0.4734 -0.5013
 2063SOL    HW117825   4.506   4.287   8.002 -0.5955  2.6437 -2.5055
 2063SOL    HW217826   4.473   4.149   7.999 -0.5130  0.3808 -0.2219
 2064SOL     OW17827   0.210   3.695  14.573  0.1644 -0.0138  0.5387
 2064SOL    HW117828   0.130   3.724  14.529  1.2593 -0.7527 -1.9769
 2064SOL    HW217829   0.265   3.771  14.593 -0.8971  0.4895  1.4738
 2065SOL     OW17830   2.085   2.914   7.144  0.1928 -0.1128  0.2135
 2065SOL    HW117831   2.054   2.902   7.055  0.3667 -3.1174  0.5482
 2065SOL    HW217832   2.007   2.961   7.174 -0.0236 -0.0889 -0.3907
 2066SOL     OW17833   2.638   2.806   3.814  0.4160  0.6816 -0.2738
 2066SOL    HW117834   2.589   2.727   3.791 -0.6420  0.7334  1.7877
 2066SOL    HW217835   2.690   2.826   3.736  0.5429  0.6383 -0.2010
 2067SOL     OW17836   1.250   1.379   2.076  0.0629  0.2965 -0.3057
 2067SOL    HW117837   1.250   1.311   2.144 -3.4327 -0.3540 -0.9561
 2067SOL    HW217838   1.336   1.375   2.034 -1.0802 -0.4284 -2.5553
 2068SOL     OW17839   2.650   2.516   3.194  0.2986 -0.0726  0.6853
 2068SOL    HW117840   2.599   2.476   3.124  0.4382  2.0504 -0.6365
 2068SOL    HW217841   2.716   2.569   3.149  0.4419 -0.1095  0.8495
 2069SOL     OW17842   1.323   1.574   2.498  0.2241 -0.2600  0.0818
 2069SOL    HW117843   1.286   1.485   2.499 -1.3483  0.3995  0.2870
 2069SOL    HW217844   1.402   1.565   2.551 -0.3786  0.6953  1.1238
 2070SOL     OW17845   2.665   0.311   8.593  0.7564 -0.7077  0.2051
 2070SOL    HW117846   2.573   0.289   8.579  0.5475 -0.3794  1.0312
 2070SOL    HW217847   2.660   0.406   8.597 -0.4117 -0.7453 -0.3529
 2071SOL     OW17848   0.996   4.667  13.810 -0.3351  0.0855  0.1003
 2071SOL    HW117849   1.070   4.611  13.833 -0.2310  0.2059  0.0579
 2071SOL    HW217850   0.927   4.601  13.798 -1.3472  0.8861  1.5083
 2072SOL     OW17851   2.055   2.249   2.057 -0.1844 -0.0501  0.6947
 2072SOL    HW117852   2.061   2.345   2.055  2.5468 -0.2042  1.2275
 2072SOL    HW217853   2.082   2.224   1.968 -1.5287  1.8811 -0.2512
 2073SOL     OW17854   1.675   0.971   6.522 -0.0382  0.4292  0.3074
 2073SOL    HW117855   1.770   0.983   6.520  0.3538 -2.2137  2.1303
 2073SOL    HW217856   1.651   0.880   6.542 -0.5759  0.2066 -1.3415
 2074SOL     OW17857   0.042   0.016   6.070  0.1559 -0.2128  0.1434
 2074SOL    HW117858   0.009   0.095   6.027  1.3197 -0.8063 -1.8380
 2074SOL    HW217859   4.707   4.734   6.130  0.5912 -1.0568  0.3924
 2075SOL     OW17860   1.180   3.449   7.423  0.0524 -0.1662  0.4791
 2075SOL    HW117861   1.198   3.401   7.504 -2.9009 -2.7770 -0.4046
 2075SOL    HW217862   1.104   3.504   7.444 -0.1561 -0.1514 -0.3065
 2076SOL     OW17863   3.270   2.678   7.488 -0.3500 -0.4870 -0.2169
 2076SOL    HW117864   3.180   2.707   7.475 -0.2418 -0.0405  0.0612
 2076SOL    HW217865   3.298   2.752   7.542  0.8721 -1.3099  0.2878
 2077SOL     OW17866   4.391   1.844  10.289 -0.4231  0.0230 -0.0898
 2077SOL    HW117867   4.485   1.832  10.278 -0.5457 -0.1931 -0.8874
 2077SOL    HW217868   4.355   1.772  10.237 -1.2203  0.8955 -0.7455
 2078SOL     OW17869   3.582   3.071   4.136 -0.4918  0.1788 -0.3971
 2078SOL    HW117870   3.530   3.129   4.080  1.1741  1.9162 -0.1242
 2078SOL    HW217871   3.654   3.125   4.168 -0.0761 -1.3172  1.2271
 2079SOL     OW17872   2.314   1.219   2.066  0.0972 -0.3724  0.6167
 2079SOL    HW117873   2.236   1.259   2.027  0.2434 -0.9461 -0.2568
 2079SOL    HW217874   2.281   1.195   2.153 -0.5449  0.8155  0.7019
 2080SOL     OW17875   0.659   1.436   7.648 -0.2048  0.5281  0.0167
 2080SOL    HW117876   0.671   1.396   7.562  1.3434  1.8578 -0.3789
 2080SOL    HW217877   0.656   1.531   7.637 -2.6585  0.2589 -1.5599
 2081SOL     OW17878   2.358   1.460   3.515  0.3739  0.7941  0.3517
 2081SOL    HW117879   2.329   1.471   3.424  0.1078 -2.2710  0.0661
 2081SOL    HW217880   2.277   1.453   3.565 -0.1181  0.9221 -0.4155
 2082SOL     OW17881   0.781   0.358   2.110  0.2059 -0.3143  0.5980
 2082SOL    HW117882   0.724   0.432   2.131  0.6049 -0.0720  0.8380
 2082SOL    HW217883   0.843   0.367   2.183  0.7004  2.4206 -0.1484
 2083SOL     OW17884   2.526   0.167   5.356  0.5144  0.0384  0.1129
 2083SOL    HW117885   2.550   0.082   5.391 -0.8126 -0.2307  0.3885
 2083SOL    HW217886   2.443   0.142   5.316  0.9163 -0.6033 -0.3110
 2084SOL     OW17887   4.636   4.304   3.015 -0.7932  0.2109 -0.3827
 2084SOL    HW117888   4.557   4.359   3.017 -2.3426 -1.9158 -2.5690
 2084SOL    HW217889   4.674   4.342   3.094 -0.0613 -0.1929 -0.5462
 2085SOL     OW17890   2.414   4.491   2.324 -0.0135  0.6781 -0.2146
 2085SOL    HW117891   2.459   4.564   2.281 -0.6971  1.3845  0.2693
 2085SOL    HW217892   2.437   4.417   2.268 -0.0136 -0.0339  0.7277
 2086SOL     OW17893   0.172   0.320   1.233 -0.0624 -0.3846  0.1242
 2086SOL    HW117894   0.135   0.348   1.150 -1.9037  0.1506  1.1169
 2086SOL    HW217895   0.098   0.321   1.294 -0.3306  0.5100 -0.2201
 2087SOL     OW17896   1.332   4.160  17.256  0.9718  0.5656  0.3780
 2087SOL    HW117897   1.322   4.145  17.162 -0.6544 -1.1866  0.8116
 2087SOL    HW217898   1.354   4.075  17.294 -1.5873 -0.4682 -0.4085
 2088SOL     OW17899   4.618   1.278   4.071 -0.0242 -0.3700  0.5996
 2088SOL    HW117900   4.587   1.366   4.087 -1.6870 -1.2786  2.3086
 2088SOL    HW217901   4.541   1.234   4.106  0.1782 -0.0492  1.4456
 2089SOL     OW17902   4.562   2.501   4.792  0.4296 -0.3114 -0.5876
 2089SOL    HW117903   4.623   2.443   4.838 -0.6133 -0.3415  0.7546
 2089SOL    HW217904   4.527   2.442   4.726 -1.3282  0.3109 -0.1950
 2090SOL     OW17905   3.863   0.342  12.056 -0.0458 -0.3923 -0.2735
 2090SOL    HW117906   3.864   0.437  12.063 -1.0026 -0.3899 -0.1414
 2090SOL    HW217907   3.783   0.327  12.006  0.6190 -1.2252 -1.0820
 2091SOL     OW17908   4.645   1.496   1.121 -0.0043  0.3508  0.5279
 2091SOL    HW117909   4.583   1.440   1.074  1.7878 -0.9957 -0.1942
 2091SOL    HW217910   4.648   1.569   1.058 -3.5237  1.9008  2.1331
 2092SOL     OW17911   1.975   2.858   3.133 -0.0168  0.6749  0.4738
 2092SOL    HW117912   1.986   2.767   3.162  2.5610  0.5150 -1.0122
 2092SOL    HW217913   2.021   2.904   3.202  1.4829  0.3169 -0.2862
 2093SOL     OW17914   2.560   4.482  14.405  0.6851 -0.1232 -0.1898
 2093SOL    HW117915   2.548   4.497  14.311 -0.6056 -1.1647 -0.1904
 2093SOL    HW217916   2.655   4.493  14.397  0.9012 -0.3147  2.0960
 2094SOL     OW17917   0.254   4.124   0.821 -0.1153  0.5069 -0.8372
 2094SOL    HW117918   0.214   4.143   0.737  1.7591 -0.8022 -2.0336
 2094SOL    HW217919   0.230   4.203   0.869  0.0189  0.3418 -0.4922
 2095SOL     OW17920   0.532   1.996  10.101 -0.2888  0.0974  0.1177
 2095SOL    HW117921   0.575   1.911  10.090 -0.5556  0.3180 -2.6989
 2095SOL    HW217922   0.601   2.049  10.142  0.1132 -0.3530  0.0258
 2096SOL     OW17923   3.586   4.646  15.493  0.3577  0.0497  0.2619
 2096SOL    HW117924   3.638   4.570  15.466  1.0682  0.4834  0.4151
 2096SOL    HW217925   3.565   4.623  15.583  0.3751 -1.3349 -0.0895
 2097SOL     OW17926   2.150   1.251   7.435  0.3602 -0.1156 -0.1119
 2097SOL    HW117927   2.126   1.290   7.518  2.1015 -0.3334  0.4857
 2097SOL    HW217928   2.097   1.171   7.431  0.5848 -0.3847  2.7975
 2098SOL     OW17929   4.524   2.255   8.321  0.1649 -0.7694  0.6656
 2098SOL    HW117930   4.502   2.187   8.384  1.3717 -0.8418  1.0177
 2098SOL    HW217931   4.448   2.245   8.264 -0.0588  0.6662  0.7007
 2099SOL     OW17932   3.512   2.795  17.208  0.3161  0.0229  0.3960
 2099SOL    HW117933   3.510   2.766  17.117  0.1862  2.3686 -0.3377
 2099SOL    HW217934   3.568   2.726  17.243  0.0995 -0.7486 -0.7786
 2100SOL     OW17935   0.334   2.937   4.455  0.4386 -0.0432 -0.7783
 2100SOL    HW117936   0.341   2.858   4.401  2.6561 -0.1274 -0.3665
 2100SOL    HW217937   0.243   2.923   4.482  1.0753  0.5322  1.7394
 2101SOL     OW17938   1.896   3.160   3.120  0.2732  0.9137  0.3745
 2101SOL    HW117939   1.912   3.147   3.213 -1.1954  1.4129  0.7073
 2101SOL    HW217940   1.920   3.071   3.094 -1.2958  0.1129  1.6523
 2102SOL     OW17941   4.413   1.588   1.284  0.1809 -0.3512  0.0283
 2102SOL    HW117942   4.432   1.597   1.378 -0.2864  3.8564 -0.2548
 2102SOL    HW217943   4.493   1.548   1.252 -1.1425  0.4620 -4.3371
 2103SOL     OW17944   4.173   3.562   9.925 -0.4100  0.2944  0.6000
 2103SOL    HW117945   4.196   3.650   9.955 -0.4868  0.9060 -1.1400
 2103SOL    HW217946   4.102   3.590   9.868  1.8195  2.3772 -1.1805
 2104SOL     OW17947   0.306   1.608  10.551 -0.1366 -0.1777 -0.0167
 2104SOL    HW117948   0.214   1.582  10.553 -0.2543  0.1604 -1.2741
 2104SOL    HW217949   0.355   1.533  10.516  0.6195  0.7161 -0.8532
 2105SOL     OW17950   0.447   4.014   4.431  0.3003 -0.0629 -0.6475
 2105SOL    HW117951   0.535   4.010   4.468  1.0029 -0.9334 -2.4320
 2105SOL    HW217952   0.463   4.039   4.340  1.2204  0.2324 -0.4011
 2106SOL     OW17953   0.336   0.241   5.273 -0.1653  0.5815 -0.3497
 2106SOL    HW117954   0.381   0.295   5.209 -0.5831  1.6012  0.2162
 2106SOL    HW217955   0.342   0.160   5.223 -1.2123 -0.1213  0.6435
 2107SOL     OW17956   4.254   3.603   0.926  0.1923 -0.0608 -0.1902
 2107SOL    HW117957   4.221   3.670   0.866 -0.7185  0.2876  0.6977
 2107SOL    HW217958   4.262   3.653   1.006 -2.2345  0.6413 -0.4045
 2108SOL     OW17959   0.281   1.368   0.516 -0.5277  0.7481  0.7154
 2108SOL    HW117960   0.296   1.454   0.476  0.1719  1.8079  3.2475
 2108SOL    HW217961   0.187   1.376   0.531 -0.4818  0.0730  1.3612
 2109SOL     OW17962   4.652   1.412   9.184 -0.2917 -0.7139 -0.1702
 2109SOL    HW117963   0.009   1.424   9.187 -0.3405 -0.6655  1.2735
 2109SOL    HW217964   4.651   1.334   9.128  3.3015 -0.9012  0.0522
 2110SOL     OW17965   2.158   1.735   2.954 -0.0392  0.1410  0.5535
 2110SOL    HW117966   2.238   1.714   2.906  0.0063 -1.3608  1.2794
 2110SOL    HW217967   2.141   1.818   2.909 -0.6799 -2.3696 -3.8520
 2111SOL     OW17968   4.131   2.124  15.877 -0.2898  0.0626 -0.6032
 2111SOL    HW117969   4.038   2.102  15.880 -0.1275 -0.7958 -1.8937
 2111SOL    HW217970   4.131   2.209  15.834  0.1826 -0.1763 -1.0776
 2112SOL     OW17971   2.717   2.459   9.402 -0.6387 -0.1807  0.0295
 2112SOL    HW117972   2.745   2.539   9.357 -1.0552  0.1382  0.3331
 2112SOL    HW217973   2.703   2.490   9.492 -2.0484  0.2151 -0.3203
 2113SOL     OW17974   2.018   1.279   4.324 -0.4608  0.5616  0.0090
 2113SOL    HW117975   2.001   1.203   4.268  0.9032 -1.2230  2.0040
 2113SOL    HW217976   1.930   1.316   4.329 -1.1584 -1.0896  0.2488
 2114SOL     OW17977   0.807   2.668   6.461 -0.5836 -0.4539 -0.0135
 2114SOL    HW117978   0.742   2.683   6.393  0.6013 -0.5881 -1.1731
 2114SOL    HW217979   0.876   2.624   6.411  0.0111 -0.7764  1.0752
 2115SOL     OW17980   1.464   4.235   9.048 -0.5601 -0.2380  0.0933
 2115SOL    HW117981   1.519   4.307   9.076 -0.4610 -0.6498  0.9554
 2115SOL    HW217982   1.510   4.187   8.979  0.8405 -1.0252  1.5861
 2116SOL     OW17983   0.722   2.772   2.095 -0.3086 -0.7868  0.0055
 2116SOL    HW117984   0.663   2.732   2.031  1.7805  1.4060 -3.3019
 2116SOL    HW217985   0.807   2.741   2.066 -0.2941 -0.9942  0.2661
 2117SOL     OW17986   2.617   1.287   8.918 -0.1413  0.1675  0.3414
 2117SOL    HW117987   2.645   1.195   8.919  0.9800  0.4716 -3.2282
 2117SOL    HW217988   2.556   1.282   8.991  0.6243  2.3543  1.1263
 2118SOL     OW17989   2.246   0.735   9.715  0.2428  0.0596  0.5692
 2118SOL    HW117990   2.221   0.704   9.627  1.3632  0.0777  0.2484
 2118SOL    HW217991   2.219   0.657   9.764 -0.6306  0.1176  0.1753
 2119SOL     OW17992   1.334   0.588  12.774 -0.3550 -0.3974  0.0828
 2119SOL    HW117993   1.280   0.529  12.828 -0.3434  1.1280  1.7514
 2119SOL    HW217994   1.399   0.526  12.742 -0.6696 -0.7598  0.1394
 2120SOL     OW17995   0.900   3.088   8.436  0.2022 -0.1916  0.3861
 2120SOL    HW117996   0.832   3.116   8.498 -2.0990 -2.1378 -1.2569
 2120SOL    HW217997   0.907   3.173   8.392  0.2025 -1.8773 -2.7987
 2121SOL     OW17998   3.079   0.063   3.645 -0.1895  0.3470 -0.5588
 2121SOL    HW117999   3.087   4.718   3.693 -1.5151  0.9957  0.7864
 2121SOL    HW218000   3.127   0.051   3.563 -2.6813  0.4846 -2.0576
 2122SOL     OW18001   2.002   1.724  16.561  0.1533  0.0316  0.0506
 2122SOL    HW118002   2.021   1.817  16.578  1.9322 -0.1266 -1.0524
 2122SOL    HW218003   2.037   1.681  16.640 -1.0033  1.0838  1.1433
 2123SOL     OW18004   2.639   2.842   6.545 -0.3947  0.3043  0.4937
 2123SOL    HW118005   2.573   2.843   6.615  0.5775 -0.6872  1.4277
 2123SOL    HW218006   2.646   2.749   6.521 -0.7142 -0.0281  1.6634
 2124SOL     OW18007   1.478   1.717   1.944  0.1986  0.1901 -0.1684
 2124SOL    HW118008   1.488   1.664   2.024  2.0621 -0.9950 -1.1885
 2124SOL    HW218009   1.518   1.655   1.883 -0.2004  1.7540 -2.0131
 2125SOL     OW18010   3.599   0.138  10.043  0.0442  0.7135  0.2730
 2125SOL    HW118011   3.683   0.091  10.035  0.3096  1.4747 -1.2361
 2125SOL    HW218012   3.539   0.064  10.047  1.2063 -0.2444  0.1926
 2126SOL     OW18013   1.674   4.310   4.206  0.1490  0.0491 -0.3245
 2126SOL    HW118014   1.698   4.369   4.277 -0.5065  0.6177 -0.5823
 2126SOL    HW218015   1.664   4.220   4.237  1.5149  0.3004  0.8354
 2127SOL     OW18016   4.068   0.769   8.086  0.3647 -0.2078  0.1210
 2127SOL    HW118017   4.071   0.774   8.181 -0.5692 -3.0935  0.3041
 2127SOL    HW218018   3.990   0.713   8.081  1.3114 -1.4549 -0.6954
 2128SOL     OW18019   3.196   2.095   3.876  0.0015  0.7332  0.1138
 2128SOL    HW118020   3.274   2.151   3.885  0.5183  0.3886 -2.0271
 2128SOL    HW218021   3.221   2.016   3.922  3.4698  0.9433 -1.4025
 2129SOL     OW18022   4.726   2.766   6.796  0.4594  0.6995  0.0653
 2129SOL    HW118023   4.699   2.694   6.852  0.7647 -1.5084 -2.6602
 2129SOL    HW218024   0.046   2.733   6.727 -0.1141 -0.4587  0.1460
 2130SOL     OW18025   3.682   1.508   1.922  0.2126  0.0743 -0.2633
 2130SOL    HW118026   3.646   1.424   1.894  2.2940 -0.4634 -1.2709
 2130SOL    HW218027   3.638   1.508   2.007 -0.8287 -0.7129 -0.7965
 2131SOL     OW18028   3.940   1.352   2.794 -0.1981  0.5640  0.2508
 2131SOL    HW118029   3.874   1.377   2.730  0.4865  2.0901  0.1384
 2131SOL    HW218030   3.902   1.269   2.822  1.0758  0.5651  1.9982
 2132SOL     OW18031   0.522   0.153   5.729  0.4434 -0.1856 -0.2174
 2132SOL    HW118032   0.519   0.138   5.824 -3.0298 -1.0082 -0.4291
 2132SOL    HW218033   0.434   0.125   5.703  0.0380  2.0938 -1.3066
 2133SOL     OW18034   2.419   2.132   8.459  0.1935 -0.1350  0.4197
 2133SOL    HW118035   2.464   2.098   8.536  0.2369  1.2091  0.9936
 2133SOL    HW218036   2.450   2.076   8.388  0.9346 -0.0626  0.6811
 2134SOL     OW18037   0.145   1.896  16.226  0.3528 -0.2569  0.7898
 2134SOL    HW118038   0.194   1.978  16.216  0.5388 -0.4314  0.2575
 2134SOL    HW218039   0.055   1.921  16.244 -1.3234 -1.0829 -6.2956
 2135SOL     OW18040   1.043   2.423   3.171 -0.0774 -0.1398 -0.3599
 2135SOL    HW118041   1.119   2.411   3.229 -0.3483  0.8353  0.1933
 2135SOL    HW218042   1.006   2.334   3.169  0.3149 -0.3757  1.7279
 2136SOL     OW18043   4.715   3.132   4.731 -0.3241 -0.7306  0.1568
 2136SOL    HW118044   4.681   3.095   4.812 -0.3996  0.1482  0.5301
 2136SOL    HW218045   4.652   3.201   4.709  1.6665  1.0637  0.0589
 2137SOL     OW18046   0.454   3.539  17.021 -0.0027 -0.4906  0.0918
 2137SOL    HW118047   0.448   3.571  17.111  0.0640  1.1978 -0.4915
 2137SOL    HW218048   0.465   3.447  17.044 -0.1444  0.5362  4.1556
 2138SOL     OW18049   4.271   0.508   4.881  0.1543  0.5866  0.1802
 2138SOL    HW118050   4.204   0.474   4.821  2.3443 -0.5367 -1.6203
 2138SOL    HW218051   4.226   0.578   4.929 -0.1353  1.0230 -0.7183
 2139SOL     OW18052   1.580   3.887   4.616 -0.2145  0.1847 -0.4787
 2139SOL    HW118053   1.489   3.913   4.633  0.3156 -0.5729  3.4287
 2139SOL    HW218054   1.556   3.812   4.561  2.8580 -1.4965  0.5038
 2140SOL     OW18055   4.361   3.462   6.767  0.1617  0.3456  0.1272
 2140SOL    HW118056   4.351   3.374   6.732 -1.8322  0.4918  0.3703
 2140SOL    HW218057   4.268   3.480   6.777 -0.4156 -1.6573 -1.6848
 2141SOL     OW18058   1.269   3.846   2.677  0.6865  0.9605  0.7378
 2141SOL    HW118059   1.225   3.865   2.594  3.7063  2.4550 -0.5199
 2141SOL    HW218060   1.352   3.810   2.646 -0.0420  1.0459 -1.3752
 2142SOL     OW18061   1.743   2.328  11.398  0.3085 -0.0206 -0.4520
 2142SOL    HW118062   1.807   2.379  11.347  0.0146  1.1870  0.3873
 2142SOL    HW218063   1.764   2.350  11.488 -0.8513 -1.5360  0.1835
 2143SOL     OW18064   4.345   4.356   5.896  0.1656  0.4068  0.4043
 2143SOL    HW118065   4.403   4.421   5.936 -0.1846  1.1108 -0.2444
 2143SOL    HW218066   4.258   4.382   5.928  0.2920 -0.0535  1.1314
 2144SOL     OW18067   1.906   2.108   4.850 -0.6656  0.0867  0.0109
 2144SOL    HW118068   1.812   2.114   4.866 -0.8667 -1.2636 -0.6720
 2144SOL    HW218069   1.925   2.193   4.808  0.2570  0.1537  0.5689
 2145SOL     OW18070   1.858   4.263   2.980 -0.3742  0.0774  0.4443
 2145SOL    HW118071   1.923   4.281   2.912  0.0735 -1.9247  0.3619
 2145SOL    HW218072   1.792   4.320   2.941 -0.9078 -1.0602 -0.3035
 2146SOL     OW18073   2.317   0.242   1.669  0.1670 -0.3297 -0.5351
 2146SOL    HW118074   2.309   0.149   1.690  2.4043 -0.3951  0.0294
 2146SOL    HW218075   2.250   0.278   1.727 -0.3856 -0.4200 -1.1164
 2147SOL     OW18076   2.807   0.033  10.004  0.2955 -0.1242 -0.3445
 2147SOL    HW118077   2.729   0.037  10.059  0.9167 -2.1752  0.6750
 2147SOL    HW218078   2.777   0.066   9.919 -0.1712  0.0404 -0.1125
 2148SOL     OW18079   4.371   4.483   2.052 -0.1633 -0.0761 -0.4175
 2148SOL    HW118080   4.366   4.535   1.972 -1.0645 -0.9808 -0.9474
 2148SOL    HW218081   4.412   4.547   2.111 -1.0788 -0.8583  1.0896
 2149SOL     OW18082   3.889   3.417  13.209  0.6193 -0.1526  0.9835
 2149SOL    HW118083   3.982   3.404  13.224  0.2087 -2.3505  1.5796
 2149SOL    HW218084   3.877   3.359  13.134 -0.0653  0.5498  0.5523
 2150SOL     OW18085   2.550   1.523  13.900 -0.2796 -0.0902  0.1993
 2150SOL    HW118086   2.548   1.455  13.967 -0.2247  2.1070  2.4474
 2150SOL    HW218087   2.460   1.515  13.868  0.7186 -0.1699 -2.6088
 2151SOL     OW18088   0.996   3.731   6.546 -0.0470 -0.3145 -0.5037
 2151SOL    HW118089   0.944   3.751   6.624 -0.8302 -0.3830 -1.0098
 2151SOL    HW218090   0.939   3.773   6.482  1.9380  1.8944 -0.8445
 2152SOL     OW18091   4.336   4.540   4.162 -0.7640  1.3363 -0.1144
 2152SOL    HW118092   4.403   4.569   4.224 -0.1517  2.8488 -1.4790
 2152SOL    HW218093   4.301   4.627   4.146 -0.4147  1.4865 -0.0674
 2153SOL     OW18094   3.293   0.379  13.387  0.5235  0.0388 -0.2501
 2153SOL    HW118095   3.263   0.470  13.387 -2.4850 -0.9716  1.8726
 2153SOL    HW218096   3.216   0.327  13.410  0.8785 -0.3791 -0.0081
 2154SOL     OW18097   2.184   1.633   8.009 -0.1138  0.0001 -0.5142
 2154SOL    HW118098   2.181   1.701   8.076  0.1768 -0.3632 -0.1374
 2154SOL    HW218099   2.091   1.609   8.012 -0.4395  1.6126  2.1522
 2155SOL     OW18100   0.016   3.934  11.582  0.2469 -0.0734 -0.6563
 2155SOL    HW118101   0.029   3.887  11.664  0.6373  1.4367  0.1607
 2155SOL    HW218102   0.009   3.858  11.525  2.8951 -2.4247  2.1612
 2156SOL     OW18103   2.275   2.064   4.289  0.0895 -0.6290 -0.0069
 2156SOL    HW118104   2.188   2.105   4.283  0.8824  1.1624  0.6639
 2156SOL    HW218105   2.293   2.055   4.195 -2.2919 -1.5576 -0.3878
 2157SOL     OW18106   0.823   2.981   5.287  0.1617  0.1163 -0.1555
 2157SOL    HW118107   0.739   2.986   5.240  0.7759 -1.4064 -1.4224
 2157SOL    HW218108   0.834   2.886   5.281 -3.5802 -0.1931 -2.2309
 2158SOL     OW18109   1.522   4.708   2.493 -0.0469  0.2372 -0.3835
 2158SOL    HW118110   1.498   4.675   2.579  0.2860  0.5694 -0.1625
 2158SOL    HW218111   1.436   0.005   2.470 -0.2101  0.2099  0.1793
 2159SOL     OW18112   0.497   3.413   9.136 -0.3550 -0.3416 -0.0591
 2159SOL    HW118113   0.560   3.446   9.200 -1.0120 -0.8824  0.8804
 2159SOL    HW218114   0.436   3.487   9.128  1.0086  0.9590  1.5694
 2160SOL     OW18115   3.257   0.749   5.012 -0.2789  0.2505  0.0143
 2160SOL    HW118116   3.235   0.842   5.009 -0.5059  0.1549 -1.5954
 2160SOL    HW218117   3.296   0.737   4.925 -0.8184  1.2569 -0.3709
 2161SOL     OW18118   0.739   1.360  11.189  0.4258 -0.4567  0.0353
 2161SOL    HW118119   0.805   1.319  11.246  1.4181  1.4967  0.2880
 2161SOL    HW218120   0.792   1.415  11.131 -0.1601  0.0552 -0.0111
 2162SOL     OW18121   2.963   3.873   2.423 -0.2452  0.3275 -0.3348
 2162SOL    HW118122   3.005   3.945   2.376  0.2904  0.4711  0.3612
 2162SOL    HW218123   2.899   3.845   2.358  0.6486 -0.2540 -0.9546
 2163SOL     OW18124   2.693   2.309   9.732  0.6986  0.0218  0.1755
 2163SOL    HW118125   2.652   2.282   9.814 -4.0798 -1.1566 -2.5962
 2163SOL    HW218126   2.730   2.230   9.693 -1.9563 -2.1477  2.0662
 2164SOL     OW18127   1.345   3.925   9.283  0.0576 -0.6639 -0.3363
 2164SOL    HW118128   1.425   3.974   9.303 -0.1843 -0.4690  0.1550
 2164SOL    HW218129   1.331   3.950   9.192 -1.4543  3.4188  1.0407
 2165SOL     OW18130   0.480   0.553   8.434 -0.0660  0.2771 -0.0069
 2165SOL    HW118131   0.452   0.551   8.343 -3.3433  1.3656  1.0028
 2165SOL    HW218132   0.569   0.589   8.430  0.0360  0.1207  0.9353
 2166SOL     OW18133   0.573   4.069   7.186 -0.5498  0.4342  0.4431
 2166SOL    HW118134   0.487   4.034   7.207 -1.1110  2.8543  2.1782
 2166SOL    HW218135   0.558   4.119   7.106  1.0335  1.1841  0.6180
 2167SOL     OW18136   0.068   3.078   2.260 -0.3675 -0.6918 -0.8205
 2167SOL    HW118137   0.079   3.008   2.196 -0.7476 -1.3589 -0.1712
 2167SOL    HW218138   0.025   3.144   2.206 -1.9300 -1.0677 -0.0673
 2168SOL     OW18139   3.287   3.431  11.450 -0.1230  0.7443 -0.1748
 2168SOL    HW118140   3.214   3.480  11.413 -0.5257 -0.0852 -0.4738
 2168SOL    HW218141   3.285   3.449  11.544 -1.9813 -0.3663  0.0067
 2169SOL     OW18142   1.984   2.435  14.623 -0.4536 -0.7291 -0.8356
 2169SOL    HW118143   1.954   2.526  14.627 -0.3977 -0.8541  2.5349
 2169SOL    HW218144   2.001   2.410  14.714  0.4963 -2.2300 -1.4219
 2170SOL     OW18145   1.161   2.319  15.194 -0.3616  0.3513  0.0169
 2170SOL    HW118146   1.130   2.399  15.152  0.3060 -0.5032 -2.1040
 2170SOL    HW218147   1.190   2.341  15.282  2.2120  1.1438 -1.0517
 2171SOL     OW18148   0.204   2.325  11.864 -0.0702 -0.0995  0.5172
 2171SOL    HW118149   0.226   2.381  11.790 -1.0873  1.5645  1.4767
 2171SOL    HW218150   0.235   2.236  11.845 -1.4786 -0.5453  0.2599
 2172SOL     OW18151   0.440   0.435   5.121 -0.6969 -0.2695 -0.1040
 2172SOL    HW118152   0.452   0.404   5.032  3.2444  1.3736 -0.1567
 2172SOL    HW218153   0.429   0.526   5.095 -2.5815 -0.4655  0.0645
 2173SOL     OW18154   4.621   1.063   4.377 -0.4501 -0.2251  0.5956
 2173SOL    HW118155   4.551   1.128   4.385 -1.5001 -1.1020 -1.4694
 2173SOL    HW218156   4.668   1.078   4.460  0.5150 -0.0202  0.0111
 2174SOL     OW18157   0.635   0.333  16.225  0.3314  0.0044 -0.2524
 2174SOL    HW118158   0.663   0.422  16.203 -0.4127  0.8014  2.0832
 2174SOL    HW218159   0.652   0.314  16.317 -0.4668 -0.9887 -0.3086
 2175SOL     OW18160   3.132   2.080   6.372  0.0260  0.1030  0.3406
 2175SOL    HW118161   3.118   2.056   6.280 -1.6638 -2.2210  1.1893
 2175SOL    HW218162   3.193   2.012   6.398 -0.3670 -0.3647  0.0560
 2176SOL     OW18163   2.957   0.286   3.673  0.5007  0.7364 -0.2077
 2176SOL    HW118164   2.897   0.264   3.602  0.5639  0.5416 -0.1987
 2176SOL    HW218165   2.997   0.201   3.687  0.4635  1.3113  3.5040
 2177SOL     OW18166   2.263   2.792  16.710 -0.3466  0.0780 -0.1223
 2177SOL    HW118167   2.202   2.818  16.642  1.0450  1.1131 -0.9649
 2177SOL    HW218168   2.323   2.866  16.713 -1.7937  1.2662 -1.0890
 2178SOL     OW18169   3.334   1.402  14.221  0.3450  0.1053 -0.3411
 2178SOL    HW118170   3.351   1.392  14.127  1.2940 -4.5808  0.3259
 2178SOL    HW218171   3.254   1.454  14.216 -0.0811 -0.5071  0.0610
 2179SOL     OW18172   0.975   0.242  16.218  0.1401  0.1776  0.1940
 2179SOL    HW118173   0.933   0.318  16.258 -0.1639  1.2909 -2.2104
 2179SOL    HW218174   1.002   0.278  16.133 -2.8122 -1.3579 -1.4189
 2180SOL     OW18175   2.043   3.060  16.617 -0.5712  0.3155  0.0752
 2180SOL    HW118176   2.078   3.142  16.651  0.1922 -0.5981  1.4511
 2180SOL    HW218177   1.952   3.066  16.648 -0.4815  0.6961  0.2750
 2181SOL     OW18178   0.020   2.349   2.686  0.1318 -0.0483 -0.4013
 2181SOL    HW118179   0.085   2.388   2.628 -0.9962 -0.3859 -1.8833
 2181SOL    HW218180   0.073   2.351   2.765  0.9402  0.8734 -0.9742
 2182SOL     OW18181   1.277   2.426   4.939  0.5091 -0.7086  0.2481
 2182SOL    HW118182   1.212   2.451   4.872  2.0713 -0.9316 -1.3527
 2182SOL    HW218183   1.258   2.491   5.006 -1.1883 -1.2643  0.3234
 2183SOL     OW18184   4.154   4.205   1.671 -0.1490  0.2853  0.5168
 2183SOL    HW118185   4.203   4.128   1.698  1.2569  0.8802 -0.3908
 2183SOL    HW218186   4.066   4.170   1.686 -0.6276  1.5270  0.5740
 2184SOL     OW18187   4.446   1.312   7.750  0.6282  0.4996 -0.2004
 2184SOL    HW118188   4.381   1.353   7.692  1.7968  3.1172  0.3477
 2184SOL    HW218189   4.503   1.264   7.691  0.6687 -1.0128  1.0828
 2185SOL     OW18190   2.739   1.875  14.875 -0.0721  0.0022  0.8444
 2185SOL    HW118191   2.828   1.882  14.841 -0.7954 -0.2672 -1.0628
 2185SOL    HW218192   2.681   1.858  14.801  1.2913  1.1858 -0.4942
 2186SOL     OW18193   3.679   3.789   8.428  0.0200 -0.0613  0.7759
 2186SOL    HW118194   3.641   3.875   8.447  0.0816  0.0194  0.5218
 2186SOL    HW218195   3.731   3.790   8.509  0.1363 -1.1099  0.7086
 2187SOL     OW18196   3.845   3.167  17.528 -0.3661  0.4665  0.3126
 2187SOL    HW118197   3.833   3.111  17.604  1.5552 -1.5786 -0.8884
 2187SOL    HW218198   3.833   3.106  17.455 -1.3787 -0.1749  1.0141
 2188SOL     OW18199   1.640   1.440   1.257 -0.4757 -0.2435 -0.1810
 2188SOL    HW118200   1.704   1.420   1.189  0.2827  0.7994  0.2295
 2188SOL    HW218201   1.646   1.535   1.260 -0.6373 -0.2156 -0.8607
 2189SOL     OW18202   3.103   4.345  15.970 -0.2104  0.1564  0.0762
 2189SOL    HW118203   3.014   4.330  15.937 -0.6063  0.4748  1.0053
 2189SOL    HW218204   3.117   4.436  15.945 -0.2857  0.5029  1.3243
 2190SOL     OW18205   3.466   2.915  12.480 -0.0324 -0.5323 -0.0189
 2190SOL    HW118206   3.489   2.883  12.567 -1.3040 -0.2053  0.4370
 2190SOL    HW218207   3.403   2.849  12.451 -0.9763 -0.3107  1.5457
 2191SOL     OW18208   1.078   1.117   8.244  0.5544  0.2892 -0.6795
 2191SOL    HW118209   1.067   1.086   8.334  1.1499 -0.8735 -1.0028
 2191SOL    HW218210   1.103   1.207   8.262  0.5628 -0.1574  1.5947
 2192SOL     OW18211   3.429   4.110  13.089 -0.0345 -0.3965 -0.0119
 2192SOL    HW118212   3.408   4.017  13.081 -1.8993  0.0813 -0.8163
 2192SOL    HW218213   3.434   4.114  13.185  0.0424 -0.3191 -0.0195
 2193SOL     OW18214   3.807   4.111   8.663 -0.0582 -0.7654 -0.3088
 2193SOL    HW118215   3.902   4.109   8.674  0.0507  1.3258 -1.0012
 2193SOL    HW218216   3.775   4.089   8.750 -0.0504  0.1326 -0.0851
 2194SOL     OW18217   3.923   1.005   8.845 -0.1644  0.3607 -0.1198
 2194SOL    HW118218   3.919   1.092   8.805 -1.4547  0.6239  0.6056
 2194SOL    HW218219   3.942   1.040   8.932 -1.1222  0.8695 -0.1175
 2195SOL     OW18220   3.980   1.403   4.497 -0.6285 -0.3933  0.0835
 2195SOL    HW118221   4.003   1.368   4.583  1.5654  1.0736  0.0881
 2195SOL    HW218222   3.917   1.468   4.527 -1.1527 -1.7282  1.8427
 2196SOL     OW18223   3.546   1.737  11.971  0.0747  0.1504 -0.5702
 2196SOL    HW118224   3.548   1.833  11.971  0.0691  0.1524  0.0673
 2196SOL    HW218225   3.565   1.709  11.881 -0.2450 -1.1172 -0.2482
 2197SOL     OW18226   1.048   3.015   5.531 -0.2558 -0.0683 -0.2469
 2197SOL    HW118227   1.040   2.973   5.445 -0.2297  1.9728 -1.2455
 2197SOL    HW218228   1.015   2.959   5.601  2.0384 -0.4906  0.5032
 2198SOL     OW18229   2.770   1.902  14.449  0.4787  0.0126  0.2874
 2198SOL    HW118230   2.742   1.967  14.384  2.7965  0.7964  0.0653
 2198SOL    HW218231   2.731   1.924  14.533  3.0795 -1.4392  1.8710
 2199SOL     OW18232   0.921   1.595   3.559 -0.4744 -0.4260  0.4392
 2199SOL    HW118233   0.904   1.610   3.466  0.4295 -0.3792  0.2778
 2199SOL    HW218234   0.836   1.599   3.603 -1.9714 -0.3080 -2.4621
 2200SOL     OW18235   4.084   1.397  15.734  0.2992  0.1888  0.1982
 2200SOL    HW118236   4.048   1.429  15.817  3.0939 -0.4022  1.6097
 2200SOL    HW218237   4.165   1.357  15.765  0.1350 -0.1063  0.2395
 2201SOL     OW18238   2.732   2.087   5.881 -0.1811  0.3667  0.3567
 2201SOL    HW118239   2.670   2.097   5.809 -0.0077  2.0367  0.4448
 2201SOL    HW218240   2.684   2.132   5.951  2.3375  0.5220  2.0147
 2202SOL     OW18241   4.415   0.432   1.728  0.1262  0.0957  0.3290
 2202SOL    HW118242   4.505   0.464   1.715 -0.8453  2.2759 -1.1728
 2202SOL    HW218243   4.376   0.442   1.641 -0.2690 -1.7508  0.3075
 2203SOL     OW18244   3.378   0.327   9.932 -0.4510  0.0137  0.2341
 2203SOL    HW118245   3.323   0.261   9.975 -0.8079  0.7246  0.8650
 2203SOL    HW218246   3.423   0.363  10.009 -0.8546  0.8527  0.0748
 2204SOL     OW18247   0.545   2.574   5.670  0.2914 -0.3955  0.4806
 2204SOL    HW118248   0.473   2.632   5.647  2.1899 -0.1901 -4.7575
 2204SOL    HW218249   0.513   2.544   5.756  1.6793 -1.1460  0.7306
 2205SOL     OW18250   4.082   2.260   6.873 -0.1519 -0.2952  0.6514
 2205SOL    HW118251   4.074   2.256   6.778 -0.9768 -1.4018  0.7708
 2205SOL    HW218252   4.076   2.353   6.895 -0.8972  0.2711 -1.9253
 2206SOL     OW18253   1.893   2.021   5.462  0.1260  0.1943  0.3292
 2206SOL    HW118254   1.917   2.058   5.377  0.3564 -0.2192  0.2155
 2206SOL    HW218255   1.847   2.098   5.497 -1.3772 -1.0737  1.1194
 2207SOL     OW18256   4.058   3.814   5.631  0.4279  0.5035 -0.0683
 2207SOL    HW118257   3.968   3.807   5.600  0.3874  1.3616 -0.1550
 2207SOL    HW218258   4.106   3.793   5.551 -0.8105  0.5985 -0.8385
 2208SOL     OW18259   4.414   3.192   5.775 -0.5470  0.2409  0.4613
 2208SOL    HW118260   4.351   3.120   5.773  2.0394 -1.9206 -2.6047
 2208SOL    HW218261   4.362   3.262   5.737 -0.5430 -1.0014 -1.8539
 2209SOL     OW18262   1.719   3.395   1.603 -0.2184  0.5972  0.3070
 2209SOL    HW118263   1.625   3.390   1.585  0.1758 -1.3813 -1.1808
 2209SOL    HW218264   1.750   3.385   1.513  0.0627  2.1218  0.2377
 2210SOL     OW18265   1.616   1.941   2.928 -0.3398  0.2076  0.2773
 2210SOL    HW118266   1.692   1.925   2.984 -0.5216 -0.4449  0.3393
 2210SOL    HW218267   1.596   2.029   2.961  0.1444 -0.3581  2.0780
 2211SOL     OW18268   1.524   1.832  12.884 -0.2228  0.1401  0.2533
 2211SOL    HW118269   1.479   1.759  12.842  0.2634  0.7422 -1.3117
 2211SOL    HW218270   1.445   1.884  12.901 -0.0778  0.5589 -0.3628
 2212SOL     OW18271   0.942   2.093   3.422 -0.3229  0.8395  0.5908
 2212SOL    HW118272   0.878   2.160   3.396  0.1054  0.4419 -1.5114
 2212SOL    HW218273   0.970   2.140   3.500 -1.7612  2.0507  0.3898
 2213SOL     OW18274   1.682   3.706   2.203  0.4943  0.3823  0.1695
 2213SOL    HW118275   1.703   3.656   2.124  0.4486  0.1802  0.2832
 2213SOL    HW218276   1.767   3.748   2.214  1.0318 -1.0466  1.5968
 2214SOL     OW18277   3.906   4.382   3.355  0.1247 -0.0233 -0.2702
 2214SOL    HW118278   3.910   4.345   3.444 -2.5839 -0.5809 -0.3859
 2214SOL    HW218279   3.993   4.419   3.338  0.5493 -0.7859  0.1865
 2215SOL     OW18280   1.801   3.701  12.914  0.3175  0.0425  0.4171
 2215SOL    HW118281   1.731   3.677  12.853 -0.9995 -1.7678  2.6214
 2215SOL    HW218282   1.845   3.756  12.850 -1.8165  0.6616 -0.5022
 2216SOL     OW18283   0.941   1.282  13.213 -0.4303 -0.3104 -0.0508
 2216SOL    HW118284   0.896   1.241  13.139  0.1896  0.0038 -0.5971
 2216SOL    HW218285   0.982   1.209  13.259  4.0855  1.1415 -1.8576
 2217SOL     OW18286   3.763   1.376   3.076 -0.5799  0.2386 -0.4919
 2217SOL    HW118287   3.849   1.335   3.078 -0.8054 -0.2526 -0.8769
 2217SOL    HW218288   3.780   1.470   3.075 -0.9054  0.3187  1.1580
 2218SOL     OW18289   2.421   0.038   5.052 -0.2945 -0.3981  0.4820
 2218SOL    HW118290   2.362   0.066   4.982  0.5525  1.0554  0.3470
 2218SOL    HW218291   2.361   0.060   5.123  2.5584  0.6514  2.5506
 2219SOL     OW18292   2.141   4.085   8.632  0.2730 -0.6625 -0.2781
 2219SOL    HW118293   2.132   4.129   8.547  1.8385 -2.1633 -1.2206
 2219SOL    HW218294   2.157   4.159   8.689 -0.4050  1.0276 -2.2731
 2220SOL     OW18295   2.955   2.596   9.561  0.2876 -0.0418  0.2182
 2220SOL    HW118296   2.908   2.679   9.562 -0.3199 -0.3952  1.6781
 2220SOL    HW218297   3.039   2.622   9.523  0.4319 -0.4681  0.2426
 2221SOL     OW18298   1.624   0.032   6.746  0.6153  0.1724  0.5463
 2221SOL    HW118299   1.562   4.699   6.763  1.7675 -1.1058 -0.5619
 2221SOL    HW218300   1.696   4.731   6.696  0.1579  0.0086  0.0155
 2222SOL     OW18301   2.292   2.023  11.753 -0.4597 -0.0884 -0.4275
 2222SOL    HW118302   2.246   1.994  11.674 -2.9417  0.5273  0.7985
 2222SOL    HW218303   2.342   2.095  11.716  0.4414 -0.6806 -0.3709
 2223SOL     OW18304   4.297   1.883   6.976  0.8583  0.0782 -0.1418
 2223SOL    HW118305   4.213   1.904   6.935  0.5776 -0.5328  0.1185
 2223SOL    HW218306   4.351   1.867   6.899 -0.6312  1.6947 -1.5063
 2224SOL     OW18307   1.224   3.382  12.043 -0.4071 -0.3842 -0.4269
 2224SOL    HW118308   1.157   3.390  12.111  0.5976  1.3549  0.3652
 2224SOL    HW218309   1.235   3.470  12.005  0.3148 -0.6489 -0.8272
 2225SOL     OW18310   2.419   1.779  11.889 -0.1689 -0.2647 -0.3617
 2225SOL    HW118311   2.377   1.834  11.823 -0.3890 -1.2643 -1.0445
 2225SOL    HW218312   2.430   1.857  11.944  0.1233  0.8005 -1.9256
 2226SOL     OW18313   0.145   3.171   6.729  0.7362 -0.3167  0.3077
 2226SOL    HW118314   0.100   3.142   6.808  1.0180  1.0002  0.9597
 2226SOL    HW218315   0.086   3.231   6.683 -0.1926  0.2380  2.2295
 2227SOL     OW18316   2.320   1.174   3.283  0.4395  0.1823  0.1590
 2227SOL    HW118317   2.230   1.200   3.303  0.3160 -0.8336  0.8884
 2227SOL    HW218318   2.345   1.124   3.360 -1.7301  0.6537  1.1862
 2228SOL     OW18319   2.648   1.130   3.894 -0.4476  0.4154 -0.1014
 2228SOL    HW118320   2.682   1.116   3.805  0.5211  0.7599  0.2162
 2228SOL    HW218321   2.723   1.167   3.940  0.5549 -0.9167 -0.6479
 2229SOL     OW18322   3.520   2.490  13.870  0.1374  0.0396 -0.4681
 2229SOL    HW118323   3.445   2.434  13.888  0.3765 -0.9233 -2.5003
 2229SOL    HW218324   3.491   2.578  13.894  1.0848 -0.4347  2.3612
 2230SOL     OW18325   2.760   2.429   0.852 -0.0193 -0.0428 -0.4737
 2230SOL    HW118326   2.796   2.341   0.863  0.0134 -0.0870 -0.9298
 2230SOL    HW218327   2.747   2.432   0.757  0.7864 -0.2184 -0.5854
 2231SOL     OW18328   3.615   0.687   3.632 -0.3907  0.1112 -0.4101
 2231SOL    HW118329   3.561   0.706   3.708 -1.2849  0.7084 -1.1968
 2231SOL    HW218330   3.571   0.615   3.587 -0.7614 -0.3553  0.7071
 2232SOL     OW18331   3.531   4.411   1.872 -0.8613 -0.3543 -0.0370
 2232SOL    HW118332   3.585   4.335   1.897 -1.8479  0.0565  3.3358
 2232SOL    HW218333   3.455   4.398   1.928 -0.4368 -3.0436 -0.0892
 2233SOL     OW18334   3.067   1.691   7.253 -0.2167 -0.2543  0.3125
 2233SOL    HW118335   3.156   1.728   7.247  0.1163 -0.6727  3.0534
 2233SOL    HW218336   3.028   1.730   7.174 -1.2985 -0.5364  0.7175
 2234SOL     OW18337   3.316   4.335   2.012  0.0688 -0.6137  0.4664
 2234SOL    HW118338   3.284   4.286   1.936  1.2079 -3.1056  1.5955
 2234SOL    HW218339   3.257   4.409   2.026  1.9048  0.4728  2.5354
 2235SOL     OW18340   0.583   1.479   8.616 -0.2343 -0.3996 -0.0780
 2235SOL    HW118341   0.618   1.568   8.623  1.2201 -1.0044  0.3788
 2235SOL    HW218342   0.657   1.441   8.569  0.9184  0.7050  0.8174
 2236SOL     OW18343   2.262   4.315  10.307 -0.1851 -0.2997  0.0133
 2236SOL    HW118344   2.295   4.252  10.372  2.7174 -1.5151 -2.5890
 2236SOL    HW218345   2.203   4.264  10.251 -1.0082  1.1436 -0.4103
 2237SOL     OW18346   1.590   3.183   1.051  0.6452  0.3332 -0.0667
 2237SOL    HW118347   1.573   3.178   0.957 -0.3907  1.1248  0.0789
 2237SOL    HW218348   1.501   3.183   1.086  0.3805  2.3090 -0.7025
 2238SOL     OW18349   2.095   3.719   4.716 -0.5896 -0.7157  0.1120
 2238SOL    HW118350   2.142   3.729   4.634 -0.5232 -0.7828  0.1421
 2238SOL    HW218351   2.016   3.768   4.691 -1.4519 -3.9159 -3.2980
 2239SOL     OW18352   3.420   3.619   6.736 -0.2583  0.3467 -0.3322
 2239SOL    HW118353   3.473   3.628   6.657 -0.7666 -1.9312 -0.9443
 2239SOL    HW218354   3.449   3.536   6.773  1.4484  0.4617 -1.4046
 2240SOL     OW18355   3.886   2.194   3.540 -0.2454 -0.7084 -0.0319
 2240SOL    HW118356   3.805   2.146   3.523 -0.4637 -0.2516 -0.2899
 2240SOL    HW218357   3.865   2.270   3.486 -2.3626 -1.5532 -0.4015
 2241SOL     OW18358   3.748   0.858   8.422 -0.6579 -0.5866 -0.3561
 2241SOL    HW118359   3.816   0.806   8.380 -0.5998 -1.5828  0.9916
 2241SOL    HW218360   3.800   0.882   8.498 -1.8334 -0.2033  0.3269
 2242SOL     OW18361   4.311   1.419   9.065 -0.2196  0.5249 -0.4716
 2242SOL    HW118362   4.331   1.448   9.154  4.2280 -1.9866 -0.6303
 2242SOL    HW218363   4.254   1.489   9.035  0.2446  1.0772 -0.0532
 2243SOL     OW18364   3.419   3.540   5.182  0.6480  0.0659 -0.1033
 2243SOL    HW118365   3.514   3.540   5.195  0.6862  0.7379 -0.3692
 2243SOL    HW218366   3.403   3.458   5.134 -1.0663  0.5173 -0.3013
 2244SOL     OW18367   3.493   0.418   8.059 -0.0683  0.4978  0.0260
 2244SOL    HW118368   3.482   0.370   7.977 -2.1872 -2.6033  2.0746
 2244SOL    HW218369   3.574   0.468   8.052  0.8745 -1.4550 -2.8368
 2245SOL     OW18370   1.790   2.467   0.080 -0.0061 -0.1338  0.7587
 2245SOL    HW118371   1.800   2.515  17.747 -1.1832  1.3206  1.4605
 2245SOL    HW218372   1.829   2.524   0.146  1.8184  1.7013 -1.9234
 2246SOL     OW18373   1.657   0.536   6.376 -0.6346 -0.0660 -0.0165
 2246SOL    HW118374   1.674   0.582   6.294  1.5021 -0.6777  0.0851
 2246SOL    HW218375   1.562   0.525   6.368 -0.6116 -0.9742  0.9143
 2247SOL     OW18376   3.188   3.132   8.668  0.1223  0.3933  0.4349
 2247SOL    HW118377   3.108   3.134   8.721  1.0333 -2.9984  1.9883
 2247SOL    HW218378   3.195   3.222   8.639  2.0551 -0.2964 -1.2430
 2248SOL     OW18379   1.046   3.652   3.321  0.4542 -0.1577 -0.3228
 2248SOL    HW118380   1.047   3.731   3.376  1.0496 -0.4627  0.1028
 2248SOL    HW218381   1.070   3.695   3.239 -2.6756 -0.2099 -1.2665
 2249SOL     OW18382   0.865   3.451   6.944  0.2970 -0.0093  0.3287
 2249SOL    HW118383   0.895   3.367   6.978  0.3171  0.0702  0.5091
 2249SOL    HW218384   0.846   3.509   7.018  2.3762 -1.8856  2.3544
 2250SOL     OW18385   4.641   4.234   4.747 -0.2674  0.1114 -0.0982
 2250SOL    HW118386   4.649   4.151   4.701 -2.2812 -0.6204  0.8681
 2250SOL    HW218387   4.664   4.294   4.676  2.5969 -0.9036 -0.0320
 2251SOL     OW18388   3.588   4.447   5.923 -0.6485 -0.3287  0.3878
 2251SOL    HW118389   3.647   4.381   5.960 -0.3985 -1.3033 -1.7550
 2251SOL    HW218390   3.503   4.432   5.965 -1.2386  0.4391 -0.5434
 2252SOL     OW18391   0.307   0.262   3.165  0.0968 -0.5816  0.4340
 2252SOL    HW118392   0.343   0.351   3.169  0.8633 -0.8958  0.4744
 2252SOL    HW218393   0.216   0.282   3.140 -0.2280 -0.6545  1.5333
 2253SOL     OW18394   1.639   0.663   4.147  0.3155 -0.1957  0.5553
 2253SOL    HW118395   1.590   0.617   4.079  1.4289  2.3641 -1.9849
 2253SOL    HW218396   1.639   0.595   4.215 -1.0062 -0.5208  0.2294
 2254SOL     OW18397   4.288   2.370   9.384  0.3092 -0.1820 -0.7996
 2254SOL    HW118398   4.324   2.282   9.391 -0.9541 -0.8048 -2.1482
 2254SOL    HW218399   4.348   2.412   9.322  1.5073 -0.1025  0.4127
 2255SOL     OW18400   2.358   4.605   3.725 -0.1431 -0.4649 -0.4626
 2255SOL    HW118401   2.288   4.551   3.762  0.7733 -0.8659  0.7059
 2255SOL    HW218402   2.431   4.591   3.785  2.4780  2.3203 -3.0422
 2256SOL     OW18403   3.960   2.895   2.890 -0.4486 -0.3958 -0.4535
 2256SOL    HW118404   4.050   2.883   2.859 -0.6589 -1.5200 -0.6108
 2256SOL    HW218405   3.979   2.945   2.969  1.5940 -1.2591 -0.3911
 2257SOL     OW18406   1.136   2.364   6.728  0.0463 -0.3449  0.6580
 2257SOL    HW118407   1.098   2.280   6.703  0.8755 -0.3831 -0.4533
 2257SOL    HW218408   1.069   2.420   6.687 -1.1181 -1.6021  0.8602
 2258SOL     OW18409   1.414   0.373   2.628  0.2273  0.0272 -0.2423
 2258SOL    HW118410   1.403   0.374   2.533  0.1934 -0.4240 -0.2421
 2258SOL    HW218411   1.461   0.291   2.646  0.1167  0.0862  0.3290
 2259SOL     OW18412   3.983   0.847  12.104 -0.6306  0.2460  0.0262
 2259SOL    HW118413   3.898   0.842  12.147  1.0516  0.5606  3.4319
 2259SOL    HW218414   3.957   0.872  12.016  1.6317  1.9211 -0.1851
 2260SOL     OW18415   0.114   3.875   7.502 -0.6799 -0.5677  0.3912
 2260SOL    HW118416   0.147   3.964   7.487 -1.3138 -0.3335  0.3874
 2260SOL    HW218417   0.169   3.841   7.573 -1.1633 -0.5148  0.7894
 2261SOL     OW18418   3.403   3.761   6.080  0.4103  0.4269 -0.1404
 2261SOL    HW118419   3.387   3.727   6.168 -2.1713  2.7941  0.3170
 2261SOL    HW218420   3.331   3.825   6.072  0.0673  0.2118  1.2229
 2262SOL     OW18421   1.536   3.053   2.515 -0.1149 -0.0247  0.5288
 2262SOL    HW118422   1.481   2.978   2.538  1.5284 -1.3346  0.1856
 2262SOL    HW218423   1.580   3.025   2.435  1.8310 -0.6114  1.7974
 2263SOL     OW18424   2.392   2.532  15.841  0.3868 -0.0755 -0.2193
 2263SOL    HW118425   2.391   2.542  15.746  2.9460  3.5934  0.1308
 2263SOL    HW218426   2.419   2.440  15.836 -3.1641 -1.2215  1.0521
 2264SOL     OW18427   2.297   2.040   5.210 -0.0785 -0.2714  0.4915
 2264SOL    HW118428   2.314   2.134   5.212  0.2493 -0.2855 -1.3441
 2264SOL    HW218429   2.227   2.022   5.273 -1.4300  2.9333 -0.1071
 2265SOL     OW18430   3.466   4.657   8.030  0.5849  0.0305  0.0116
 2265SOL    HW118431   3.416   4.639   8.110  1.8551 -2.5383  0.2017
 2265SOL    HW218432   3.535   4.717   8.059  1.0461 -0.4093 -0.1839
 2266SOL     OW18433   3.554   2.898   3.173 -0.5899  0.2950  0.2668
 2266SOL    HW118434   3.488   2.935   3.115 -1.3665  1.4567  1.8822
 2266SOL    HW218435   3.579   2.975   3.225 -0.3513  0.7845 -0.5698
 2267SOL     OW18436   0.746   4.312   4.706  0.4706  0.4167  0.0511
 2267SOL    HW118437   0.674   4.359   4.749  0.5886  0.1511  0.5322
 2267SOL    HW218438   0.804   4.382   4.677 -0.1808  0.7966 -0.3410
 2268SOL     OW18439   3.675   0.553   4.824  0.2896  0.7428  0.1591
 2268SOL    HW118440   3.758   0.586   4.789 -0.1908 -2.3425 -3.8624
 2268SOL    HW218441   3.674   0.595   4.910 -0.4744 -1.3668  1.1680
 2269SOL     OW18442   1.058   2.233  12.924  0.2692 -0.2205 -0.4293
 2269SOL    HW118443   1.149   2.245  12.950  0.3483  0.9306 -1.2194
 2269SOL    HW218444   1.016   2.268  13.002 -0.0070  0.6755 -0.9733
 2270SOL     OW18445   0.767   3.648  14.686 -0.4638  0.1097 -0.1929
 2270SOL    HW118446   0.726   3.715  14.631  2.5758  1.4908 -0.7925
 2270SOL    HW218447   0.841   3.631  14.627  1.1350  3.1094  0.9520
 2271SOL     OW18448   4.003   0.919  11.025  0.4576  0.0637 -0.4403
 2271SOL    HW118449   3.933   0.877  11.076  0.0797 -0.5359 -1.4530
 2271SOL    HW218450   3.953   0.965  10.958  0.5257 -0.0130 -0.5422
 2272SOL     OW18451   3.783   3.979   3.948  0.2003  0.1559 -0.3211
 2272SOL    HW118452   3.723   4.006   4.018  0.9937  1.1046 -0.0238
 2272SOL    HW218453   3.817   3.900   3.991  1.0671 -0.9281 -3.0163
 2273SOL     OW18454   1.515   0.832  16.484  0.5943 -0.3065  0.0507
 2273SOL    HW118455   1.552   0.794  16.405 -0.2537  0.1640 -0.5614
 2273SOL    HW218456   1.592   0.858  16.536  0.2294  2.0464 -0.6083
 2274SOL     OW18457   0.108   3.970   2.704  0.3593 -0.3555  0.0804
 2274SOL    HW118458   0.080   4.016   2.784 -1.2067 -0.4180 -0.4207
 2274SOL    HW218459   0.197   3.944   2.724  0.2470 -1.3388 -0.7039
 2275SOL     OW18460   3.523   1.528   8.009 -0.1530 -0.0212  0.3718
 2275SOL    HW118461   3.445   1.577   8.035 -1.9678 -1.3742 -2.4445
 2275SOL    HW218462   3.532   1.560   7.919  1.8172  0.0851  0.6145
 2276SOL     OW18463   4.443   2.975   5.535  0.0356  0.3306 -0.2764
 2276SOL    HW118464   4.412   2.889   5.508  1.6493  0.3809 -2.2138
 2276SOL    HW218465   4.378   2.992   5.604  1.1214  0.5469  0.6877
 2277SOL     OW18466   2.472   4.454   7.961  0.6383 -0.5295  0.2626
 2277SOL    HW118467   2.558   4.442   8.000  0.3893 -1.1281  0.6259
 2277SOL    HW218468   2.429   4.377   7.998  1.8854 -1.0438  0.6436
 2278SOL     OW18469   3.199   3.964   1.987 -0.0042 -0.2392  0.0559
 2278SOL    HW118470   3.243   4.036   1.941 -1.1453  1.6059  1.8273
 2278SOL    HW218471   3.264   3.894   1.984 -1.9609 -1.9312 -2.2811
 2279SOL     OW18472   2.439   3.146   7.444  0.4509 -0.7271  0.4815
 2279SOL    HW118473   2.407   3.156   7.355  0.4025 -1.2095  0.4463
 2279SOL    HW218474   2.380   3.079   7.478 -1.2333  0.8108  0.5926
 2280SOL     OW18475   0.788   0.912   9.663 -0.1125  0.6136 -0.2927
 2280SOL    HW118476   0.766   0.977   9.596  1.0659  0.5073 -0.7880
 2280SOL    HW218477   0.779   0.829   9.616 -1.2860  0.5574  0.0243
 2281SOL     OW18478   3.026   4.150  10.384  0.7143 -0.6436  0.2401
 2281SOL    HW118479   2.997   4.103  10.462 -0.7152  0.4731  0.3928
 2281SOL    HW218480   3.003   4.237  10.418  0.4806  0.0157 -1.6092
 2282SOL     OW18481   4.243   1.622  12.443 -0.7692 -0.2022 -0.2865
 2282SOL    HW118482   4.172   1.613  12.379 -1.5241 -0.9788  0.6790
 2282SOL    HW218483   4.301   1.686  12.400 -2.7401  0.8521 -1.3827
 2283SOL     OW18484   3.792   0.734   5.788  0.1264  0.1332 -0.4468
 2283SOL    HW118485   3.867   0.680   5.765 -0.9525 -0.8432 -1.6779
 2283SOL    HW218486   3.725   0.669   5.810 -0.5328  1.2360  0.8437
 2284SOL     OW18487   1.086   4.255  16.334 -0.1250 -0.3708 -0.4602
 2284SOL    HW118488   1.106   4.163  16.319 -1.1849 -0.6280 -0.3513
 2284SOL    HW218489   1.052   4.237  16.422  3.6807 -1.1554  0.8271
 2285SOL     OW18490   0.798   1.432   2.900  0.4959 -0.2908 -0.1226
 2285SOL    HW118491   0.824   1.377   2.974 -0.2667 -1.0777 -0.4535
 2285SOL    HW218492   0.703   1.419   2.903  0.6112 -1.3552 -1.2208
 2286SOL     OW18493   0.288   3.602   3.540  0.0004  0.3554  0.0116
 2286SOL    HW118494   0.380   3.621   3.562 -0.2955  0.1519  1.4109
 2286SOL    HW218495   0.297   3.592   3.445 -0.5762  0.5624 -0.0637
 2287SOL     OW18496   2.426   0.657   6.743  0.2551  0.1975  0.5830
 2287SOL    HW118497   2.339   0.656   6.703  0.9869  1.0376 -1.0124
 2287SOL    HW218498   2.461   0.737   6.704 -1.1762  0.6215  0.1732
 2288SOL     OW18499   2.848   2.144   0.825  0.0324  0.1740  0.0457
 2288SOL    HW118500   2.857   2.049   0.817 -0.7163  0.1651 -0.7147
 2288SOL    HW218501   2.914   2.175   0.763  1.8279 -2.2028  0.7581
 2289SOL     OW18502   0.314   0.782   7.100 -0.5139  0.0509 -0.7133
 2289SOL    HW118503   0.397   0.828   7.111  1.0356 -2.8248 -0.0851
 2289SOL    HW218504   0.326   0.720   7.173  0.3415  1.9620  0.7636
 2290SOL     OW18505   3.994   3.517   0.553  0.5472 -0.1051 -0.4097
 2290SOL    HW118506   3.902   3.538   0.569  0.6761 -0.5551  0.9227
 2290SOL    HW218507   3.993   3.422   0.567  1.7649 -0.1424 -0.5794
 2291SOL     OW18508   0.764   2.679  11.107 -0.2692 -0.3817  0.2289
 2291SOL    HW118509   0.708   2.610  11.144  4.2595 -3.4691  1.3125
 2291SOL    HW218510   0.738   2.753  11.162 -2.6705 -1.1911  0.2070
 2292SOL     OW18511   3.611   2.594  12.384 -0.3951  0.5318  0.3882
 2292SOL    HW118512   3.627   2.535  12.457  0.4018  0.3665  0.0742
 2292SOL    HW218513   3.633   2.541  12.308  1.0926  1.4565  0.1758
 2293SOL     OW18514   1.807   4.610   6.626 -0.4309  0.6531 -0.1047
 2293SOL    HW118515   1.775   4.593   6.538 -3.8455 -3.0392  1.8679
 2293SOL    HW218516   1.798   4.528   6.674  0.8538  0.2344 -0.5627
 2294SOL     OW18517   1.314   1.380   8.792  0.0583  0.4143 -0.1620
 2294SOL    HW118518   1.241   1.425   8.749  0.8865  1.7558 -0.1726
 2294SOL    HW218519   1.371   1.457   8.805 -2.3110  2.0120  0.6498
 2295SOL     OW18520   4.429   1.359   1.078 -0.3551 -0.4470 -0.3078
 2295SOL    HW118521   4.383   1.277   1.095  0.6569 -1.5956 -3.1327
 2295SOL    HW218522   4.361   1.419   1.045 -1.6591 -0.7739  1.7600
 2296SOL     OW18523   1.569   4.086   9.968 -0.3293  0.1444 -0.4161
 2296SOL    HW118524   1.554   3.997   9.936 -0.2290 -0.1533  0.3678
 2296SOL    HW218525   1.550   4.073  10.061  0.2651 -0.6854 -0.4168
 2297SOL     OW18526   4.179   3.142   2.876  0.2897  0.4305 -0.3333
 2297SOL    HW118527   4.208   3.229   2.904 -0.2612  0.8152 -0.9604
 2297SOL    HW218528   4.158   3.101   2.960 -0.3754  1.6582  0.1009
 2298SOL     OW18529   1.512   0.853   0.926  0.2811 -0.2650 -0.0720
 2298SOL    HW118530   1.477   0.926   0.977 -0.7924 -0.6326 -0.2793
 2298SOL    HW218531   1.553   0.903   0.856  2.8444 -0.8074  1.0480
 2299SOL     OW18532   1.700   1.697   4.100  0.4445 -0.6245  0.1974
 2299SOL    HW118533   1.763   1.769   4.101  1.3866 -1.4928  2.8543
 2299SOL    HW218534   1.761   1.622   4.094 -0.3564 -1.0315 -2.9814
 2300SOL     OW18535   4.119   1.901  16.760 -0.1653  0.4019  0.3234
 2300SOL    HW118536   4.083   1.988  16.773 -0.2768  0.8087 -2.6867
 2300SOL    HW218537   4.172   1.895  16.840 -1.4581  1.5441  1.2476
 2301SOL     OW18538   2.980   1.504   9.135  0.2471 -0.0250 -0.1986
 2301SOL    HW118539   3.069   1.490   9.103  0.3163 -0.8477  0.3653
 2301SOL    HW218540   2.983   1.491   9.230 -1.6649  0.1531 -0.1204
 2302SOL     OW18541   1.925   2.152   7.596  0.0892  0.1263 -0.0908
 2302SOL    HW118542   1.932   2.131   7.689  1.6818 -1.8017 -0.6483
 2302SOL    HW218543   1.845   2.204   7.590  0.4173  0.5102 -1.1958
 2303SOL     OW18544   1.156   4.701   0.245 -0.0484 -0.2106  0.1835
 2303SOL    HW118545   1.160   4.693   0.150 -1.8641  0.3148  0.0616
 2303SOL    HW218546   1.082   4.644   0.261 -1.2339  0.9953 -1.0097
 2304SOL     OW18547   1.540   2.370   0.385  0.0126  0.0415 -0.0328
 2304SOL    HW118548   1.495   2.447   0.349 -1.8136 -0.6241  0.7988
 2304SOL    HW218549   1.595   2.331   0.318  1.1840  1.5770  0.0297
 2305SOL     OW18550   4.692   1.494   9.577  1.1307 -0.1210  0.1238
 2305SOL    HW118551   4.623   1.535   9.525 -0.7550 -1.2082  1.7610
 2305SOL    HW218552   4.726   1.423   9.523  1.2197 -0.3333  0.4650
 2306SOL     OW18553   1.878   2.778   6.346  0.7149 -0.1044  0.4514
 2306SOL    HW118554   1.830   2.827   6.279  2.6627  1.2294  0.0453
 2306SOL    HW218555   1.824   2.710   6.386 -0.1528  0.4871  0.2988
 2307SOL     OW18556   3.602   3.941   7.801 -0.1887 -0.3607  0.1613
 2307SOL    HW118557   3.607   3.974   7.890  0.6439  0.8536 -0.3319
 2307SOL    HW218558   3.527   3.882   7.809  0.8915 -1.6998  0.4518
 2308SOL     OW18559   0.599   0.550   2.151  0.0904  0.5917 -0.5329
 2308SOL    HW118560   0.539   0.566   2.079 -0.7953  1.0011  0.2982
 2308SOL    HW218561   0.572   0.590   2.234  0.8161  0.5041 -0.2470
 2309SOL     OW18562   1.941   0.772   7.717  0.0878 -0.1461 -0.4243
 2309SOL    HW118563   2.012   0.748   7.777 -2.2874 -0.3327  2.2873
 2309SOL    HW218564   1.990   0.740   7.641  2.9846 -0.0279  1.3579
 2310SOL     OW18565   1.453   4.268   2.292 -0.3862 -0.9496 -0.2057
 2310SOL    HW118566   1.487   4.355   2.313 -0.7167 -1.0020  0.5691
 2310SOL    HW218567   1.538   4.227   2.276  0.4009  0.4801  0.2718
 2311SOL     OW18568   0.735   1.504   3.786 -0.1049 -0.3194  0.1303
 2311SOL    HW118569   0.818   1.538   3.817 -0.5977 -0.0471  1.1602
 2311SOL    HW218570   0.685   1.494   3.868 -0.9439  0.8863 -0.2483
 2312SOL     OW18571   3.012   3.303   8.387 -0.0237 -1.0912 -0.2233
 2312SOL    HW118572   2.971   3.216   8.389 -0.9924 -0.7396 -4.7409
 2312SOL    HW218573   2.939   3.363   8.402 -1.2743 -2.1727 -1.8857
 2313SOL     OW18574   3.699   1.095   7.239  0.4171  0.8672 -0.1556
 2313SOL    HW118575   3.672   1.145   7.316  0.8843  2.4976 -1.0662
 2313SOL    HW218576   3.687   1.007   7.277  2.5435  0.9082  0.6161
 2314SOL     OW18577   4.001   3.068  10.027  0.3000  0.2349  0.6121
 2314SOL    HW118578   3.912   3.101  10.014  0.1508 -0.5723 -0.4459
 2314SOL    HW218579   4.010   3.011   9.951 -0.2214  1.8309 -0.6393
 2315SOL     OW18580   3.110   3.464   6.838  0.1745 -0.3418  0.1140
 2315SOL    HW118581   3.160   3.503   6.909  0.1438  3.7722 -2.1502
 2315SOL    HW218582   3.042   3.420   6.888 -1.5718  2.2153 -0.0304
 2316SOL     OW18583   1.593   1.860  14.944 -0.8011 -0.5245 -0.1766
 2316SOL    HW118584   1.629   1.806  15.014 -0.2092 -1.0222 -0.8618
 2316SOL    HW218585   1.584   1.944  14.988 -0.2719 -1.2257  1.2544
 2317SOL     OW18586   1.531   3.850   2.879 -0.0590 -0.0451 -0.1775
 2317SOL    HW118587   1.458   3.814   2.929 -2.1908  0.9432 -2.5787
 2317SOL    HW218588   1.587   3.777   2.906 -0.4654 -0.1521  0.3780
 2318SOL     OW18589   4.189   2.776   2.716 -0.3199  0.5264  0.2269
 2318SOL    HW118590   4.165   2.727   2.795 -2.4441 -1.7267 -1.8432
 2318SOL    HW218591   4.272   2.733   2.694  0.0861  1.3936  0.0876
 2319SOL     OW18592   2.166   3.823  10.013 -0.4877 -0.7692  0.4393
 2319SOL    HW118593   2.215   3.904  10.027  0.4458 -0.7898 -2.7552
 2319SOL    HW218594   2.077   3.858  10.013  0.2298  0.9964 -1.0525
 2320SOL     OW18595   1.744   0.646   3.685  0.4151  0.5889 -0.2457
 2320SOL    HW118596   1.739   0.735   3.650  2.4963  1.1639  0.8840
 2320SOL    HW218597   1.818   0.613   3.635  1.3485  1.5272  0.5233
 2321SOL     OW18598   1.870   2.825  16.430  0.1072 -0.0397  0.1683
 2321SOL    HW118599   1.828   2.797  16.348 -0.2579  0.5552  0.1569
 2321SOL    HW218600   1.794   2.837  16.487 -0.6262  1.4635 -1.1264
 2322SOL     OW18601   0.475   1.651   3.070  0.2860  0.4331 -0.1023
 2322SOL    HW118602   0.547   1.597   3.102  0.9853  0.7403 -1.1358
 2322SOL    HW218603   0.470   1.614   2.981  1.6189 -1.3189  0.5458
 2323SOL     OW18604   0.606   3.065   5.961 -0.9322 -0.8312  0.0353
 2323SOL    HW118605   0.587   3.158   5.973  2.1984 -0.1211 -0.4365
 2323SOL    HW218606   0.528   3.034   5.916 -3.1725  2.9363  1.2583
 2324SOL     OW18607   4.639   2.281   7.009 -0.0997 -0.1730 -0.1286
 2324SOL    HW118608   4.701   2.214   7.037 -1.7233 -1.1408  1.1779
 2324SOL    HW218609   4.575   2.221   6.969 -1.4936  1.2333 -0.0288
 2325SOL     OW18610   4.599   1.213   3.594  0.2197 -0.2951 -0.4485
 2325SOL    HW118611   4.644   1.270   3.532  0.9634 -1.2422 -0.7817
 2325SOL    HW218612   4.651   1.134   3.579  1.3963  0.5597 -0.8961
 2326SOL     OW18613   0.537   4.352   7.386  0.1725  0.1271 -0.1992
 2326SOL    HW118614   0.597   4.354   7.311  1.1491  1.1308  0.6230
 2326SOL    HW218615   0.454   4.358   7.338  0.9755 -0.5643 -1.6892
 2327SOL     OW18616   2.147   3.682   2.290 -0.3831 -0.5190 -0.3167
 2327SOL    HW118617   2.125   3.594   2.261 -0.3924  0.3229 -2.9291
 2327SOL    HW218618   2.237   3.696   2.262 -0.0997  0.4758  1.0837
 2328SOL     OW18619   1.194   1.599   3.792  0.8015  0.3512 -0.2569
 2328SOL    HW118620   1.155   1.677   3.752 -0.0234 -0.9720 -2.0432
 2328SOL    HW218621   1.265   1.595   3.728  1.0531  2.0588 -0.0830
 2329SOL     OW18622   2.133   2.705   1.619 -0.1184  0.1384  0.1081
 2329SOL    HW118623   2.044   2.741   1.624 -1.3422 -2.5047 -2.1504
 2329SOL    HW218624   2.186   2.757   1.679  0.4510  0.0281 -0.2974
 2330SOL     OW18625   2.437   1.465   5.364  0.3828 -0.2964 -0.0515
 2330SOL    HW118626   2.491   1.522   5.309  0.2598  0.3437  0.4915
 2330SOL    HW218627   2.374   1.531   5.395  1.3993  0.8457 -0.4257
 2331SOL     OW18628   0.139   2.436   3.275 -0.2411 -0.4493  0.4002
 2331SOL    HW118629   0.096   2.358   3.240 -2.3327  0.2058  1.5273
 2331SOL    HW218630   0.229   2.414   3.253  0.3457  2.4235 -0.0601
 2332SOL     OW18631   4.046   0.200   2.424  0.4093 -0.4756 -0.2369
 2332SOL    HW118632   4.006   0.283   2.395 -1.1654 -0.4392  2.0376
 2332SOL    HW218633   4.018   0.144   2.352  0.3310 -0.5719 -0.1326
 2333SOL     OW18634   3.293   4.441   9.901 -0.3443  0.1232 -0.1710
 2333SOL    HW118635   3.366   4.404   9.852  0.2052 -0.2555  0.9350
 2333SOL    HW218636   3.230   4.372   9.879  0.1801  0.1715 -1.8659
 2334SOL     OW18637   3.605   1.293  13.589 -0.5153  0.3829  0.8102
 2334SOL    HW118638   3.588   1.215  13.641  0.6304 -1.1795 -1.1676
 2334SOL    HW218639   3.611   1.266  13.497 -0.6312 -0.6437  1.1077
 2335SOL     OW18640   2.442   2.427   7.253  0.1682 -0.5256 -0.1701
 2335SOL    HW118641   2.350   2.454   7.253  0.4248  0.4738  4.7890
 2335SOL    HW218642   2.444   2.355   7.190  0.3344  0.0374 -0.8103
 2336SOL     OW18643   1.414   0.193   9.135  0.1032  0.8796  0.1292
 2336SOL    HW118644   1.459   0.157   9.059  1.4091 -0.4270  1.5361
 2336SOL    HW218645   1.330   0.151   9.118 -0.3644  1.6516  0.5277
 2337SOL     OW18646   2.982   1.436   7.288 -0.0739 -0.0774 -0.1871
 2337SOL    HW118647   3.011   1.527   7.283 -0.1932 -0.0264  0.0614
 2337SOL    HW218648   2.986   1.417   7.382  0.6629 -0.8491 -0.3660
 2338SOL     OW18649   0.540   3.779   2.036 -0.2123  0.6335 -0.5038
 2338SOL    HW118650   0.536   3.850   2.100  0.2914  0.6019 -0.4403
 2338SOL    HW218651   0.547   3.704   2.094  0.8877  1.0579 -0.0979
 2339SOL     OW18652   2.360   4.433   0.576  0.0135 -0.3439 -0.3926
 2339SOL    HW118653   2.326   4.450   0.488 -1.1000  0.6640  0.2317
 2339SOL    HW218654   2.425   4.362   0.571  0.3639 -0.0287 -0.2656
 2340SOL     OW18655   0.091   3.017   6.178  0.0339 -0.4545  0.3821
 2340SOL    HW118656   0.071   3.110   6.167  0.2471 -0.4455  0.0710
 2340SOL    HW218657   0.150   3.005   6.103  0.3539  0.9140  0.3967
 2341SOL     OW18658   3.607   3.687   2.480  0.2770 -0.3315  0.1534
 2341SOL    HW118659   3.665   3.630   2.529  0.1631 -0.7659 -0.2159
 2341SOL    HW218660   3.574   3.620   2.420  1.0655  0.8753 -1.6466
 2342SOL     OW18661   1.590   1.516   2.565 -0.3326  0.1103 -0.4319
 2342SOL    HW118662   1.624   1.591   2.516  0.0766 -1.0778 -1.9377
 2342SOL    HW218663   1.611   1.442   2.508 -0.8635 -0.5351  0.2117
 2343SOL     OW18664   4.691   2.485   9.907  0.3308 -0.1052  0.1563
 2343SOL    HW118665   4.610   2.501   9.956  0.9410  1.6740  0.5838
 2343SOL    HW218666   4.721   2.576   9.907  2.5584 -0.8630 -1.3261
 2344SOL     OW18667   0.882   2.158   2.693 -0.6045 -0.0383 -0.2144
 2344SOL    HW118668   0.946   2.129   2.627  0.4416 -2.1626  1.7482
 2344SOL    HW218669   0.944   2.206   2.748  0.3783 -1.4280 -0.1016
 2345SOL     OW18670   3.391   0.822   0.315  0.5083 -0.0531  0.0845
 2345SOL    HW118671   3.467   0.872   0.285 -0.0558  2.0037  2.0635
 2345SOL    HW218672   3.332   0.896   0.300 -0.9392 -1.1708  0.2965
 2346SOL     OW18673   3.231   1.277   6.171 -0.1259 -0.2077  0.5118
 2346SOL    HW118674   3.148   1.231   6.178 -0.5978  0.5153 -0.3648
 2346SOL    HW218675   3.250   1.293   6.263 -0.3539  1.1970  0.3076
 2347SOL     OW18676   4.005   2.028   4.790 -0.3713 -0.0596  0.1967
 2347SOL    HW118677   4.039   2.112   4.820 -1.9563  1.1625 -1.4549
 2347SOL    HW218678   4.084   1.980   4.765  0.8480  2.2495 -0.3154
 2348SOL     OW18679   1.186   2.617   3.077 -0.4226 -0.3059  0.1923
 2348SOL    HW118680   1.134   2.555   3.128 -0.1902 -0.2426  0.5038
 2348SOL    HW218681   1.275   2.593   3.101 -1.3936 -2.0140  2.0679
 2349SOL     OW18682   0.437   2.843   1.153 -0.3349  0.0590 -0.0842
 2349SOL    HW118683   0.453   2.853   1.059 -0.6219 -0.2914 -0.1697
 2349SOL    HW218684   0.450   2.935   1.179 -1.1754 -0.1034  0.9086
 2350SOL     OW18685   2.778   1.660   2.878  0.2058  0.1259  0.5013
 2350SOL    HW118686   2.848   1.693   2.935  0.4123  0.5704 -0.0121
 2350SOL    HW218687   2.747   1.584   2.928 -1.5992  1.6720  1.6988
 2351SOL     OW18688   0.911   0.390  12.878  0.4161  0.5205 -0.1103
 2351SOL    HW118689   0.994   0.431  12.902  1.2519 -2.1206  1.4629
 2351SOL    HW218690   0.857   0.469  12.883 -0.2114  0.0615  0.2054
 2352SOL     OW18691   2.525   1.522   9.459  0.3152 -0.1482  0.0341
 2352SOL    HW118692   2.567   1.477   9.386  1.5336  1.6609 -0.3868
 2352SOL    HW218693   2.480   1.454   9.508 -0.0110 -0.3555 -0.5545
 2353SOL     OW18694   0.752   3.899   1.167  0.5404  0.1824  0.4320
 2353SOL    HW118695   0.764   3.939   1.253 -0.6358 -1.5262  1.3857
 2353SOL    HW218696   0.663   3.929   1.149  0.8556  0.7913 -0.1528
 2354SOL     OW18697   2.341   2.028  14.719  0.4291 -0.1412  0.4068
 2354SOL    HW118698   2.249   2.049  14.735  1.2533  2.5884  1.5245
 2354SOL    HW218699   2.378   2.022  14.807 -0.9148  2.3321  1.1466
 2355SOL     OW18700   3.936   3.792   6.518  0.1574 -0.2340 -0.0667
 2355SOL    HW118701   3.882   3.788   6.597  1.0961  0.2798  0.5851
 2355SOL    HW218702   3.879   3.745   6.456  0.9259 -1.8073  0.4170
 2356SOL     OW18703   2.758   0.524  17.506 -0.1883 -0.2825  0.0825
 2356SOL    HW118704   2.725   0.554  17.590 -3.0200  0.6677 -1.3523
 2356SOL    HW218705   2.779   0.432  17.519 -0.5548 -0.7514 -2.5468
 2357SOL     OW18706   0.119   1.177  13.763  0.4049 -0.1989  0.0262
 2357SOL    HW118707   0.096   1.266  13.789  0.4591 -0.0078 -0.5866
 2357SOL    HW218708   0.213   1.183  13.779  0.6146 -0.3999 -1.1322
 2358SOL     OW18709   2.190   1.492   4.181 -0.7186 -0.0630  0.6456
 2358SOL    HW118710   2.136   1.530   4.250 -2.8962 -0.6588 -0.7247
 2358SOL    HW218711   2.134   1.430   4.133  0.0931 -0.1922 -0.1319
 2359SOL     OW18712   3.628   1.157   7.725  0.3228  0.1179 -0.0889
 2359SOL    HW118713   3.552   1.132   7.778 -0.2511  1.5844 -0.2011
 2359SOL    HW218714   3.659   1.235   7.772 -0.0471  1.0227 -1.3558
 2360SOL     OW18715   4.367   3.884   5.566  0.0636  0.5072 -0.3178
 2360SOL    HW118716   4.295   3.828   5.593  0.5263  0.9836  1.8987
 2360SOL    HW218717   4.425   3.869   5.641 -0.5152  0.1989  0.0700
 2361SOL     OW18718   0.187   0.190   3.625  0.2664  0.2639 -0.3485
 2361SOL    HW118719   0.160   0.110   3.581 -0.3763  0.9100 -1.1306
 2361SOL    HW218720   0.269   0.210   3.580  1.3342  0.3944  1.6126
 2362SOL     OW18721   2.772   1.072   3.013 -0.2080 -0.3910 -0.4659
 2362SOL    HW118722   2.765   0.996   2.955 -0.4887 -0.9057  0.2506
 2362SOL    HW218723   2.725   1.144   2.971 -0.5110  1.1081  2.4281
 2363SOL     OW18724   4.030   0.092   5.405  0.1097 -0.3810 -0.7201
 2363SOL    HW118725   4.064   0.006   5.430  1.0359  0.7080  1.8682
 2363SOL    HW218726   3.962   0.073   5.340 -0.7720 -0.4824  0.2280
 2364SOL     OW18727   3.441   3.212   4.629 -0.0802  0.3939  0.2681
 2364SOL    HW118728   3.413   3.174   4.545 -0.0142 -1.0225  0.8844
 2364SOL    HW218729   3.513   3.153   4.651  1.2794  1.9118 -0.0299
 2365SOL     OW18730   2.162   2.199  17.276  0.1395  0.8547  0.6173
 2365SOL    HW118731   2.211   2.261  17.331 -1.7231  2.1193  0.8560
 2365SOL    HW218732   2.197   2.240  17.197 -0.4131 -0.7671 -0.4496
 2366SOL     OW18733   1.160   4.228   6.941  0.0032 -0.8174 -0.3216
 2366SOL    HW118734   1.126   4.155   6.889 -0.6445  0.3656 -1.5750
 2366SOL    HW218735   1.247   4.192   6.955  0.4746  1.6562  3.1097
 2367SOL     OW18736   0.377   1.399   6.220 -0.1489 -0.1440  0.1771
 2367SOL    HW118737   0.461   1.388   6.175 -0.6263 -0.1791 -0.7053
 2367SOL    HW218738   0.330   1.328   6.176  0.6710  0.9146 -2.3955
 2368SOL     OW18739   0.442   4.577   2.823  0.5114  0.2440  0.3000
 2368SOL    HW118740   0.457   4.506   2.886  2.5074  1.0727  0.7409
 2368SOL    HW218741   0.377   4.629   2.870  2.2532 -0.3235  3.3637
 2369SOL     OW18742   2.190   4.353   3.394 -0.2107 -0.5323 -0.0357
 2369SOL    HW118743   2.268   4.357   3.450 -0.2244 -1.0495  0.0235
 2369SOL    HW218744   2.147   4.438   3.391 -1.6223 -1.2471  0.1108
 2370SOL     OW18745   1.090   3.494   8.818  0.3824 -0.3062  0.7478
 2370SOL    HW118746   1.104   3.456   8.905 -0.7511 -2.7856 -0.1492
 2370SOL    HW218747   1.142   3.437   8.762 -0.1783 -0.8614  0.7978
 2371SOL     OW18748   3.792   2.801  15.593 -0.5833 -0.5792  0.1843
 2371SOL    HW118749   3.845   2.738  15.544 -1.1175  0.7370 -2.1075
 2371SOL    HW218750   3.703   2.766  15.591 -1.4626  1.7893 -2.3177
 2372SOL     OW18751   1.279   2.927   9.342 -0.2186  0.8270  0.2033
 2372SOL    HW118752   1.254   2.841   9.376 -0.4864  1.4679  1.6336
 2372SOL    HW218753   1.255   2.984   9.415  0.7128 -0.4531  1.5078
 2373SOL     OW18754   0.843   1.840   0.188  0.1659  0.3497 -0.1251
 2373SOL    HW118755   0.938   1.838   0.179  0.2145  0.5016  0.3703
 2373SOL    HW218756   0.832   1.755   0.231 -1.7662 -0.5112 -2.2913
 2374SOL     OW18757   1.440   3.524   5.065  0.0639 -0.1045  0.2720
 2374SOL    HW118758   1.502   3.540   5.136  0.3651 -1.1738  0.2570
 2374SOL    HW218759   1.491   3.456   5.019  1.1055  0.6294  0.3306
 2375SOL     OW18760   0.866   3.052   4.955 -0.2733 -0.0719  0.4177
 2375SOL    HW118761   0.909   3.105   5.024 -0.8898  0.9419  0.0251
 2375SOL    HW218762   0.792   3.013   5.001  0.1973 -2.3220 -0.7604
 2376SOL     OW18763   3.178   0.633  13.389 -0.0216  0.2044 -0.3515
 2376SOL    HW118764   3.109   0.679  13.438 -1.6624 -1.4107 -1.1619
 2376SOL    HW218765   3.202   0.694  13.319  1.0453 -0.2191 -0.3557
 2377SOL     OW18766   0.384   2.118   3.357 -0.5284 -0.0334 -0.0145
 2377SOL    HW118767   0.331   2.159   3.288 -0.6138  0.6661  0.4631
 2377SOL    HW218768   0.417   2.048   3.301  1.1207  2.5220 -2.2435
 2378SOL     OW18769   3.645   1.145   5.454 -0.1103 -0.7979  0.2881
 2378SOL    HW118770   3.655   1.062   5.499 -1.8332 -0.3599  1.4876
 2378SOL    HW218771   3.563   1.178   5.491 -0.8077 -3.1386  0.8110
 2379SOL     OW18772   2.633   4.366   7.020 -0.3338 -0.3213 -0.5648
 2379SOL    HW118773   2.681   4.433   7.068  0.7601 -1.9671  0.6478
 2379SOL    HW218774   2.697   4.337   6.955  1.7764  0.2341  1.2738
 2380SOL     OW18775   0.488   2.913   3.207 -0.1550  0.0267  0.6547
 2380SOL    HW118776   0.461   2.949   3.122 -0.0070  0.9291  1.0017
 2380SOL    HW218777   0.556   2.973   3.238  0.0918 -0.8514  1.8088
 2381SOL     OW18778   0.786   4.108  12.772  0.1695  0.2575  0.0509
 2381SOL    HW118779   0.762   4.046  12.841  1.3548 -0.9486 -0.6302
 2381SOL    HW218780   0.718   4.087  12.708 -1.4270  1.8473  1.2236
 2382SOL     OW18781   1.331   2.328  17.063  0.0212  0.2668 -0.1105
 2382SOL    HW118782   1.400   2.352  17.001  0.8832  0.4017  0.9051
 2382SOL    HW218783   1.266   2.299  16.999  0.1580 -0.3279  0.0221
 2383SOL     OW18784   0.634   0.399   1.789  0.2107  0.2266 -0.3559
 2383SOL    HW118785   0.684   0.325   1.823 -2.4068 -1.3123  0.1991
 2383SOL    HW218786   0.600   0.363   1.707 -0.4931  2.5853 -1.1032
 2384SOL     OW18787   3.045   1.088   6.389  0.0029 -0.1851  0.4464
 2384SOL    HW118788   3.007   1.175   6.392 -1.3846 -0.7009 -2.0098
 2384SOL    HW218789   3.104   1.100   6.463  0.4991  4.0570 -0.6776
 2385SOL     OW18790   4.282   1.148  11.955  0.5807 -0.6178 -0.2849
 2385SOL    HW118791   4.226   1.190  12.020  0.8026 -1.2743  0.3234
 2385SOL    HW218792   4.277   1.056  11.981 -2.0296 -0.6143 -0.8411
 2386SOL     OW18793   0.507   1.087   6.265 -0.0352 -0.5677 -0.0770
 2386SOL    HW118794   0.456   1.094   6.345 -0.6669 -1.1127 -0.4288
 2386SOL    HW218795   0.593   1.116   6.296 -0.1870  1.2380 -1.3084
 2387SOL     OW18796   0.179   3.921   4.460 -0.5777  0.0440  0.1793
 2387SOL    HW118797   0.229   3.842   4.479 -0.9848 -0.0204  0.9727
 2387SOL    HW218798   0.251   3.970   4.421  1.7475 -3.4021  0.1347
 2388SOL     OW18799   1.113   3.506  11.477  0.1869 -0.0886 -0.0047
 2388SOL    HW118800   1.182   3.451  11.439  0.0671  2.1124 -3.4750
 2388SOL    HW218801   1.170   3.576  11.511 -0.1312 -0.3653  1.0924
 2389SOL     OW18802   2.604   3.404   4.824  0.0063 -1.0966  0.0627
 2389SOL    HW118803   2.568   3.435   4.907  0.4953  0.0256 -0.1449
 2389SOL    HW218804   2.693   3.400   4.858 -0.7033 -3.0387  1.6821
 2390SOL     OW18805   3.277   1.925   5.612  0.8267 -0.4349 -1.1774
 2390SOL    HW118806   3.231   1.998   5.570  2.7057  1.0379 -0.6979
 2390SOL    HW218807   3.368   1.955   5.608  1.1914 -1.1056  2.0170
 2391SOL     OW18808   2.714   4.233   2.029 -0.2808  0.1117 -0.3536
 2391SOL    HW118809   2.751   4.170   1.968 -0.5239  1.3238 -1.7404
 2391SOL    HW218810   2.800   4.268   2.054 -0.7348  1.9942 -1.4466
 2392SOL     OW18811   1.310   0.042   4.052 -0.2137  0.2547 -0.5015
 2392SOL    HW118812   1.250   0.096   4.104 -1.0787 -0.5118 -0.7166
 2392SOL    HW218813   1.319   0.096   3.973  1.5066 -0.0946 -0.5486
 2393SOL     OW18814   3.418   3.297  13.395  0.3259 -0.1318  0.5978
 2393SOL    HW118815   3.419   3.234  13.323  1.5221  0.7719 -0.1730
 2393SOL    HW218816   3.328   3.279  13.421  0.2752 -1.8442 -0.7790
 2394SOL     OW18817   1.034   3.736   3.756  0.0886 -0.1030  0.4320
 2394SOL    HW118818   0.983   3.668   3.711  1.3714  0.4879 -1.9111
 2394SOL    HW218819   1.119   3.710   3.718 -0.4044 -2.4943  0.9685
 2395SOL     OW18820   1.549   1.837   4.355 -0.0944  0.1198 -0.2550
 2395SOL    HW118821   1.546   1.911   4.416 -0.2245  0.1547 -0.3046
 2395SOL    HW218822   1.503   1.870   4.278 -0.4011 -3.7463 -1.6986
 2396SOL     OW18823   0.257   3.844   5.120  0.1390  0.1396 -0.6155
 2396SOL    HW118824   0.184   3.884   5.072  0.4520  0.8289 -0.5226
 2396SOL    HW218825   0.198   3.787   5.170 -0.4295  1.8559  0.6719
 2397SOL     OW18826   0.891   1.975   5.273  0.0426 -0.0270  0.0919
 2397SOL    HW118827   0.953   2.008   5.337  1.1635  0.0423 -1.0280
 2397SOL    HW218828   0.902   1.880   5.262  0.0939 -0.0796  0.6144
 2398SOL     OW18829   1.646   2.183   4.869 -0.1323  0.1244 -0.0917
 2398SOL    HW118830   1.608   2.245   4.931  0.8343  3.1452 -2.5085
 2398SOL    HW218831   1.570   2.133   4.840 -0.5116 -0.0408  1.1649
 2399SOL     OW18832   2.040   1.441   2.240  0.1758  0.3785  0.0464
 2399SOL    HW118833   2.107   1.388   2.281  2.0550  2.8619  0.1791
 2399SOL    HW218834   2.032   1.401   2.154 -2.9445 -1.4172  1.1674
 2400SOL     OW18835   3.586   2.911   6.392  0.2928  0.2191 -0.3180
 2400SOL    HW118836   3.490   2.906   6.394  0.3537 -0.1470  1.5843
 2400SOL    HW218837   3.606   2.927   6.300  0.9001  0.6716 -0.1048
 2401SOL     OW18838   1.310   4.281   3.026  0.4450  0.0519  0.0573
 2401SOL    HW118839   1.242   4.344   3.002  0.8306  0.5978  0.3946
 2401SOL    HW218840   1.336   4.320   3.110 -1.2646 -1.5755  1.3446
 2402SOL     OW18841   4.523   3.691   4.152 -0.1855  0.3639  0.4664
 2402SOL    HW118842   4.466   3.768   4.150  0.1352  0.5844 -0.2473
 2402SOL    HW218843   4.515   3.670   4.245  2.1395  1.4239  0.8891
 2403SOL     OW18844   0.265   3.216  15.709 -0.3769 -0.1651  0.0717
 2403SOL    HW118845   0.249   3.309  15.724  1.3998  0.6114 -2.7530
 2403SOL    HW218846   0.324   3.197  15.781  0.8309  3.8793  0.1710
 2404SOL     OW18847   2.242   3.271   3.118  0.3677  0.0339  0.1984
 2404SOL    HW118848   2.226   3.268   3.024  0.5979 -2.7456  0.2470
 2404SOL    HW218849   2.155   3.290   3.152 -1.0978 -2.5643 -2.1231
 2405SOL     OW18850   3.508   2.198   3.370  0.1251 -0.9138 -0.0234
 2405SOL    HW118851   3.558   2.152   3.438  1.6630  1.5884  0.5261
 2405SOL    HW218852   3.419   2.212   3.403  1.0712 -1.8400  2.8849
 2406SOL     OW18853   2.755   1.212  11.525  0.0416  0.0428 -0.2008
 2406SOL    HW118854   2.773   1.180  11.614  0.3622  1.3308  0.1931
 2406SOL    HW218855   2.830   1.174  11.479  0.4656 -0.1131  0.6186
 2407SOL     OW18856   0.340   2.218  15.426 -0.2625 -0.2009 -0.1307
 2407SOL    HW118857   0.345   2.158  15.351 -0.1936  0.9983 -1.0787
 2407SOL    HW218858   0.375   2.161  15.494 -2.0345 -3.3027 -1.7891
 2408SOL     OW18859   0.423   0.404   9.124  0.5345  0.2350 -0.1060
 2408SOL    HW118860   0.424   0.314   9.158  1.0493  0.5134  0.6324
 2408SOL    HW218861   0.517   0.423   9.129  0.7290 -0.5087 -0.9287
 2409SOL     OW18862   2.263   3.151  14.557  0.2465  0.1969 -0.2847
 2409SOL    HW118863   2.354   3.179  14.556  0.1379  0.6520  1.9354
 2409SOL    HW218864   2.268   3.069  14.508  0.3591 -0.6538  1.1262
 2410SOL     OW18865   0.557   2.595   3.457  0.2308  0.9338 -0.1038
 2410SOL    HW118866   0.524   2.506   3.442  1.8886  0.2743  0.1633
 2410SOL    HW218867   0.575   2.585   3.550  0.9338  0.0625 -0.3342
 2411SOL     OW18868   2.844   0.899   6.644 -0.3631  0.1784 -0.7196
 2411SOL    HW118869   2.940   0.905   6.636 -0.1903 -0.8792  0.7020
 2411SOL    HW218870   2.816   0.900   6.552 -0.7692 -1.2637 -0.5993
 2412SOL     OW18871   1.536   3.712   8.480  0.1048  0.3992  0.2291
 2412SOL    HW118872   1.576   3.758   8.554 -1.4158 -0.5561  1.6706
 2412SOL    HW218873   1.577   3.758   8.407  2.2011 -2.0979 -0.1725
 2413SOL     OW18874   3.056   3.138  12.983 -0.1593  0.2396  0.3677
 2413SOL    HW118875   3.121   3.076  12.950  0.7298  1.0349  0.6303
 2413SOL    HW218876   3.051   3.101  13.071  0.4525  1.8630  1.0757
 2414SOL     OW18877   1.120   1.337   3.890  0.1793 -0.0437 -0.3412
 2414SOL    HW118878   1.121   1.418   3.839  0.5103 -1.0388 -1.9022
 2414SOL    HW218879   1.201   1.302   3.852  1.0812  0.5690  1.0272
 2415SOL     OW18880   2.056   3.429  17.699  0.4200  0.3182  0.0957
 2415SOL    HW118881   2.107   3.416  17.620  0.3821 -1.6515  0.3966
 2415SOL    HW218882   2.120   3.477   0.003  3.0364 -0.7270 -2.1388
 2416SOL     OW18883   1.954   1.525   5.549  0.7878  0.2562 -0.1000
 2416SOL    HW118884   1.907   1.599   5.512  0.5959  0.5577  0.7599
 2416SOL    HW218885   1.897   1.448   5.548  2.0416 -0.6267 -2.6187
 2417SOL     OW18886   4.066   1.944   9.024  0.1332  0.3508  0.6775
 2417SOL    HW118887   4.039   1.854   9.004  0.3749  0.2467  0.8151
 2417SOL    HW218888   4.128   1.912   9.089  2.2596  2.3757 -0.3486
 2418SOL     OW18889   3.183   0.240   6.689  0.1114 -0.2783 -0.1744
 2418SOL    HW118890   3.195   0.321   6.639  1.3133 -0.7562 -0.6497
 2418SOL    HW218891   3.088   0.252   6.695  0.4845  2.6206  0.0966
 2419SOL     OW18892   2.863   3.664   5.510 -0.2896  0.0991  0.3891
 2419SOL    HW118893   2.796   3.612   5.554  0.3450 -0.2689  0.9170
 2419SOL    HW218894   2.808   3.741   5.498  2.2122  1.5540 -1.7802
 2420SOL     OW18895   4.138   4.431   9.110  0.3576  0.0131  0.0487
 2420SOL    HW118896   4.213   4.490   9.106  0.7375 -0.3871  1.1069
 2420SOL    HW218897   4.124   4.430   9.205  1.8747  1.5094  0.2764
 2421SOL     OW18898   1.872   2.645   1.312 -0.7231 -0.0642  0.9453
 2421SOL    HW118899   1.908   2.733   1.307  0.0071 -0.5308 -1.9301
 2421SOL    HW218900   1.826   2.656   1.395 -0.2514  0.0167  1.1949
 2422SOL     OW18901   0.317   4.148   7.648  0.1611 -0.1774  0.1834
 2422SOL    HW118902   0.237   4.200   7.658  0.6883  1.0384 -1.9746
 2422SOL    HW218903   0.315   4.136   7.553  3.1174 -0.3695  0.1695
 2423SOL     OW18904   2.692   3.842   6.494  0.6953  0.6144  0.3691
 2423SOL    HW118905   2.622   3.893   6.536  0.4216 -0.4613  1.2114
 2423SOL    HW218906   2.669   3.882   6.410 -3.2468 -2.6759 -0.1166
 2424SOL     OW18907   4.238   4.361  16.391  0.1144 -0.6336  0.5132
 2424SOL    HW118908   4.209   4.409  16.313 -0.2367 -1.3986  0.1789
 2424SOL    HW218909   4.253   4.434  16.452 -0.7495  0.4220 -0.5218
 2425SOL     OW18910   3.714   4.731   5.486 -0.2426 -0.2233  0.4308
 2425SOL    HW118911   3.664   4.661   5.444  1.6250 -0.8997 -0.6365
 2425SOL    HW218912   3.739   4.693   5.570 -1.2626 -1.2668  0.2610
 2426SOL     OW18913   3.329   2.011   8.761 -0.4042 -0.2776 -0.3643
 2426SOL    HW118914   3.284   1.931   8.733 -0.7718 -0.2325  0.1022
 2426SOL    HW218915   3.399   2.008   8.695 -0.3666 -0.6023 -0.3103
 2427SOL     OW18916   2.622   2.812   7.397 -0.7383  0.0248  1.0576
 2427SOL    HW118917   2.527   2.827   7.402 -0.5334  1.9584 -0.8132
 2427SOL    HW218918   2.654   2.883   7.340 -3.3845 -0.8553 -1.5627
 2428SOL     OW18919   0.881   2.779  16.812  0.0749 -0.1978  0.0207
 2428SOL    HW118920   0.915   2.764  16.901 -2.1360  0.4196  0.9709
 2428SOL    HW218921   0.788   2.767  16.828  0.1859 -1.3963 -0.1608
 2429SOL     OW18922   1.731   4.055   3.737  0.0711 -0.4950  0.5174
 2429SOL    HW118923   1.821   4.070   3.710 -0.0542 -0.7698 -0.0597
 2429SOL    HW218924   1.688   4.111   3.672  0.7190 -0.9924 -0.3353
 2430SOL     OW18925   2.680   4.713  16.476  0.0176 -0.5433 -0.1865
 2430SOL    HW118926   2.675   0.011  16.565  1.0862 -1.6187  0.3022
 2430SOL    HW218927   2.747   0.035  16.443  1.0441 -2.0578 -0.8348
 2431SOL     OW18928   4.136   4.231   7.257  0.1576  0.5641  0.6753
 2431SOL    HW118929   4.088   4.216   7.338  1.4005  0.8518  1.4694
 2431SOL    HW218930   4.221   4.259   7.291  1.4686  2.8249 -4.4560
 2432SOL     OW18931   3.758   2.137   5.242 -0.6250 -0.6229 -0.7682
 2432SOL    HW118932   3.813   2.061   5.223  0.2942 -0.1211 -0.1141
 2432SOL    HW218933   3.708   2.142   5.160 -0.9138  0.2885 -0.5381
 2433SOL     OW18934   3.871   2.564   9.107  0.7540 -0.5109  0.1860
 2433SOL    HW118935   3.863   2.651   9.148  0.3340 -1.0143  1.1801
 2433SOL    HW218936   3.925   2.516   9.170  0.0989 -1.2427  0.1800
 2434SOL     OW18937   2.188   4.137   6.380 -0.1238 -0.3974 -0.0638
 2434SOL    HW118938   2.165   4.085   6.457  1.3932  0.2238  0.8049
 2434SOL    HW218939   2.103   4.176   6.358  1.3805  0.2110 -4.8822
 2435SOL     OW18940   0.302   3.238   8.109  0.2714 -0.1373  0.6428
 2435SOL    HW118941   0.368   3.170   8.093  1.1957  0.7872  0.5708
 2435SOL    HW218942   0.292   3.237   8.204  1.9830 -0.6290  0.8123
 2436SOL     OW18943   1.898   4.063   6.384 -0.0079 -0.2093  0.1474
 2436SOL    HW118944   1.825   4.093   6.330  1.0943  1.2395 -0.5252
 2436SOL    HW218945   1.928   4.150   6.408  0.0839 -0.4707  0.9922
 2437SOL     OW18946   0.061   3.588   2.825  0.0941  0.5296 -0.0010
 2437SOL    HW118947   0.136   3.638   2.857 -1.6863  1.1381  3.3305
 2437SOL    HW218948   0.086   3.496   2.835 -1.5802  0.1306  0.6675
 2438SOL     OW18949   3.847   0.915  13.077 -0.4317 -0.2669  0.2365
 2438SOL    HW118950   3.844   0.965  12.995 -1.3175 -1.6000 -0.5337
 2438SOL    HW218951   3.918   0.850  13.073 -1.8971 -1.6321 -3.5075
 2439SOL     OW18952   3.364   1.586   3.169  0.8565  0.8527 -0.5396
 2439SOL    HW118953   3.296   1.525   3.142  2.0707 -0.4621 -0.5993
 2439SOL    HW218954   3.358   1.581   3.264 -1.7839  1.1391 -0.6942
 2440SOL     OW18955   2.290   0.716   6.512  0.2150  0.3469 -0.4576
 2440SOL    HW118956   2.254   0.803   6.531 -1.0259 -0.1874 -0.3242
 2440SOL    HW218957   2.290   0.719   6.417 -2.0875 -3.0123 -0.5585
 2441SOL     OW18958   4.214   2.377   1.110  0.0118 -0.0706  0.5338
 2441SOL    HW118959   4.145   2.429   1.068  1.3010  0.5446 -0.8222
 2441SOL    HW218960   4.174   2.380   1.197  1.8205 -0.1792  1.3536
 2442SOL     OW18961   4.554   2.794   3.725  0.1184 -0.2903  0.2297
 2442SOL    HW118962   4.613   2.842   3.667 -0.2925 -1.6218 -1.3052
 2442SOL    HW218963   4.482   2.768   3.667  0.0480  2.6568 -0.9843
 2443SOL     OW18964   4.459   4.276   1.193 -0.3235 -0.0391  0.0759
 2443SOL    HW118965   4.387   4.271   1.257 -0.0750  1.2819  0.4754
 2443SOL    HW218966   4.528   4.230   1.240  2.3100  2.3177 -1.4821
 2444SOL     OW18967   0.258   4.141   3.926  0.1276 -0.3489  0.5333
 2444SOL    HW118968   0.289   4.231   3.942  0.5860 -0.3422 -0.4028
 2444SOL    HW218969   0.163   4.155   3.928  0.5164  2.2467  1.1291
 2445SOL     OW18970   1.215   0.954   8.643 -0.0367 -0.2656 -0.2961
 2445SOL    HW118971   1.291   0.992   8.599 -0.4641 -0.0933 -0.8891
 2445SOL    HW218972   1.184   1.037   8.681 -1.7266 -0.7650 -0.5676
 2446SOL     OW18973   3.747   1.119   0.491 -0.1153 -0.4218  0.3210
 2446SOL    HW118974   3.674   1.084   0.542 -0.5044 -0.2548 -0.1160
 2446SOL    HW218975   3.805   1.151   0.561 -1.4453 -1.6327  1.9739
 2447SOL     OW18976   1.741   3.390   5.090  0.3425  0.7790  0.6850
 2447SOL    HW118977   1.746   3.415   5.183 -1.9037 -1.9046  1.5351
 2447SOL    HW218978   1.792   3.457   5.045  1.1583 -0.1375  0.2618
 2448SOL     OW18979   0.114   2.282   2.272  0.5431 -0.0004  0.1574
 2448SOL    HW118980   0.036   2.227   2.277  0.5762  0.0270  0.9984
 2448SOL    HW218981   0.144   2.248   2.188  0.1359 -2.1630  0.8860
 2449SOL     OW18982   1.982   4.656   4.593 -0.8771  0.3460  0.5058
 2449SOL    HW118983   2.049   4.622   4.652 -1.1734 -1.1670 -0.0354
 2449SOL    HW218984   1.917   4.680   4.659 -2.3119  0.1510 -0.8253
 2450SOL     OW18985   3.731   1.576   9.207 -0.7241  0.4082  0.4589
 2450SOL    HW118986   3.713   1.599   9.116 -1.9700 -1.3724  0.2481
 2450SOL    HW218987   3.738   1.663   9.247 -0.0924  0.6717 -0.2405
 2451SOL     OW18988   4.191   1.160   4.992  0.8376 -0.4949  0.6665
 2451SOL    HW118989   4.197   1.138   5.085 -0.3207 -1.7751  0.4375
 2451SOL    HW218990   4.113   1.107   4.975  0.8308  0.1063 -1.2168
 2452SOL     OW18991   0.646   2.925   5.084 -0.2557  0.1657  0.3096
 2452SOL    HW118992   0.671   2.832   5.090 -0.5145  0.0795  0.0503
 2452SOL    HW218993   0.565   2.904   5.038  0.6496  1.5520 -1.8813
 2453SOL     OW18994   1.166   4.119  10.540  0.4244 -0.4288  0.0482
 2453SOL    HW118995   1.085   4.104  10.491 -0.9462 -2.0711  2.7939
 2453SOL    HW218996   1.237   4.129  10.476 -0.2988  1.1903 -0.4939
 2454SOL     OW18997   0.670   4.371   3.175  0.5311 -0.1894 -0.9037
 2454SOL    HW118998   0.669   4.284   3.135 -1.7821 -1.7618  2.4627
 2454SOL    HW218999   0.586   4.398   3.137 -0.8731 -1.8422  1.0066
 2455SOL     OW19000   4.393   3.522   4.722 -0.3144 -0.0358  0.6768
 2455SOL    HW119001   4.363   3.533   4.631  1.8008 -2.0924 -0.2623
 2455SOL    HW219002   4.309   3.512   4.766 -0.5732  3.0357  0.8735
 2456SOL     OW19003   2.892   1.033   1.967 -0.2314  0.0696  0.2607
 2456SOL    HW119004   2.905   1.014   2.060  2.1574 -1.3276 -0.3500
 2456SOL    HW219005   2.961   1.099   1.963 -1.1236  0.8589 -2.7586
 2457SOL     OW19006   2.552   3.786  10.131 -0.4896 -0.3647  0.5557
 2457SOL    HW119007   2.634   3.737  10.124 -1.5362 -1.7608 -1.8638
 2457SOL    HW219008   2.539   3.816  10.041 -2.0073  0.6606  1.1129
 2458SOL     OW19009   1.030   3.724  15.057 -0.2129 -0.0613  0.3942
 2458SOL    HW119010   1.114   3.765  15.080 -0.5146  0.8114 -0.0491
 2458SOL    HW219011   0.968   3.764  15.118  0.5576 -0.7449  1.6122
 2459SOL     OW19012   3.434   1.672   6.035  0.7115  0.4239 -0.0492
 2459SOL    HW119013   3.349   1.685   5.994  1.0804  0.9331 -0.6401
 2459SOL    HW219014   3.401   1.630   6.114 -1.0939  2.0044  0.0386
 2460SOL     OW19015   0.886   3.699   4.532 -0.0577 -0.4935  0.0183
 2460SOL    HW119016   0.971   3.707   4.488 -0.6624  0.1394 -1.0478
 2460SOL    HW219017   0.915   3.676   4.620  1.9883 -0.9199 -0.7637
 2461SOL     OW19018   1.147   2.574  17.146  0.5804  0.8584  0.6682
 2461SOL    HW119019   1.209   2.524  17.199 -0.7292 -1.6451 -0.1349
 2461SOL    HW219020   1.186   2.558  17.060  0.5443  1.6752  0.4999
 2462SOL     OW19021   1.516   4.577  10.748 -0.6040  0.0574 -0.2901
 2462SOL    HW119022   1.562   4.503  10.709  1.3686  0.8714  0.5112
 2462SOL    HW219023   1.582   4.604  10.812 -0.7520 -0.4094  0.0659
 2463SOL     OW19024   2.806   3.677   6.873  0.5872 -0.0894  0.2606
 2463SOL    HW119025   2.790   3.621   6.949 -0.5872  0.1060  0.1559
 2463SOL    HW219026   2.846   3.750   6.920  0.1679  1.4331 -1.7420
 2464SOL     OW19027   0.506   3.885   4.723  0.5809 -0.7328 -0.2389
 2464SOL    HW119028   0.485   3.807   4.774 -1.1200  0.7519  1.2723
 2464SOL    HW219029   0.499   3.956   4.786 -2.0386 -1.6078  0.4542
 2465SOL     OW19030   4.231   3.510   2.331  0.3009  0.1556 -0.3201
 2465SOL    HW119031   4.188   3.592   2.355  1.2421  1.2770 -2.4115
 2465SOL    HW219032   4.268   3.487   2.416 -1.2826  2.3959  0.9547
 2466SOL     OW19033   1.491   1.301  17.241 -0.6378 -0.1157  0.1718
 2466SOL    HW119034   1.417   1.348  17.202  0.6272  0.3666 -1.6558
 2466SOL    HW219035   1.498   1.322  17.334  1.6890  0.1051 -0.0586
 2467SOL     OW19036   0.621   1.643   1.380 -0.3939 -0.3042  0.4879
 2467SOL    HW119037   0.697   1.598   1.416 -0.2451 -1.6933 -1.5380
 2467SOL    HW219038   0.642   1.626   1.288 -1.1022  0.3761  0.2039
 2468SOL     OW19039   1.981   1.848   5.803 -0.3194 -0.5008  0.3996
 2468SOL    HW119040   1.887   1.856   5.824 -0.2460  3.1779 -0.7477
 2468SOL    HW219041   1.994   1.755   5.824 -0.9112  0.4532  5.0859
 2469SOL     OW19042   0.607   2.509   1.202 -0.1661 -0.0225 -0.1822
 2469SOL    HW119043   0.514   2.498   1.223 -0.2314 -0.3128 -0.6334
 2469SOL    HW219044   0.642   2.422   1.218  0.0099  0.2392  0.8229
 2470SOL     OW19045   2.444   2.214   6.320 -0.8959 -0.6647  0.3096
 2470SOL    HW119046   2.526   2.218   6.370  0.3155  0.4631 -1.7648
 2470SOL    HW219047   2.400   2.144   6.367 -1.0434 -0.1783  0.8998
 2471SOL     OW19048   3.737   4.450   2.793 -0.1254  0.3477 -0.6905
 2471SOL    HW119049   3.818   4.405   2.771 -0.7835 -0.9707 -0.3781
 2471SOL    HW219050   3.775   4.536   2.776 -0.1343  0.4681 -0.1035
 2472SOL     OW19051   4.462   0.058  12.740  0.1856 -0.9711  0.1602
 2472SOL    HW119052   4.509   0.136  12.770 -1.5335 -0.6322  2.0468
 2472SOL    HW219053   4.506   0.028  12.661  2.0301  2.7592 -0.2546
 2473SOL     OW19054   0.015   2.736   1.222  0.1707  0.3663 -0.3614
 2473SOL    HW119055   4.672   2.758   1.269  0.0889 -1.5266  0.3827
 2473SOL    HW219056   0.084   2.764   1.282 -1.2473  0.7396  1.1097
 2474SOL     OW19057   1.119   0.716   8.541  0.5666  0.0626  0.6550
 2474SOL    HW119058   1.027   0.739   8.543  1.0983  2.0990  1.5337
 2474SOL    HW219059   1.165   0.796   8.569  2.3339 -1.0774  1.0087
 2475SOL     OW19060   3.038   4.507  16.640 -0.4702 -0.6768 -0.1886
 2475SOL    HW119061   3.092   4.473  16.569  1.0242 -0.9713  1.1029
 2475SOL    HW219062   3.042   4.433  16.701  0.0188 -0.4621  0.0426
 2476SOL     OW19063   2.422   3.201  16.446 -0.0249  0.7225 -0.1921
 2476SOL    HW119064   2.408   3.289  16.482  5.0638  1.3348  0.3226
 2476SOL    HW219065   2.359   3.193  16.374  0.9051 -0.7487 -0.8311
 2477SOL     OW19066   3.325   0.124   9.135 -0.0069 -0.3127 -0.3343
 2477SOL    HW119067   3.412   0.105   9.172 -0.0853 -0.0710 -0.0204
 2477SOL    HW219068   3.292   0.172   9.211  0.5684  0.4592 -0.5615
 2478SOL     OW19069   2.286   0.652  15.952  0.1670  0.1579  0.2095
 2478SOL    HW119070   2.242   0.633  15.870  1.8037  3.2999 -1.3987
 2478SOL    HW219071   2.360   0.590  15.950  0.9421  1.0649  1.0546
 2479SOL     OW19072   1.150   3.061   6.824  0.1232  0.0258 -0.0089
 2479SOL    HW119073   1.164   3.067   6.730  2.0062 -0.1451  0.2644
 2479SOL    HW219074   1.212   3.129   6.848 -0.1214  0.3733 -0.3697
 2480SOL     OW19075   2.886   2.052   6.598  0.1239 -0.6120 -0.3575
 2480SOL    HW119076   2.921   2.006   6.675 -0.2155  0.9376  0.7347
 2480SOL    HW219077   2.961   2.110   6.580 -1.0035  0.9440 -0.0612
 2481SOL     OW19078   4.483   2.776   3.991 -0.5442  0.1023 -0.3466
 2481SOL    HW119079   4.484   2.752   3.899 -0.0717  1.4754 -0.7049
 2481SOL    HW219080   4.526   2.862   3.997  1.7481 -1.0977  0.3657
 2482SOL     OW19081   4.544   4.659   4.249 -0.2818 -0.1821 -0.1332
 2482SOL    HW119082   4.626   4.630   4.209  0.4605  2.0520 -0.2748
 2482SOL    HW219083   4.584   4.692   4.330  0.2473 -2.8991  0.7169
 2483SOL     OW19084   2.641   0.632  17.727  0.6579 -0.5119  0.3244
 2483SOL    HW119085   2.673   0.696   0.042 -0.7472 -0.0215  0.5244
 2483SOL    HW219086   2.596   0.700  17.676 -0.0689 -0.8302  0.5573
 2484SOL     OW19087   2.338   3.782   6.667  0.5888  0.0687  0.0622
 2484SOL    HW119088   2.393   3.704   6.678  1.3371  0.2875 -2.1688
 2484SOL    HW219089   2.281   3.744   6.600  0.6437 -0.0752  0.0978
 2485SOL     OW19090   3.100   3.799   5.720 -0.1941  0.1711 -0.5851
 2485SOL    HW119091   3.037   3.747   5.770  0.8335 -0.4138  0.0883
 2485SOL    HW219092   3.080   3.880   5.768  3.5301 -0.2453  1.6130
 2486SOL     OW19093   0.992   2.650   1.639 -1.1970 -0.0827  0.0210
 2486SOL    HW119094   1.012   2.717   1.574 -0.1424 -0.8447 -0.4464
 2486SOL    HW219095   0.966   2.581   1.577  0.5248 -0.6564 -0.0577
 2487SOL     OW19096   2.299   4.629  14.833 -0.4805 -0.2237 -0.0543
 2487SOL    HW119097   2.242   4.706  14.838 -0.4605 -0.0480 -2.4535
 2487SOL    HW219098   2.294   4.617  14.739 -0.7125 -1.0649  0.0666
 2488SOL     OW19099   4.240   0.167   3.461  0.0782  0.1201  0.0352
 2488SOL    HW119100   4.268   0.113   3.534 -0.9643  0.0932  0.4095
 2488SOL    HW219101   4.267   0.253   3.491 -1.6402  0.4802  0.5303
 2489SOL     OW19102   1.392   2.541   3.704  0.3237  0.1458  0.7184
 2489SOL    HW119103   1.438   2.468   3.661 -1.0178  0.3469 -1.0630
 2489SOL    HW219104   1.469   2.592   3.728  0.0174  0.8919  0.1020
 2490SOL     OW19105   3.902   1.021   9.869 -0.0668  0.5315  0.0033
 2490SOL    HW119106   3.886   0.929   9.889  1.9181  0.2437  0.2371
 2490SOL    HW219107   3.820   1.043   9.826 -0.1254  0.5055  0.1014
 2491SOL     OW19108   3.336   3.053   2.581  0.2229  0.4436 -0.3591
 2491SOL    HW119109   3.301   2.984   2.637 -0.7823  1.0703 -0.2019
 2491SOL    HW219110   3.414   3.015   2.542 -0.9195 -1.0894 -1.1724
 2492SOL     OW19111   3.393   4.199   9.420  0.3789  0.7024  0.1207
 2492SOL    HW119112   3.440   4.278   9.448  3.3492  0.0480 -3.0924
 2492SOL    HW219113   3.387   4.214   9.326  0.3615 -1.5068 -0.2112
 2493SOL     OW19114   3.263   1.578   6.218  0.1292  0.0713  0.1726
 2493SOL    HW119115   3.191   1.635   6.242 -1.4529 -1.2756 -1.3109
 2493SOL    HW219116   3.268   1.531   6.301 -1.0860 -1.0332 -0.3613
 2494SOL     OW19117   3.433   2.427   6.679 -0.3002  0.5832 -0.3964
 2494SOL    HW119118   3.423   2.498   6.614 -1.0547 -0.5183 -1.4959
 2494SOL    HW219119   3.517   2.447   6.720  0.3791 -0.9808 -1.0494
 2495SOL     OW19120   0.014   4.332   8.498 -0.1567  0.4542  0.9593
 2495SOL    HW119121   4.720   4.246   8.528  0.3844  0.4316  1.4724
 2495SOL    HW219122   0.083   4.310   8.436  0.5407 -0.9872  2.2281
 2496SOL     OW19123   4.556   0.273   2.101  0.0672  0.0580 -0.6732
 2496SOL    HW119124   4.601   0.357   2.096 -0.0623  0.2215  1.2545
 2496SOL    HW219125   4.464   0.296   2.085 -0.0881  0.2731  0.5874
 2497SOL     OW19126   3.169   0.772   7.007  0.6879  0.4478 -0.6246
 2497SOL    HW119127   3.127   0.855   6.983 -1.4861  0.2920  2.7523
 2497SOL    HW219128   3.103   0.756   7.075  0.6534  1.2615 -0.4758
 2498SOL     OW19129   2.711   1.266   7.853  0.4068  0.1283 -0.3365
 2498SOL    HW119130   2.802   1.290   7.870 -0.1393  1.1715  1.0714
 2498SOL    HW219131   2.678   1.341   7.804 -0.7190  2.3427  3.8389
 2499SOL     OW19132   0.023   3.856   8.760 -0.0319 -0.3204 -0.2908
 2499SOL    HW119133   4.711   3.773   8.754 -1.0798  0.3852 -1.5614
 2499SOL    HW219134   0.105   3.842   8.807  0.4468  0.6668 -0.8314
 2500SOL     OW19135   3.900   1.810   7.626  0.1513  0.0237  0.7969
 2500SOL    HW119136   3.953   1.846   7.555 -0.4113  0.6535  0.7010
 2500SOL    HW219137   3.812   1.831   7.596  0.3287  2.5064  1.9996
 2501SOL     OW19138   3.139   2.652   2.170  0.5138 -0.1594 -0.1106
 2501SOL    HW119139   3.083   2.669   2.094 -2.0084  2.0628  2.2761
 2501SOL    HW219140   3.139   2.556   2.175  4.3606  0.0544  3.5206
 2502SOL     OW19141   4.724   3.485  13.835  0.2067 -0.3089  0.4994
 2502SOL    HW119142   0.064   3.460  13.885 -0.0305 -1.4281  0.3110
 2502SOL    HW219143   4.723   3.580  13.843  1.0274 -0.4526  2.5358
 2503SOL     OW19144   1.336   4.561   5.048  0.5423 -0.0240  0.0094
 2503SOL    HW119145   1.261   4.612   5.079 -0.5283 -1.6370  0.1221
 2503SOL    HW219146   1.344   4.506   5.126 -0.6946 -1.6541 -1.0178
 2504SOL     OW19147   2.848   2.389   1.103 -0.5838 -0.3452  0.8676
 2504SOL    HW119148   2.827   2.430   1.019  0.5900 -1.1921  0.1562
 2504SOL    HW219149   2.766   2.360   1.142 -0.7079  1.3858  1.8982
 2505SOL     OW19150   1.701   2.214   5.610  0.2058  0.3626 -1.1380
 2505SOL    HW119151   1.622   2.194   5.659  1.2301  2.2847  1.3228
 2505SOL    HW219152   1.675   2.273   5.539 -2.2899  1.9113  1.1019
 2506SOL     OW19153   0.005   4.486  10.358 -0.5109  0.0390  0.0534
 2506SOL    HW119154   4.709   4.520  10.275  3.2480  0.3667 -1.3732
 2506SOL    HW219155   4.727   4.393  10.346 -0.3781 -0.0269  0.3825
 2507SOL     OW19156   4.457   2.530  12.362 -0.0388  0.3638  0.2179
 2507SOL    HW119157   4.516   2.547  12.435 -0.6657 -0.4298  0.9116
 2507SOL    HW219158   4.523   2.500  12.300  1.1661 -0.3954  1.8645
 2508SOL     OW19159   4.319   0.692   3.295  0.5614  0.9834  0.2727
 2508SOL    HW119160   4.358   0.778   3.312  0.3351  1.3674 -1.1760
 2508SOL    HW219161   4.401   0.647   3.280  0.5921  1.4423 -0.9395
 2509SOL     OW19162   4.320   0.135   6.464 -0.2478  0.4853  0.0828
 2509SOL    HW119163   4.261   0.060   6.454 -1.6514  1.6135  0.0171
 2509SOL    HW219164   4.273   0.199   6.412  0.1642 -1.2816 -2.4492
 2510SOL     OW19165   2.165   1.950  16.986  0.3282  0.2955 -0.3839
 2510SOL    HW119166   2.237   2.013  16.993 -0.0579  0.6478  0.5039
 2510SOL    HW219167   2.200   1.875  16.939  0.1920  0.9858 -1.5672
 2511SOL     OW19168   3.601   1.526   5.569  0.0069  0.6919  0.1766
 2511SOL    HW119169   3.613   1.453   5.630 -2.8098 -0.7832 -1.0288
 2511SOL    HW219170   3.526   1.573   5.608 -1.1689 -1.1316  0.1036
 2512SOL     OW19171   1.777   0.820  17.312 -0.1788 -0.5507 -0.4907
 2512SOL    HW119172   1.851   0.768  17.280 -0.9739 -2.1928  0.3343
 2512SOL    HW219173   1.727   0.838  17.232  1.0186  0.2767 -1.0511
 2513SOL     OW19174   3.849   3.135  10.496  0.0593  0.2244  1.0073
 2513SOL    HW119175   3.824   3.221  10.529 -2.7525 -1.0161  2.0969
 2513SOL    HW219176   3.886   3.157  10.410 -3.5120  1.6194 -0.1613
 2514SOL     OW19177   2.455   4.081   7.345  0.1120 -0.0121  0.0975
 2514SOL    HW119178   2.502   4.124   7.417 -0.2152  1.1481 -0.3929
 2514SOL    HW219179   2.501   4.109   7.266 -0.0277 -1.6657 -0.5618
 2515SOL     OW19180   4.568   2.488   5.844  0.1178 -0.2187 -0.3284
 2515SOL    HW119181   4.553   2.558   5.907  0.4127 -0.5947  0.1595
 2515SOL    HW219182   4.482   2.484   5.803  0.5780 -1.2336 -1.2170
 2516SOL     OW19183   0.996   0.863   2.680 -0.1922  0.5382 -0.2065
 2516SOL    HW119184   0.968   0.780   2.642  1.2079  0.3864 -0.9125
 2516SOL    HW219185   1.072   0.833   2.729 -1.4283  1.3805  2.2324
 2517SOL     OW19186   0.879   4.594   8.048  0.0664 -0.5397  0.1435
 2517SOL    HW119187   0.817   4.582   8.120 -1.9950 -2.5432 -1.9647
 2517SOL    HW219188   0.960   4.562   8.088 -0.5664 -0.5837  1.3751
 2518SOL     OW19189   0.759   2.270  14.045  0.1900  0.2812 -0.3027
 2518SOL    HW119190   0.853   2.261  14.028  0.1107 -0.2533 -0.4682
 2518SOL    HW219191   0.740   2.196  14.103 -2.1040  2.7162  1.9939
 2519SOL     OW19192   0.217   3.387   3.700 -0.4478 -0.0192 -0.1109
 2519SOL    HW119193   0.236   3.458   3.639  0.4290  0.7077  0.9980
 2519SOL    HW219194   0.307   3.361   3.721 -1.0080 -1.5371  0.4345
 2520SOL     OW19195   0.047   1.291   9.407  0.4296  0.1736 -0.2564
 2520SOL    HW119196   4.725   1.219   9.429  0.3238 -0.5372 -2.9104
 2520SOL    HW219197   0.077   1.257   9.323  0.4927 -1.0813  0.2651
 2521SOL     OW19198   2.355   2.607   3.786  1.1808  0.0093 -0.3945
 2521SOL    HW119199   2.297   2.682   3.773  3.2822  1.4908 -1.2514
 2521SOL    HW219200   2.369   2.619   3.880 -0.1019  0.9700 -0.3293
 2522SOL     OW19201   3.875   1.324   3.773  0.0966 -0.9664  0.2612
 2522SOL    HW119202   3.965   1.348   3.749  0.2832 -2.1330 -0.1776
 2522SOL    HW219203   3.896   1.234   3.798 -2.4064 -1.4808  0.5704
 2523SOL     OW19204   0.855   3.220   6.525  0.2004  0.5937  0.2351
 2523SOL    HW119205   0.888   3.304   6.556 -0.0818  0.8262 -0.0955
 2523SOL    HW219206   0.850   3.179   6.611  0.2890 -0.0466 -0.0658
 2524SOL     OW19207   0.305   0.153   1.722 -0.1702 -0.1733  0.1005
 2524SOL    HW119208   0.396   0.130   1.705 -0.4092 -0.6335 -0.5596
 2524SOL    HW219209   0.305   0.248   1.712  0.3017 -0.4385 -2.3801
 2525SOL     OW19210   0.334   0.375   9.410  0.2271  0.6556 -0.1999
 2525SOL    HW119211   0.248   0.407   9.384 -1.1181 -3.1418 -0.4928
 2525SOL    HW219212   0.380   0.352   9.329  0.8124  1.5454 -0.1246
 2526SOL     OW19213   1.790   4.017   7.346 -0.2406 -0.3595  0.0701
 2526SOL    HW119214   1.768   3.932   7.308 -2.0913 -0.0557  0.4530
 2526SOL    HW219215   1.718   4.043   7.405  0.6881  0.1153  0.9858
 2527SOL     OW19216   3.754   2.239   3.135 -0.0765 -0.1617 -0.1780
 2527SOL    HW119217   3.758   2.289   3.217  0.6423 -1.5470  0.6332
 2527SOL    HW219218   3.701   2.295   3.078 -1.1250  0.7769  1.7120
 2528SOL     OW19219   2.200   1.052   2.298 -0.0069  0.2266  0.1095
 2528SOL    HW119220   2.140   1.031   2.370 -1.5050  0.1732 -1.1415
 2528SOL    HW219221   2.260   0.980   2.313 -2.9700 -2.3274 -0.2743
 2529SOL     OW19222   0.075   1.119   8.330  0.2896 -0.5261  0.5562
 2529SOL    HW119223   0.052   1.048   8.390 -1.2509 -1.0013 -0.6114
 2529SOL    HW219224   0.107   1.187   8.389  1.2035 -0.4340 -0.0418
 2530SOL     OW19225   2.308   1.462   2.624  0.2843 -0.3312 -0.1428
 2530SOL    HW119226   2.283   1.446   2.715 -1.8051 -1.1637 -0.8622
 2530SOL    HW219227   2.302   1.557   2.625  2.2804 -0.2067  0.9314
 2531SOL     OW19228   4.517   4.571   0.432 -0.6526 -0.0117 -0.0647
 2531SOL    HW119229   4.588   4.518   0.396 -0.8850  0.2011 -0.8420
 2531SOL    HW219230   4.498   4.535   0.518  0.5927 -0.1112  0.1653
 2532SOL     OW19231   0.956   4.140   7.258 -0.1806  0.1955 -0.2254
 2532SOL    HW119232   0.941   4.187   7.176  1.5822 -0.5959 -1.0061
 2532SOL    HW219233   1.041   4.097   7.253 -0.4279 -0.0395 -2.5913
 2533SOL     OW19234   4.611   4.724  15.476  0.0899  0.6310  0.6162
 2533SOL    HW119235   4.626   0.076  15.446  3.1812  0.2988  1.1938
 2533SOL    HW219236   4.679   4.675  15.431  1.3293  0.8122  2.2888
 2534SOL     OW19237   1.145   2.921   9.098  0.0104 -0.4805 -0.2167
 2534SOL    HW119238   1.219   2.913   9.158  0.5485 -0.5819 -0.9059
 2534SOL    HW219239   1.081   2.951   9.163  0.8976 -0.5358  0.6825
 2535SOL     OW19240   2.232   2.564   5.989 -0.4268 -0.5306 -0.1221
 2535SOL    HW119241   2.313   2.556   6.039 -1.8202 -0.1307  2.2082
 2535SOL    HW219242   2.192   2.641   6.029 -0.8171  0.8249 -3.0985
 2536SOL     OW19243   1.035   4.077   3.685 -0.6414 -0.5190  0.3360
 2536SOL    HW119244   0.976   4.124   3.743  0.0652 -0.2809  0.8549
 2536SOL    HW219245   1.101   4.030   3.736 -1.6395 -0.9175  1.2490
 2537SOL     OW19246   2.794   1.687   0.134  0.4234 -0.4722 -0.1586
 2537SOL    HW119247   2.829   1.618   0.190 -1.5764 -2.0594 -0.8350
 2537SOL    HW219248   2.712   1.699   0.182  0.0399 -1.7367 -0.5005
 2538SOL     OW19249   3.466   1.694  12.798 -0.3035  0.1417 -0.0994
 2538SOL    HW119250   3.372   1.690  12.779 -0.8345 -1.3236  2.8954
 2538SOL    HW219251   3.475   1.616  12.852 -2.5626 -0.0667 -0.0079
 2539SOL     OW19252   3.570   2.144   4.431  0.2022 -0.7682 -0.4985
 2539SOL    HW119253   3.607   2.127   4.344  2.2366 -0.9330  0.3853
 2539SOL    HW219254   3.509   2.070   4.436 -0.9107  0.0381 -2.1451
 2540SOL     OW19255   0.087   2.414   5.738 -0.3352 -0.1989  0.7680
 2540SOL    HW119256   0.093   2.421   5.643 -0.8794  2.9927  0.9574
 2540SOL    HW219257   0.007   2.461   5.762 -0.7953 -1.0705  0.9278
 2541SOL     OW19258   2.106   2.856   6.460 -0.3916 -0.2158 -0.3937
 2541SOL    HW119259   2.019   2.846   6.421 -0.8437  2.1379  0.0130
 2541SOL    HW219260   2.116   2.763   6.480 -0.1901 -0.2790 -0.7738
 2542SOL     OW19261   1.607   0.592   6.951  0.4861  0.3863  0.5771
 2542SOL    HW119262   1.603   0.683   6.978 -0.2319  0.0460  1.6522
 2542SOL    HW219263   1.620   0.546   7.035  1.9180 -0.4166 -0.0760
 2543SOL     OW19264   1.877   1.960   3.281 -0.2233  0.2384 -0.4171
 2543SOL    HW119265   1.896   1.949   3.374 -1.9413 -1.0779 -0.2000
 2543SOL    HW219266   1.788   1.926   3.268  0.4847 -2.2286  1.0570
 2544SOL     OW19267   4.087   3.907   8.958 -0.1126 -0.1366  0.6572
 2544SOL    HW119268   4.164   3.875   8.911  0.3557  3.1565 -0.7830
 2544SOL    HW219269   4.117   3.991   8.992 -1.3917  1.6100 -2.5534
 2545SOL     OW19270   1.303   1.789   8.100 -0.0975 -0.3515  0.0297
 2545SOL    HW119271   1.241   1.740   8.047  0.2096  0.4946 -1.1267
 2545SOL    HW219272   1.374   1.804   8.038 -0.7175  1.4032 -0.2774
 2546SOL     OW19273   3.975   3.459   2.590  0.5646 -0.0801  0.0452
 2546SOL    HW119274   3.993   3.371   2.556  0.9897 -0.2750  0.7688
 2546SOL    HW219275   3.989   3.450   2.684 -1.9248 -1.0437  0.3297
 2547SOL     OW19276   0.995   2.624   7.292 -0.4589  0.3427 -0.3704
 2547SOL    HW119277   0.992   2.718   7.273 -0.5385  0.3567 -0.2864
 2547SOL    HW219278   1.043   2.621   7.374  0.0444  0.2679 -0.6670
 2548SOL     OW19279   3.330   0.607  10.880  0.0335  0.0435  0.3795
 2548SOL    HW119280   3.292   0.528  10.841  3.1502  0.9448 -4.5178
 2548SOL    HW219281   3.260   0.624  10.943 -1.7286  0.6342 -1.7444
 2549SOL     OW19282   0.511   3.049  10.766 -0.6644 -0.0312  0.0028
 2549SOL    HW119283   0.478   3.118  10.708 -1.9207  0.4881  1.3286
 2549SOL    HW219284   0.444   2.981  10.760 -1.2088  0.2878  2.5860
 2550SOL     OW19285   3.721   0.852   7.366  0.1493  0.2176  0.0755
 2550SOL    HW119286   3.699   0.759   7.369  2.6033 -0.3880 -0.5046
 2550SOL    HW219287   3.808   0.837   7.328  0.1167  1.1738 -0.3876
 2551SOL     OW19288   4.566   4.685  15.916 -0.2726  0.2918  0.1861
 2551SOL    HW119289   4.566   4.686  15.821 -0.1319 -1.8086  0.1599
 2551SOL    HW219290   4.511   4.608  15.931 -0.6618  0.4571 -0.4280
 2552SOL     OW19291   3.795   3.421   8.147  0.3060  0.5017 -0.5985
 2552SOL    HW119292   3.888   3.420   8.124  0.3818 -0.4607 -0.2658
 2552SOL    HW219293   3.789   3.516   8.145 -0.9591  0.4555  0.3374
 2553SOL     OW19294   1.374   1.797   6.101 -0.3617  0.5740 -0.5176
 2553SOL    HW119295   1.415   1.882   6.087 -0.1019  0.2246 -1.8896
 2553SOL    HW219296   1.377   1.806   6.196 -1.8878  0.1237 -0.4322
 2554SOL     OW19297   4.084   0.462   4.675  0.1838  0.3268 -0.7219
 2554SOL    HW119298   4.057   0.372   4.656 -3.1080  1.2268 -0.2528
 2554SOL    HW219299   4.136   0.473   4.595  0.9705  0.8493 -0.1334
 2555SOL     OW19300   1.324   3.581   3.370 -0.3955 -0.3531  0.0743
 2555SOL    HW119301   1.339   3.503   3.316  1.5975  0.4726 -0.5541
 2555SOL    HW219302   1.230   3.588   3.352 -0.7317  0.1315  1.9617
 2556SOL     OW19303   0.626   4.047   3.345  0.3525  0.1382 -0.1382
 2556SOL    HW119304   0.663   4.074   3.261 -1.1611 -0.8802 -1.1399
 2556SOL    HW219305   0.656   3.956   3.340  0.4137  0.0723  1.2400
 2557SOL     OW19306   0.516   3.569  13.091 -0.0118  0.5642 -0.2978
 2557SOL    HW119307   0.598   3.579  13.140  0.5263 -0.9114 -0.8843
 2557SOL    HW219308   0.516   3.474  13.098 -1.0523  0.6053  0.1453
 2558SOL     OW19309   2.529   2.272   0.156 -0.3328 -0.3258  0.7201
 2558SOL    HW119310   2.484   2.222   0.224  1.0630 -0.6149  1.4326
 2558SOL    HW219311   2.455   2.268   0.096  0.3808  0.0493 -0.1940
 2559SOL     OW19312   0.750   0.001   5.861 -0.7087 -0.6420 -0.1389
 2559SOL    HW119313   0.690   0.047   5.802 -1.7293 -0.3616  1.1144
 2559SOL    HW219314   0.691   4.722   5.935 -0.0560 -1.9063  0.1029
 2560SOL     OW19315   4.146   0.203  12.786  0.3680  1.0397  0.4616
 2560SOL    HW119316   4.218   0.261  12.763  0.2303  0.7721 -0.6468
 2560SOL    HW219317   4.204   0.127  12.790 -3.4298 -1.8682  1.1597
 2561SOL     OW19318   0.192   3.607   7.285  0.1765 -0.1309 -0.2747
 2561SOL    HW119319   0.141   3.675   7.329 -0.0049 -1.1579  1.0883
 2561SOL    HW219320   0.197   3.539   7.352  0.8107  0.9792  0.7936
 2562SOL     OW19321   1.706   1.682   4.880  0.1299 -0.3570  0.3720
 2562SOL    HW119322   1.784   1.731   4.852 -0.1747 -0.5429 -0.8009
 2562SOL    HW219323   1.727   1.593   4.852  0.3174 -0.7570  1.7570
 2563SOL     OW19324   4.687   1.840  14.178  0.7742 -0.2197 -0.3946
 2563SOL    HW119325   0.022   1.899  14.196  0.4601 -0.3757  1.4450
 2563SOL    HW219326   4.729   1.812  14.097 -1.9450  2.3973 -2.7164
 2564SOL     OW19327   1.371   4.194   4.307  0.2121  0.1545 -0.6163
 2564SOL    HW119328   1.451   4.150   4.335  1.2267  1.7443 -1.0103
 2564SOL    HW219329   1.400   4.280   4.336  1.6324  0.1043 -1.8601
 2565SOL     OW19330   2.555   1.575   3.046 -0.0355 -0.7854  0.1726
 2565SOL    HW119331   2.559   1.614   3.133 -1.2592 -0.2571 -0.0099
 2565SOL    HW219332   2.524   1.487   3.067  1.0704 -1.0815  0.5794
 2566SOL     OW19333   2.892   4.588   4.907 -0.1112  0.4345  0.2813
 2566SOL    HW119334   2.965   4.590   4.969  0.3349  0.6245 -0.2516
 2566SOL    HW219335   2.886   4.492   4.904 -1.2690  0.5188 -0.2171
 2567SOL     OW19336   0.262   0.170  12.565 -0.0059  0.1291 -0.1032
 2567SOL    HW119337   0.316   0.244  12.535  2.3712 -0.9941  1.4297
 2567SOL    HW219338   0.330   0.106  12.587 -1.1716 -1.1798 -0.3311
 2568SOL     OW19339   2.070   0.279   9.994 -0.4714  0.0957 -0.1988
 2568SOL    HW119340   1.979   0.270   9.966 -1.2694 -2.0981  3.1085
 2568SOL    HW219341   2.059   0.287  10.088  0.3788  1.0267 -0.1865
 2569SOL     OW19342   3.096   1.341  11.566  0.2409 -0.4390  0.0080
 2569SOL    HW119343   3.028   1.406  11.548 -0.7145 -0.8394  2.1911
 2569SOL    HW219344   3.071   1.279  11.497 -0.1453 -1.4209  1.0317
 2570SOL     OW19345   2.700   0.346   9.143  0.0284  0.5809 -0.2742
 2570SOL    HW119346   2.627   0.333   9.083 -0.0787 -1.2215  0.2405
 2570SOL    HW219347   2.776   0.292   9.123 -0.3591  0.1775 -0.6596
 2571SOL     OW19348   3.101   3.529   7.909 -0.7288  0.1957  0.2117
 2571SOL    HW119349   3.129   3.499   7.995  0.8600  0.0712 -0.3390
 2571SOL    HW219350   3.150   3.611   7.895 -1.5951  0.6368 -0.2180
 2572SOL     OW19351   0.528   2.799   1.392 -0.4325 -0.7618 -0.2520
 2572SOL    HW119352   0.491   2.878   1.432 -0.0793 -0.2771 -0.8824
 2572SOL    HW219353   0.499   2.814   1.301 -0.0530 -4.0831 -0.9009
 2573SOL     OW19354   2.157   2.780   6.873 -0.2359 -0.0585  0.4316
 2573SOL    HW119355   2.196   2.727   6.943 -2.1992  2.5442  3.4652
 2573SOL    HW219356   2.086   2.717   6.858 -0.0011  0.2326 -1.9206
 2574SOL     OW19357   1.587   1.600   5.367 -0.1508 -0.2376 -0.3840
 2574SOL    HW119358   1.624   1.625   5.283  0.3097  2.1640  0.5172
 2574SOL    HW219359   1.660   1.639   5.415 -0.2538  1.0873 -1.3152
 2575SOL     OW19360   0.765   4.389  16.711  0.7041 -0.4995  0.4802
 2575SOL    HW119361   0.844   4.444  16.703  0.0798  0.3339  0.0026
 2575SOL    HW219362   0.720   4.450  16.769 -1.5066 -0.6733 -1.0478
 2576SOL     OW19363   0.492   2.111   5.797 -0.1041 -0.4117 -0.1914
 2576SOL    HW119364   0.448   2.177   5.744  1.0442  1.9328  1.7755
 2576SOL    HW219365   0.416   2.055   5.811 -1.5242  1.4180 -0.5010
 2577SOL     OW19366   3.851   2.670   4.269 -0.0191  0.1477  0.3398
 2577SOL    HW119367   3.763   2.635   4.279 -0.3053  0.7391 -0.0822
 2577SOL    HW219368   3.834   2.761   4.243  0.1042 -0.1801 -0.9002
 2578SOL     OW19369   0.715   3.137  11.983 -0.3580 -0.3395  0.3667
 2578SOL    HW119370   0.691   3.182  11.902 -0.2844 -1.9933 -0.5780
 2578SOL    HW219371   0.802   3.176  11.991 -0.3287 -0.3906  0.2870
 2579SOL     OW19372   1.726   0.940   4.830 -0.3844 -0.3309  0.3467
 2579SOL    HW119373   1.674   0.903   4.902 -2.3858 -2.0283 -1.9323
 2579SOL    HW219374   1.708   1.034   4.835  0.6223 -0.0912 -0.5541
 2580SOL     OW19375   0.363   1.884   9.273 -0.0906 -0.1812 -0.2646
 2580SOL    HW119376   0.304   1.944   9.225 -1.4184 -0.0024  1.5989
 2580SOL    HW219377   0.373   1.931   9.356 -2.3265 -0.8107  0.3686
 2581SOL     OW19378   1.420   0.511   1.646 -0.0287  0.2987  0.0114
 2581SOL    HW119379   1.367   0.436   1.674  1.7565 -1.0513 -0.2522
 2581SOL    HW219380   1.376   0.586   1.687 -1.6440  0.9109 -2.8489
 2582SOL     OW19381   4.046   1.967   1.694  0.4629 -0.0363  0.2647
 2582SOL    HW119382   4.121   1.929   1.648  0.8951 -0.9216  1.7055
 2582SOL    HW219383   4.061   1.931   1.781  0.4858  1.1096  0.7410
 2583SOL     OW19384   2.971   1.360   6.358 -0.0987  0.3449 -0.3745
 2583SOL    HW119385   2.942   1.416   6.286  1.4814  3.4552  1.4437
 2583SOL    HW219386   2.943   1.410   6.434  0.0854  0.8815 -0.6614
 2584SOL     OW19387   4.600   1.913   8.264  0.5931 -0.2951 -0.0498
 2584SOL    HW119388   4.691   1.933   8.239  0.1453  1.3463 -0.3786
 2584SOL    HW219389   4.603   1.818   8.260 -2.1796 -0.3025 -1.9509
 2585SOL     OW19390   1.749   4.167  15.146  0.7435 -0.3189  0.3064
 2585SOL    HW119391   1.780   4.257  15.136 -0.4990 -0.0303 -1.0256
 2585SOL    HW219392   1.809   4.139  15.214 -1.4201 -1.7811  1.6043
 2586SOL     OW19393   2.592   1.766   9.023 -0.2087 -0.5024 -0.5025
 2586SOL    HW119394   2.560   1.680   9.050 -0.7964 -0.0906  0.0997
 2586SOL    HW219395   2.650   1.741   8.950  2.5005  2.2120  0.7243
 2587SOL     OW19396   3.579   1.733  15.156  0.1534 -0.7151 -0.7642
 2587SOL    HW119397   3.487   1.710  15.144  0.2165 -2.7128  2.4731
 2587SOL    HW219398   3.591   1.798  15.087  1.5214 -1.0951 -0.8982
 2588SOL     OW19399   2.036   1.316   1.947 -0.1939 -0.1942  0.0744
 2588SOL    HW119400   2.039   1.247   1.881 -0.7244  3.2682 -3.5405
 2588SOL    HW219401   2.047   1.391   1.889  1.2361  0.4536  1.1827
 2589SOL     OW19402   1.543   3.667   4.450 -0.1062  0.3934 -0.1069
 2589SOL    HW119403   1.583   3.584   4.475 -0.8385 -0.5177 -2.0041
 2589SOL    HW219404   1.550   3.684   4.356  1.3344 -0.4800 -0.1616
 2590SOL     OW19405   3.965   0.126   1.531 -0.1548  0.1392  0.4903
 2590SOL    HW119406   3.896   0.148   1.468  0.9626  0.4710 -0.6246
 2590SOL    HW219407   4.039   0.101   1.476 -0.5129  0.3407 -0.0934
 2591SOL     OW19408   0.213   0.242   9.880  0.2982 -0.5847  0.2934
 2591SOL    HW119409   0.263   0.232   9.799 -0.8586  0.9537 -0.5885
 2591SOL    HW219410   0.255   0.319   9.918 -0.2335 -0.4417  0.5765
 2592SOL     OW19411   2.274   1.789  16.788 -0.1761 -0.2397  0.2597
 2592SOL    HW119412   2.355   1.753  16.822 -0.9901 -3.1065 -0.8689
 2592SOL    HW219413   2.283   1.795  16.693  1.7408  2.9486  0.6366
 2593SOL     OW19414   2.167   0.500   1.394 -0.1754  0.1692  0.2007
 2593SOL    HW119415   2.259   0.474   1.395  0.1274  1.2759  0.3942
 2593SOL    HW219416   2.135   0.427   1.340 -0.8294 -0.8987  2.0362
 2594SOL     OW19417   2.519   0.971   4.418 -1.0840 -0.3648 -0.0861
 2594SOL    HW119418   2.455   0.917   4.464  1.0418 -4.0227 -1.3943
 2594SOL    HW219419   2.470   1.050   4.395 -1.3619 -0.5393 -0.0933
 2595SOL     OW19420   1.530   4.529   7.436 -0.4545  0.6920  0.6155
 2595SOL    HW119421   1.531   4.568   7.524 -0.9727  0.1999  0.8404
 2595SOL    HW219422   1.522   4.606   7.381 -0.0431  1.1989  1.2760
 2596SOL     OW19423   0.783   2.374  10.995 -0.1613  0.6682 -0.8127
 2596SOL    HW119424   0.786   2.321  10.915 -1.5499 -0.4042 -0.1422
 2596SOL    HW219425   0.763   2.307  11.060  2.0347 -1.2270 -2.0727
 2597SOL     OW19426   1.488   1.302   8.543 -0.2060 -0.2141 -0.4692
 2597SOL    HW119427   1.477   1.360   8.619  0.4317 -1.5595  0.6523
 2597SOL    HW219428   1.581   1.317   8.527 -0.2079  0.3928  0.0676
 2598SOL     OW19429   1.502   3.729   6.705 -0.6444 -0.4794 -0.2741
 2598SOL    HW119430   1.408   3.719   6.689 -0.5688 -1.8628  0.1644
 2598SOL    HW219431   1.539   3.720   6.617  1.0749 -0.7235  0.4698
 2599SOL     OW19432   0.997   1.361  10.600 -0.5695  0.3986 -0.9148
 2599SOL    HW119433   1.084   1.377  10.563  0.0790  0.2184  0.5364
 2599SOL    HW219434   1.025   1.324  10.684 -1.7430  0.2175 -0.6038
 2600SOL     OW19435   3.254   0.641   2.256  0.5431  0.1094 -0.0442
 2600SOL    HW119436   3.303   0.652   2.338 -2.6420  0.6429  1.8149
 2600SOL    HW219437   3.166   0.621   2.287  0.7557 -0.4214  0.2186
 2601SOL     OW19438   0.183   4.020   1.618 -0.4205 -0.2862 -0.2853
 2601SOL    HW119439   0.268   4.035   1.659  1.0388 -2.3623 -2.5936
 2601SOL    HW219440   0.199   4.027   1.524  0.8448  0.3736 -0.0292
 2602SOL     OW19441   1.999   0.017   9.759 -0.4352 -0.3755  0.0766
 2602SOL    HW119442   2.012   0.007   9.665 -1.0661 -1.9559  0.1716
 2602SOL    HW219443   2.075   0.070   9.786 -0.2984 -1.3824  1.6695
 2603SOL     OW19444   2.401   4.275   3.858  0.3989 -0.1651  0.0064
 2603SOL    HW119445   2.407   4.180   3.859  0.2088 -0.1809 -0.4030
 2603SOL    HW219446   2.339   4.298   3.927 -0.6165 -0.6083 -0.7695
 2604SOL     OW19447   4.583   4.733   8.559 -0.0745 -0.1710 -0.3433
 2604SOL    HW119448   4.548   4.647   8.536 -0.5457  0.0249 -0.3563
 2604SOL    HW219449   4.600   0.027   8.470 -0.7062 -1.2029 -0.8223
 2605SOL     OW19450   2.283   3.939   8.424 -0.4578  0.2949 -0.1387
 2605SOL    HW119451   2.231   4.018   8.410  1.2100  1.5245  0.6186
 2605SOL    HW219452   2.254   3.928   8.515 -2.0060  0.2855 -0.6320
 2606SOL     OW19453   0.493   4.181   8.408 -0.3681 -0.3864  0.0380
 2606SOL    HW119454   0.504   4.228   8.491 -1.0816 -1.6003  0.8264
 2606SOL    HW219455   0.584   4.176   8.380 -0.7352 -0.4471 -1.1441
 2607SOL     OW19456   0.978   4.632   5.832 -0.0047 -0.2123  1.3513
 2607SOL    HW119457   0.891   4.672   5.822 -0.8022 -1.9265  1.4866
 2607SOL    HW219458   0.993   4.664   5.921 -2.0062  2.1661  0.8332
 2608SOL     OW19459   4.489   4.443   1.450 -0.0169 -0.1586  0.0360
 2608SOL    HW119460   4.442   4.360   1.451  0.5729 -0.5187 -1.5166
 2608SOL    HW219461   4.563   4.418   1.506 -1.0161 -0.2381  1.2945
 2609SOL     OW19462   2.519   4.224   5.073 -0.2648  0.2554  0.0353
 2609SOL    HW119463   2.556   4.209   4.986 -2.4543  0.5245 -0.9532
 2609SOL    HW219464   2.493   4.316   5.068 -0.0715  0.4393  2.4447
 2610SOL     OW19465   2.789   2.678   5.727  0.2527 -0.0605  0.0748
 2610SOL    HW119466   2.749   2.594   5.750 -1.0601  0.9310  1.4032
 2610SOL    HW219467   2.709   2.727   5.711  1.1544  2.0205  1.9047
 2611SOL     OW19468   2.886   2.392   6.430  0.4739 -0.0925 -0.3641
 2611SOL    HW119469   2.889   2.454   6.503  3.1929  0.7256 -1.1581
 2611SOL    HW219470   2.929   2.430   6.353 -0.0024  0.3355 -0.4175
 2612SOL     OW19471   3.487   3.778   1.183  0.2445  0.0225 -0.1813
 2612SOL    HW119472   3.559   3.820   1.229 -0.2803  1.8171 -0.9809
 2612SOL    HW219473   3.533   3.739   1.109 -0.2678  1.5912 -1.3404
 2613SOL     OW19474   0.607   3.041   3.947  0.1793 -0.2991  0.0946
 2613SOL    HW119475   0.644   3.072   4.030  0.9654 -0.4048 -0.2131
 2613SOL    HW219476   0.582   2.957   3.985  0.8742 -0.7395 -0.4203
 2614SOL     OW19477   1.451   1.450   0.937  0.5607 -0.2675  0.8042
 2614SOL    HW119478   1.389   1.522   0.929  0.4332 -0.6183 -1.5918
 2614SOL    HW219479   1.537   1.488   0.924  0.4308 -1.1947 -2.8238
 2615SOL     OW19480   3.785   3.619  10.597 -0.4616 -0.2361  0.5148
 2615SOL    HW119481   3.828   3.704  10.593  3.1945 -2.0816  0.6171
 2615SOL    HW219482   3.707   3.642  10.647 -0.5264 -0.1651  0.3793
 2616SOL     OW19483   1.514   0.580   3.446  0.2375 -0.1335  0.4777
 2616SOL    HW119484   1.550   0.585   3.534  1.0661 -4.6438  0.3804
 2616SOL    HW219485   1.421   0.588   3.469 -0.0602 -2.4949  0.0508
 2617SOL     OW19486   2.738   0.232   1.685  0.3192  0.3496 -0.3325
 2617SOL    HW119487   2.671   0.301   1.678 -0.0842 -0.0445 -0.3191
 2617SOL    HW219488   2.717   0.164   1.621  0.5065  1.7132 -1.8803
 2618SOL     OW19489   1.726   1.497  13.441 -0.2357  0.7193 -0.0987
 2618SOL    HW119490   1.705   1.444  13.364  1.0884 -0.4041  0.3292
 2618SOL    HW219491   1.774   1.437  13.497 -0.8625  0.1864 -0.1412
 2619SOL     OW19492   2.344   1.752   1.960  0.0595  0.3607 -0.5720
 2619SOL    HW119493   2.259   1.739   1.918  1.1294 -1.0687 -2.3115
 2619SOL    HW219494   2.313   1.776   2.047  1.0130 -1.5749  0.2930
 2620SOL     OW19495   1.596   2.937   7.891  0.4019 -0.0826  0.5134
 2620SOL    HW119496   1.630   3.006   7.948 -1.1091 -0.1102  1.4589
 2620SOL    HW219497   1.539   2.890   7.951  0.1413 -3.0023 -2.0264
 2621SOL     OW19498   1.634   0.139   6.367  0.0407 -0.1218 -0.4614
 2621SOL    HW119499   1.580   0.140   6.287  0.3613 -1.3481 -0.6896
 2621SOL    HW219500   1.724   0.130   6.336  0.1282 -0.6871 -0.0360
 2622SOL     OW19501   3.339   2.559   7.848  0.3633  0.3275 -0.3819
 2622SOL    HW119502   3.382   2.643   7.864 -1.3949  1.1982 -0.1997
 2622SOL    HW219503   3.271   2.593   7.789 -1.6570 -0.4835  1.4594
 2623SOL     OW19504   3.150   4.599   8.830  0.0896 -0.2337  0.4375
 2623SOL    HW119505   3.214   4.537   8.795  0.4349  0.8940 -0.9202
 2623SOL    HW219506   3.104   4.626   8.750 -0.6104 -1.4184  0.4487
 2624SOL     OW19507   4.593   3.957  16.720 -0.2050 -0.1809  0.0729
 2624SOL    HW119508   4.677   3.935  16.758 -0.4205 -0.0341  0.6339
 2624SOL    HW219509   4.615   3.950  16.627  2.4301 -0.7622  0.7467
 2625SOL     OW19510   0.394   3.654   6.055  0.1428  0.5023 -0.1070
 2625SOL    HW119511   0.464   3.652   6.120  0.3148 -0.8537 -0.3409
 2625SOL    HW219512   0.437   3.603   5.986  0.0599 -0.5142  0.5974
 2626SOL     OW19513   4.145   4.512   5.966 -0.1412  0.3919  0.0952
 2626SOL    HW119514   4.133   4.576   6.036 -1.9739 -0.7863  0.8609
 2626SOL    HW219515   4.120   4.560   5.887  1.9031 -1.6759 -1.8029
 2627SOL     OW19516   1.431   0.246   7.576 -0.6362  0.3984  0.2368
 2627SOL    HW119517   1.509   0.232   7.629 -1.7895  0.2573  1.9003
 2627SOL    HW219518   1.482   0.262   7.497 -0.6727  0.3747  0.2082
 2628SOL     OW19519   0.161   4.138   8.992 -0.1486 -0.1420  0.2785
 2628SOL    HW119520   0.068   4.160   8.992  0.0105  0.5214  1.4706
 2628SOL    HW219521   0.163   4.056   9.042 -2.0834 -0.7002 -0.5415
 2629SOL     OW19522   1.952   0.042   7.073 -0.4605  0.6171  0.0701
 2629SOL    HW119523   1.995   4.702   7.036 -0.8658 -0.8021  2.5708
 2629SOL    HW219524   1.920   0.018   7.160  4.0409 -0.2527  1.4790
 2630SOL     OW19525   1.820   4.391   9.974 -0.6805 -0.8145  0.4219
 2630SOL    HW119526   1.762   4.322   9.943 -0.6707 -1.3597  1.6507
 2630SOL    HW219527   1.807   4.392  10.068 -0.1039  0.5865  0.4928
 2631SOL     OW19528   0.561   3.403  11.969 -0.0924 -0.2342  0.0601
 2631SOL    HW119529   0.578   3.335  11.904  0.3333  2.2096 -2.3758
 2631SOL    HW219530   0.648   3.416  12.006  0.1012 -2.1449  0.3081
 2632SOL     OW19531   4.737   0.261   5.612  0.1526 -0.3384  0.0955
 2632SOL    HW119532   0.006   0.350   5.579  1.3944  0.0227  1.3201
 2632SOL    HW219533   0.090   0.230   5.614  0.4091  0.4632  0.8342
 2633SOL     OW19534   4.253   3.569   0.572  0.0723 -0.1872 -0.1912
 2633SOL    HW119535   4.270   3.482   0.537  0.3558 -0.3191  0.2749
 2633SOL    HW219536   4.160   3.564   0.591  0.2228  1.7934  1.0592
 2634SOL     OW19537   0.209   2.003   6.160 -0.3884  0.5687 -0.4196
 2634SOL    HW119538   0.234   1.915   6.131 -0.0600  0.9690 -1.3496
 2634SOL    HW219539   0.118   2.005   6.133 -0.3860 -2.2293 -0.7088
 2635SOL     OW19540   1.820   4.674  10.231  0.3213 -0.0375  0.2909
 2635SOL    HW119541   1.873   0.010  10.260 -1.1509  0.1513  2.6089
 2635SOL    HW219542   1.883   4.611  10.197  2.5038  0.8169  2.7992
 2636SOL     OW19543   2.155   1.703   2.269 -0.5956 -0.2421 -0.2158
 2636SOL    HW119544   2.111   1.732   2.349 -0.0476  0.9427 -0.3412
 2636SOL    HW219545   2.117   1.619   2.243 -0.8217 -0.2385  0.0975
 2637SOL     OW19546   1.130   2.574   5.424  0.4396  0.1563 -0.0693
 2637SOL    HW119547   1.146   2.644   5.487  0.5077 -1.3020  1.5388
 2637SOL    HW219548   1.127   2.492   5.474  0.4864 -0.5243 -1.1826
 2638SOL     OW19549   3.549   0.283   1.946  0.2750 -0.0671 -0.1254
 2638SOL    HW119550   3.548   0.265   1.852  1.0791  2.9251 -0.7199
 2638SOL    HW219551   3.458   0.310   1.953  1.4225  3.4954  0.7816
 2639SOL     OW19552   3.349   3.000  17.270 -0.4788 -0.0719 -0.0386
 2639SOL    HW119553   3.377   3.057  17.342  1.4830  0.3821 -1.1809
 2639SOL    HW219554   3.421   2.945  17.241 -1.4492 -1.4871  0.2103
 2640SOL     OW19555   0.568   2.133   6.438 -0.4416 -0.2957 -0.6865
 2640SOL    HW119556   0.521   2.186   6.373  1.4629  1.7864 -0.3920
 2640SOL    HW219557   0.567   2.045   6.401  0.7313 -0.5407 -0.1413
 2641SOL     OW19558   4.597   1.135   6.298 -0.1739 -0.3576 -0.2854
 2641SOL    HW119559   4.547   1.206   6.339 -1.2580 -1.5464  0.4315
 2641SOL    HW219560   4.533   1.112   6.231 -1.7901 -1.1990  1.5502
 2642SOL     OW19561   0.559   3.950   1.661 -0.0622 -0.1123  0.8189
 2642SOL    HW119562   0.553   4.021   1.596  0.4846  0.3327  1.2591
 2642SOL    HW219563   0.495   3.885   1.631 -1.5610  1.3113  0.8862
 2643SOL     OW19564   4.105   4.166   9.057  0.3042 -0.0659  0.6254
 2643SOL    HW119565   4.031   4.152   9.116  0.0910  1.5720  0.7443
 2643SOL    HW219566   4.115   4.261   9.060 -0.8202  0.2207 -4.5649
 2644SOL     OW19567   0.062   2.892   3.411  0.0528 -0.1025 -0.4709
 2644SOL    HW119568   0.094   2.890   3.501  1.5701 -1.2904 -1.0259
 2644SOL    HW219569   0.146   2.872   3.369 -0.1091  0.5381 -1.0917
 2645SOL     OW19570   2.835   2.240   6.833 -0.3043 -0.1921 -0.7133
 2645SOL    HW119571   2.830   2.160   6.780 -2.6256  0.3384 -1.3200
 2645SOL    HW219572   2.833   2.196   6.917 -0.7333  3.4781  1.2063
 2646SOL     OW19573   3.869   0.445  14.884  0.3081  0.0377 -0.3866
 2646SOL    HW119574   3.830   0.382  14.822  0.5569  0.8352 -1.3505
 2646SOL    HW219575   3.962   0.423  14.889 -0.2240 -2.4230 -0.8807
 2647SOL     OW19576   0.116   1.569   3.740 -0.5959 -0.0206  0.3435
 2647SOL    HW119577   0.148   1.479   3.734  1.0700  0.4665  1.8832
 2647SOL    HW219578   0.160   1.599   3.661  2.0009 -1.4540  1.2436
 2648SOL     OW19579   1.383   3.679   3.054  0.0749  0.0516  0.5006
 2648SOL    HW119580   1.441   3.606   3.032 -0.4842  0.3586 -2.0366
 2648SOL    HW219581   1.305   3.643   3.010  0.3133 -1.7059  1.5167
 2649SOL     OW19582   1.776   3.807  16.033 -0.0994  0.1970  0.2838
 2649SOL    HW119583   1.791   3.886  16.085  0.7725  0.8200 -0.9425
 2649SOL    HW219584   1.734   3.754  16.102 -0.5993  1.4274  0.9229
 2650SOL     OW19585   3.433   0.226   3.397 -0.3775 -0.0502 -0.0134
 2650SOL    HW119586   3.357   0.201   3.450 -0.7262  1.4568  0.1788
 2650SOL    HW219587   3.509   0.212   3.453  0.5040 -0.4164 -1.2997
 2651SOL     OW19588   3.295   1.946  14.837  0.3316  0.2332 -0.8441
 2651SOL    HW119589   3.300   1.885  14.911  1.9310  0.4258 -0.7963
 2651SOL    HW219590   3.380   1.990  14.836  1.1967 -1.4565 -1.1703
 2652SOL     OW19591   1.602   2.537   0.927  0.0743  0.3000  0.1670
 2652SOL    HW119592   1.592   2.474   0.856  1.5603  1.3289 -0.9597
 2652SOL    HW219593   1.697   2.553   0.924 -0.0084  0.5752 -1.0720
 2653SOL     OW19594   2.116   2.620  17.292 -0.3857  0.4526  0.1664
 2653SOL    HW119595   2.066   2.698  17.319 -1.8605 -0.6633  0.6875
 2653SOL    HW219596   2.082   2.597  17.206 -0.2280  0.7146  0.0330
 2654SOL     OW19597   3.775   1.562   9.735  0.0924 -0.6737  0.9734
 2654SOL    HW119598   3.780   1.473   9.770 -0.3016 -0.6797  1.0176
 2654SOL    HW219599   3.688   1.551   9.697 -0.0909 -1.8858  1.7407
 2655SOL     OW19600   3.327   0.455  11.661 -0.4149 -0.0609  0.0363
 2655SOL    HW119601   3.377   0.377  11.682 -0.4482  0.1457  0.8785
 2655SOL    HW219602   3.262   0.451  11.731 -1.9871 -0.8026 -1.4616
 2656SOL     OW19603   2.010   3.476  15.730  0.7027 -0.8815 -0.3715
 2656SOL    HW119604   1.992   3.450  15.640 -0.0350  0.2895 -0.5490
 2656SOL    HW219605   2.076   3.407  15.743  0.2033 -2.0139 -3.8750
 2657SOL     OW19606   4.263   4.104   8.228  0.3286 -0.4048 -0.0975
 2657SOL    HW119607   4.358   4.111   8.217  0.4909 -1.5492  0.4989
 2657SOL    HW219608   4.235   4.194   8.209 -1.1059 -0.8117  0.0555
 2658SOL     OW19609   3.462   1.844   5.006  0.4201 -0.1821 -0.3306
 2658SOL    HW119610   3.517   1.864   5.082  1.5746 -0.9506 -0.9694
 2658SOL    HW219611   3.449   1.932   4.969  2.1644 -0.0003 -0.5092
 2659SOL     OW19612   1.120   3.145  14.437  1.0552  0.4371 -0.0336
 2659SOL    HW119613   1.199   3.185  14.400  0.8214 -0.4402 -1.4546
 2659SOL    HW219614   1.149   3.062  14.475  0.9617 -0.4502 -1.9255
 2660SOL     OW19615   1.489   2.436   4.317 -0.3878  0.0318  0.0883
 2660SOL    HW119616   1.412   2.425   4.261 -0.1415  0.6686 -0.3722
 2660SOL    HW219617   1.559   2.419   4.255 -1.3094 -0.2969 -0.8655
 2661SOL     OW19618   2.719   0.353   2.730  0.0706 -0.6055 -0.1123
 2661SOL    HW119619   2.731   0.268   2.688  1.6324 -1.3843  1.8885
 2661SOL    HW219620   2.663   0.408   2.675 -0.3858 -2.7223 -1.7678
 2662SOL     OW19621   4.647   1.398   2.575  0.2345  1.1795  0.2820
 2662SOL    HW119622   4.567   1.435   2.611  0.4697  3.4657 -1.5649
 2662SOL    HW219623   4.677   1.476   2.528 -2.6729  0.3008 -3.0309
 2663SOL     OW19624   0.020   2.979   1.960  0.1845 -0.4512 -0.4169
 2663SOL    HW119625   0.050   2.902   2.008  0.8496  0.4648  0.6207
 2663SOL    HW219626   0.087   2.982   1.892 -1.8135 -2.0278 -2.4949
 2664SOL     OW19627   3.812   1.429   6.035 -1.0429  0.4471  0.1779
 2664SOL    HW119628   3.839   1.501   6.092 -0.4412 -1.7162  2.6255
 2664SOL    HW219629   3.755   1.479   5.977 -1.2402 -1.3580 -1.1927
 2665SOL     OW19630   1.466   0.225  12.987  0.2410  0.3078 -0.1611
 2665SOL    HW119631   1.553   0.209  12.950 -0.8541  0.6331 -2.8389
 2665SOL    HW219632   1.464   0.319  13.004  0.6532  0.6402 -1.8899
 2666SOL     OW19633   1.591   4.548   1.979 -1.2166  0.4211  0.2318
 2666SOL    HW119634   1.578   4.538   2.073  0.1585  2.7279  0.6440
 2666SOL    HW219635   1.624   4.637   1.978  1.6797 -0.6729 -0.7461
 2667SOL     OW19636   0.706   1.176   7.913  0.4830  0.1187 -0.3141
 2667SOL    HW119637   0.697   1.103   7.973 -0.1982  2.3204  2.2685
 2667SOL    HW219638   0.616   1.209   7.921  1.1430  1.4588  1.4706
 2668SOL     OW19639   3.078   1.085  14.403  0.4378  0.5475 -0.4097
 2668SOL    HW119640   3.115   1.088  14.315 -0.8349  0.8088 -0.9323
 2668SOL    HW219641   3.148   1.050  14.458  1.8231  1.7208 -1.4515
 2669SOL     OW19642   1.211   2.415   3.400  0.0880 -0.4538 -0.3263
 2669SOL    HW119643   1.188   2.357   3.473  1.0677 -0.4831 -0.0495
 2669SOL    HW219644   1.219   2.500   3.443 -1.1090 -1.3640  1.6753
 2670SOL     OW19645   4.244   1.956   5.047 -0.4315 -0.0287 -0.6736
 2670SOL    HW119646   4.231   1.940   5.140  3.3285 -0.9074 -0.2940
 2670SOL    HW219647   4.276   1.870   5.018  3.5305  0.9692  0.8375
 2671SOL     OW19648   2.257   0.817  16.612  0.2254  0.4192  0.6190
 2671SOL    HW119649   2.352   0.828  16.609  0.3444 -0.9190 -0.7479
 2671SOL    HW219650   2.249   0.783  16.523  2.3243 -0.6917  0.8389
 2672SOL     OW19651   4.047   1.561   1.770 -0.0896 -0.5005  0.1267
 2672SOL    HW119652   4.058   1.488   1.831  1.8283  0.2039  0.6507
 2672SOL    HW219653   4.107   1.532   1.701  1.6854  0.7762  1.1283
 2673SOL     OW19654   3.733   0.570   7.383  0.4480  0.0568 -0.1547
 2673SOL    HW119655   3.744   0.538   7.473  1.8559  0.7298 -0.0770
 2673SOL    HW219656   3.650   0.529   7.360  0.7170 -0.4610 -0.2047
 2674SOL     OW19657   3.799   2.064   8.025  0.0039  0.2797  0.3663
 2674SOL    HW119658   3.815   2.147   7.981 -0.6444 -1.6389 -3.4687
 2674SOL    HW219659   3.856   2.010   7.969 -1.1185 -0.7978  0.2572
 2675SOL     OW19660   3.961   3.037   4.674 -0.0848 -0.1462  0.2188
 2675SOL    HW119661   4.003   3.107   4.724  0.6912  0.9507 -1.9265
 2675SOL    HW219662   3.937   2.974   4.742  0.5538  0.5326  1.0657
 2676SOL     OW19663   3.366   0.790  12.098 -0.1741 -0.3951 -0.5200
 2676SOL    HW119664   3.381   0.879  12.130 -1.1430  0.1306 -1.5128
 2676SOL    HW219665   3.295   0.801  12.033 -0.8160  0.2771  0.2977
 2677SOL     OW19666   1.221   2.001   7.257  0.0565 -0.0315  0.1294
 2677SOL    HW119667   1.243   2.012   7.349  0.3814 -0.6044  0.1212
 2677SOL    HW219668   1.273   2.072   7.220  0.6819  0.7060  2.4845
 2678SOL     OW19669   0.477   3.479   0.371 -0.0142  0.1058  0.1573
 2678SOL    HW119670   0.547   3.541   0.355 -0.4489  0.5896  0.1467
 2678SOL    HW219671   0.493   3.462   0.464  0.0733  1.4011  0.3674
 2679SOL     OW19672   0.419   0.653   1.212 -0.8097  0.3685  0.1471
 2679SOL    HW119673   0.353   0.719   1.192 -1.0386 -0.2749 -1.2079
 2679SOL    HW219674   0.370   0.608   1.281  0.0814  0.5065  0.8746
 2680SOL     OW19675   4.236   1.138   5.251 -0.4218  0.0850  0.0862
 2680SOL    HW119676   4.207   1.228   5.264  0.5562  0.5475 -0.8512
 2680SOL    HW219677   4.215   1.101   5.337 -1.8541  1.1249  0.1818
 2681SOL     OW19678   1.971   1.909   9.751  0.4561 -0.3423 -0.1422
 2681SOL    HW119679   2.049   1.891   9.804  0.6115  0.9699  0.0754
 2681SOL    HW219680   1.924   1.973   9.806 -2.7858 -0.2466 -3.0712
 2682SOL     OW19681   1.956   0.682   6.281  0.6155  0.1412 -0.1137
 2682SOL    HW119682   1.898   0.630   6.335  0.3320 -0.2942 -0.8332
 2682SOL    HW219683   1.996   0.746   6.340  0.1505  0.6843 -0.3934
 2683SOL     OW19684   1.446   4.665   6.461  0.5330  0.5249 -0.2465
 2683SOL    HW119685   1.496   0.005   6.437  2.0019 -0.9029 -1.7962
 2683SOL    HW219686   1.419   4.633   6.375 -0.1312 -0.4491  0.3287
 2684SOL     OW19687   4.559   0.384   9.942 -0.1547 -0.0535  0.0605
 2684SOL    HW119688   4.505   0.449   9.987  0.3231 -1.3263  2.5027
 2684SOL    HW219689   4.633   0.436   9.911 -1.2294  0.8005 -1.0413
 2685SOL     OW19690   3.924   0.643   4.796 -0.1239 -0.5075 -0.1258
 2685SOL    HW119691   3.938   0.686   4.712  1.2829 -1.4014 -0.3383
 2685SOL    HW219692   3.953   0.555   4.775 -1.1317 -0.6069 -1.1038
 2686SOL     OW19693   1.089   1.447   6.872  0.1061 -0.0444 -0.4162
 2686SOL    HW119694   1.090   1.471   6.964 -0.0549  1.3679 -0.7856
 2686SOL    HW219695   1.167   1.396   6.850 -0.0312 -0.2004 -0.5470
 2687SOL     OW19696   4.501   0.049   3.334  0.0280 -0.5093 -0.6385
 2687SOL    HW119697   4.460   0.055   3.248 -2.6527  0.0481  0.6616
 2687SOL    HW219698   4.425   0.061   3.391 -1.0745 -1.9064 -1.7932
 2688SOL     OW19699   1.066   2.679   0.398 -0.3548 -0.1721  0.3773
 2688SOL    HW119700   0.979   2.638   0.395  0.8732 -2.9359  1.8566
 2688SOL    HW219701   1.058   2.746   0.330 -1.0246 -1.3819 -0.7314
 2689SOL     OW19702   1.772   3.711   8.838  0.0978 -0.3950  0.4000
 2689SOL    HW119703   1.794   3.666   8.920  0.0985 -0.0385  0.5947
 2689SOL    HW219704   1.681   3.739   8.846  0.4039  0.7005  0.0388
 2690SOL     OW19705   1.871   3.096   2.478 -0.0188 -0.1264 -0.0320
 2690SOL    HW119706   1.850   3.146   2.399  1.2116  2.5058  1.3108
 2690SOL    HW219707   1.906   3.017   2.437 -1.1240  0.7426 -2.7045
 2691SOL     OW19708   2.458   2.426   5.700 -0.1130 -0.6274  0.3760
 2691SOL    HW119709   2.410   2.413   5.782  0.0011 -3.6233 -0.0253
 2691SOL    HW219710   2.396   2.432   5.628 -1.3792 -1.9015  1.3337
 2692SOL     OW19711   1.300   0.802  11.570 -0.8476 -0.1458  0.2347
 2692SOL    HW119712   1.298   0.896  11.554 -0.9622  0.0609  1.4771
 2692SOL    HW219713   1.388   0.780  11.540  0.0465  1.5943  1.6049
 2693SOL     OW19714   1.041   1.602   5.749 -0.2910  0.1044  0.4670
 2693SOL    HW119715   1.084   1.630   5.830 -2.7392 -0.2145  1.8809
 2693SOL    HW219716   0.988   1.535   5.793 -1.2909  0.9554  0.5553
 2694SOL     OW19717   4.703   2.166  15.710 -0.3397  0.4290 -0.8156
 2694SOL    HW119718   4.737   2.168  15.799 -0.1977 -1.8582 -0.8252
 2694SOL    HW219719   0.007   2.247  15.679 -1.9189  1.2855 -0.7171
 2695SOL     OW19720   2.746   0.992  15.293  0.4301 -0.6790  0.8827
 2695SOL    HW119721   2.731   0.934  15.218  1.6263  0.8829 -0.5598
 2695SOL    HW219722   2.742   0.921  15.357 -0.4678 -3.0887 -1.8273
 2696SOL     OW19723   3.887   0.846   1.602 -0.9531 -0.0552 -0.6548
 2696SOL    HW119724   3.967   0.870   1.650 -1.2012 -0.4202 -0.0518
 2696SOL    HW219725   3.820   0.874   1.664  0.2021  3.9118 -1.2278
 2697SOL     OW19726   3.647   1.771   1.228  0.9012  0.1041 -0.0172
 2697SOL    HW119727   3.613   1.847   1.277  0.2553 -0.2121  0.0246
 2697SOL    HW219728   3.703   1.718   1.285 -0.2779 -0.8732  0.2244
 2698SOL     OW19729   3.555   2.443   2.195 -0.3126  0.5416 -0.2226
 2698SOL    HW119730   3.488   2.381   2.165  1.4517 -1.3129 -0.3111
 2698SOL    HW219731   3.533   2.454   2.288  0.4167 -0.7293  0.0972
 2699SOL     OW19732   0.133   1.995   8.153 -0.2595  0.3326 -0.6964
 2699SOL    HW119733   0.174   1.915   8.186 -1.1642  0.1513 -0.0144
 2699SOL    HW219734   0.146   2.046   8.233  1.0861  0.5650 -1.0616
 2700SOL     OW19735   0.347   2.826  10.762  0.0919  0.2794 -0.0418
 2700SOL    HW119736   0.334   2.815  10.857  0.7899 -0.4238 -0.0272
 2700SOL    HW219737   0.412   2.757  10.751 -0.9411 -0.7664  0.3470
 2701SOL     OW19738   4.533   2.311  10.146  0.5837  0.2835  0.0414
 2701SOL    HW119739   4.465   2.244  10.142  1.2221 -0.4614  1.5504
 2701SOL    HW219740   4.498   2.377  10.087  1.2657  1.3724  0.8512
 2702SOL     OW19741   4.259   3.842   2.721  0.0888 -0.1224  0.7394
 2702SOL    HW119742   4.196   3.826   2.791  0.5052  1.2916  1.4312
 2702SOL    HW219743   4.312   3.764   2.737 -1.7102 -1.2523  1.1565
 2703SOL     OW19744   3.100   2.162   2.895  0.5531  0.5652 -0.3092
 2703SOL    HW119745   3.047   2.163   2.815 -0.4030  1.8325  0.3507
 2703SOL    HW219746   3.042   2.101   2.940 -0.3490  2.1707  0.7083
 2704SOL     OW19747   2.828   4.669   8.430 -0.0077 -0.0761 -0.5955
 2704SOL    HW119748   2.837   0.026   8.442  0.0788 -0.2986  1.0939
 2704SOL    HW219749   2.798   4.661   8.339 -3.9121 -1.9618  0.8616
 2705SOL     OW19750   1.329   0.907   7.877  0.7922  0.1052  0.0563
 2705SOL    HW119751   1.302   0.834   7.932  0.5598  1.4286  1.7038
 2705SOL    HW219752   1.287   0.981   7.921  1.6370  0.2931  0.5476
 2706SOL     OW19753   0.932   3.133   3.334  0.1321  0.5831 -0.1674
 2706SOL    HW119754   1.021   3.119   3.301 -0.4947 -0.5640 -1.3522
 2706SOL    HW219755   0.929   3.229   3.336 -0.0499  0.6276 -2.7676
 2707SOL     OW19756   0.059   4.392   2.715  0.2935 -0.2692 -0.1071
 2707SOL    HW119757   4.726   4.329   2.730  1.3851 -0.7727  2.8639
 2707SOL    HW219758   0.015   4.475   2.732 -0.2136 -0.2813 -1.3471
 2708SOL     OW19759   3.365   2.305  15.998 -0.1862 -0.2395  0.2890
 2708SOL    HW119760   3.315   2.245  15.943  0.7688  0.2596 -1.1354
 2708SOL    HW219761   3.294   2.366  16.018  2.7834  3.2907  0.2249
 2709SOL     OW19762   1.952   0.517   3.562 -0.0678  0.3496  0.5371
 2709SOL    HW119763   1.949   0.421   3.554 -2.5706  0.5941 -1.4422
 2709SOL    HW219764   2.042   0.545   3.582 -0.3902  1.1215  0.8843
 2710SOL     OW19765   4.162   1.673   9.622 -0.2130 -0.2701 -0.3192
 2710SOL    HW119766   4.240   1.691   9.570 -0.3871  1.9629  0.1933
 2710SOL    HW219767   4.116   1.618   9.558  0.7034 -2.0705  0.5557
 2711SOL     OW19768   4.078   3.768   5.344  1.0802  0.2913 -0.2628
 2711SOL    HW119769   4.029   3.833   5.295 -0.9691 -1.6197 -0.7453
 2711SOL    HW219770   4.121   3.724   5.271 -0.6058  0.9560 -1.6420
 2712SOL     OW19771   4.558   0.647  11.169 -0.2022 -0.4646  0.1084
 2712SOL    HW119772   4.600   0.583  11.227 -2.0303 -1.4054  0.3722
 2712SOL    HW219773   4.468   0.633  11.196 -0.2290 -0.7938 -0.1536
 2713SOL     OW19774   2.702   1.004  12.347  0.2711 -0.1637  0.3831
 2713SOL    HW119775   2.748   0.970  12.423 -0.1173 -0.0361  0.6724
 2713SOL    HW219776   2.682   1.090  12.385  0.3442 -0.7481  1.7162
 2714SOL     OW19777   3.088   2.024  11.507 -0.2922  0.0063  0.8493
 2714SOL    HW119778   3.122   1.935  11.500 -1.1125 -0.2249 -0.3055
 2714SOL    HW219779   3.140   2.042  11.585 -1.8489 -0.8113  2.0800
 2715SOL     OW19780   2.504   3.256   0.675 -0.1169  0.0924 -0.1306
 2715SOL    HW119781   2.510   3.278   0.768 -0.4109 -0.0409 -0.0803
 2715SOL    HW219782   2.579   3.306   0.642 -0.6930  1.3771  0.5104
 2716SOL     OW19783   3.549   1.223   5.756  0.5395 -0.1637 -0.5929
 2716SOL    HW119784   3.526   1.223   5.849  0.4823 -0.1290 -0.6068
 2716SOL    HW219785   3.464   1.226   5.711  0.0726 -1.5700  0.2227
 2717SOL     OW19786   0.129   4.206   0.594  0.5024 -0.0918  0.2784
 2717SOL    HW119787   0.127   4.169   0.506  1.5792 -2.0742  1.0993
 2717SOL    HW219788   0.036   4.207   0.619  0.6432  0.4102  0.7985
 2718SOL     OW19789   4.673   4.573   3.336  0.2738 -0.1030 -0.0685
 2718SOL    HW119790   4.613   4.647   3.339 -1.2469 -1.3490  0.4483
 2718SOL    HW219791   4.641   4.518   3.408  2.3974  0.0571  0.9891
 2719SOL     OW19792   3.647   4.330   8.356  0.4050 -0.0866  0.5089
 2719SOL    HW119793   3.731   4.318   8.310  0.1921 -1.0809  0.3660
 2719SOL    HW219794   3.694   4.372   8.428  0.8642  0.7805 -0.3020
 2720SOL     OW19795   1.663   2.103   8.099  0.3640  0.1750 -0.9457
 2720SOL    HW119796   1.673   2.157   8.178  0.9349 -0.4858 -0.5625
 2720SOL    HW219797   1.746   2.055   8.101 -0.5212 -1.3392 -1.0848
 2721SOL     OW19798   3.656   0.797  12.392  0.6989 -0.4243  0.4350
 2721SOL    HW119799   3.612   0.748  12.462 -3.1168 -0.2750 -1.8439
 2721SOL    HW219800   3.744   0.783  12.425  0.4316  0.0974  1.3682
 2722SOL     OW19801   4.692   3.763   1.665 -0.5403 -0.2151 -0.2503
 2722SOL    HW119802   4.724   3.702   1.732 -1.5603  0.3387  0.7340
 2722SOL    HW219803   4.711   3.847   1.707 -0.2408  0.2555 -1.3401
 2723SOL     OW19804   3.561   3.027  11.446 -0.7885 -0.0155  0.2106
 2723SOL    HW119805   3.612   3.008  11.367  1.6270 -0.4894  1.8879
 2723SOL    HW219806   3.620   3.005  11.518 -1.3003 -1.3800  0.1991
 2724SOL     OW19807   4.701   2.627   0.549  0.0170 -0.1065 -0.1343
 2724SOL    HW119808   0.029   2.588   0.491 -1.1257 -0.8405 -0.9358
 2724SOL    HW219809   4.624   2.637   0.493 -0.8319 -0.2382  1.0076
 2725SOL     OW19810   1.604   2.070  15.116  0.4045 -0.2904 -0.4610
 2725SOL    HW119811   1.554   2.139  15.160 -0.1079 -0.2238 -1.1534
 2725SOL    HW219812   1.633   2.028  15.197 -2.9615 -2.3695 -0.3586
 2726SOL     OW19813   1.935   4.180   4.098  0.0746  0.0376  0.7995
 2726SOL    HW119814   1.855   4.155   4.053 -0.0255  3.6558 -1.0045
 2726SOL    HW219815   1.912   4.270   4.122  1.9212  0.9270 -0.8036
 2727SOL     OW19816   2.855   3.045   6.848 -0.3965  0.3461 -0.5585
 2727SOL    HW119817   2.796   3.118   6.870 -1.0647 -0.2700 -0.2987
 2727SOL    HW219818   2.874   3.009   6.935 -0.7338  0.4530 -0.4394
 2728SOL     OW19819   0.005   3.890  15.852 -0.1431 -0.1810 -0.1890
 2728SOL    HW119820   0.041   3.859  15.769  1.4611  2.8686 -0.6344
 2728SOL    HW219821   0.058   3.845  15.918  2.1688  1.1105 -1.1671
 2729SOL     OW19822   2.645   0.307  10.088 -0.1477 -0.3429  0.0940
 2729SOL    HW119823   2.674   0.331  10.177 -2.2011  1.2613  0.3293
 2729SOL    HW219824   2.568   0.364  10.096 -1.4501 -2.0214 -0.6773
 2730SOL     OW19825   0.607   1.069   5.716  0.3847 -1.2759 -0.5297
 2730SOL    HW119826   0.601   0.984   5.673 -2.0591  0.2801 -3.2750
 2730SOL    HW219827   0.659   1.046   5.793  0.3575 -1.7528 -0.6558
 2731SOL     OW19828   2.417   0.231   8.526 -0.8218 -0.5137  0.4065
 2731SOL    HW119829   2.450   0.153   8.481  1.4850  1.0263 -0.5645
 2731SOL    HW219830   2.355   0.263   8.460 -1.6582  0.9713  1.9172
 2732SOL     OW19831   3.354   4.585   7.807  0.2855 -0.0064 -0.0221
 2732SOL    HW119832   3.266   4.584   7.845  0.3007  1.0428  0.0305
 2732SOL    HW219833   3.411   4.607   7.881  0.8063  0.4600 -0.5583
 2733SOL     OW19834   2.697   1.901   2.759 -0.0284  0.4992 -0.3390
 2733SOL    HW119835   2.740   1.844   2.823  1.4436  0.0515 -1.7304
 2733SOL    HW219836   2.644   1.841   2.706  0.2027  0.7526 -0.8488
 2734SOL     OW19837   1.671   4.409   1.706  0.0390 -0.8789 -0.3826
 2734SOL    HW119838   1.595   4.353   1.718 -0.6689 -0.0888 -1.1450
 2734SOL    HW219839   1.685   4.447   1.792 -1.0725 -0.6988 -0.2813
 2735SOL     OW19840   2.829   2.624  12.956  0.0075  0.1115  0.2868
 2735SOL    HW119841   2.886   2.622  12.879  1.3702  0.6137  1.2705
 2735SOL    HW219842   2.872   2.694  13.007  2.0157  0.7264 -2.2713
 2736SOL     OW19843   2.019   4.314  17.016 -0.5053 -0.7096 -0.0028
 2736SOL    HW119844   2.079   4.266  17.073 -0.8161 -0.5823  0.4298
 2736SOL    HW219845   2.033   4.291  16.924 -0.9394 -0.6375 -0.0861
 2737SOL     OW19846   3.653   3.865  11.891  0.4822 -0.2220  0.3232
 2737SOL    HW119847   3.690   3.797  11.835  2.0350  0.7871  0.1343
 2737SOL    HW219848   3.654   3.942  11.835  0.3462  1.1297  2.1526
 2738SOL     OW19849   1.099   3.885  13.318  0.4781  0.3242  1.1038
 2738SOL    HW119850   1.157   3.823  13.361  0.6183 -0.8816 -0.8166
 2738SOL    HW219851   1.153   3.916  13.245 -0.1880 -0.1913  0.3886
 2739SOL     OW19852   0.251   0.190   3.893  0.3210 -0.1808 -0.3726
 2739SOL    HW119853   0.222   0.184   3.802  0.6792  0.8725 -0.5558
 2739SOL    HW219854   0.345   0.177   3.881  0.2016 -0.6090 -0.7984
 2740SOL     OW19855   3.759   1.946  12.101  0.2829  0.3319 -0.1548
 2740SOL    HW119856   3.665   1.935  12.093  0.0197  3.1432 -1.1532
 2740SOL    HW219857   3.781   2.038  12.118  1.3866 -0.0338  0.3761
 2741SOL     OW19858   4.443   4.154   4.012 -0.2427 -0.2490 -0.6069
 2741SOL    HW119859   4.517   4.141   3.952 -0.7120  1.7784 -1.6505
 2741SOL    HW219860   4.465   4.245   4.034 -0.3105 -0.3756 -0.0364
 2742SOL     OW19861   4.272   4.075  15.705  0.0114  0.0104 -0.0930
 2742SOL    HW119862   4.354   4.054  15.750  0.0658 -3.1331 -1.6725
 2742SOL    HW219863   4.200   4.032  15.750 -0.9504  0.6950 -0.9877
 2743SOL     OW19864   4.652   2.225   9.483  0.0571  0.2912  0.3682
 2743SOL    HW119865   4.725   2.287   9.485 -0.6968  1.1598  0.9206
 2743SOL    HW219866   4.706   2.154   9.447 -1.6289 -1.2866  0.9565
 2744SOL     OW19867   2.843   3.750  11.307  0.3010  0.1316 -0.2634
 2744SOL    HW119868   2.793   3.748  11.389 -0.5087  0.0081 -0.7606
 2744SOL    HW219869   2.774   3.771  11.244 -0.1837 -0.0223  0.2059
 2745SOL     OW19870   2.301   2.364  17.022 -0.5632 -0.0124  0.2901
 2745SOL    HW119871   2.333   2.362  16.932  2.0378  1.2383  1.1988
 2745SOL    HW219872   2.359   2.425  17.067  1.5232 -1.9837  0.2258
 2746SOL     OW19873   3.637   1.436   8.621  0.2028  0.5509  0.4011
 2746SOL    HW119874   3.668   1.469   8.537  1.6162 -3.8962 -0.7849
 2746SOL    HW219875   3.560   1.392   8.586  1.8361 -1.6227 -0.4519
 2747SOL     OW19876   3.255   0.226   2.431  0.7307 -0.9013  0.3840
 2747SOL    HW119877   3.247   0.202   2.338 -0.6541  1.8257 -0.2170
 2747SOL    HW219878   3.322   0.292   2.413 -0.0038 -0.0605  0.7432
 2748SOL     OW19879   0.678   2.910   8.087 -0.2912  0.0137 -0.9064
 2748SOL    HW119880   0.672   2.980   8.153 -0.2309 -0.7738 -0.0613
 2748SOL    HW219881   0.661   2.832   8.140 -1.1297  0.4771 -0.4949
 2749SOL     OW19882   3.068   3.822  11.012 -0.2935  0.4450  0.6840
 2749SOL    HW119883   3.137   3.786  11.068 -0.9849 -0.2136  1.1088
 2749SOL    HW219884   2.990   3.773  11.039 -1.5114  2.6463  1.1159
 2750SOL     OW19885   2.468   2.542  16.107 -0.3028 -0.1530 -0.4282
 2750SOL    HW119886   2.422   2.535  16.023  0.8445  2.5170 -1.2772
 2750SOL    HW219887   2.396   2.528  16.169 -0.0178  0.7211  0.0863
 2751SOL     OW19888   3.920   1.227  10.590  0.4824 -0.2158 -0.0488
 2751SOL    HW119889   3.937   1.170  10.514 -1.1761  0.6539 -1.0832
 2751SOL    HW219890   3.966   1.308  10.568  0.9297 -0.9516 -1.8427
 2752SOL     OW19891   2.551   1.278   3.586  0.0167 -0.0896 -0.7356
 2752SOL    HW119892   2.478   1.334   3.559 -0.5981  0.4413  2.0323
 2752SOL    HW219893   2.632   1.320   3.559 -0.8993  0.9019 -1.9721
 2753SOL     OW19894   3.267   1.069   3.119  0.2629  0.3975  0.0161
 2753SOL    HW119895   3.218   1.151   3.116  2.4663  1.7811  1.3016
 2753SOL    HW219896   3.345   1.087   3.066  1.4676 -0.5441  1.4576
 2754SOL     OW19897   2.526   0.005   6.552 -0.2907  0.1361  0.0525
 2754SOL    HW119898   2.516   0.090   6.510 -3.9024 -1.5953 -2.4871
 2754SOL    HW219899   2.620   4.726   6.542 -0.4662  0.0082 -1.3158
 2755SOL     OW19900   1.278   4.631   6.125 -0.4099  0.8601 -0.1683
 2755SOL    HW119901   1.261   4.538   6.143 -1.4193  1.3433  1.3415
 2755SOL    HW219902   1.188   4.662   6.131 -0.8350 -0.8025  2.2412
 2756SOL     OW19903   3.342   0.203   2.837 -0.3818  0.0651 -0.5141
 2756SOL    HW119904   3.393   0.124   2.824  0.4180 -0.1650  4.0673
 2756SOL    HW219905   3.367   0.249   2.757  3.3303  0.6457  0.9704
 2757SOL     OW19906   1.861   2.786  11.364 -0.2407  0.2019  0.1941
 2757SOL    HW119907   1.777   2.819  11.331 -1.2200  0.1557  2.6041
 2757SOL    HW219908   1.928   2.830  11.311  0.1099 -0.2562  0.2589
 2758SOL     OW19909   2.297   3.424   4.912 -0.2295  0.6853 -0.0588
 2758SOL    HW119910   2.223   3.441   4.970  1.1744  0.1378  1.9164
 2758SOL    HW219911   2.362   3.466   4.969  0.1813  1.7708 -1.3370
 2759SOL     OW19912   2.336   1.408  10.850 -0.1616  0.2354 -0.2580
 2759SOL    HW119913   2.275   1.439  10.784  0.8130 -1.7288 -2.0727
 2759SOL    HW219914   2.291   1.427  10.933 -1.9735 -2.6269 -0.5846
 2760SOL     OW19915   3.529   3.584   3.666  0.3283 -0.5174  0.1732
 2760SOL    HW119916   3.619   3.579   3.635 -0.8540 -0.5759 -3.2780
 2760SOL    HW219917   3.501   3.675   3.655 -0.8678 -1.2142 -2.7096
 2761SOL     OW19918   3.543   2.883   6.719  0.2554 -0.2017  0.0515
 2761SOL    HW119919   3.500   2.962   6.683 -0.4137  0.0800  1.4846
 2761SOL    HW219920   3.530   2.894   6.813  1.0798 -1.6019  0.3218
 2762SOL     OW19921   2.660   1.603  15.407  0.3728 -0.4362  0.2184
 2762SOL    HW119922   2.698   1.544  15.342 -0.7361  0.7231 -1.4973
 2762SOL    HW219923   2.693   1.564  15.488 -2.2582 -0.2886  1.3330
 2763SOL     OW19924   3.319   1.147   8.402 -0.2613 -0.0674  0.8638
 2763SOL    HW119925   3.348   1.105   8.483 -1.9711 -2.2368  0.3429
 2763SOL    HW219926   3.406   1.158   8.363 -1.4148  0.5711 -1.5346
 2764SOL     OW19927   0.422   4.132   6.801 -0.3408 -0.2854  0.2309
 2764SOL    HW119928   0.332   4.117   6.772 -0.6004 -0.0872  0.9240
 2764SOL    HW219929   0.428   4.227   6.812  1.7529 -0.2668 -1.3008
 2765SOL     OW19930   2.451   1.596   8.098 -0.1818  0.8598 -0.1169
 2765SOL    HW119931   2.373   1.547   8.071  0.8711 -0.2835 -1.0929
 2765SOL    HW219932   2.408   1.672   8.136 -0.4530 -0.0003  1.3169
 2766SOL     OW19933   1.593   0.063   3.334  0.2398  0.1523  0.2992
 2766SOL    HW119934   1.552   4.715   3.349 -0.0129 -0.2025 -2.4740
 2766SOL    HW219935   1.573   0.071   3.241  0.0616  1.9693  0.4951
 2767SOL     OW19936   3.971   3.699  14.460  0.6133  0.1266  0.8322
 2767SOL    HW119937   3.931   3.624  14.415  0.0128 -1.6347  4.3272
 2767SOL    HW219938   4.043   3.647  14.494  0.8041 -0.3754 -0.3251
 2768SOL     OW19939   1.769   2.980   6.779 -0.2662 -0.0534  0.5826
 2768SOL    HW119940   1.863   2.991   6.794 -0.2306  1.1168 -0.4618
 2768SOL    HW219941   1.737   3.010   6.864 -0.5862 -1.9509  1.1199
 2769SOL     OW19942   0.212   3.306  10.385  0.1972  0.0276 -0.1248
 2769SOL    HW119943   0.121   3.286  10.365 -0.2926  1.4950  0.5702
 2769SOL    HW219944   0.262   3.233  10.350  0.5024  0.1136  0.1252
 2770SOL     OW19945   0.738   3.157   8.627  0.4846  0.5793 -0.4393
 2770SOL    HW119946   0.778   3.146   8.713  0.6136  0.2143 -0.5474
 2770SOL    HW219947   0.647   3.174   8.648  0.9600  1.1510  1.1600
 2771SOL     OW19948   0.850   2.963   0.935 -0.5885  0.0805 -0.4207
 2771SOL    HW119949   0.938   2.983   0.966 -0.2799 -0.8189 -0.7526
 2771SOL    HW219950   0.841   2.868   0.942  0.1205  0.0096 -0.5569
 2772SOL     OW19951   3.761   4.695   8.824 -0.3752 -0.3734  0.2387
 2772SOL    HW119952   3.820   4.649   8.883 -0.6362 -0.8454  0.1297
 2772SOL    HW219953   3.807   0.040   8.814 -2.2487  0.8044  1.3569
 2773SOL     OW19954   3.353   0.596   3.801 -0.0826  0.2472 -0.4898
 2773SOL    HW119955   3.265   0.632   3.815  0.0654  0.5656 -0.3500
 2773SOL    HW219956   3.396   0.639   3.875 -1.0389 -0.3838  0.4276
 2774SOL     OW19957   3.102   3.773  15.106 -0.2272  0.2907 -0.0511
 2774SOL    HW119958   3.170   3.822  15.060  1.7201 -1.2150  1.2039
 2774SOL    HW219959   3.025   3.793  15.052 -1.1403 -2.0826  0.3595
 2775SOL     OW19960   3.749   2.152  13.424 -0.0543 -0.2289  0.4100
 2775SOL    HW119961   3.775   2.075  13.476 -1.6498 -1.3972 -0.5304
 2775SOL    HW219962   3.788   2.218  13.481  3.0335 -3.1838  1.7292
 2776SOL     OW19963   0.102   3.594   1.498  0.2306 -0.1302  0.2516
 2776SOL    HW119964   0.118   3.628   1.587  0.8927 -1.4269  0.6350
 2776SOL    HW219965   0.010   3.607   1.477 -0.0523 -2.5708  0.0071
 2777SOL     OW19966   4.689   0.760   2.944 -0.2732  0.1364 -0.4667
 2777SOL    HW119967   4.712   0.831   2.884  1.5836  0.9192  1.1748
 2777SOL    HW219968   0.035   0.764   2.992 -1.2656  1.5189  1.1572
 2778SOL     OW19969   4.071   0.924   5.119 -0.1978 -0.4146  0.4126
 2778SOL    HW119970   3.992   0.957   5.163  0.0783  0.3931  0.3041
 2778SOL    HW219971   4.130   0.904   5.192  0.8459 -2.0652 -0.8866
 2779SOL     OW19972   4.175   3.977   6.931  0.0009 -0.0062  0.0471
 2779SOL    HW119973   4.207   3.891   6.955 -0.4066 -0.2728 -0.3658
 2779SOL    HW219974   4.103   3.989   6.994 -0.2217 -1.1243 -0.0003
 2780SOL     OW19975   4.415   2.332   6.157 -0.7201  0.4911  0.5016
 2780SOL    HW119976   4.391   2.378   6.238  1.3061  0.5549  1.0605
 2780SOL    HW219977   4.509   2.329   6.173 -0.9144  0.3315  1.5945
 2781SOL     OW19978   4.046   3.573   2.050  0.0044  0.9820  0.2471
 2781SOL    HW119979   4.096   3.653   2.067 -0.4180  0.7086  2.8402
 2781SOL    HW219980   4.038   3.575   1.955 -0.7059 -2.2768  0.2465
 2782SOL     OW19981   1.108   0.398  11.264 -0.0353  0.0273 -0.5138
 2782SOL    HW119982   1.036   0.452  11.296  0.7978  0.8306  0.0173
 2782SOL    HW219983   1.071   0.311  11.278 -1.4671  0.4446 -1.7278
 2783SOL     OW19984   2.556   2.027   7.993 -0.3104 -0.3457 -0.6092
 2783SOL    HW119985   2.519   2.008   8.080 -0.1034 -1.1133 -0.6921
 2783SOL    HW219986   2.527   2.118   7.992  0.0328 -0.2447 -1.2933
 2784SOL     OW19987   0.390   2.602   2.898  0.4263 -0.2699 -0.3725
 2784SOL    HW119988   0.350   2.689   2.898  1.1633  0.0710 -2.3324
 2784SOL    HW219989   0.475   2.616   2.856  1.2491  0.6728  1.6051
 2785SOL     OW19990   4.166   0.407  12.075  0.3764  0.1217  0.0227
 2785SOL    HW119991   4.094   0.345  12.084  0.8415 -0.1459  1.7408
 2785SOL    HW219992   4.221   0.376  12.147  0.0675  1.1731  0.7158
 2786SOL     OW19993   4.354   2.419   9.012 -0.1287  0.3085 -0.0490
 2786SOL    HW119994   4.424   2.381   9.065  2.0012  3.7603 -0.4621
 2786SOL    HW219995   4.309   2.341   8.978 -0.2381  0.0645  0.6355
 2787SOL     OW19996   1.380   2.495   6.036 -0.0841 -0.0389 -0.0807
 2787SOL    HW119997   1.348   2.429   6.098  0.0212 -1.5963 -1.6582
 2787SOL    HW219998   1.404   2.433   5.966  0.3015  2.0972 -1.8446
 2788SOL     OW19999   4.259   3.355   5.157  0.1070 -0.5407  0.1809
 2788SOL    HW120000   4.284   3.263   5.159 -0.6414 -0.7876 -1.7539
 2788SOL    HW220001   4.333   3.385   5.210  0.4530  4.8543 -3.4350
 2789SOL     OW20002   1.111   3.053   5.226  0.3166  0.1577  0.1275
 2789SOL    HW120003   1.127   2.974   5.175  0.2114  1.6891 -2.2293
 2789SOL    HW220004   1.039   3.095   5.178  1.7468  1.8934 -0.4804
 2790SOL     OW20005   3.352   0.331   1.234  0.4411 -0.0237  0.1165
 2790SOL    HW120006   3.325   0.245   1.202  1.2528 -1.3681  3.0924
 2790SOL    HW220007   3.279   0.379   1.195 -0.1342 -0.8570  0.1734
 2791SOL     OW20008   2.361   0.440   3.290  0.1121 -0.3832  0.0197
 2791SOL    HW120009   2.420   0.503   3.249  0.7427 -0.8891  0.1333
 2791SOL    HW220010   2.358   0.376   3.218 -3.5100  0.9040 -0.9837
 2792SOL     OW20011   1.603   2.783   3.712 -0.2531 -0.5939 -0.3661
 2792SOL    HW120012   1.612   2.738   3.797 -0.6377 -0.8149 -0.4429
 2792SOL    HW220013   1.571   2.871   3.729 -2.0528 -1.3798  0.3528
 2793SOL     OW20014   2.311   3.836   0.052  0.3815 -0.1746 -0.3206
 2793SOL    HW120015   2.256   3.906   0.017  0.0834 -0.4989 -0.5023
 2793SOL    HW220016   2.343   3.798  17.719 -2.7146 -3.0681 -0.1894
 2794SOL     OW20017   0.080   3.781  11.794 -0.0610 -0.3412  0.0452
 2794SOL    HW120018   0.152   3.723  11.772  0.1519  0.7049 -2.0326
 2794SOL    HW220019   0.049   3.730  11.869  1.1724 -1.9199 -0.5081
 2795SOL     OW20020   2.801   0.419   9.859  0.2172  0.4845  0.2403
 2795SOL    HW120021   2.778   0.357   9.928 -2.7688  1.0224 -0.2629
 2795SOL    HW220022   2.876   0.375   9.818 -0.3507  0.3505 -0.6587
 2796SOL     OW20023   3.529   3.542  11.372  0.7807  0.2688  0.3340
 2796SOL    HW120024   3.535   3.613  11.435 -0.9305  0.2322  0.5178
 2796SOL    HW220025   3.445   3.499  11.388  1.1438 -0.2000  0.9878
 2797SOL     OW20026   2.300   2.491   3.230 -0.0315  0.0770 -0.4294
 2797SOL    HW120027   2.372   2.442   3.189 -0.7990  1.7437 -3.7053
 2797SOL    HW220028   2.345   2.546   3.294 -1.7622  0.9922 -0.0142
 2798SOL     OW20029   3.871   4.450   1.154 -0.9384 -0.5032 -0.5406
 2798SOL    HW120030   3.881   4.446   1.250 -0.1654  1.2842 -0.5374
 2798SOL    HW220031   3.920   4.528   1.128 -1.8953  1.1146  2.4238
 2799SOL     OW20032   3.148   1.706  16.488  0.3184  0.0783  0.1534
 2799SOL    HW120033   3.180   1.796  16.484  1.3669 -0.3351 -0.8101
 2799SOL    HW220034   3.208   1.658  16.432  0.7678  0.2119  0.5141
 2800SOL     OW20035   2.722   3.890  17.374  0.0329 -0.4033 -0.2287
 2800SOL    HW120036   2.663   3.851  17.311  0.9801 -2.1543 -0.0335
 2800SOL    HW220037   2.721   3.823  17.443 -1.8978 -0.1236  0.0029
 2801SOL     OW20038   1.990   2.733  14.407 -0.4217  0.1135 -0.3206
 2801SOL    HW120039   2.051   2.685  14.352  1.6859  1.1311  1.1300
 2801SOL    HW220040   1.970   2.804  14.346  1.8285  1.0540  0.0423
 2802SOL     OW20041   3.700   2.901  11.224  0.3222 -0.0608 -0.2224
 2802SOL    HW120042   3.746   2.975  11.183 -0.1977  0.9468  1.0195
 2802SOL    HW220043   3.767   2.845  11.264  0.3836  1.1847  1.4249
 2803SOL     OW20044   2.337   3.768   7.615  0.4909  0.0834 -0.3411
 2803SOL    HW120045   2.362   3.777   7.523 -0.8870  1.0231 -0.6252
 2803SOL    HW220046   2.273   3.839   7.611  0.4084  0.0545  0.5574
 2804SOL     OW20047   4.058   0.980   2.267  0.4801  0.4933  0.3962
 2804SOL    HW120048   4.061   1.075   2.252 -1.6705  0.1511 -2.1308
 2804SOL    HW220049   4.142   0.949   2.232  0.3813  0.5974  0.0674
 2805SOL     OW20050   0.948   3.562   3.587  0.1990  0.1177  0.3110
 2805SOL    HW120051   0.923   3.470   3.597  2.3873 -0.1820  2.9281
 2805SOL    HW220052   0.904   3.586   3.505  1.4636  0.7619 -0.1710
 2806SOL     OW20053   3.503   4.122   3.424 -1.0459 -0.6462  0.3359
 2806SOL    HW120054   3.483   4.173   3.346  2.3390 -0.0050 -0.0815
 2806SOL    HW220055   3.430   4.060   3.424 -0.7927 -0.9442  0.4152
 2807SOL     OW20056   2.325   0.538   4.492 -0.3483 -0.0913 -0.4092
 2807SOL    HW120057   2.350   0.620   4.536 -2.1133  0.6253 -0.7050
 2807SOL    HW220058   2.325   0.561   4.399 -1.3475  1.3492 -0.0557
 2808SOL     OW20059   3.158   0.849   4.186  0.0222  0.3470 -0.4782
 2808SOL    HW120060   3.213   0.927   4.192  0.1111  0.1560  1.1205
 2808SOL    HW220061   3.077   0.884   4.149 -1.7606 -2.8212  0.4744
 2809SOL     OW20062   0.118   3.138  16.945  0.1004  0.0794 -0.3725
 2809SOL    HW120063   0.169   3.070  16.901  0.0751 -0.5402  0.5796
 2809SOL    HW220064   0.028   3.121  16.918  0.4282 -0.5123 -1.0888
 2810SOL     OW20065   4.296   1.345   0.646 -0.3142 -0.3597 -0.3136
 2810SOL    HW120066   4.203   1.344   0.620 -0.9233 -1.3327  1.8895
 2810SOL    HW220067   4.330   1.359   0.558 -0.0268  2.2175  0.2240
 2811SOL     OW20068   1.446   0.481   1.383 -0.2372 -0.0234  0.2997
 2811SOL    HW120069   1.539   0.494   1.363 -0.4259 -0.5102 -0.8663
 2811SOL    HW220070   1.438   0.491   1.478 -1.4665 -0.0461  0.1980
 2812SOL     OW20071   2.326   2.409   4.710 -0.1878  0.1296 -0.2615
 2812SOL    HW120072   2.265   2.369   4.649  0.0686  1.6205 -1.4794
 2812SOL    HW220073   2.404   2.372   4.669 -0.0878 -0.6799  0.6567
 2813SOL     OW20074   3.196   2.569   1.741  0.5733  0.5100 -0.3497
 2813SOL    HW120075   3.193   2.646   1.685  0.0196  0.2676 -0.6438
 2813SOL    HW220076   3.244   2.509   1.683 -1.2867 -0.7566 -0.5580
 2814SOL     OW20077   0.472   2.645   9.031  0.3425  0.3740 -0.5180
 2814SOL    HW120078   0.469   2.675   9.121  1.5967  0.4087 -0.4840
 2814SOL    HW220079   0.567   2.649   9.021  0.3867 -2.6461 -1.2060
 2815SOL     OW20080   4.502   3.603  10.892  0.3934 -0.2821 -0.0612
 2815SOL    HW120081   4.594   3.623  10.908  0.5590 -0.0663 -1.2321
 2815SOL    HW220082   4.518   3.564  10.806  0.7204  0.0868 -0.1686
 2816SOL     OW20083   4.167   3.401   6.045  0.6190  0.2491  0.3354
 2816SOL    HW120084   4.174   3.485   6.001  2.7447 -0.0631  0.0688
 2816SOL    HW220085   4.249   3.354   6.024 -0.9130 -1.8803 -0.8940
 2817SOL     OW20086   3.596   1.877   6.409  0.2017  0.3577  0.0557
 2817SOL    HW120087   3.610   1.957   6.360  2.7853  0.5033  1.0404
 2817SOL    HW220088   3.647   1.892   6.489 -0.1636 -0.4311  0.4470
 2818SOL     OW20089   3.768   4.430  15.457  0.0265 -0.2454 -0.2369
 2818SOL    HW120090   3.761   4.340  15.424  0.3008  0.1708 -1.4208
 2818SOL    HW220091   3.712   4.417  15.534  2.5040  1.0982  1.7819
 2819SOL     OW20092   0.570   0.764  14.500  0.2377 -0.3124  0.2226
 2819SOL    HW120093   0.507   0.754  14.429 -0.2686  0.3975  0.5663
 2819SOL    HW220094   0.650   0.785  14.451 -0.2567  0.0378 -0.4284
 2820SOL     OW20095   3.093   1.335   3.897  0.2579 -0.2649 -0.1458
 2820SOL    HW120096   3.018   1.276   3.896 -0.3726  0.5508 -0.9570
 2820SOL    HW220097   3.066   1.424   3.873 -0.7644 -0.7218 -0.6688
 2821SOL     OW20098   3.333   1.242  12.935 -0.0684 -0.1327  0.3155
 2821SOL    HW120099   3.389   1.193  12.995  2.4372  2.6983  0.2817
 2821SOL    HW220100   3.380   1.236  12.851 -0.6439  0.5640 -0.0527
 2822SOL     OW20101   0.477   3.789   1.165 -0.2878  0.1620 -0.0793
 2822SOL    HW120102   0.441   3.716   1.116 -2.1428  0.6108  0.5995
 2822SOL    HW220103   0.402   3.847   1.182  3.1768  4.9117 -1.2003
 2823SOL     OW20104   0.766   1.492  13.232  0.2803 -0.2271  0.3528
 2823SOL    HW120105   0.812   1.408  13.236  1.0827  0.2240  0.5855
 2823SOL    HW220106   0.819   1.549  13.288  1.2642 -1.3382  0.5569
 2824SOL     OW20107   2.676   0.581   3.812  0.0733  0.1151 -0.5960
 2824SOL    HW120108   2.614   0.509   3.800  0.4444  0.2366 -3.2740
 2824SOL    HW220109   2.703   0.556   3.900  0.1435 -2.9579 -1.4865
 2825SOL     OW20110   4.201   2.052   3.007 -0.0173  0.1606  0.1374
 2825SOL    HW120111   4.253   1.971   3.001  0.8011  0.5980  1.3039
 2825SOL    HW220112   4.141   2.034   3.079 -0.3024  1.2324  0.1562
 2826SOL     OW20113   0.930   4.328   7.052 -0.2752  0.1618  0.4878
 2826SOL    HW120114   1.013   4.308   7.008 -1.4115 -0.2521 -1.4895
 2826SOL    HW220115   0.955   4.397   7.114  1.6962 -0.3847  0.2942
 2827SOL     OW20116   0.991   3.629   2.406  0.6018  0.1206  0.3569
 2827SOL    HW120117   0.944   3.609   2.487  0.1442  0.3869  0.1608
 2827SOL    HW220118   1.037   3.709   2.432 -0.7460  1.1442 -0.3961
 2828SOL     OW20119   2.274   1.136  14.259  0.2460  0.1768  0.4543
 2828SOL    HW120120   2.349   1.180  14.299 -0.6396  2.3987 -0.3077
 2828SOL    HW220121   2.262   1.059  14.315 -2.2437 -0.6026 -1.1550
 2829SOL     OW20122   4.324   2.445   6.440  0.7688 -0.1637 -0.1183
 2829SOL    HW120123   4.236   2.451   6.404  1.4889  0.7202 -1.7250
 2829SOL    HW220124   4.345   2.537   6.457 -0.8094  0.1044  0.3770
 2830SOL     OW20125   3.367   3.303   3.725  0.7302 -0.0522  0.2507
 2830SOL    HW120126   3.386   3.275   3.815 -0.8651  1.5137  1.0884
 2830SOL    HW220127   3.415   3.386   3.719  0.7087 -0.1353 -1.0553
 2831SOL     OW20128   1.453   1.460  11.845  0.1847  0.5870 -0.2644
 2831SOL    HW120129   1.491   1.451  11.932 -0.0983  0.7027 -0.1292
 2831SOL    HW220130   1.361   1.444  11.866  0.0455 -0.7654 -1.8559
 2832SOL     OW20131   2.251   4.495   6.278  0.3904  0.2014  0.2913
 2832SOL    HW120132   2.316   4.548   6.233  0.1962 -0.2572 -0.5395
 2832SOL    HW220133   2.277   4.500   6.370 -1.3769  0.2020  0.7938
 2833SOL     OW20134   0.035   0.162   8.192 -0.5462  0.2993  0.4418
 2833SOL    HW120135   0.063   0.128   8.277  1.0557  0.0066 -0.1977
 2833SOL    HW220136   0.119   0.202   8.170 -0.7825  1.0353  0.8613
 2834SOL     OW20137   4.607   2.355   7.951 -0.1168 -0.2203 -0.1703
 2834SOL    HW120138   4.527   2.390   7.989  0.9748  0.6459  1.3528
 2834SOL    HW220139   4.579   2.263   7.951 -0.9397  0.0417  1.0220
 2835SOL     OW20140   2.116   2.023   2.825 -0.9514  0.6289 -0.0783
 2835SOL    HW120141   2.042   2.059   2.776 -1.5302 -1.6316 -0.8970
 2835SOL    HW220142   2.179   2.095   2.824  0.6796 -0.8150 -2.7877
 2836SOL     OW20143   2.320   1.631   6.451 -0.3271  0.2729  0.6848
 2836SOL    HW120144   2.385   1.632   6.522  0.2117 -3.3075  0.2199
 2836SOL    HW220145   2.256   1.569   6.485 -1.7620  0.6086 -1.3973
 2837SOL     OW20146   3.209   0.110   7.968  0.5858 -0.1265 -0.2094
 2837SOL    HW120147   3.294   0.118   7.926  0.6280  0.6879  0.0280
 2837SOL    HW220148   3.215   0.023   8.008 -1.3024 -0.0195  0.3172
 2838SOL     OW20149   1.627   0.453   9.078  0.7257  0.3292  0.2241
 2838SOL    HW120150   1.667   0.536   9.053  1.6409 -0.8980 -2.3631
 2838SOL    HW220151   1.674   0.427   9.157  2.4450  0.1314 -0.8729
 2839SOL     OW20152   0.427   0.973   1.663 -0.2222 -0.4220  0.5866
 2839SOL    HW120153   0.483   1.006   1.593  0.8957 -0.9549  1.2388
 2839SOL    HW220154   0.412   0.884   1.632 -1.7789 -0.5418  1.6799
 2840SOL     OW20155   3.380   2.945   1.378 -0.0168 -0.6147  0.2984
 2840SOL    HW120156   3.400   2.877   1.442  0.0041 -3.9545 -3.2590
 2840SOL    HW220157   3.424   3.020   1.419 -0.4803 -0.7238  0.9957
 2841SOL     OW20158   1.990   2.834   7.818 -0.4271 -0.4088  0.2766
 2841SOL    HW120159   2.011   2.908   7.876  2.4116 -0.3277 -0.8232
 2841SOL    HW220160   2.077   2.794   7.816 -0.8244 -1.2758  0.6142
 2842SOL     OW20161   2.744   3.792   4.885 -0.0424 -0.2640 -0.4057
 2842SOL    HW120162   2.656   3.766   4.857 -0.0776 -0.7069  0.1143
 2842SOL    HW220163   2.707   3.840   4.960 -3.1073 -0.4116 -1.8160
 2843SOL     OW20164   0.131   3.028   8.488 -0.1204 -0.1397  0.0692
 2843SOL    HW120165   0.128   3.034   8.584  0.3613 -2.4636  0.2298
 2843SOL    HW220166   0.048   2.981   8.481  0.1677 -0.6581  0.1199
 2844SOL     OW20167   2.425   2.800   3.264 -0.0667  0.0318  0.5915
 2844SOL    HW120168   2.429   2.895   3.279  0.0204  0.0217  0.6313
 2844SOL    HW220169   2.382   2.795   3.179  0.3830  1.3740  0.2913
 2845SOL     OW20170   0.756   1.599   0.541  0.0307  0.2154  0.3692
 2845SOL    HW120171   0.774   1.693   0.537  2.3670 -0.1808  1.4900
 2845SOL    HW220172   0.826   1.571   0.482 -0.3955  1.4972 -0.7554
 2846SOL     OW20173   3.527   3.987   0.980 -0.5365 -0.5816 -0.0782
 2846SOL    HW120174   3.514   3.919   1.045 -0.6351  0.2028  0.7321
 2846SOL    HW220175   3.445   4.035   0.988 -0.8114 -1.0006 -0.4397
 2847SOL     OW20176   2.413   1.739   2.846  0.3235  0.4627 -0.5316
 2847SOL    HW120177   2.430   1.807   2.911 -1.1054  0.0237  0.3036
 2847SOL    HW220178   2.478   1.678   2.881  2.9580  2.9344 -1.0940
 2848SOL     OW20179   3.842   1.137   2.889 -0.2788 -0.4182 -0.5024
 2848SOL    HW120180   3.808   1.177   2.969 -0.4187  1.0925 -1.3168
 2848SOL    HW220181   3.847   1.042   2.903 -1.7946 -0.5495 -0.8691
 2849SOL     OW20182   1.391   0.059   1.188  0.1107 -0.0259 -0.4511
 2849SOL    HW120183   1.356   0.148   1.195  0.7297 -0.0284  2.9400
 2849SOL    HW220184   1.480   0.078   1.219 -0.2066  0.6821  0.0349
 2850SOL     OW20185   2.666   0.089   8.775  0.2284  0.0072 -0.2809
 2850SOL    HW120186   2.705   0.124   8.855 -1.6207  2.7841 -0.5693
 2850SOL    HW220187   2.669   0.161   8.711 -0.5661  0.3562  0.0718
 2851SOL     OW20188   0.961   4.419   5.218 -0.9672  0.1542 -0.8067
 2851SOL    HW120189   0.871   4.397   5.240 -0.6024 -1.3098 -0.8090
 2851SOL    HW220190   0.965   4.358   5.145  1.0134 -0.5283 -0.1496
 2852SOL     OW20191   1.556   1.188   3.049 -0.2796  0.0395 -0.0917
 2852SOL    HW120192   1.569   1.178   3.143 -2.4565  1.0220  0.3301
 2852SOL    HW220193   1.473   1.236   3.049 -0.3498 -0.0950  1.1713
 2853SOL     OW20194   1.553   4.018   8.874 -0.2231  0.0681 -0.0170
 2853SOL    HW120195   1.556   3.922   8.875 -1.4729  0.0558  1.0720
 2853SOL    HW220196   1.645   4.033   8.852  0.4162 -0.5058  2.3365
 2854SOL     OW20197   0.851   1.078   1.486  0.1490 -0.0985 -0.1261
 2854SOL    HW120198   0.940   1.113   1.495  0.3069 -0.8190  1.0428
 2854SOL    HW220199   0.862   1.012   1.418  1.1413  0.7868 -0.8338
 2855SOL     OW20200   4.410   2.045  10.484  0.3633  0.0814 -0.3848
 2855SOL    HW120201   4.377   1.973  10.430 -2.9228 -0.9496  2.9943
 2855SOL    HW220202   4.389   2.116  10.423 -1.8727  1.9266  2.5171
 2856SOL     OW20203   2.955   3.218   3.922 -0.2016  0.4872  0.2181
 2856SOL    HW120204   2.877   3.223   3.976  0.2286  1.7759  0.7201
 2856SOL    HW220205   2.922   3.246   3.837  1.0382  0.4073 -0.2916
 2857SOL     OW20206   0.435   3.953   9.980  0.1552 -0.6183  0.4980
 2857SOL    HW120207   0.447   3.881   9.919  0.9645  0.5663 -0.7397
 2857SOL    HW220208   0.477   3.925  10.061  0.4559 -0.5990  0.3503
 2858SOL     OW20209   4.701   3.520   4.017 -0.8019  0.0473  0.2439
 2858SOL    HW120210   0.055   3.545   4.029 -1.2392  0.8435  1.8960
 2858SOL    HW220211   4.655   3.582   4.073  0.4228  1.1715 -0.0114
 2859SOL     OW20212   1.992   3.070   3.985  0.2744 -0.6208 -0.1722
 2859SOL    HW120213   1.996   3.112   3.899  0.5780 -0.7835 -0.2369
 2859SOL    HW220214   2.038   3.134   4.039  1.2907 -0.8763 -0.7233
 2860SOL     OW20215   2.510   2.857   5.036 -0.1962  0.7965  0.2182
 2860SOL    HW120216   2.447   2.893   4.973 -0.7171 -1.1123 -0.3395
 2860SOL    HW220217   2.493   2.912   5.113  1.0817 -0.8835  1.6947
 2861SOL     OW20218   2.146   2.808  12.056  0.3326 -0.1520 -0.3429
 2861SOL    HW120219   2.092   2.730  12.065  1.4622 -1.2858 -3.3232
 2861SOL    HW220220   2.178   2.802  12.146 -2.1246  1.7442  0.6726
 2862SOL     OW20221   3.600   2.952   8.759 -0.2857 -0.6290  0.5289
 2862SOL    HW120222   3.512   2.963   8.795 -0.7165 -0.7718 -0.4737
 2862SOL    HW220223   3.592   2.973   8.666  1.6290  0.7322  0.6661
 2863SOL     OW20224   3.128   0.438   5.598 -0.1334  0.2975  0.2203
 2863SOL    HW120225   3.158   0.516   5.551  0.4944 -0.2342 -0.2719
 2863SOL    HW220226   3.175   0.449   5.680  1.0897  2.2445 -0.7350
 2864SOL     OW20227   4.422   3.798   8.642  0.3750  0.4641 -0.5107
 2864SOL    HW120228   4.378   3.797   8.727 -2.2477 -0.3543 -1.8505
 2864SOL    HW220229   4.486   3.730   8.662 -2.1136 -1.5531  0.6181
 2865SOL     OW20230   1.618   1.578  14.025 -0.5311  0.0923  0.8525
 2865SOL    HW120231   1.678   1.621  13.964  0.0509 -1.0858  0.5781
 2865SOL    HW220232   1.552   1.549  13.962  1.0166  0.7438 -1.0721
 2866SOL     OW20233   0.380   4.028   5.272 -0.1100  0.3638 -0.7633
 2866SOL    HW120234   0.321   4.022   5.347 -0.1152  0.6450 -0.7442
 2866SOL    HW220235   0.336   3.978   5.203 -1.1824  0.8961 -0.4732
 2867SOL     OW20236   3.059   1.323   2.922 -0.6459  0.0791 -0.4683
 2867SOL    HW120237   3.143   1.302   2.881 -1.0306 -2.8277  0.2210
 2867SOL    HW220238   3.095   1.354   3.005 -1.0106 -0.2915 -0.1734
 2868SOL     OW20239   0.501   3.876  15.183  0.2378 -0.0471  0.0362
 2868SOL    HW120240   0.523   3.960  15.142  3.8359 -0.2982  1.4799
 2868SOL    HW220241   0.420   3.857  15.136 -0.6652 -0.2870  1.6780
 2869SOL     OW20242   4.270   1.867   8.049  0.0345 -0.3013  0.0187
 2869SOL    HW120243   4.285   1.819   7.968  0.5019 -0.1501  0.0150
 2869SOL    HW220244   4.252   1.794   8.109  0.9791 -1.8986 -1.6458
 2870SOL     OW20245   2.370   3.494   4.224  0.6384  0.0821 -0.6750
 2870SOL    HW120246   2.376   3.454   4.137 -0.6201 -0.1902 -0.6331
 2870SOL    HW220247   2.324   3.578   4.217 -0.1296 -0.2203  0.7174
 2871SOL     OW20248   3.286   1.847   7.236  0.1127 -0.4501 -0.0015
 2871SOL    HW120249   3.263   1.940   7.231 -1.5008 -0.8635 -0.2102
 2871SOL    HW220250   3.320   1.843   7.325 -0.0021  0.6185  0.0915
 2872SOL     OW20251   1.578   4.519   2.295 -0.1508  0.3076 -0.3606
 2872SOL    HW120252   1.596   4.580   2.367 -1.6191 -0.1545  0.3994
 2872SOL    HW220253   1.492   4.554   2.272  0.2229  0.6606 -1.2333
 2873SOL     OW20254   4.549   2.370   8.721  0.1310  0.5726  0.0446
 2873SOL    HW120255   4.467   2.404   8.684 -1.0085 -1.5904  0.5868
 2873SOL    HW220256   4.531   2.348   8.813  1.4832 -0.6676  0.0097
 2874SOL     OW20257   2.885   4.191  11.067  0.5661 -0.0806  0.1282
 2874SOL    HW120258   2.932   4.270  11.093 -0.3821  0.2851  0.7059
 2874SOL    HW220259   2.906   4.125  11.134 -1.6574  0.7529  1.6296
 2875SOL     OW20260   0.942   4.261   2.232  0.0056  0.1662 -0.3098
 2875SOL    HW120261   0.909   4.176   2.203  2.8937 -0.7198 -1.0462
 2875SOL    HW220262   0.893   4.319   2.174 -0.4773  0.9047  0.8404
 2876SOL     OW20263   1.126   3.920   6.297 -1.1696 -0.4130  0.0542
 2876SOL    HW120264   1.078   3.883   6.372  1.2979 -1.8272  0.9189
 2876SOL    HW220265   1.188   3.850   6.279 -2.0663 -1.7278  2.0155
 2877SOL     OW20266   0.363   1.766   2.095  0.1901 -0.3948 -0.3122
 2877SOL    HW120267   0.307   1.770   2.018 -0.8280 -0.1544  0.4377
 2877SOL    HW220268   0.441   1.718   2.065  0.9665  0.6568  0.0030
 2878SOL     OW20269   2.192   1.181   5.636  0.1680 -0.0980 -0.1580
 2878SOL    HW120270   2.111   1.222   5.666  1.3339 -1.0520  4.3212
 2878SOL    HW220271   2.250   1.225   5.698 -1.4785 -0.5516  1.7167
 2879SOL     OW20272   0.135   2.552   5.116 -0.2371 -0.0327 -0.4869
 2879SOL    HW120273   0.121   2.498   5.038 -1.0435 -0.5137 -0.0088
 2879SOL    HW220274   0.048   2.590   5.127 -0.5921 -1.5262  1.7119
 2880SOL     OW20275   0.986   0.182  11.560  0.1431 -0.6180  0.3101
 2880SOL    HW120276   0.911   0.237  11.581 -0.2769 -1.5448  1.1980
 2880SOL    HW220277   0.951   0.148  11.478 -0.4798  1.8182 -0.4170
 2881SOL     OW20278   0.591   0.927   4.573 -0.4563 -0.1062 -0.4631
 2881SOL    HW120279   0.623   1.016   4.587 -0.1831 -0.4327  1.0303
 2881SOL    HW220280   0.653   0.890   4.510  0.6006 -0.9454  1.0727
 2882SOL     OW20281   1.839   0.475   7.401 -0.0326 -0.2371  0.0387
 2882SOL    HW120282   1.886   0.393   7.384  0.6070 -0.0574  0.9069
 2882SOL    HW220283   1.912   0.534   7.379  0.7172 -0.7833  1.0413
 2883SOL     OW20284   4.710   4.086   0.352 -0.2676  0.5024 -0.0260
 2883SOL    HW120285   4.627   4.086   0.400 -2.4133 -3.5552 -3.7361
 2883SOL    HW220286   4.711   3.999   0.311  2.0481  0.2770  0.5096
 2884SOL     OW20287   3.858   3.098   3.332 -0.6846  0.4080  0.0468
 2884SOL    HW120288   3.836   3.005   3.343 -1.0672  0.3970 -0.8175
 2884SOL    HW220289   3.771   3.134   3.318 -1.5026 -1.2174  0.8717
 2885SOL     OW20290   1.039   2.952   4.758 -0.9092 -0.4888 -0.3905
 2885SOL    HW120291   1.039   2.979   4.850  0.8008 -0.7514 -0.3035
 2885SOL    HW220292   0.945   2.942   4.748 -1.1394  0.3047  0.8456
 2886SOL     OW20293   1.806   3.917  14.487 -0.0076  0.2016 -0.0623
 2886SOL    HW120294   1.765   3.833  14.510 -1.8400  1.0723 -0.1198
 2886SOL    HW220295   1.761   3.971  14.553  0.7563  1.7209 -0.7932
 2887SOL     OW20296   4.214   3.523   8.738  0.0657 -0.2352 -0.2553
 2887SOL    HW120297   4.225   3.465   8.664  1.8607 -1.4114  0.9379
 2887SOL    HW220298   4.221   3.468   8.816  0.7075 -0.5185 -0.5166
 2888SOL     OW20299   4.450   1.190  12.863  0.2256  0.1053  0.4490
 2888SOL    HW120300   4.360   1.159  12.875  0.7761 -1.9051 -0.6680
 2888SOL    HW220301   4.505   1.117  12.889  1.4208  0.5631 -0.7829
 2889SOL     OW20302   3.428   4.492  15.098 -0.5684 -0.4447 -0.1059
 2889SOL    HW120303   3.469   4.452  15.021 -0.2717 -0.2445 -0.0563
 2889SOL    HW220304   3.341   4.499  15.060 -1.5688  2.0420  2.6064
 2890SOL     OW20305   0.704   1.232  13.474  0.7261 -0.5840  0.3204
 2890SOL    HW120306   0.798   1.250  13.466  0.1084  1.8162 -1.6179
 2890SOL    HW220307   0.685   1.198  13.561  1.0531  2.3155  1.5324
 2891SOL     OW20308   0.195   0.369  12.864  0.2604  0.5775 -0.3347
 2891SOL    HW120309   0.183   0.434  12.933 -0.6139 -0.6483  0.6758
 2891SOL    HW220310   0.274   0.401  12.821 -0.6677  1.6100 -1.2681
 2892SOL     OW20311   0.420   2.567  16.562  0.8636  0.2950 -0.0206
 2892SOL    HW120312   0.426   2.661  16.576  1.1879  0.2566  0.0986
 2892SOL    HW220313   0.475   2.568  16.484  0.7011  0.7034 -0.1260
 2893SOL     OW20314   3.046   3.893   4.514 -0.0173  0.2836  0.2283
 2893SOL    HW120315   3.037   3.849   4.430 -0.6789  0.9670 -0.0604
 2893SOL    HW220316   2.955   3.896   4.542  0.0655  1.2771  0.3772
 2894SOL     OW20317   2.172   1.180   7.063 -0.2584 -0.0033  0.3239
 2894SOL    HW120318   2.210   1.256   7.108  0.1099 -0.7191  1.2072
 2894SOL    HW220319   2.252   1.128   7.069  0.2845  0.7266 -0.4624
 2895SOL     OW20320   3.915   2.557   8.527  0.2084  0.4892 -0.2200
 2895SOL    HW120321   3.973   2.588   8.596  0.4346  2.0901 -1.1359
 2895SOL    HW220322   3.838   2.610   8.551 -1.4400 -1.2910 -1.5444
 2896SOL     OW20323   2.759   0.983   4.684  0.1897 -0.4853 -0.3164
 2896SOL    HW120324   2.698   1.057   4.675  1.9803  1.1277  0.6943
 2896SOL    HW220325   2.770   0.993   4.779 -0.8913 -0.0600 -0.2382
 2897SOL     OW20326   3.971   0.277   9.061 -0.5124 -0.5166  0.1792
 2897SOL    HW120327   4.039   0.243   9.119  0.6448  0.1445 -0.7848
 2897SOL    HW220328   3.960   0.211   8.993 -0.1969  0.1973 -0.5618
 2898SOL     OW20329   1.932   3.076   5.390 -0.1414 -0.1089  0.0914
 2898SOL    HW120330   1.873   3.067   5.315 -0.4405  0.6036  0.2344
 2898SOL    HW220331   1.924   3.170   5.409  0.3127  0.2157 -1.3521
 2899SOL     OW20332   1.248   3.353   7.652  0.3554  0.5384  0.0607
 2899SOL    HW120333   1.210   3.360   7.740 -0.2657  0.0970 -0.1731
 2899SOL    HW220334   1.326   3.304   7.680 -0.3194  0.0969  1.1778
 2900SOL     OW20335   0.118   2.964   2.999 -1.0705 -0.2528  0.4618
 2900SOL    HW120336   0.078   2.977   2.913  0.1711  0.7300  0.0403
 2900SOL    HW220337   0.171   2.887   2.979 -0.4931  0.2547  0.0462
 2901SOL     OW20338   3.580   1.579   5.151  0.1035  0.1587 -0.3901
 2901SOL    HW120339   3.491   1.604   5.173  0.9909  3.7976 -0.8788
 2901SOL    HW220340   3.630   1.636   5.209 -2.0491  1.5403  0.1152
 2902SOL     OW20341   4.399   2.894   5.144 -0.3492 -0.0597 -0.3688
 2902SOL    HW120342   4.353   2.811   5.153 -1.7900  0.8140  0.5096
 2902SOL    HW220343   4.347   2.958   5.194 -2.5748 -3.2887  1.4397
 2903SOL     OW20344   3.669   3.894   4.724 -0.2657 -0.7885 -0.2049
 2903SOL    HW120345   3.630   3.862   4.804  1.2922 -3.2534 -0.4273
 2903SOL    HW220346   3.588   3.883   4.674 -0.5554 -0.5889  0.2214
 2904SOL     OW20347   0.666   3.858   2.879  0.0827 -0.2816  0.0007
 2904SOL    HW120348   0.596   3.913   2.912  1.8938  0.7269  2.1605
 2904SOL    HW220349   0.644   3.788   2.941 -1.3576  0.7886  0.6954
 2905SOL     OW20350   2.781   2.852  12.749 -0.4444 -0.1967 -0.1685
 2905SOL    HW120351   2.793   2.885  12.660  1.7404 -1.7754 -0.4544
 2905SOL    HW220352   2.872   2.852  12.781 -0.3683  0.6749 -0.3794
 2906SOL     OW20353   0.952   2.446  14.422  0.6678 -0.3502 -0.5569
 2906SOL    HW120354   0.975   2.475  14.510  0.1443  1.1525 -0.9106
 2906SOL    HW220355   0.873   2.499  14.410 -1.1131 -3.0765 -0.7704
 2907SOL     OW20356   3.150   4.599   3.851  0.9959 -0.1722  0.2691
 2907SOL    HW120357   3.176   4.661   3.920 -0.4630 -0.0394  0.7095
 2907SOL    HW220358   3.215   4.530   3.866  2.5193  1.1686 -0.1906
 2908SOL     OW20359   4.625   2.471  17.575  0.6212  0.1558 -0.0923
 2908SOL    HW120360   4.674   2.486  17.656 -0.9898  0.8065  0.7481
 2908SOL    HW220361   4.683   2.399  17.552  1.1072  0.8537 -1.0676
 2909SOL     OW20362   1.498   1.808   1.474 -0.0244 -0.4319  0.3566
 2909SOL    HW120363   1.457   1.738   1.424  0.0966  0.3121 -0.7718
 2909SOL    HW220364   1.470   1.789   1.564  0.7062  0.0962  0.7003
 2910SOL     OW20365   1.484   2.486   6.871  0.0676  0.1455 -0.2771
 2910SOL    HW120366   1.391   2.499   6.853  0.1780  0.3086 -0.7199
 2910SOL    HW220367   1.506   2.571   6.908  2.3481 -0.2248 -0.8328
 2911SOL     OW20368   3.659   0.212   3.535  0.6361 -0.4702 -0.4347
 2911SOL    HW120369   3.699   0.263   3.605 -1.4217 -0.3475  0.6602
 2911SOL    HW220370   3.691   0.125   3.558  0.8649  0.3262  2.1611
 2912SOL     OW20371   2.864   0.797   3.795 -0.5201  0.0942  0.4539
 2912SOL    HW120372   2.927   0.756   3.735  0.2632  0.5925  0.9317
 2912SOL    HW220373   2.792   0.735   3.781 -1.2989  0.9378  0.7640
 2913SOL     OW20374   1.223   4.634   7.512 -0.3149  0.1950  0.1280
 2913SOL    HW120375   1.260   4.652   7.599  0.4798 -0.2042 -0.1255
 2913SOL    HW220376   1.233   4.539   7.511  0.3916  0.2592  0.9259
 2914SOL     OW20377   4.156   4.057  12.922  0.4282  0.6159 -0.2051
 2914SOL    HW120378   4.093   4.101  12.865 -1.7961 -2.2667  0.0533
 2914SOL    HW220379   4.094   3.989  12.947  1.8577 -0.1679  1.1920
 2915SOL     OW20380   2.317   0.548   2.697  0.4413  0.0332  0.3280
 2915SOL    HW120381   2.273   0.547   2.782 -0.7268 -0.9032 -0.2716
 2915SOL    HW220382   2.246   0.576   2.639 -2.0307 -1.5468  2.5488
 2916SOL     OW20383   4.243   0.649   4.542 -0.1642  0.3063 -0.5669
 2916SOL    HW120384   4.267   0.694   4.623 -1.5217  1.6581 -0.9184
 2916SOL    HW220385   4.325   0.658   4.492  0.2544  0.1037  0.0778
 2917SOL     OW20386   3.574   0.883   2.745  0.0455  0.1559 -0.5518
 2917SOL    HW120387   3.513   0.902   2.816  0.4696 -2.4119  0.5027
 2917SOL    HW220388   3.648   0.866   2.802 -1.9339 -0.5217  1.8273
 2918SOL     OW20389   2.405   0.881   3.094  0.6503 -0.3501  0.5186
 2918SOL    HW120390   2.323   0.862   3.139  1.6825 -0.0180  2.5126
 2918SOL    HW220391   2.466   0.876   3.168  1.1299 -2.1321  0.0126
 2919SOL     OW20392   3.800   1.634   1.403 -0.1612 -0.1721  1.0469
 2919SOL    HW120393   3.793   1.639   1.499 -1.0107 -1.2261  1.0414
 2919SOL    HW220394   3.866   1.702   1.387 -0.7315 -0.0053 -0.5435
 2920SOL     OW20395   1.311   3.137   1.985 -0.2202 -0.0457  0.2338
 2920SOL    HW120396   1.248   3.091   2.040 -1.5138  1.4878  0.0476
 2920SOL    HW220397   1.272   3.143   1.898 -0.7196 -0.1728  0.4539
 2921SOL     OW20398   2.861   1.165   4.062 -0.1071  0.2731  0.2937
 2921SOL    HW120399   2.869   1.187   4.154  0.5065 -1.3812  0.6525
 2921SOL    HW220400   2.871   1.069   4.064 -0.0939  0.2705  0.1325
 2922SOL     OW20401   2.207   0.150   4.856 -0.0274 -0.4148  0.3412
 2922SOL    HW120402   2.140   0.194   4.907  0.6073  0.2800  0.5720
 2922SOL    HW220403   2.246   0.224   4.809 -1.7370  0.1890 -0.1324
 2923SOL     OW20404   4.513   1.834   2.133 -0.0132 -0.2696  0.2978
 2923SOL    HW120405   4.492   1.746   2.099 -0.8107  0.8133 -1.9947
 2923SOL    HW220406   4.452   1.887   2.082  1.7086 -0.6951 -2.2054
 2924SOL     OW20407   0.184   1.440   1.068 -0.5310  0.0574  0.3162
 2924SOL    HW120408   0.140   1.487   1.138  1.1225  0.1989  1.2385
 2924SOL    HW220409   0.128   1.443   0.990 -3.4368 -1.2494  2.3491
 2925SOL     OW20410   2.851   1.421   6.907 -0.1043  0.1204  0.1790
 2925SOL    HW120411   2.933   1.461   6.879 -1.2850  2.2579 -0.1770
 2925SOL    HW220412   2.843   1.338   6.860  2.4339  0.2413 -0.4869
 2926SOL     OW20413   4.692   0.166  13.759 -0.4754  0.6844 -0.4714
 2926SOL    HW120414   4.601   0.177  13.785 -0.7856 -0.2985 -1.1217
 2926SOL    HW220415   4.677   0.077  13.729 -1.5558  0.4056  0.8839
 2927SOL     OW20416   0.065   0.922   7.338 -0.6333  0.1917  0.9375
 2927SOL    HW120417   0.024   0.975   7.269  0.5368 -0.9241 -0.6243
 2927SOL    HW220418   0.032   0.834   7.316  2.7225 -0.8269 -0.0450
 2928SOL     OW20419   0.259   3.617   8.786 -0.9424  0.2352  0.0066
 2928SOL    HW120420   0.191   3.551   8.798 -0.5575  0.0594  1.1919
 2928SOL    HW220421   0.239   3.678   8.856  1.5369  1.6976 -0.5685
 2929SOL     OW20422   4.358   2.557   4.948 -0.2158 -0.0607  0.0153
 2929SOL    HW120423   4.319   2.477   4.915 -2.4371 -0.7941  4.4176
 2929SOL    HW220424   4.452   2.549   4.932  0.0639 -0.2401  1.7424
 2930SOL     OW20425   1.831   0.885  10.520 -0.6348 -0.7543  0.0487
 2930SOL    HW120426   1.852   0.908  10.610 -2.1633 -2.7459  0.9307
 2930SOL    HW220427   1.753   0.832  10.538 -1.0004 -0.0024  0.6732
 2931SOL     OW20428   3.325   1.886  15.829 -0.0244 -0.4066 -0.4877
 2931SOL    HW120429   3.389   1.875  15.758 -0.0491 -0.4659 -0.5000
 2931SOL    HW220430   3.257   1.825  15.801 -3.5963  3.0881  0.5934
 2932SOL     OW20431   3.828   4.710   7.713 -0.2496  0.0410  0.4177
 2932SOL    HW120432   3.907   4.658   7.699  1.4279  2.7455  0.0087
 2932SOL    HW220433   3.764   4.638   7.712  0.2572 -0.4383  2.1862
 2933SOL     OW20434   1.165   2.811  14.205  0.1560 -0.0584  0.3481
 2933SOL    HW120435   1.216   2.731  14.218  0.0019 -0.2870 -0.5116
 2933SOL    HW220436   1.089   2.798  14.262  1.3631 -1.0269  1.7383
 2934SOL     OW20437   3.939   1.202   0.307 -0.0180 -0.1151 -0.4152
 2934SOL    HW120438   3.862   1.188   0.363  0.7898 -1.4370  0.3502
 2934SOL    HW220439   4.010   1.161   0.356  0.5163 -0.4419 -1.4701
 2935SOL     OW20440   1.719   2.971   7.078 -0.1049 -0.4190 -0.0837
 2935SOL    HW120441   1.632   3.008   7.095  0.6925  1.4797 -0.1282
 2935SOL    HW220442   1.773   3.003   7.150 -0.9265  0.1386  0.2837
 2936SOL     OW20443   0.191   2.099   8.452  0.4377 -0.3934 -0.1945
 2936SOL    HW120444   0.160   2.146   8.529 -1.7970 -0.2101 -1.1886
 2936SOL    HW220445   0.197   2.174   8.392  2.0760 -1.4073 -1.3067
 2937SOL     OW20446   2.301   2.472   0.437 -0.3370 -0.6500 -0.2531
 2937SOL    HW120447   2.302   2.524   0.356  1.3763  1.3392  1.0335
 2937SOL    HW220448   2.301   2.381   0.409  1.5908 -0.7921  0.2271
 2938SOL     OW20449   2.365   1.557   7.512  0.1960 -0.5423  0.3172
 2938SOL    HW120450   2.404   1.471   7.525  1.0317  0.0249  1.5937
 2938SOL    HW220451   2.350   1.578   7.604 -0.7905 -0.3169  0.0976
 2939SOL     OW20452   4.477   2.664   6.039  0.1542 -0.1679  0.2597
 2939SOL    HW120453   4.490   2.669   6.134  0.4834 -0.3532  0.2267
 2939SOL    HW220454   4.547   2.724   6.014  0.9341 -1.0021  0.4037
 2940SOL     OW20455   2.751   2.535   2.838  0.4952 -0.2929  0.5624
 2940SOL    HW120456   2.723   2.447   2.865  0.1178 -0.2632  0.2693
 2940SOL    HW220457   2.791   2.516   2.753 -0.1331 -1.6043  0.5437
 2941SOL     OW20458   2.639   1.093   5.448  0.0431 -0.2923 -0.0234
 2941SOL    HW120459   2.627   1.056   5.361 -0.6438 -0.3767  0.1089
 2941SOL    HW220460   2.701   1.162   5.424  0.8868 -0.7769  0.7746
 2942SOL     OW20461   4.232   3.677   7.863  0.3429 -0.2317 -0.0994
 2942SOL    HW120462   4.213   3.614   7.793 -1.0740  1.1504 -0.9803
 2942SOL    HW220463   4.287   3.619   7.915 -1.5413 -1.6292  0.3538
 2943SOL     OW20464   0.382   3.735   1.585  0.3474  0.0207  0.0525
 2943SOL    HW120465   0.287   3.732   1.574  0.2824 -0.2679  0.6654
 2943SOL    HW220466   0.399   3.708   1.675  0.4350  2.9649  0.9279
 2944SOL     OW20467   0.031   3.191   3.569 -0.7718 -0.0495 -0.1305
 2944SOL    HW120468   0.083   3.255   3.619 -1.5735  0.2734  0.2818
 2944SOL    HW220469   0.061   3.114   3.618 -1.2484  1.4118  2.4731
 2945SOL     OW20470   0.692   4.609   5.230  0.9983  0.0205 -0.6008
 2945SOL    HW120471   0.700   4.603   5.325 -1.4115 -1.8822 -0.5202
 2945SOL    HW220472   0.694   4.516   5.207 -0.7804  0.0524 -0.8710
 2946SOL     OW20473   2.473   0.478   2.070 -0.0893 -0.1422 -0.0838
 2946SOL    HW120474   2.405   0.527   2.116  0.5537  1.1439 -0.5003
 2946SOL    HW220475   2.532   0.448   2.140 -0.5165  0.9989  0.7473
 2947SOL     OW20476   0.473   2.030  12.230 -0.1060 -0.1302 -0.2441
 2947SOL    HW120477   0.448   2.120  12.251  2.1428  0.3805  0.2066
 2947SOL    HW220478   0.532   2.004  12.300 -2.5443 -1.2418  1.4245
 2948SOL     OW20479   2.524   3.560   3.812 -0.0706 -0.2067  0.0164
 2948SOL    HW120480   2.442   3.610   3.816 -0.7566 -1.4426  1.1629
 2948SOL    HW220481   2.560   3.588   3.728 -0.1073 -3.5848 -1.1371
 2949SOL     OW20482   1.730   4.734   5.382  0.0011  0.6551  0.5045
 2949SOL    HW120483   1.739   4.684   5.463 -0.9060  0.3284  0.3931
 2949SOL    HW220484   1.690   0.078   5.412 -1.5914 -0.5527  1.6698
 2950SOL     OW20485   2.757   4.118   8.798 -0.2200 -0.0254 -0.4600
 2950SOL    HW120486   2.743   4.174   8.722  1.4212  1.2277  0.1709
 2950SOL    HW220487   2.703   4.160   8.865  0.7731 -1.0563  0.9997
 2951SOL     OW20488   2.350   1.884   7.363  0.4430 -0.0959  0.0009
 2951SOL    HW120489   2.317   1.796   7.348  1.1580  0.0841 -2.5143
 2951SOL    HW220490   2.277   1.926   7.411 -0.1774  0.1496 -1.1595
 2952SOL     OW20491   4.407   4.010   6.583  0.0296 -0.0246  0.2840
 2952SOL    HW120492   4.405   3.948   6.656  0.1252 -0.0821  0.2378
 2952SOL    HW220493   4.313   4.022   6.566  0.0461  0.7104  0.7061
 2953SOL     OW20494   2.525   3.757  17.248 -0.0541 -0.5356 -0.1947
 2953SOL    HW120495   2.486   3.805  17.175  0.5739  1.3498  0.7174
 2953SOL    HW220496   2.508   3.668  17.217  0.8839 -1.5352  2.1135
 2954SOL     OW20497   0.099   4.332  16.780 -0.4280 -0.3220  0.6778
 2954SOL    HW120498   0.009   4.362  16.768  0.3513  1.4130 -0.8435
 2954SOL    HW220499   0.078   4.256  16.834 -0.4726 -0.0490  1.0466
 2955SOL     OW20500   1.946   0.101   5.248  0.9380 -0.2255 -0.4212
 2955SOL    HW120501   1.914   0.189   5.262 -0.9391 -0.2172 -4.5761
 2955SOL    HW220502   1.880   0.046   5.291 -0.1694  1.8670  0.5164
 2956SOL     OW20503   0.705   2.074   3.950  0.2211 -0.1518 -0.1136
 2956SOL    HW120504   0.723   2.044   4.039  0.3681  0.6294  0.1150
 2956SOL    HW220505   0.702   1.990   3.904  0.5895  0.3590 -1.0691
 2957SOL     OW20506   3.932   4.427   5.606  0.5809  0.1435  0.1660
 2957SOL    HW120507   3.869   4.396   5.541  0.1873 -0.5496  0.8799
 2957SOL    HW220508   3.906   4.368   5.677  0.2286  0.4264  0.2762
 2958SOL     OW20509   0.600   3.230  11.759 -0.4131 -0.2889  0.1397
 2958SOL    HW120510   0.536   3.270  11.699  2.2297  1.5808 -1.4033
 2958SOL    HW220511   0.682   3.273  11.737 -1.4121  0.9979 -1.0862
 2959SOL     OW20512   2.204   1.178  12.170  0.1314 -0.1652  0.0651
 2959SOL    HW120513   2.129   1.125  12.196  0.3652 -0.8540 -0.6797
 2959SOL    HW220514   2.267   1.149  12.236 -1.1075 -0.9295  0.9150
 2960SOL     OW20515   0.109   2.465   8.096  0.1339  0.2095 -0.2252
 2960SOL    HW120516   0.071   2.544   8.135 -3.9427 -0.7776 -2.1618
 2960SOL    HW220517   0.040   2.433   8.038 -0.7577  0.0045  0.9420
 2961SOL     OW20518   3.457   3.547  16.844 -0.3276  0.0817 -0.3563
 2961SOL    HW120519   3.394   3.616  16.823  0.0418  0.3848 -0.4766
 2961SOL    HW220520   3.538   3.596  16.828 -1.4477  1.1822 -2.6740
 2962SOL     OW20521   0.499   4.650   7.277  0.3156  0.0582 -0.4782
 2962SOL    HW120522   0.501   4.577   7.215  0.5516 -0.8021  0.5425
 2962SOL    HW220523   0.591   4.649   7.304  0.5589 -0.6596 -1.3460
 2963SOL     OW20524   4.436   0.858   7.305 -0.3738  0.0403 -0.0133
 2963SOL    HW120525   4.446   0.865   7.210 -0.7448  0.0837 -0.0481
 2963SOL    HW220526   4.415   0.765   7.308  0.7144 -0.1605  1.1683
 2964SOL     OW20527   0.596   4.246   6.493  0.0199  0.5444  0.3481
 2964SOL    HW120528   0.684   4.278   6.473  0.5805 -1.2636 -0.0536
 2964SOL    HW220529   0.614   4.177   6.557 -0.9964 -0.7304 -0.7549
 2965SOL     OW20530   3.163   4.081   2.293 -0.5911  0.3027 -0.1877
 2965SOL    HW120531   3.198   3.995   2.270  0.7282  0.6195  0.6186
 2965SOL    HW220532   3.184   4.132   2.214  0.6091  3.3576  2.0951
 2966SOL     OW20533   1.501   0.579  15.477  0.5651  0.1139  0.2897
 2966SOL    HW120534   1.476   0.666  15.508 -1.6011 -0.8577  1.3186
 2966SOL    HW220535   1.596   0.588  15.470  0.4835 -0.0671 -1.1355
 2967SOL     OW20536   4.070   1.284  14.420 -0.2666 -0.5626 -0.1311
 2967SOL    HW120537   4.151   1.268  14.372 -1.0109 -1.3003 -1.1312
 2967SOL    HW220538   4.034   1.344  14.354 -0.4101 -0.4271  0.0716
 2968SOL     OW20539   4.433   2.699   2.651  0.4112 -0.1550  0.3801
 2968SOL    HW120540   4.503   2.687   2.587 -0.0528  3.4170 -0.7841
 2968SOL    HW220541   4.457   2.634   2.717  1.8958  1.0850  1.0627
 2969SOL     OW20542   0.646   3.691   6.862 -0.1498  0.0538 -0.2362
 2969SOL    HW120543   0.569   3.747   6.855 -0.0355 -0.0396 -2.1182
 2969SOL    HW220544   0.609   3.603   6.863 -1.5793  0.6837  2.9726
 2970SOL     OW20545   2.714   1.523  14.276  0.0149 -0.3236  0.4374
 2970SOL    HW120546   2.793   1.530  14.329 -0.4689 -1.7682  1.3669
 2970SOL    HW220547   2.685   1.435  14.302 -1.4660 -0.5009 -1.8060
 2971SOL     OW20548   2.458   2.603   4.074 -0.0979  0.1484  0.4547
 2971SOL    HW120549   2.411   2.666   4.129  0.5504 -0.7581  2.0263
 2971SOL    HW220550   2.552   2.622   4.083 -0.2123  1.0896 -0.2451
 2972SOL     OW20551   0.535   0.644  13.876  0.5388 -0.3756  0.0194
 2972SOL    HW120552   0.504   0.735  13.875  1.6530  0.0387  1.6076
 2972SOL    HW220553   0.487   0.590  13.814 -1.4079  0.9177  0.4141
 2973SOL     OW20554   0.879   1.977   4.937 -0.6099 -0.7778  0.3837
 2973SOL    HW120555   0.957   1.927   4.915 -0.5837 -0.2486 -0.7209
 2973SOL    HW220556   0.815   1.906   4.930 -1.3180 -0.2319  1.2417
 2974SOL     OW20557   4.655   0.354  12.753  0.4568  0.3992 -0.1110
 2974SOL    HW120558   0.013   0.361  12.748  0.2556  1.6958 -2.0725
 2974SOL    HW220559   4.623   0.439  12.725  1.0461 -0.5491 -3.6511
 2975SOL     OW20560   3.456   0.628   2.448 -0.9374 -0.1794  0.0145
 2975SOL    HW120561   3.518   0.700   2.465 -1.0599  0.0896 -0.6847
 2975SOL    HW220562   3.435   0.605   2.539 -1.1324 -0.2932 -0.0599
 2976SOL     OW20563   2.481   3.064  10.552  0.5147  0.2316 -0.0279
 2976SOL    HW120564   2.539   3.123  10.503  0.4661 -0.2404 -0.6610
 2976SOL    HW220565   2.470   2.997  10.484 -0.3147  2.4901 -2.1089
 2977SOL     OW20566   1.183   2.686   4.475  0.4405 -0.3119  0.4904
 2977SOL    HW120567   1.274   2.658   4.489  1.5126  2.4560 -1.0362
 2977SOL    HW220568   1.152   2.704   4.564 -0.0867 -0.9718  0.4401
 2978SOL     OW20569   2.868   4.250  14.836  0.3751  0.7581 -0.1997
 2978SOL    HW120570   2.905   4.270  14.750  1.1323 -1.9158 -0.4936
 2978SOL    HW220571   2.889   4.157  14.841  1.5098  1.0090 -0.1620
 2979SOL     OW20572   2.434   4.007  12.076 -0.2146 -0.2041  0.5846
 2979SOL    HW120573   2.519   4.022  12.119 -0.6870  0.5314  1.2552
 2979SOL    HW220574   2.387   3.948  12.134  1.3041 -0.0260  2.0177
 2980SOL     OW20575   0.283   3.839   8.027  0.6484  0.6559  0.3247
 2980SOL    HW120576   0.208   3.795   7.987 -0.5041  1.4507  1.6064
 2980SOL    HW220577   0.327   3.863   7.945  1.7379 -0.2538  0.6483
 2981SOL     OW20578   1.822   4.001   8.828  0.6499 -0.4965  0.3438
 2981SOL    HW120579   1.836   3.907   8.820  1.4229 -0.4234  0.7372
 2981SOL    HW220580   1.875   4.017   8.907  0.7397  3.5250 -0.5290
 2982SOL     OW20581   4.212   4.594   8.770  0.3710  0.2126  0.0835
 2982SOL    HW120582   4.222   4.669   8.711 -2.6879  1.3363  0.9800
 2982SOL    HW220583   4.183   4.639   8.849  1.1345  1.0887 -0.1369
 2983SOL     OW20584   1.440   4.405  17.310 -0.3887 -0.1425 -0.0156
 2983SOL    HW120585   1.508   4.402  17.378 -0.8070  0.7946  0.4423
 2983SOL    HW220586   1.399   4.320  17.324  1.4661 -0.9450  0.5033
 2984SOL     OW20587   1.098   0.679   4.535 -0.4403  0.2784  0.2751
 2984SOL    HW120588   1.153   0.623   4.590  2.2696  0.8653 -1.8536
 2984SOL    HW220589   1.154   0.673   4.458  0.4103  0.1096  0.9123
 2985SOL     OW20590   3.270   3.828  11.553 -0.0386 -0.2270 -0.1092
 2985SOL    HW120591   3.238   3.782  11.631  2.1329  1.0273  1.5170
 2985SOL    HW220592   3.212   3.903  11.541  1.1307  0.7542  0.3825
 2986SOL     OW20593   0.195   1.923   4.807 -0.1034  0.0873  0.0925
 2986SOL    HW120594   0.241   1.957   4.884  1.3286  0.6837 -1.0213
 2986SOL    HW220595   0.119   1.978   4.824  0.0801  0.7205 -1.1170
 2987SOL     OW20596   2.482   0.815  17.580  0.7100  0.2375  0.7572
 2987SOL    HW120597   2.390   0.803  17.559  0.5728 -4.2147  3.7461
 2987SOL    HW220598   2.483   0.907  17.604 -4.3865  0.0988  1.4409
 2988SOL     OW20599   0.927   1.868   8.062  0.0557  0.0400  0.5715
 2988SOL    HW120600   1.003   1.926   8.068  0.5339 -0.4447 -0.8710
 2988SOL    HW220601   0.963   1.794   8.110 -0.0008  0.6571  1.5641
 2989SOL     OW20602   0.559   1.933   6.244  0.5028 -0.7610 -0.1884
 2989SOL    HW120603   0.522   1.849   6.218 -0.0295 -0.0937 -1.6138
 2989SOL    HW220604   0.584   1.968   6.159  0.5993  1.9522  0.9536
 2990SOL     OW20605   2.876   4.688  16.795  0.4833  0.0431  0.0229
 2990SOL    HW120606   2.916   4.622  16.738  0.6018 -1.4829  1.8837
 2990SOL    HW220607   2.801   4.709  16.740  1.6338 -1.5993 -2.1909
 2991SOL     OW20608   0.292   0.981  13.519  0.0337  0.6042  0.5660
 2991SOL    HW120609   0.252   0.908  13.472 -0.9955  2.3405 -1.2570
 2991SOL    HW220610   0.214   1.033  13.541  0.7950  1.2711  1.7287
 2992SOL     OW20611   1.246   3.699   6.657  0.5443 -0.1818  0.0380
 2992SOL    HW120612   1.163   3.719   6.614 -0.0591 -1.0753  0.7959
 2992SOL    HW220613   1.212   3.644   6.728 -0.5315 -1.8386 -1.7678
 2993SOL     OW20614   0.524   0.840   6.105  0.3553  0.3490 -0.5722
 2993SOL    HW120615   0.525   0.887   6.189 -0.3993 -0.5149 -0.0682
 2993SOL    HW220616   0.494   0.911   6.047 -1.3912  1.4941  1.6805
 2994SOL     OW20617   1.278   0.537   7.474  0.4710  0.0185  0.0300
 2994SOL    HW120618   1.286   0.511   7.566  0.5827 -2.8464 -0.7620
 2994SOL    HW220619   1.363   0.509   7.439  0.7794  0.3346  0.5358
 2995SOL     OW20620   1.350   1.921   2.055 -0.4425 -0.4587 -0.1524
 2995SOL    HW120621   1.349   1.881   2.142  0.1126 -3.9538 -1.7374
 2995SOL    HW220622   1.371   1.849   1.995  0.0446 -1.2472  0.9709
 2996SOL     OW20623   3.468   2.838   7.017  0.1184 -0.4177  0.0052
 2996SOL    HW120624   3.447   2.903   7.084  2.7029 -0.1367  0.5292
 2996SOL    HW220625   3.452   2.749   7.047 -0.2350 -0.0566  0.8722
 2997SOL     OW20626   2.767   1.674   2.446  0.0951 -0.1639 -0.2778
 2997SOL    HW120627   2.813   1.590   2.443  0.5009  0.1408 -2.6078
 2997SOL    HW220628   2.711   1.671   2.523  0.3155  2.3946 -0.0133
 2998SOL     OW20629   3.349   4.628   5.775  0.3734 -0.5565 -1.0368
 2998SOL    HW120630   3.374   4.654   5.686 -1.4973  0.3217 -1.2976
 2998SOL    HW220631   3.382   4.538   5.769  1.8118  0.0410 -2.2162
 2999SOL     OW20632   4.591   2.303   5.574 -0.3947 -0.1350 -0.1249
 2999SOL    HW120633   4.507   2.333   5.608  0.0147  1.9331 -0.9571
 2999SOL    HW220634   4.565   2.255   5.495 -1.4902 -1.2573  0.9234
 3000SOL     OW20635   2.751   0.266  14.934  0.0106  0.3419  0.2432
 3000SOL    HW120636   2.723   0.343  14.984  2.4835  2.5179 -1.7421
 3000SOL    HW220637   2.753   0.300  14.844  1.0216  1.3941  0.6611
 3001SOL     OW20638   1.971   4.105  10.517  0.1057  0.1340 -0.1637
 3001SOL    HW120639   1.954   4.012  10.530 -0.9256  0.3998  0.4031
 3001SOL    HW220640   2.061   4.091  10.487 -0.4239 -1.6197 -0.9727
 3002SOL     OW20641   4.395   3.537   6.370 -0.3264  0.2924  0.1299
 3002SOL    HW120642   4.422   3.626   6.391 -1.7891  0.7315  0.1316
 3002SOL    HW220643   4.301   3.543   6.381 -0.4115 -1.5197  0.4264
 3003SOL     OW20644   3.566   1.654   3.811 -0.1479  0.1807  0.1677
 3003SOL    HW120645   3.550   1.563   3.787  0.6700 -0.4655  2.0973
 3003SOL    HW220646   3.651   1.641   3.852  0.1098 -0.7970 -0.6775
 3004SOL     OW20647   1.558   2.082  16.502 -0.0568  0.0956  0.3674
 3004SOL    HW120648   1.482   2.093  16.445  0.4045 -0.3456 -0.3377
 3004SOL    HW220649   1.577   2.173  16.523  0.6031 -0.1802  0.9545
 3005SOL     OW20650   1.716   2.909   6.160  0.0261 -0.3925  0.3182
 3005SOL    HW120651   1.781   2.978   6.155  0.7121 -1.0607  0.0082
 3005SOL    HW220652   1.657   2.932   6.088 -0.8551 -1.3170  0.7449
 3006SOL     OW20653   2.028   3.005   6.851  0.4817  0.1388  0.4817
 3006SOL    HW120654   2.066   2.918   6.855 -1.1098 -0.5120  1.4624
 3006SOL    HW220655   2.093   3.046   6.794 -0.3690  0.6201 -0.1461
 3007SOL     OW20656   1.293   0.365   6.179  0.0707 -0.6324  0.3782
 3007SOL    HW120657   1.211   0.336   6.140 -0.1846 -2.1485  2.0566
 3007SOL    HW220658   1.331   0.414   6.105 -0.4486 -1.5962 -0.5283
 3008SOL     OW20659   1.890   1.800   7.855 -0.1917  0.0615 -0.2794
 3008SOL    HW120660   1.798   1.787   7.832 -0.3448  4.1138 -1.9139
 3008SOL    HW220661   1.930   1.820   7.771  0.6247 -0.5303 -0.0352
 3009SOL     OW20662   1.469   0.897  12.308  0.0403 -0.2747 -0.1791
 3009SOL    HW120663   1.457   0.975  12.254  1.1237 -0.9990 -1.4832
 3009SOL    HW220664   1.381   0.884  12.343 -0.4705 -2.0211 -2.0973
 3010SOL     OW20665   3.134   3.500   5.812 -0.4692 -0.3836 -0.4886
 3010SOL    HW120666   3.066   3.560   5.842  0.6655  0.7462 -0.1745
 3010SOL    HW220667   3.119   3.517   5.719  0.2383 -0.3527 -0.6013
 3011SOL     OW20668   4.069   3.777   2.905  0.1545 -0.2173  0.1080
 3011SOL    HW120669   4.077   3.730   2.987 -2.6353  0.4769  0.7589
 3011SOL    HW220670   4.009   3.721   2.856  0.0758  0.5936 -0.7457
 3012SOL     OW20671   4.367   1.785  15.337 -0.1156  0.2730  0.0223
 3012SOL    HW120672   4.450   1.796  15.383  0.1203 -1.3331 -0.0266
 3012SOL    HW220673   4.396   1.818  15.252 -2.3320 -0.2930 -0.9522
 3013SOL     OW20674   3.613   2.129   6.286 -0.0861  0.2800  0.0559
 3013SOL    HW120675   3.598   2.210   6.335 -0.6138  0.0279  0.3095
 3013SOL    HW220676   3.527   2.116   6.247 -0.2898  0.4618  0.4458
 3014SOL     OW20677   2.849   0.933   5.923 -0.4311  0.3647  0.4370
 3014SOL    HW120678   2.819   1.010   5.971 -4.1712  0.2372 -1.6415
 3014SOL    HW220679   2.823   0.859   5.979  1.0572  0.5941  1.4261
 3015SOL     OW20680   0.048   1.994  15.492 -0.0174  0.2075 -0.5512
 3015SOL    HW120681   0.002   2.039  15.563  3.5420  2.3260  0.3797
 3015SOL    HW220682   0.128   1.959  15.531 -0.9576 -0.1206  1.0559
 3016SOL     OW20683   3.319   2.413   3.823 -0.0251 -0.1190  0.1992
 3016SOL    HW120684   3.293   2.382   3.909 -0.4371  0.2630  0.2180
 3016SOL    HW220685   3.414   2.414   3.834  0.1760  1.7026 -1.5316
 3017SOL     OW20686   4.584   1.983   6.270 -0.0687  0.3710  0.5947
 3017SOL    HW120687   4.643   2.002   6.197  0.0804 -1.2081  0.3092
 3017SOL    HW220688   4.581   2.062   6.325  3.1658  1.3738 -0.6638
 3018SOL     OW20689   4.687   4.360   1.631 -0.0582 -0.3306 -0.0904
 3018SOL    HW120690   4.641   4.372   1.714 -1.2206 -0.1566 -0.7650
 3018SOL    HW220691   0.022   4.309   1.667  0.7138  1.1371  0.3881
 3019SOL     OW20692   1.442   2.599   4.510  0.0247  0.0214 -0.1465
 3019SOL    HW120693   1.474   2.525   4.561  0.9673  1.5660  1.5300
 3019SOL    HW220694   1.453   2.572   4.419  1.8690 -0.2269  0.1530
 3020SOL     OW20695   2.337   3.705  13.712 -0.0663  0.2482  0.1925
 3020SOL    HW120696   2.378   3.784  13.745  0.2027  0.2752 -0.2107
 3020SOL    HW220697   2.278   3.750  13.651 -1.7232 -0.6473  1.1152
 3021SOL     OW20698   3.428   4.516   4.234 -0.1386 -0.5471 -0.1686
 3021SOL    HW120699   3.462   4.454   4.299 -1.8674 -1.0976  0.2083
 3021SOL    HW220700   3.394   4.461   4.164 -0.4474 -2.2992  1.3385
 3022SOL     OW20701   4.350   2.241   3.526 -0.3332  0.0799 -0.0079
 3022SOL    HW120702   4.268   2.203   3.557 -0.1326 -1.1731 -0.9846
 3022SOL    HW220703   4.406   2.217   3.600 -0.0494 -0.8174 -0.5047
 3023SOL     OW20704   1.656   4.602  14.302 -0.1057 -0.5701  0.1001
 3023SOL    HW120705   1.562   4.592  14.321  0.1484  2.0363  2.6255
 3023SOL    HW220706   1.633   4.658  14.228 -1.0703 -0.9284  0.1160
 3024SOL     OW20707   2.225   1.773   5.980 -0.2204 -0.6398  0.1378
 3024SOL    HW120708   2.262   1.731   5.902 -0.7909 -1.8492  0.5155
 3024SOL    HW220709   2.294   1.837   5.995  1.8077 -2.6790 -0.6084
 3025SOL     OW20710   4.600   3.177   5.588  0.2398 -0.4645 -0.0318
 3025SOL    HW120711   4.560   3.091   5.574 -0.2209 -0.4004  0.8693
 3025SOL    HW220712   4.559   3.200   5.672 -1.6643 -1.7577 -0.6089
 3026SOL     OW20713   0.127   2.370   7.350  0.4516 -0.1347  0.5341
 3026SOL    HW120714   0.065   2.422   7.401  1.4452 -0.9776  2.5528
 3026SOL    HW220715   0.147   2.442   7.289  1.7309 -1.2320 -0.3394
 3027SOL     OW20716   0.293   3.565  17.496 -0.6990 -0.2632 -1.0301
 3027SOL    HW120717   0.347   3.643  17.498 -0.4369 -0.4483 -0.9282
 3027SOL    HW220718   0.215   3.587  17.444 -1.2231 -2.0399 -1.0217
 3028SOL     OW20719   4.110   1.764  15.414 -0.4331 -0.7389  0.0271
 3028SOL    HW120720   4.196   1.772  15.372  0.0406 -2.4341  0.6803
 3028SOL    HW220721   4.115   1.675  15.448 -0.6821 -1.0803 -0.8476
 3029SOL     OW20722   2.730   0.634   9.070  0.1962  0.0709 -1.0716
 3029SOL    HW120723   2.737   0.540   9.058  1.1420 -0.2924  2.4712
 3029SOL    HW220724   2.733   0.677   8.984 -0.6258 -1.3269 -1.7923
 3030SOL     OW20725   0.291   3.207   3.395  0.0752 -0.2230 -0.8381
 3030SOL    HW120726   0.289   3.158   3.313 -0.0480  0.9398 -1.5297
 3030SOL    HW220727   0.199   3.226   3.413 -0.8182 -1.0755 -4.5371
 3031SOL     OW20728   2.229   3.995   7.651  0.0194 -0.0059  0.2305
 3031SOL    HW120729   2.171   4.036   7.587  1.5839  1.1916 -0.4303
 3031SOL    HW220730   2.275   4.065   7.696  0.4431  0.1769 -0.4793
 3032SOL     OW20731   4.582   4.216  15.640  0.0795  0.0829  0.2480
 3032SOL    HW120732   4.647   4.202  15.570 -2.8025  0.4052 -2.5047
 3032SOL    HW220733   4.503   4.219  15.586 -0.0873 -2.5618  0.3328
 3033SOL     OW20734   3.968   2.530   3.167  0.5177 -0.0489  0.7376
 3033SOL    HW120735   4.050   2.577   3.180  1.9351 -1.8709 -1.5337
 3033SOL    HW220736   3.924   2.600   3.120  1.3138 -1.1842 -1.7252
 3034SOL     OW20737   3.114   1.390   9.525  0.0384  0.2352  0.0359
 3034SOL    HW120738   3.137   1.482   9.511  1.1031 -0.2104 -1.1942
 3034SOL    HW220739   3.197   1.366   9.483 -2.0590 -2.2878 -2.7348
 3035SOL     OW20740   1.177   3.964   4.151 -0.3118 -0.4646 -0.1654
 3035SOL    HW120741   1.112   4.031   4.172 -0.2807 -1.1778  2.2900
 3035SOL    HW220742   1.255   4.012   4.123 -0.8181  0.6753  0.3987
 3036SOL     OW20743   1.199   0.214  13.026  0.5659  0.8059  0.7830
 3036SOL    HW120744   1.161   0.132  12.993 -0.0383  0.5013  2.2109
 3036SOL    HW220745   1.282   0.204  12.980  0.5606  2.3891  0.4577
 3037SOL     OW20746   0.755   1.139   6.401  0.9591 -0.1396 -0.7042
 3037SOL    HW120747   0.848   1.122   6.419  0.5800 -0.4808  0.8818
 3037SOL    HW220748   0.753   1.233   6.421  0.2098 -0.1458 -0.7476
 3038SOL     OW20749   3.178   2.801   1.579  0.0150 -0.4142  0.1445
 3038SOL    HW120750   3.109   2.832   1.520  0.2815 -1.4929 -0.7319
 3038SOL    HW220751   3.254   2.797   1.521 -0.7466  0.4964 -0.9206
 3039SOL     OW20752   3.123   2.191   9.566  0.1773 -0.4577  0.6499
 3039SOL    HW120753   3.085   2.234   9.490  2.2447  0.3359  0.0530
 3039SOL    HW220754   3.048   2.166   9.621  0.2137 -1.5863  0.1844
 3040SOL     OW20755   1.894   0.365   5.250 -0.2753  0.2180 -0.1439
 3040SOL    HW120756   1.887   0.449   5.297  2.2016  1.8911 -2.7595
 3040SOL    HW220757   1.972   0.382   5.196 -0.7865  0.4372 -0.8157
 3041SOL     OW20758   0.991   1.116  16.445  0.5259 -0.0896 -0.1265
 3041SOL    HW120759   0.935   1.183  16.485  0.5095  0.9214 -1.8657
 3041SOL    HW220760   0.925   1.068  16.395  2.3505 -0.9352 -1.6948
 3042SOL     OW20761   2.691   0.753   9.334 -0.7272  0.0947  0.0292
 3042SOL    HW120762   2.684   0.671   9.382 -2.2274  3.2728  5.3272
 3042SOL    HW220763   2.722   0.722   9.249  2.0541  0.5832  0.8410
 3043SOL     OW20764   4.246   1.147   4.598 -0.2101  1.1234 -0.3166
 3043SOL    HW120765   4.201   1.220   4.557 -2.8633 -1.0357 -1.2756
 3043SOL    HW220766   4.190   1.141   4.676 -0.2152  1.0384 -0.3267
 3044SOL     OW20767   0.498   2.618   9.323  0.0777 -0.0328 -0.1107
 3044SOL    HW120768   0.582   2.577   9.299  1.1547  2.7408 -1.1007
 3044SOL    HW220769   0.446   2.552   9.369  2.9976 -1.8262  0.6130
 3045SOL     OW20770   1.363   4.310   3.920 -0.5268 -0.0011  0.7464
 3045SOL    HW120771   1.327   4.395   3.947 -0.7603  0.5251 -1.2462
 3045SOL    HW220772   1.398   4.332   3.833 -0.3159 -0.4351  0.7244
 3046SOL     OW20773   2.960   4.336   8.275  0.8335  0.3042 -0.0741
 3046SOL    HW120774   3.031   4.350   8.337  0.2220 -0.0618  0.7123
 3046SOL    HW220775   3.008   4.296   8.203 -1.5629  0.6985 -1.9130
 3047SOL     OW20776   0.754   2.948   7.525 -0.2175 -0.0623  0.3823
 3047SOL    HW120777   0.739   2.977   7.615  0.6217  0.1866  0.4368
 3047SOL    HW220778   0.822   3.011   7.501 -1.5484 -0.0914 -3.5604
 3048SOL     OW20779   1.577   1.925  16.709  0.2293 -0.1115 -0.8970
 3048SOL    HW120780   1.496   1.883  16.679  0.0127  0.6850 -1.4235
 3048SOL    HW220781   1.579   1.998  16.648 -1.4393  1.3975  0.8730
 3049SOL     OW20782   3.547   2.397   6.338  0.3566  0.6684  0.0485
 3049SOL    HW120783   3.467   2.449   6.331  1.8973  3.0865  0.3992
 3049SOL    HW220784   3.577   2.428   6.423  1.1655  0.0885 -0.0284
 3050SOL     OW20785   3.416   2.553   5.576 -0.2248 -0.3102 -0.6786
 3050SOL    HW120786   3.476   2.483   5.548  0.0187 -0.7003  0.8374
 3050SOL    HW220787   3.396   2.530   5.667 -0.5105  0.5254 -0.5363
 3051SOL     OW20788   2.310   3.925  13.069  0.0370 -0.1757 -0.2256
 3051SOL    HW120789   2.284   3.837  13.098  0.7889 -0.2424  0.2367
 3051SOL    HW220790   2.231   3.978  13.072  1.6212  2.0450  1.4522
 3052SOL     OW20791   3.188   0.838   3.779  0.2245  0.1581  0.6748
 3052SOL    HW120792   3.254   0.907   3.771  0.2092  0.1141  0.1894
 3052SOL    HW220793   3.130   0.891   3.834 -3.0373 -2.0854 -0.6078
 3053SOL     OW20794   2.982   0.553   6.321 -0.0520 -0.0258  0.1519
 3053SOL    HW120795   2.980   0.646   6.297  1.3328 -0.2196 -0.6839
 3053SOL    HW220796   2.949   0.555   6.411  2.2344  0.9655  0.9909
 3054SOL     OW20797   3.670   2.816   5.119  0.2495  0.1864  0.2571
 3054SOL    HW120798   3.731   2.798   5.191  0.3539  1.0105  0.3697
 3054SOL    HW220799   3.619   2.888   5.155 -1.2894 -0.0109 -1.5003
 3055SOL     OW20800   0.445   0.152   6.636 -0.0348  0.2396 -0.4747
 3055SOL    HW120801   0.359   0.129   6.599 -0.7424 -0.3160  1.5464
 3055SOL    HW220802   0.482   0.201   6.562 -0.6923 -0.8964 -1.5656
 3056SOL     OW20803   1.466   0.875   8.789 -0.1093 -0.2956 -0.2812
 3056SOL    HW120804   1.423   0.946   8.835 -1.1213 -1.5182  0.6726
 3056SOL    HW220805   1.490   0.915   8.705  0.3007  1.3354  0.6118
 3057SOL     OW20806   4.489   2.688   4.591 -0.0425  0.1345  0.1215
 3057SOL    HW120807   4.476   2.615   4.531  2.7190 -0.6545  0.5160
 3057SOL    HW220808   4.539   2.644   4.659 -1.8519 -1.1505  0.6332
 3058SOL     OW20809   3.100   4.629   6.630  0.0008  0.3751 -0.3948
 3058SOL    HW120810   3.122   4.659   6.718 -0.5076  2.7422 -1.0674
 3058SOL    HW220811   3.162   4.673   6.572  1.4011 -0.6761  0.3013
 3059SOL     OW20812   2.399   0.381   5.053  0.0503  0.4134 -0.2819
 3059SOL    HW120813   2.381   0.305   5.108  0.5984  1.4743  1.3492
 3059SOL    HW220814   2.399   0.453   5.115 -0.5400 -0.3636  0.6204
 3060SOL     OW20815   1.947   0.610   8.172 -0.2547 -0.5502  0.0413
 3060SOL    HW120816   1.866   0.560   8.164 -0.4177 -0.4432  0.9862
 3060SOL    HW220817   2.005   0.565   8.112 -1.2578 -0.0240 -1.3445
 3061SOL     OW20818   1.214   1.397  11.919 -0.0621  0.5454 -0.4332
 3061SOL    HW120819   1.133   1.444  11.935 -0.7803 -0.3474 -1.4380
 3061SOL    HW220820   1.227   1.346  12.000  1.4282  1.6502  0.0217
 3062SOL     OW20821   0.331   4.611   7.527 -0.2128  0.5194  0.2999
 3062SOL    HW120822   0.375   4.614   7.442 -0.0682 -0.0506  0.3551
 3062SOL    HW220823   0.408   4.606   7.583  1.0142 -0.7680 -1.4790
 3063SOL     OW20824   2.397   0.460  10.109  0.0809 -0.2609  0.3647
 3063SOL    HW120825   2.342   0.507  10.172  0.3672 -0.3797  0.7033
 3063SOL    HW220826   2.432   0.531  10.055  1.2908 -1.3618 -0.2918
 3064SOL     OW20827   2.823   4.021   0.140 -0.4387 -0.3722 -0.1504
 3064SOL    HW120828   2.814   4.078   0.064  0.9303  1.7558  1.2818
 3064SOL    HW220829   2.772   3.946   0.108 -1.1945 -0.3944  1.0843
 3065SOL     OW20830   2.136   2.162   1.341 -0.5010  0.6333 -0.0698
 3065SOL    HW120831   2.063   2.203   1.294 -3.0425 -2.4029  1.1740
 3065SOL    HW220832   2.092   2.107   1.405 -2.1923  0.9419 -0.9513
 3066SOL     OW20833   3.265   0.407  14.939 -0.3635 -0.6505  0.2574
 3066SOL    HW120834   3.315   0.457  14.876 -0.8152 -1.8917 -1.0824
 3066SOL    HW220835   3.332   0.348  14.972  0.4348  0.0344 -0.1519
 3067SOL     OW20836   2.427   0.414   0.037 -0.0247  0.5220 -0.1550
 3067SOL    HW120837   2.512   0.452   0.059  0.9320 -0.4787 -2.1321
 3067SOL    HW220838   2.385   0.496   0.012  0.0703  0.6908  0.2352
 3068SOL     OW20839   4.108   2.688   3.462  0.3873 -0.3938  0.0801
 3068SOL    HW120840   4.120   2.611   3.517  0.9658  1.5875  2.7558
 3068SOL    HW220841   4.135   2.659   3.375  0.1593  0.6416 -0.3459
 3069SOL     OW20842   3.778   3.292   6.376 -0.1296 -0.0120  0.0136
 3069SOL    HW120843   3.793   3.203   6.410 -0.3503 -0.3553 -0.7960
 3069SOL    HW220844   3.711   3.330   6.434  1.9409  2.0423  1.0489
 3070SOL     OW20845   0.576   2.892   0.889 -0.4175  0.1082  0.1408
 3070SOL    HW120846   0.529   2.910   0.807  0.5577 -0.2821 -0.4986
 3070SOL    HW220847   0.664   2.926   0.872 -0.9869  0.9000 -1.2550
 3071SOL     OW20848   2.772   4.587  15.285  0.1197  0.2017 -0.1679
 3071SOL    HW120849   2.718   4.550  15.215 -1.3337  0.8201  0.6281
 3071SOL    HW220850   2.843   4.617  15.229  0.3344  0.2178  0.1130
 3072SOL     OW20851   1.489   3.060   9.220 -0.2149 -0.4881  0.1409
 3072SOL    HW120852   1.415   3.018   9.265 -0.8352 -0.8635 -1.2181
 3072SOL    HW220853   1.549   3.071   9.294 -0.6255 -0.6269  0.4945
 3073SOL     OW20854   3.190   3.083   0.562 -0.2045 -0.2653 -0.3926
 3073SOL    HW120855   3.103   3.121   0.552 -0.6275 -1.2536 -0.4854
 3073SOL    HW220856   3.194   3.050   0.651  0.3586  0.3419 -0.1946
 3074SOL     OW20857   3.322   2.447   6.924  0.6763 -0.6586  0.1923
 3074SOL    HW120858   3.391   2.414   6.866  1.6581  0.1003  0.9484
 3074SOL    HW220859   3.241   2.425   6.877  1.4210 -1.2928 -0.8123
 3075SOL     OW20860   3.604   1.923  14.963  0.2892 -1.0665 -0.5672
 3075SOL    HW120861   3.682   1.967  14.996 -0.4672  0.6836 -1.0973
 3075SOL    HW220862   3.600   1.954  14.872 -0.9493 -4.1727 -1.5434
 3076SOL     OW20863   1.788   3.560  10.003  0.4358 -0.8799  0.5395
 3076SOL    HW120864   1.738   3.541  10.082 -0.9029  0.9210  0.1116
 3076SOL    HW220865   1.843   3.630  10.039  1.0554 -1.2855  0.3783
 3077SOL     OW20866   4.063   2.388   7.457 -1.0070 -0.4925  0.6056
 3077SOL    HW120867   4.070   2.346   7.543 -3.0470 -0.1011  0.9734
 3077SOL    HW220868   4.099   2.476   7.466  0.4006 -0.9666 -0.4545
 3078SOL     OW20869   2.594   1.711   7.864  0.2316 -0.1367 -0.2184
 3078SOL    HW120870   2.526   1.655   7.901  0.1632  0.3678  0.4232
 3078SOL    HW220871   2.561   1.756   7.786 -2.0315  0.3784  1.0349
 3079SOL     OW20872   4.419   1.602   1.889 -0.3809 -0.1085  0.3437
 3079SOL    HW120873   4.373   1.586   1.971  0.0754  0.0704  0.6327
 3079SOL    HW220874   4.431   1.513   1.857  1.5277  0.8463 -1.5836
 3080SOL     OW20875   4.505   1.407   3.204 -0.2503  0.0978  0.4358
 3080SOL    HW120876   4.484   1.322   3.243  0.0945  0.0710  0.5643
 3080SOL    HW220877   4.562   1.377   3.133  1.2459  1.3362  1.1053
 3081SOL     OW20878   1.401   3.434  12.719  0.1686 -0.8520 -0.7659
 3081SOL    HW120879   1.350   3.469  12.646  0.2829  2.5492  0.7886
 3081SOL    HW220880   1.399   3.341  12.695  0.2606 -0.9982 -0.2126
 3082SOL     OW20881   3.508   0.407  13.557  0.2000 -0.2961 -0.7382
 3082SOL    HW120882   3.575   0.451  13.505 -1.7054  3.2137 -0.2360
 3082SOL    HW220883   3.431   0.397  13.501 -0.4331  0.0176  0.0798
 3083SOL     OW20884   1.632   2.473  17.470  0.0491 -0.0603  0.5513
 3083SOL    HW120885   1.632   2.399  17.530 -0.0375  0.4845  1.2315
 3083SOL    HW220886   1.727   2.477  17.467 -0.0207 -0.6439 -2.5973
 3084SOL     OW20887   2.740   1.003   9.408 -0.0159 -0.2941 -0.6016
 3084SOL    HW120888   2.765   0.911   9.401  3.2592  0.5566  0.0997
 3084SOL    HW220889   2.728   1.024   9.316 -1.8575  0.6370 -0.1556
 3085SOL     OW20890   0.262   4.190  15.727  0.3008  0.3567  0.3343
 3085SOL    HW120891   0.347   4.233  15.732 -0.7041  1.9915  2.7118
 3085SOL    HW220892   0.220   4.240  15.657  0.0661  0.4539  0.5491
 3086SOL     OW20893   4.353   1.513   5.252 -0.4711  0.0107  0.0289
 3086SOL    HW120894   4.365   1.502   5.346  0.7800  2.9805  0.2380
 3086SOL    HW220895   4.283   1.450   5.240 -0.0811 -0.5615  0.7857
 3087SOL     OW20896   3.321   3.077   3.106 -0.1472  0.3098  0.0787
 3087SOL    HW120897   3.270   3.013   3.057 -1.5899  0.4893  1.3371
 3087SOL    HW220898   3.295   3.049   3.194  1.5309 -0.4425  0.3388
 3088SOL     OW20899   2.336   1.379   6.696  0.4900  0.3225 -0.0869
 3088SOL    HW120900   2.354   1.454   6.753 -0.8071 -0.5825  1.4929
 3088SOL    HW220901   2.415   1.331   6.720  0.9421  2.0908  1.9396
 3089SOL     OW20902   2.872   0.356   7.667  0.1575  0.1247  0.0279
 3089SOL    HW120903   2.920   0.407   7.601  1.2726  0.7455  1.3368
 3089SOL    HW220904   2.929   0.286   7.698  1.3252  0.2661 -1.7765
 3090SOL     OW20905   4.724   2.676   8.234  0.1666  0.1995 -0.2069
 3090SOL    HW120906   4.630   2.693   8.246  0.3515  1.0133  0.1215
 3090SOL    HW220907   0.023   2.765   8.235 -0.4022  0.4409 -0.7987
 3091SOL     OW20908   4.322   3.675   9.707  0.4941  0.7600  0.9645
 3091SOL    HW120909   4.390   3.616   9.740 -0.0431 -0.0141  0.6892
 3091SOL    HW220910   4.287   3.712   9.788 -0.6557  1.0303  0.3395
 3092SOL     OW20911   0.405   0.721   7.867  0.1690  0.0969 -0.0793
 3092SOL    HW120912   0.424   0.656   7.934  2.3531  0.0175 -0.7890
 3092SOL    HW220913   0.462   0.685   7.799 -0.8060 -0.3101 -0.6714
 3093SOL     OW20914   2.394   3.692   9.881 -0.2833 -0.1161 -0.1497
 3093SOL    HW120915   2.327   3.712   9.946  1.1250 -1.4353  1.7171
 3093SOL    HW220916   2.342   3.708   9.802 -1.3755  1.7608  0.9710
 3094SOL     OW20917   2.330   1.332   9.066 -1.0992  0.2526 -0.0737
 3094SOL    HW120918   2.269   1.300   9.132 -2.3881  1.0179 -0.9000
 3094SOL    HW220919   2.283   1.295   8.991 -2.5959  0.9000  0.5447
 3095SOL     OW20920   0.390   3.485  10.526  0.3134  0.0164 -0.8456
 3095SOL    HW120921   0.319   3.448  10.473  1.0254 -1.6096 -0.6624
 3095SOL    HW220922   0.364   3.576  10.539 -1.0600 -0.2515 -1.7245
 3096SOL     OW20923   2.909   3.536  11.654  0.0643 -0.6714  0.6431
 3096SOL    HW120924   2.875   3.624  11.674  1.5868  0.4524 -1.5953
 3096SOL    HW220925   2.830   3.483  11.652 -0.5013  0.1179  2.4518
 3097SOL     OW20926   2.331   0.117   7.174  0.6503  0.6987  0.1679
 3097SOL    HW120927   2.305   0.204   7.143 -0.5903  1.2190  2.7061
 3097SOL    HW220928   2.425   0.122   7.189  0.4980  0.3065  1.2026
 3098SOL     OW20929   1.496   2.440  12.469  0.1462  0.4915 -0.3380
 3098SOL    HW120930   1.493   2.375  12.398 -0.7702  1.7846 -1.4930
 3098SOL    HW220931   1.585   2.419  12.497  0.1395 -0.3263 -0.9215
 3099SOL     OW20932   2.007   0.681  11.916 -0.4642 -0.1599  0.2055
 3099SOL    HW120933   2.062   0.608  11.944 -0.5268 -0.3697 -0.2177
 3099SOL    HW220934   1.980   0.714  12.002 -1.3107 -0.7907  0.1755
 3100SOL     OW20935   2.991   3.948   8.200 -0.3207 -0.2716 -0.1840
 3100SOL    HW120936   3.032   3.984   8.279 -1.5194 -0.2431  0.4217
 3100SOL    HW220937   2.902   3.983   8.201 -0.2563 -0.1212  1.5852
 3101SOL     OW20938   0.864   1.074  17.405 -0.5511 -0.5320  0.0816
 3101SOL    HW120939   0.799   1.100  17.339 -0.9484  0.9894  1.0973
 3101SOL    HW220940   0.880   0.982  17.384 -1.1721 -1.2263  2.7454
 3102SOL     OW20941   0.150   2.221   5.185 -0.1596  0.5594  0.4353
 3102SOL    HW120942   0.201   2.156   5.137  1.5602  2.0977  0.1614
 3102SOL    HW220943   0.177   2.308   5.154  0.7849  0.1494  0.1068
 3103SOL     OW20944   0.627   0.819   5.595 -0.2089 -0.1011 -0.5037
 3103SOL    HW120945   0.669   0.773   5.522 -0.8075  2.9910 -2.7631
 3103SOL    HW220946   0.575   0.746   5.630 -1.1646  0.8717  0.0863
 3104SOL     OW20947   3.461   0.563  16.535  0.3218  0.2581 -0.0898
 3104SOL    HW120948   3.405   0.625  16.488  1.2839  1.2620  0.0879
 3104SOL    HW220949   3.443   0.483  16.487  1.7239 -0.2080  0.1639
 3105SOL     OW20950   4.604   2.227  11.421 -0.5816 -0.0571  0.1743
 3105SOL    HW120951   4.674   2.273  11.466  1.4458 -1.0390 -1.9450
 3105SOL    HW220952   4.548   2.299  11.392  0.7171 -0.3994 -3.1347
 3106SOL     OW20953   3.195   2.808   7.203  0.5036 -0.1762 -0.3079
 3106SOL    HW120954   3.216   2.721   7.237 -0.9639  0.2152  1.5511
 3106SOL    HW220955   3.213   2.809   7.109  0.5429  1.3157 -0.2888
 3107SOL     OW20956   0.089   0.376  11.806 -0.0549  0.1504 -0.4321
 3107SOL    HW120957   0.104   0.347  11.716  2.4482 -0.9792  0.3619
 3107SOL    HW220958   0.174   0.372  11.850  0.9145  0.0268 -2.3290
 3108SOL     OW20959   1.234   2.923   4.299 -0.5591  0.6090 -0.1658
 3108SOL    HW120960   1.205   2.863   4.368  0.1557  0.3341 -0.1063
 3108SOL    HW220961   1.286   2.980   4.355  0.7879 -2.1588  1.4318
 3109SOL     OW20962   0.480   4.413   8.088 -0.3617  0.5892 -0.1941
 3109SOL    HW120963   0.425   4.335   8.093  0.3561  0.1652  0.9438
 3109SOL    HW220964   0.505   4.404   7.996  3.9490  3.6486  0.6727
 3110SOL     OW20965   2.322   2.429  17.369 -0.7793  0.6385  0.5439
 3110SOL    HW120966   2.260   2.502  17.366 -2.6834 -0.9385  1.3786
 3110SOL    HW220967   2.370   2.455  17.290 -1.0661  0.7141  0.3951
 3111SOL     OW20968   1.736   0.737   7.896 -0.4606 -0.1626 -0.1012
 3111SOL    HW120969   1.743   0.643   7.879 -2.3944 -0.3051 -0.0649
 3111SOL    HW220970   1.796   0.771   7.830 -1.7338  1.5504 -0.3722
 3112SOL     OW20971   1.629   3.686  12.638 -0.0957 -0.3150 -0.2790
 3112SOL    HW120972   1.537   3.712  12.645 -0.0505 -0.0809 -0.5679
 3112SOL    HW220973   1.632   3.639  12.555 -0.0373 -2.6035  0.9986
 3113SOL     OW20974   3.885   0.347   0.880  0.7075 -0.0639 -0.0394
 3113SOL    HW120975   3.914   0.436   0.860 -1.4794  1.2205  2.5081
 3113SOL    HW220976   3.810   0.317   0.828 -0.2286  0.4897  0.9900
 3114SOL     OW20977   1.998   1.727  12.834  0.0307  0.3846 -0.2988
 3114SOL    HW120978   1.957   1.648  12.799 -1.4679  1.2689 -0.5740
 3114SOL    HW220979   1.929   1.789  12.807 -0.6981 -0.1979  0.2222
 3115SOL     OW20980   0.963   3.398   3.279  0.2429  0.0829  0.1531
 3115SOL    HW120981   0.991   3.489   3.282  2.0381 -0.3929 -2.2848
 3115SOL    HW220982   1.040   3.372   3.229 -1.5211 -2.9814 -0.9725
 3116SOL     OW20983   2.345   0.171   8.024  0.2094 -0.3869  0.0790
 3116SOL    HW120984   2.381   0.173   7.936 -1.8643 -0.3838 -0.7648
 3116SOL    HW220985   2.255   0.196   8.001  0.4101 -0.1757 -0.4682
 3117SOL     OW20986   2.671   1.099   8.451 -0.1034 -0.0821  0.1073
 3117SOL    HW120987   2.756   1.133   8.478  1.2001 -1.5355 -2.1800
 3117SOL    HW220988   2.657   1.146   8.368 -0.3641  2.0613  1.3692
 3118SOL     OW20989   2.366   4.009   2.035 -0.4926  0.5554 -0.5455
 3118SOL    HW120990   2.284   4.017   1.985 -0.5859  2.1357 -0.1355
 3118SOL    HW220991   2.422   3.959   1.975 -0.0888  0.1358  0.1937
 3119SOL     OW20992   0.040   0.512   9.794  0.4592 -0.1789 -0.0895
 3119SOL    HW120993   0.036   0.592   9.846 -3.1415 -1.0291  0.8991
 3119SOL    HW220994   0.128   0.481   9.813  0.3119  0.4610  1.6227
 3120SOL     OW20995   1.234   1.990   2.379 -0.7819 -1.1722 -0.4800
 3120SOL    HW120996   1.226   2.071   2.329 -3.0113  0.1147  1.9820
 3120SOL    HW220997   1.163   1.993   2.443 -0.8290 -1.8476 -0.5024
 3121SOL     OW20998   3.583   1.874   4.625 -0.0663 -0.0497 -0.0743
 3121SOL    HW120999   3.488   1.877   4.637 -0.0026  2.7977 -0.2585
 3121SOL    HW221000   3.614   1.950   4.674  1.0857 -1.0431  0.6983
 3122SOL     OW21001   0.658   0.992   2.120 -0.0988 -0.8020  0.0912
 3122SOL    HW121002   0.576   1.023   2.160  0.5976 -0.4186  1.2355
 3122SOL    HW221003   0.625   0.963   2.035  2.2119  1.5120 -1.6054
 3123SOL     OW21004   2.367   2.364  11.205 -0.8552  0.5826 -0.6094
 3123SOL    HW121005   2.272   2.351  11.209 -1.3318  3.4406 -2.8987
 3123SOL    HW221006   2.387   2.325  11.290  0.0029  0.5146 -0.8481
 3124SOL     OW21007   2.674   4.442  10.102  0.4918  0.0889 -0.1844
 3124SOL    HW121008   2.642   4.528  10.074  0.3121 -0.1648 -0.7486
 3124SOL    HW221009   2.632   4.382  10.041 -1.0262  0.6225  0.3293
 3125SOL     OW21010   4.644   3.595   1.018 -0.2353  0.5634  0.8530
 3125SOL    HW121011   4.568   3.651   1.032  0.3711  1.6781 -0.3067
 3125SOL    HW221012   4.626   3.537   0.944  0.3369 -1.6573  2.4635
 3126SOL     OW21013   1.732   3.238   6.823  0.0389  0.5593  1.0167
 3126SOL    HW121014   1.753   3.166   6.764  0.8116  1.3939  0.2727
 3126SOL    HW221015   1.799   3.298   6.789  0.7265 -0.2039  1.0221
 3127SOL     OW21016   4.081   1.912   6.835  0.0854 -0.5009  0.0563
 3127SOL    HW121017   3.994   1.944   6.858  0.4155  0.3249  0.1757
 3127SOL    HW221018   4.100   1.975   6.765 -1.5084  1.5876  1.4951
 3128SOL     OW21019   3.225   0.053   5.920  0.3374 -0.0766  0.3796
 3128SOL    HW121020   3.295   0.106   5.957 -0.1060  1.4877 -1.0101
 3128SOL    HW221021   3.269   4.730   5.860  0.3945 -0.2720  0.6190
 3129SOL     OW21022   2.399   3.832  17.518 -0.5812  0.3888  0.1477
 3129SOL    HW121023   2.344   3.785  17.455  0.1717 -0.0695 -0.1760
 3129SOL    HW221024   2.477   3.824  17.463  1.3168 -0.3083  2.9085
 3130SOL     OW21025   2.686   1.579   8.498  0.4465  0.0294  0.2079
 3130SOL    HW121026   2.648   1.573   8.586  0.8303  1.5241  0.4674
 3130SOL    HW221027   2.613   1.565   8.437  0.9652 -2.6258  0.2090
 3131SOL     OW21028   2.798   1.347   0.586  0.1647 -0.2113  0.2745
 3131SOL    HW121029   2.731   1.349   0.655 -2.0216  0.3192 -1.8497
 3131SOL    HW221030   2.739   1.303   0.525 -0.3422 -1.9715  2.0376
 3132SOL     OW21031   2.250   3.443   3.435 -1.0678  0.0746 -0.0430
 3132SOL    HW121032   2.166   3.471   3.400 -0.6141  2.2124  0.5900
 3132SOL    HW221033   2.305   3.515   3.405  0.4265 -1.5554 -1.2487
 3133SOL     OW21034   4.581   0.761   1.815  0.7730 -0.1892 -0.2251
 3133SOL    HW121035   4.668   0.778   1.850  0.2455  0.0305  0.9814
 3133SOL    HW221036   4.605   0.777   1.723 -0.3236  0.2817 -0.4305
 3134SOL     OW21037   0.589   0.766  11.723 -0.0946  0.3233  0.4576
 3134SOL    HW121038   0.575   0.850  11.679  0.3955  0.0652 -0.1853
 3134SOL    HW221039   0.679   0.750  11.695  0.4954  3.2236  0.6934
 3135SOL     OW21040   2.192   4.459   9.463 -0.2654  0.3301 -0.1351
 3135SOL    HW121041   2.235   4.537   9.428 -1.2342  0.5481 -0.8275
 3135SOL    HW221042   2.176   4.412   9.381 -0.0056  1.3248 -0.7481
 3136SOL     OW21043   2.446   1.531   5.954  0.3351 -0.1995  0.1607
 3136SOL    HW121044   2.453   1.528   6.049  2.7493  2.2751  0.0777
 3136SOL    HW221045   2.484   1.618   5.937  3.9795 -1.4168  2.2134
 3137SOL     OW21046   0.388   2.477   6.215 -0.8429 -0.6390  0.4700
 3137SOL    HW121047   0.394   2.385   6.240 -0.8675 -0.8453 -0.2675
 3137SOL    HW221048   0.294   2.492   6.206 -0.4066  1.3775 -0.6667
 3138SOL     OW21049   2.732   2.013   4.929 -0.2712  0.5538  0.4951
 3138SOL    HW121050   2.644   2.046   4.949 -0.5707  1.1177 -1.7866
 3138SOL    HW221051   2.779   2.093   4.952  2.7339 -0.6206 -1.6114
 3139SOL     OW21052   2.626   1.834   4.413  0.3335  0.0461  0.2145
 3139SOL    HW121053   2.656   1.745   4.432 -0.3388 -0.1498  0.3505
 3139SOL    HW221054   2.704   1.889   4.407  1.7387 -2.0043 -0.1541
 3140SOL     OW21055   3.874   4.384  13.616  0.2828 -0.4542  0.0277
 3140SOL    HW121056   3.960   4.396  13.576 -0.0536  3.3456  0.4990
 3140SOL    HW221057   3.830   4.396  13.532 -0.4718  0.8684  0.6217
 3141SOL     OW21058   3.273   4.603  15.782 -0.2952  0.7808 -0.3144
 3141SOL    HW121059   3.363   4.576  15.763 -0.6109 -1.4862  1.5314
 3141SOL    HW221060   3.245   4.621  15.692  0.2429  1.2647 -0.3900
 3142SOL     OW21061   1.847   1.877  16.149 -0.5831 -0.6626 -0.2039
 3142SOL    HW121062   1.903   1.804  16.178  0.4063  1.4597  3.2604
 3142SOL    HW221063   1.776   1.875  16.213  0.7772 -0.2093  1.3321
 3143SOL     OW21064   0.765   1.037   6.936 -0.0855 -0.8808 -0.0348
 3143SOL    HW121065   0.684   1.041   6.885  0.9292 -0.3600 -1.6056
 3143SOL    HW221066   0.758   1.123   6.978 -0.3713 -1.4253  1.0257
 3144SOL     OW21067   2.391   4.503   6.521 -0.6868 -0.5278 -0.4691
 3144SOL    HW121068   2.335   4.494   6.597 -1.7188  0.7899 -1.0750
 3144SOL    HW221069   2.413   4.597   6.523 -0.5937 -0.6131  1.6515
 3145SOL     OW21070   0.141   0.784   7.729 -0.1383 -0.2208 -0.2210
 3145SOL    HW121071   0.095   0.700   7.739  0.0846 -0.1297  1.6169
 3145SOL    HW221072   0.213   0.781   7.793  0.2092  0.4051 -0.5873
 3146SOL     OW21073   1.908   1.325   8.342  0.1416 -1.0533 -0.2309
 3146SOL    HW121074   1.853   1.269   8.288 -0.1917 -1.2531  0.3138
 3146SOL    HW221075   1.927   1.396   8.280  1.0195 -2.0676 -1.1128
 3147SOL     OW21076   1.264   0.896   7.591  0.2857  0.3272  1.3599
 3147SOL    HW121077   1.201   0.923   7.658 -1.4668  0.7992 -0.4787
 3147SOL    HW221078   1.312   0.831   7.643  1.5536  0.3052  0.1549
 3148SOL     OW21079   1.403   2.984   8.281  0.0212 -0.9638 -0.5329
 3148SOL    HW121080   1.311   2.959   8.287 -0.1688  0.3388  2.0519
 3148SOL    HW221081   1.416   2.939   8.198 -0.6328 -2.2942  0.0871
 3149SOL     OW21082   1.039   0.563   6.894  0.3232 -0.0185  0.0610
 3149SOL    HW121083   1.064   0.485   6.844  0.4739 -0.5031  0.9022
 3149SOL    HW221084   1.009   0.523   6.976  0.0255 -1.4547 -0.7421
 3150SOL     OW21085   3.341   0.049   1.460  0.5017 -0.1137  0.4160
 3150SOL    HW121086   3.294   0.131   1.480 -0.9778 -1.1596  1.1945
 3150SOL    HW221087   3.334   0.035   1.365  0.5300 -1.7775  0.6668
 3151SOL     OW21088   2.683   0.683  14.637  0.1499 -0.2358  1.0661
 3151SOL    HW121089   2.769   0.724  14.624 -0.6508  0.5850 -1.7747
 3151SOL    HW221090   2.623   0.758  14.641  0.7452  0.2234  1.4170
 3152SOL     OW21091   4.020   2.422   9.306 -0.2709 -0.0486  0.1618
 3152SOL    HW121092   3.999   2.489   9.371 -0.0613 -0.0965  0.2798
 3152SOL    HW221093   4.112   2.409   9.327 -0.7794 -1.3808  1.5745
 3153SOL     OW21094   2.651   3.081   3.871 -0.0074 -0.2096  0.3399
 3153SOL    HW121095   2.656   2.988   3.850  0.4901  0.3053 -1.8936
 3153SOL    HW221096   2.700   3.125   3.801 -0.2111 -0.6162 -0.0528
 3154SOL     OW21097   0.710   0.132   6.257  0.2620 -0.0655 -0.3493
 3154SOL    HW121098   0.784   0.193   6.259  0.6805 -0.6354  1.3932
 3154SOL    HW221099   0.747   0.054   6.215  1.0797 -0.5859  1.3595
 3155SOL     OW21100   3.229   3.624   7.050 -0.1108  0.0144 -0.6090
 3155SOL    HW121101   3.199   3.622   7.140 -0.9551 -3.0664 -0.9821
 3155SOL    HW221102   3.250   3.716   7.033 -0.0525 -0.3475 -2.5165
 3156SOL     OW21103   1.042   0.913   7.763  0.0953 -0.1036  0.6607
 3156SOL    HW121104   0.984   0.917   7.687  1.0604  1.5010 -0.0020
 3156SOL    HW221105   0.996   0.850   7.817 -1.2512  0.7644  0.5288
 3157SOL     OW21106   4.038   0.909   7.589 -0.0908  0.0156  0.1314
 3157SOL    HW121107   3.946   0.924   7.611 -1.1602 -2.5557 -2.6367
 3157SOL    HW221108   4.044   0.821   7.627  0.8976 -0.1439 -0.3897
 3158SOL     OW21109   1.384   2.137   4.840 -0.7446  0.5493  0.2357
 3158SOL    HW121110   1.343   2.186   4.768 -0.3032 -0.4496 -0.6883
 3158SOL    HW221111   1.323   2.150   4.913 -1.0367 -1.0577  0.2628
 3159SOL     OW21112   3.234   1.314  10.701 -0.2736 -1.1652 -0.1490
 3159SOL    HW121113   3.277   1.241  10.745  2.2158  0.0243 -0.5835
 3159SOL    HW221114   3.206   1.369  10.774 -2.2203  1.6814 -3.0900
 3160SOL     OW21115   2.681   4.041   3.704  0.2220  0.2218 -0.1778
 3160SOL    HW121116   2.620   4.016   3.774 -0.9145  1.2489 -0.8045
 3160SOL    HW221117   2.637   4.013   3.624  3.0156  2.6096 -2.5129
 3161SOL     OW21118   3.026   2.183   1.182 -0.0062 -0.1703 -0.1273
 3161SOL    HW121119   2.978   2.152   1.259  1.7259 -2.3695  0.1027
 3161SOL    HW221120   2.964   2.249   1.154 -0.6856 -0.5407  0.4914
 3162SOL     OW21121   3.879   2.744   5.784 -0.5386 -0.6151 -0.3685
 3162SOL    HW121122   3.793   2.786   5.787 -0.7437 -0.8278 -2.7619
 3162SOL    HW221123   3.922   2.818   5.827 -1.4021 -0.1344 -0.3371
 3163SOL     OW21124   3.325   3.495  10.132 -0.1537 -0.2824 -0.5837
 3163SOL    HW121125   3.340   3.583  10.165 -0.8326 -0.0559 -0.8757
 3163SOL    HW221126   3.243   3.474  10.176 -0.9819  0.7357 -1.6254
 3164SOL     OW21127   1.873   3.838   6.043  0.6571  0.1071 -0.5854
 3164SOL    HW121128   1.832   3.892   5.976 -2.6438 -1.2754  0.3302
 3164SOL    HW221129   1.808   3.769   6.058  0.6183  0.2329 -0.1818
 3165SOL     OW21130   2.811   4.671  12.123 -0.2856  0.3578 -0.5709
 3165SOL    HW121131   2.886   4.710  12.168 -1.6347  1.6381  0.5892
 3165SOL    HW221132   2.751   0.008  12.119  0.1224  0.8599  2.8041
 3166SOL     OW21133   3.250   0.376   8.910 -0.7137 -0.0328  0.1552
 3166SOL    HW121134   3.297   0.455   8.937 -1.1533 -0.0211  0.8696
 3166SOL    HW221135   3.300   0.305   8.951 -1.4410 -0.2310  0.6920
 3167SOL     OW21136   1.355   2.424   6.534  0.4120  0.6241 -0.1086
 3167SOL    HW121137   1.382   2.515   6.523 -1.2832  0.9170 -1.9437
 3167SOL    HW221138   1.272   2.432   6.581 -0.8819  1.5927 -2.5265
 3168SOL     OW21139   3.600   1.912  15.953  0.1802 -0.1689 -0.4303
 3168SOL    HW121140   3.514   1.894  15.914  0.2811  1.4756 -1.4107
 3168SOL    HW221141   3.582   1.994  15.999  2.1967 -1.1522  2.0563
 3169SOL     OW21142   4.641   4.112   9.274  0.1851 -0.1762  0.0769
 3169SOL    HW121143   4.625   4.168   9.350 -1.3499 -0.4718 -0.0314
 3169SOL    HW221144   4.562   4.057   9.275  0.3899 -0.4774 -0.3282
 3170SOL     OW21145   3.957   4.480   7.943  0.2261 -0.1658  0.1184
 3170SOL    HW121146   4.014   4.531   8.000  0.9529  1.7737 -2.3309
 3170SOL    HW221147   3.998   4.497   7.858 -3.8200  0.8472 -1.6377
 3171SOL     OW21148   3.345   2.614   8.915  0.1335  0.3505  0.3313
 3171SOL    HW121149   3.362   2.684   8.853 -0.3657 -0.7989 -1.1116
 3171SOL    HW221150   3.370   2.536   8.866  1.5736 -0.0838  1.7505
 3172SOL     OW21151   3.655   3.673   7.250 -0.0072 -0.4903  0.3663
 3172SOL    HW121152   3.606   3.656   7.330 -3.1156 -1.1322 -1.6742
 3172SOL    HW221153   3.716   3.744   7.270  1.0891 -1.6382  1.0647
 3173SOL     OW21154   1.593   2.553  16.502 -0.7409 -0.1904  0.0420
 3173SOL    HW121155   1.672   2.606  16.512 -0.1886 -1.1220  0.6020
 3173SOL    HW221156   1.535   2.608  16.553  1.3837  1.7767  0.3522
 3174SOL     OW21157   1.902   2.092  17.228  0.1440  0.2777  0.0402
 3174SOL    HW121158   1.851   2.137  17.295  1.6832 -0.8382  1.9665
 3174SOL    HW221159   1.994   2.115  17.242  0.4990 -0.1658 -1.6381
 3175SOL     OW21160   4.693   2.512   3.033 -0.1077  0.0017 -0.6315
 3175SOL    HW121161   4.715   2.542   3.121 -1.3406  1.5925 -0.8742
 3175SOL    HW221162   0.043   2.485   3.006 -0.3357 -0.6359 -0.7373
 3176SOL     OW21163   2.623   3.666   3.550  0.2457 -0.0487  0.3695
 3176SOL    HW121164   2.603   3.756   3.523  0.7111  0.2682  1.0748
 3176SOL    HW221165   2.718   3.672   3.545  0.3054  0.5559  2.5075
 3177SOL     OW21166   1.943   3.457   0.249 -0.0399 -0.2581 -0.2839
 3177SOL    HW121167   2.011   3.416   0.303 -2.5245 -1.9631  1.5563
 3177SOL    HW221168   1.930   3.393   0.179  0.6912 -2.0369  1.2007
 3178SOL     OW21169   0.325   2.406   8.267 -0.3449 -0.5574  0.2890
 3178SOL    HW121170   0.257   2.441   8.208  2.0865  0.1740 -2.0837
 3178SOL    HW221171   0.287   2.429   8.352  1.2148 -1.1508  1.1367
 3179SOL     OW21172   2.007   3.096  14.561  0.5275  0.2771 -0.1812
 3179SOL    HW121173   2.010   3.105  14.466  1.7569  0.3961 -0.1278
 3179SOL    HW221174   2.096   3.117  14.590 -0.3216  0.7097  2.0857
 3180SOL     OW21175   1.238   2.881   7.813 -0.0844 -0.3119  0.2967
 3180SOL    HW121176   1.294   2.933   7.870  0.1418 -0.8757  0.5898
 3180SOL    HW221177   1.155   2.891   7.861 -0.4633 -0.1203 -0.3863
 3181SOL     OW21178   4.147   3.658   9.070 -0.7314  0.4137  0.0266
 3181SOL    HW121179   4.195   3.684   9.149  0.2283  0.0666 -0.4493
 3181SOL    HW221180   4.106   3.741   9.046 -1.0244  0.9514  2.3734
 3182SOL     OW21181   4.694   1.301  16.278 -0.0344 -0.4103  0.1326
 3182SOL    HW121182   4.601   1.319  16.284  0.1322  0.0214  1.3002
 3182SOL    HW221183   4.723   1.290  16.368 -0.5619  0.9968  0.4717
 3183SOL     OW21184   4.481   4.358   4.479 -0.5766 -0.0252 -0.6588
 3183SOL    HW121185   4.556   4.348   4.422 -1.3928  0.6977 -1.8571
 3183SOL    HW221186   4.434   4.279   4.450  0.7779 -0.7297 -0.9077
 3184SOL     OW21187   2.424   1.158  13.840  0.7690  0.2537  0.0221
 3184SOL    HW121188   2.439   1.206  13.922 -0.9922 -0.4929  0.7899
 3184SOL    HW221189   2.486   1.086  13.846  0.1514 -0.1961  1.0666
 3185SOL     OW21190   2.750   4.528   1.833 -0.6000  0.2510 -0.3419
 3185SOL    HW121191   2.759   4.458   1.769 -2.1542  0.7121 -1.0642
 3185SOL    HW221192   2.670   4.578   1.814 -1.9513 -1.3617  1.1190
 3186SOL     OW21193   4.475   2.900  15.629  0.3122  0.1477 -0.0482
 3186SOL    HW121194   4.459   2.896  15.723  3.0482  1.0620  0.4565
 3186SOL    HW221195   4.471   2.993  15.605  0.7636  0.5383  1.3677
 3187SOL     OW21196   4.128   2.106   3.639 -0.4224  0.5564  0.1443
 3187SOL    HW121197   4.039   2.124   3.610 -0.2543 -2.3196 -2.2200
 3187SOL    HW221198   4.117   2.070   3.727 -1.4409  0.5601  0.0202
 3188SOL     OW21199   2.025   3.597   7.849  0.3496 -0.4575 -0.1226
 3188SOL    HW121200   1.976   3.531   7.897  1.0056 -1.2691 -0.5732
 3188SOL    HW221201   2.100   3.622   7.902  0.7750 -1.5294 -0.2299
 3189SOL     OW21202   1.660   1.525  12.468 -0.0986 -0.5337  0.2625
 3189SOL    HW121203   1.669   1.513  12.563  3.3954 -2.4399 -0.3019
 3189SOL    HW221204   1.600   1.454  12.445  0.3173 -0.6958 -0.3330
 3190SOL     OW21205   3.418   0.678   4.413 -0.3111 -0.2012  0.5411
 3190SOL    HW121206   3.452   0.656   4.500  0.4629 -0.0750  0.2760
 3190SOL    HW221207   3.330   0.643   4.430 -0.9690  0.6630 -1.1177
 3191SOL     OW21208   1.475   2.630   2.973 -0.2698 -0.2088  0.2078
 3191SOL    HW121209   1.548   2.626   3.035 -0.5506 -0.0167  0.5464
 3191SOL    HW221210   1.488   2.546   2.929  0.1188 -1.1515  2.1169
 3192SOL     OW21211   0.194   3.466  17.724 -0.1390 -0.1652  0.0665
 3192SOL    HW121212   0.217   3.516  17.645 -2.5624 -0.8930 -1.0815
 3192SOL    HW221213   0.103   3.441  17.709 -0.0032 -1.1754  0.8830
 3193SOL     OW21214   1.545   2.547  13.840  0.3960 -0.0048  0.2731
 3193SOL    HW121215   1.499   2.478  13.792  1.4475 -0.1558 -0.5237
 3193SOL    HW221216   1.476   2.605  13.871  1.8987  1.3780  1.0077
 3194SOL     OW21217   0.289   0.637   0.875 -0.2149 -0.0139  0.1871
 3194SOL    HW121218   0.346   0.688   0.816 -2.1426  1.6601 -0.2355
 3194SOL    HW221219   0.343   0.560   0.892 -0.6477 -0.6334 -1.2502
 3195SOL     OW21220   0.331   0.127   7.044 -0.5929  0.1789  0.0071
 3195SOL    HW121221   0.415   0.081   7.036 -2.6081 -3.6267  0.5978
 3195SOL    HW221222   0.364   0.215   7.024 -2.5502  0.8986 -0.0700
 3196SOL     OW21223   2.832   3.996   3.042 -0.4851 -0.1447  0.2684
 3196SOL    HW121224   2.759   4.052   3.015 -0.0418  0.9019  1.2319
 3196SOL    HW221225   2.857   3.957   2.958  0.1023  0.3682  0.2075
 3197SOL     OW21226   0.378   4.135   3.276  0.3485  0.3449 -0.1357
 3197SOL    HW121227   0.464   4.098   3.297  0.0598  0.5874  1.5360
 3197SOL    HW221228   0.373   4.201   3.345 -2.3350 -0.1333  0.1302
 3198SOL     OW21229   2.869   2.217   9.141 -0.4098 -0.4551 -0.2166
 3198SOL    HW121230   2.917   2.161   9.080 -1.5941  0.5843 -2.1165
 3198SOL    HW221231   2.875   2.171   9.225 -0.4982 -0.1669 -0.0510
 3199SOL     OW21232   3.960   0.555   5.644 -0.1600  0.2654 -0.0055
 3199SOL    HW121233   4.043   0.602   5.631  0.3601 -1.0051 -1.2188
 3199SOL    HW221234   3.983   0.478   5.593  0.7766  0.7000 -0.2391
 3200SOL     OW21235   4.156   0.580   2.262 -0.0582 -0.0496 -0.5803
 3200SOL    HW121236   4.108   0.635   2.323  1.2749  0.1020  0.3145
 3200SOL    HW221237   4.094   0.571   2.189  1.5570  1.9382 -2.2007
 3201SOL     OW21238   3.859   2.086   1.076 -0.3156 -0.1723 -0.3690
 3201SOL    HW121239   3.922   2.090   1.147  1.4035 -0.1996 -1.9080
 3201SOL    HW221240   3.780   2.102   1.128 -0.2990 -2.1508  0.2447
 3202SOL     OW21241   1.972   2.407   5.187 -0.0230 -0.0442  0.7618
 3202SOL    HW121242   2.044   2.439   5.242  0.6647 -0.3523  0.0378
 3202SOL    HW221243   1.977   2.467   5.112 -1.1001 -0.2604  0.5203
 3203SOL     OW21244   0.008   1.433  12.418  0.0206  0.5230  0.4278
 3203SOL    HW121245   4.664   1.473  12.388  0.3400  0.4295 -0.5626
 3203SOL    HW221246   4.708   1.364  12.474  0.1764  1.1306  1.2856
 3204SOL     OW21247   3.744   3.489  17.278  0.2047 -0.8868 -0.7481
 3204SOL    HW121248   3.673   3.499  17.216 -0.6720  1.0195  0.5567
 3204SOL    HW221249   3.724   3.561  17.338  2.0722  1.0528 -2.4929
 3205SOL     OW21250   2.692   3.375  12.679  0.4493 -0.1619  0.3433
 3205SOL    HW121251   2.619   3.334  12.632 -0.0527  2.4358 -1.1014
 3205SOL    HW221252   2.641   3.441  12.727  2.0394  1.9174 -0.8367
 3206SOL     OW21253   3.011   0.429   6.978  0.3786  0.4045 -0.2193
 3206SOL    HW121254   3.045   0.513   6.947  1.1683  0.2406  0.2103
 3206SOL    HW221255   2.967   0.400   6.898 -0.1994  1.1290 -0.1659
 3207SOL     OW21256   0.780   4.590   6.189  0.1305  0.8425  0.1378
 3207SOL    HW121257   0.723   4.523   6.226 -0.7934  1.4369 -0.2083
 3207SOL    HW221258   0.830   4.530   6.134 -2.0959  0.1314 -1.1066
 3208SOL     OW21259   0.909   2.193   3.090 -0.3092 -0.7577 -0.5076
 3208SOL    HW121260   0.851   2.148   3.028  0.0662 -0.9257 -0.7393
 3208SOL    HW221261   0.860   2.196   3.172  0.3647 -1.9733 -0.0628
 3209SOL     OW21262   0.157   4.402   0.154 -0.4262  0.4518  0.0136
 3209SOL    HW121263   0.226   4.457   0.118 -1.3323 -0.1385 -2.6886
 3209SOL    HW221264   0.196   4.316   0.137  0.7794  0.6197  1.9645
 3210SOL     OW21265   0.067   1.868  10.053  0.0304 -0.2020  0.5676
 3210SOL    HW121266   0.128   1.804  10.017  0.1113  0.3249 -0.2177
 3210SOL    HW221267   0.097   1.945  10.005 -1.9197  0.8295  1.0226
 3211SOL     OW21268   2.946   0.027  17.554 -0.1852  0.4327 -0.1047
 3211SOL    HW121269   2.991   0.029  17.638  1.7625 -0.6745 -1.1317
 3211SOL    HW221270   2.870   4.712  17.579 -0.2486 -0.0959 -1.4143
 3212SOL     OW21271   3.380   1.101   2.176 -0.6253  0.8935 -0.2349
 3212SOL    HW121272   3.371   1.128   2.267  2.7031 -0.4500  0.4869
 3212SOL    HW221273   3.374   1.005   2.184  2.8011  0.8651  1.8955
 3213SOL     OW21274   1.920   2.563   5.601  0.1212 -0.1226 -0.5655
 3213SOL    HW121275   1.913   2.640   5.544 -0.7431 -0.5531 -1.0304
 3213SOL    HW221276   2.010   2.571   5.633 -0.5016  3.1782  0.3195
 3214SOL     OW21277   2.024   4.674   2.493  0.3373  0.4690  0.7526
 3214SOL    HW121278   1.966   0.002   2.531  0.0394  0.2332  0.7067
 3214SOL    HW221279   1.961   4.618   2.447 -0.2800  0.9210  1.0427
 3215SOL     OW21280   3.991   1.356   1.969 -0.1240  0.1587 -0.5183
 3215SOL    HW121281   3.917   1.416   1.962  0.1242  0.4652 -0.5532
 3215SOL    HW221282   3.956   1.270   1.948 -1.5867  0.3327  1.2490
 3216SOL     OW21283   0.340   4.638   8.010 -0.1126  0.7279  0.1251
 3216SOL    HW121284   0.411   4.641   8.074  0.4898  3.9697 -0.7049
 3216SOL    HW221285   0.345   4.726   7.975 -0.1524  0.7699  0.2247
 3217SOL     OW21286   3.883   2.586   2.772  0.5030  0.0809  0.3454
 3217SOL    HW121287   3.935   2.539   2.708 -1.8932 -0.2877 -1.3114
 3217SOL    HW221288   3.942   2.573   2.847  0.0987  0.0521  0.6584
 3218SOL     OW21289   1.191   1.207   3.217  0.1872  0.0577 -0.1735
 3218SOL    HW121290   1.196   1.295   3.255 -1.1140  0.7255 -1.5394
 3218SOL    HW221291   1.106   1.174   3.245 -0.0496  0.6981 -0.1437
 3219SOL     OW21292   4.555   2.140  14.488 -0.0414  0.2296  0.0978
 3219SOL    HW121293   4.601   2.223  14.498  1.2360 -0.8404  2.9610
 3219SOL    HW221294   4.590   2.100  14.408 -2.0460 -0.8484 -0.2395
 3220SOL     OW21295   4.571   1.956   3.694  0.5520  0.4512  0.3489
 3220SOL    HW121296   4.645   2.013   3.673 -0.2116  1.4257  0.3026
 3220SOL    HW221297   4.506   2.018   3.728 -1.1631  0.2006 -2.5554
 3221SOL     OW21298   0.876   2.053  12.846  0.1765 -0.0758  0.8633
 3221SOL    HW121299   0.925   1.975  12.818  3.3838  2.5019 -0.6339
 3221SOL    HW221300   0.952   2.109  12.860  1.5520 -0.8157 -3.5649
 3222SOL     OW21301   0.171   2.835   5.071  0.0438 -0.1451  0.2000
 3222SOL    HW121302   0.174   2.740   5.087 -1.5770  0.1214  2.0568
 3222SOL    HW221303   0.084   2.850   5.035  0.0181 -1.2446 -0.1964
 3223SOL     OW21304   1.177   3.299   3.628  0.5203 -0.2371  0.1070
 3223SOL    HW121305   1.238   3.247   3.576 -1.4454 -2.4129 -0.0185
 3223SOL    HW221306   1.232   3.368   3.665  0.0457 -0.4114  1.1499
 3224SOL     OW21307   4.116   2.835   2.350  0.2505 -0.7578  0.4808
 3224SOL    HW121308   4.108   2.788   2.267 -0.3717 -2.0344  1.2776
 3224SOL    HW221309   4.133   2.922   2.313 -1.3666  0.2769  2.1493
 3225SOL     OW21310   3.839   0.383   6.203 -0.4416  0.1224 -0.3288
 3225SOL    HW121311   3.900   0.330   6.152  0.4507 -0.5531  1.4615
 3225SOL    HW221312   3.759   0.329   6.197 -0.2081 -0.1489 -1.0035
 3226SOL     OW21313   3.570   1.975   5.652 -0.5759  0.2732 -0.7230
 3226SOL    HW121314   3.615   1.964   5.736  0.7721  0.5472 -1.4096
 3226SOL    HW221315   3.581   2.069   5.637 -3.0210  0.9449  1.6307
 3227SOL     OW21316   4.312   0.652  13.531  0.4049 -0.4677 -0.6114
 3227SOL    HW121317   4.325   0.746  13.520 -1.8525 -0.2402 -1.4256
 3227SOL    HW221318   4.356   0.622  13.611  0.4442  1.8688  0.2420
 3228SOL     OW21319   3.914   4.126   1.733  0.1382  0.3978 -0.1311
 3228SOL    HW121320   3.867   4.201   1.697 -2.4715  0.2883  3.1034
 3228SOL    HW221321   3.921   4.154   1.824 -2.0109  1.0677 -0.1798
 3229SOL     OW21322   1.618   2.592   3.920  0.8650  0.3519 -0.1324
 3229SOL    HW121323   1.653   2.512   3.961 -1.6185  0.0903  1.4800
 3229SOL    HW221324   1.620   2.648   3.998 -1.7898 -2.6579  2.1454
 3230SOL     OW21325   2.203   0.936   6.221  0.1403  0.1001  0.1120
 3230SOL    HW121326   2.255   0.855   6.223 -0.2766 -0.1492  0.7025
 3230SOL    HW221327   2.247   0.997   6.281 -0.4878 -0.4114  1.0874
 3231SOL     OW21328   0.708   4.513   8.224 -0.0359  0.0825  0.6011
 3231SOL    HW121329   0.699   4.505   8.319  1.5625 -0.8614  0.6734
 3231SOL    HW221330   0.623   4.485   8.189  0.1961 -0.2338  0.2891
 3232SOL     OW21331   3.621   1.192  13.337  0.1202 -0.3733  0.3203
 3232SOL    HW121332   3.614   1.107  13.292  1.3244  0.3908 -1.3103
 3232SOL    HW221333   3.594   1.256  13.271 -0.6123 -0.4345  0.5590
 3233SOL     OW21334   2.160   2.349  11.749 -0.0103 -0.0616  0.3357
 3233SOL    HW121335   2.255   2.351  11.750 -0.0713  0.5959  4.4336
 3233SOL    HW221336   2.141   2.383  11.662  0.6578  0.2694  0.3218
 3234SOL     OW21337   1.329   0.478   7.768 -0.3555 -0.1430 -0.2472
 3234SOL    HW121338   1.400   0.415   7.768  0.1731  0.4511 -0.0166
 3234SOL    HW221339   1.386   0.555   7.762 -0.7609  0.0958 -1.0552
 3235SOL     OW21340   0.775   3.688   5.426 -0.5392  0.0256  0.0868
 3235SOL    HW121341   0.842   3.756   5.426  0.0594 -0.5786  1.4233
 3235SOL    HW221342   0.787   3.644   5.341 -0.4260  0.8803 -0.3436
 3236SOL     OW21343   2.320   1.218   0.510 -0.4124 -0.1927  0.4585
 3236SOL    HW121344   2.387   1.260   0.456 -0.5357 -0.1913  0.3047
 3236SOL    HW221345   2.289   1.140   0.465 -0.5993  1.1173 -1.6761
 3237SOL     OW21346   0.300   1.907   5.277  0.3140 -0.2125  0.1649
 3237SOL    HW121347   0.374   1.960   5.307  0.0206 -1.9130  3.8395
 3237SOL    HW221348   0.334   1.842   5.216 -0.7535 -1.5869  1.0428
 3238SOL     OW21349   3.701   0.952   3.895  0.2202  0.0734  0.1508
 3238SOL    HW121350   3.634   0.936   3.829  0.5418  0.1852 -0.1990
 3238SOL    HW221351   3.645   0.975   3.969  0.5217 -3.5898  1.4948
 3239SOL     OW21352   2.074   0.717   5.649 -0.2236 -0.9042  0.0954
 3239SOL    HW121353   2.144   0.718   5.584  0.8963  2.3112  1.3633
 3239SOL    HW221354   2.110   0.777   5.714 -1.5572 -0.1447  0.1283
 3240SOL     OW21355   3.885   1.749   8.979 -0.1883  0.5292 -0.0763
 3240SOL    HW121356   3.859   1.790   9.062  0.0494  0.7504 -0.1123
 3240SOL    HW221357   3.802   1.768   8.935 -0.6061  3.0712  1.7807
 3241SOL     OW21358   2.152   0.652  10.086 -0.5318  0.5449 -1.1967
 3241SOL    HW121359   2.145   0.652  10.181  1.9697  1.0984 -1.0011
 3241SOL    HW221360   2.092   0.723  10.065  1.7683  2.9992  0.6387
 3242SOL     OW21361   3.327   0.633   6.844 -0.4174  0.0892  0.0921
 3242SOL    HW121362   3.270   0.680   6.905 -1.2255  2.2911 -2.3848
 3242SOL    HW221363   3.355   0.702   6.785 -0.3690  1.4065  1.6483
 3243SOL     OW21364   3.004   2.411   3.042 -0.0493  0.2527  0.5513
 3243SOL    HW121365   2.954   2.329   3.040 -0.0703  0.3602 -2.7152
 3243SOL    HW221366   2.992   2.447   2.954  0.6198 -0.9143 -0.0141
 3244SOL     OW21367   0.964   1.458   3.230 -0.1864 -0.3078 -0.3809
 3244SOL    HW121368   0.920   1.374   3.245 -0.5290 -0.1424 -0.4712
 3244SOL    HW221369   1.055   1.439   3.252 -0.0586  0.9584  0.2008
 3245SOL     OW21370   2.405   0.248  14.999 -0.4174  0.4877  0.3935
 3245SOL    HW121371   2.338   0.194  14.957 -0.7173 -0.0644  1.5758
 3245SOL    HW221372   2.484   0.206  14.967 -1.2370 -2.0612  1.7019
 3246SOL     OW21373   1.485   1.351   5.433  0.2813  0.2398 -0.5460
 3246SOL    HW121374   1.558   1.291   5.419  0.1783 -0.1578  0.5745
 3246SOL    HW221375   1.520   1.437   5.410  1.5924 -0.0655  0.3535
 3247SOL     OW21376   4.132   2.483  10.951 -0.0233 -0.2370  0.2887
 3247SOL    HW121377   4.100   2.570  10.978 -0.9951 -0.9279  1.3383
 3247SOL    HW221378   4.052   2.453  10.909 -0.4919 -0.1267  1.1003
 3248SOL     OW21379   1.459   0.468  13.083 -0.2126  0.1006 -0.1110
 3248SOL    HW121380   1.492   0.557  13.077 -0.0046  0.2171  2.9162
 3248SOL    HW221381   1.372   0.480  13.122 -0.5173 -1.3838 -0.3416
 3249SOL     OW21382   0.686   3.684  14.941  0.4196  0.3399  0.2413
 3249SOL    HW121383   0.724   3.657  14.857  0.9854 -0.6530  0.8189
 3249SOL    HW221384   0.663   3.597  14.974 -1.4001  0.7156 -0.0681
 3250SOL     OW21385   4.056   4.389   9.401 -0.6588 -0.1804  0.1471
 3250SOL    HW121386   3.964   4.406   9.423 -0.5326  1.2466 -0.4188
 3250SOL    HW221387   4.084   4.478   9.420  0.3285 -0.4473 -0.0539
 3251SOL     OW21388   3.100   0.024  14.215 -0.1306 -0.0190 -0.5566
 3251SOL    HW121389   3.106   4.670  14.188  2.4250  0.1922 -0.7266
 3251SOL    HW221390   3.066   0.072  14.139  1.2044  0.6740 -0.7170
 3252SOL     OW21391   2.804   1.181   4.337  0.1228 -0.6449  0.8257
 3252SOL    HW121392   2.856   1.129   4.398 -0.1324 -1.8215  0.0482
 3252SOL    HW221393   2.715   1.147   4.347  0.1719 -1.1818 -0.5115
 3253SOL     OW21394   1.214   4.461   6.769 -0.2233  0.5556 -0.4454
 3253SOL    HW121395   1.208   4.386   6.828  1.1605  0.8058  0.0307
 3253SOL    HW221396   1.202   4.538   6.824  1.8334 -0.0045  0.8056
 3254SOL     OW21397   1.481   1.303   1.988  0.5350  0.0019 -0.4300
 3254SOL    HW121398   1.541   1.296   1.914  1.4553 -0.1955  0.3360
 3254SOL    HW221399   1.524   1.255   2.058 -1.5231  1.4693  1.8503
 3255SOL     OW21400   2.273   0.815  12.106 -0.4048 -0.0739  0.6780
 3255SOL    HW121401   2.351   0.815  12.161  0.3381 -0.0767 -0.3873
 3255SOL    HW221402   2.296   0.746  12.044  1.5343 -0.1845  1.5292
 3256SOL     OW21403   1.912   3.486   3.580 -0.2120 -0.2954  0.1121
 3256SOL    HW121404   1.946   3.548   3.515 -1.5475 -1.8065 -2.0207
 3256SOL    HW221405   1.821   3.514   3.590 -0.0933 -0.8733  2.6086
 3257SOL     OW21406   4.441   2.003   5.633 -0.1018 -0.3029 -0.2082
 3257SOL    HW121407   4.460   2.067   5.702  0.5705  1.4740 -2.0510
 3257SOL    HW221408   4.517   2.002   5.575 -0.1483  0.3528 -0.2794
 3258SOL     OW21409   2.621   3.126  12.222  0.7170  0.3120  0.2174
 3258SOL    HW121410   2.645   3.072  12.146  3.6087 -1.6398  2.5489
 3258SOL    HW221411   2.702   3.149  12.266  0.5573  0.8901  0.2110
 3259SOL     OW21412   2.523   1.362   3.970  0.4972  0.1731 -0.6168
 3259SOL    HW121413   2.558   1.280   3.935  1.3987  0.2758  0.0431
 3259SOL    HW221414   2.586   1.427   3.937  0.1377 -0.0075 -1.6395
 3260SOL     OW21415   4.689   3.891   5.372 -0.2786 -0.2668 -0.1853
 3260SOL    HW121416   4.653   3.843   5.298  0.0397  0.2648 -0.6767
 3260SOL    HW221417   4.624   3.878   5.441 -2.1556  1.3774 -1.6628
 3261SOL     OW21418   4.063   3.094   2.192  0.2132  0.0920  0.3532
 3261SOL    HW121419   4.097   3.182   2.176  2.5217 -0.6082  1.3920
 3261SOL    HW221420   3.998   3.083   2.123 -0.5436 -1.3242  1.2868
 3262SOL     OW21421   0.939   1.536   7.299 -0.3801  0.1455  0.2370
 3262SOL    HW121422   1.022   1.547   7.255 -2.2781  2.2081 -2.8189
 3262SOL    HW221423   0.921   1.446   7.274 -1.7856  0.2630  0.7985
 3263SOL     OW21424   1.926   1.841   7.580 -0.3087  0.0436 -0.1860
 3263SOL    HW121425   1.994   1.774   7.587 -0.4524 -0.4151 -2.8917
 3263SOL    HW221426   1.916   1.844   7.484  1.8763 -2.1199 -0.4806
 3264SOL     OW21427   1.484   4.186   5.016  0.6337  0.1524 -0.6077
 3264SOL    HW121428   1.459   4.265   5.065 -0.9215 -1.4137  1.1636
 3264SOL    HW221429   1.403   4.140   4.993 -0.7202  1.5395  1.2488
 3265SOL     OW21430   1.970   1.785  12.058 -0.5338 -0.0651  0.5662
 3265SOL    HW121431   1.877   1.787  12.036 -0.1702  1.2709 -0.8486
 3265SOL    HW221432   1.968   1.697  12.096  1.0758 -0.7902 -1.0397
 3266SOL     OW21433   4.713   1.383   0.575 -0.4067  0.8848  0.3363
 3266SOL    HW121434   4.684   1.295   0.551 -2.3056  0.9846  2.3094
 3266SOL    HW221435   4.637   1.437   0.557 -3.2588 -3.2133  0.0999
 3267SOL     OW21436   4.207   3.576   3.689 -0.3960 -0.1965 -0.1639
 3267SOL    HW121437   4.122   3.597   3.728  0.0250  0.8331  0.2113
 3267SOL    HW221438   4.207   3.482   3.670  1.0738 -0.2951  0.3563
 3268SOL     OW21439   3.736   0.485   9.507 -0.2331 -0.1292 -0.6192
 3268SOL    HW121440   3.704   0.441   9.586  2.3331 -2.7313 -1.0465
 3268SOL    HW221441   3.681   0.445   9.440  0.8046 -0.3042 -1.3798
 3269SOL     OW21442   3.600   0.210   4.146  0.2238 -0.0118  0.2125
 3269SOL    HW121443   3.677   0.247   4.191  0.6209 -1.3968  0.6972
 3269SOL    HW221444   3.606   0.117   4.167 -0.2399 -0.1216 -0.1541
 3270SOL     OW21445   3.194   0.409   8.038  0.5237 -0.2906 -0.2007
 3270SOL    HW121446   3.187   0.316   8.019  1.7388 -0.3794 -0.2116
 3270SOL    HW221447   3.288   0.418   8.053  0.4228 -1.8857  1.4642
 3271SOL     OW21448   0.404   2.611   1.558 -0.3279 -0.1921 -0.2779
 3271SOL    HW121449   0.434   2.660   1.481 -1.7129 -1.8749 -1.9032
 3271SOL    HW221450   0.340   2.668   1.599  0.1615 -0.7546  1.2553
 3272SOL     OW21451   2.534   2.772   5.690  0.4135  0.4950 -0.8272
 3272SOL    HW121452   2.455   2.726   5.662  1.3168  1.3655 -4.8153
 3272SOL    HW221453   2.525   2.808   5.778  1.1893 -0.2326 -0.4485
 3273SOL     OW21454   2.396   1.598   2.346  0.1744 -0.5960  0.6924
 3273SOL    HW121455   2.321   1.646   2.312 -0.4561  0.4966  3.6541
 3273SOL    HW221456   2.387   1.612   2.440  1.3943  0.0970  0.7152
 3274SOL     OW21457   2.891   0.008  13.468 -0.3332  1.0179 -0.1862
 3274SOL    HW121458   2.972   0.032  13.423  0.2791 -2.5002 -0.9686
 3274SOL    HW221459   2.859   0.096  13.488  0.5435  1.3938 -0.4654
 3275SOL     OW21460   1.002   0.159   8.569 -0.2658 -0.6614 -0.2163
 3275SOL    HW121461   0.982   0.182   8.659 -1.2349  1.0405 -0.8664
 3275SOL    HW221462   0.918   0.121   8.545 -0.6663  1.3669 -2.1118
 3276SOL     OW21463   0.073   2.284   1.576 -0.1579  0.2745  0.0896
 3276SOL    HW121464   0.030   2.202   1.555 -1.6383  0.4615  2.5254
 3276SOL    HW221465   0.032   2.336   1.507  0.3874 -1.0685 -1.2494
 3277SOL     OW21466   3.927   1.914   6.124 -0.7349  0.0677  0.6858
 3277SOL    HW121467   3.914   1.820   6.114 -2.2309  0.4530 -0.9523
 3277SOL    HW221468   3.929   1.945   6.034 -1.6627 -1.9591 -0.0274
 3278SOL     OW21469   3.550   2.572   9.379  0.3383 -0.6488 -0.1335
 3278SOL    HW121470   3.501   2.620   9.312 -0.3565  0.0035  0.8377
 3278SOL    HW221471   3.477   2.540   9.432 -0.2962  1.6747  0.4049
 3279SOL     OW21472   2.538   0.802   3.322  0.1736  0.5948 -0.0681
 3279SOL    HW121473   2.571   0.714   3.339  0.3330  0.6274 -0.2154
 3279SOL    HW221474   2.560   0.859   3.396 -0.6391  2.9376 -1.6534
 3280SOL     OW21475   1.790   2.208  17.499  0.1668 -0.0618 -0.5382
 3280SOL    HW121476   1.826   2.131  17.543  0.1381  0.0429 -0.3308
 3280SOL    HW221477   1.696   2.191  17.489 -0.0986  1.0717  0.0653
 3281SOL     OW21478   2.760   3.010  14.855  0.2002 -0.0118 -0.0704
 3281SOL    HW121479   2.851   2.990  14.835  0.3261  0.5571 -0.0519
 3281SOL    HW221480   2.766   3.065  14.933 -0.5362  0.5504 -0.4078
 3282SOL     OW21481   2.017   1.411   7.667 -0.7421 -0.1496  0.7651
 3282SOL    HW121482   1.928   1.377   7.662 -0.5897 -0.4810  0.2890
 3282SOL    HW221483   2.025   1.428   7.761 -2.1222 -0.1522  0.8815
 3283SOL     OW21484   3.945   1.648   6.654  0.3325 -0.2162  0.2185
 3283SOL    HW121485   3.951   1.572   6.595 -0.1218  0.8801 -1.2423
 3283SOL    HW221486   3.960   1.719   6.591  2.0698  0.4296  1.3841
 3284SOL     OW21487   1.971   4.328   6.405 -0.1616 -0.3509 -0.5837
 3284SOL    HW121488   1.963   4.405   6.348 -1.0893  0.6413  0.9124
 3284SOL    HW221489   2.033   4.355   6.473 -2.2183  3.4390 -0.2682
 3285SOL     OW21490   4.697   3.071  15.832 -0.4115  0.0103  0.0727
 3285SOL    HW121491   4.671   3.099  15.744  1.9233 -0.5281 -0.7949
 3285SOL    HW221492   4.695   3.156  15.876  2.5604 -0.2776  0.7207
 3286SOL     OW21493   3.765   4.084   6.698  0.0100 -0.0177 -0.6242
 3286SOL    HW121494   3.749   3.995   6.727  2.6244 -1.4501 -3.5374
 3286SOL    HW221495   3.852   4.100   6.734 -0.0516 -1.5938  0.1933
 3287SOL     OW21496   0.376   4.609   3.660 -0.2019 -0.2449 -0.0556
 3287SOL    HW121497   0.338   4.607   3.748 -1.1846 -0.8744 -0.4949
 3287SOL    HW221498   0.301   4.632   3.605 -1.4899 -1.6714  1.0963
 3288SOL     OW21499   1.974   4.288   6.849 -0.4212  0.1384  0.1620
 3288SOL    HW121500   1.944   4.207   6.889  1.7664  0.2134  1.9745
 3288SOL    HW221501   1.995   4.261   6.759 -1.4567 -0.2509  0.0353
 3289SOL     OW21502   3.614   0.275   7.631  0.1297 -0.1911 -0.6772
 3289SOL    HW121503   3.641   0.364   7.654 -0.5523 -0.1767  0.0658
 3289SOL    HW221504   3.703   0.241   7.618 -1.2443 -4.2213  0.7270
 3290SOL     OW21505   2.691   4.646   4.457 -0.3019  0.2252 -0.0867
 3290SOL    HW121506   2.610   4.690   4.487  0.2945  0.7992  0.6893
 3290SOL    HW221507   2.731   4.627   4.542  0.2351 -1.5612 -0.7510
 3291SOL     OW21508   0.412   0.281   4.459 -0.1362  0.2194  0.0071
 3291SOL    HW121509   0.493   0.327   4.435 -0.7505  1.7106  0.7889
 3291SOL    HW221510   0.364   0.344   4.513 -1.1109  0.4235 -1.1071
 3292SOL     OW21511   2.190   2.381  12.839 -0.5283 -0.0625 -0.6481
 3292SOL    HW121512   2.134   2.336  12.777 -0.5805 -0.7155 -0.1287
 3292SOL    HW221513   2.203   2.465  12.794 -0.7625  0.6934  0.6642
 3293SOL     OW21514   0.881   3.730   1.740 -0.3200  0.3566  0.3003
 3293SOL    HW121515   0.833   3.651   1.764  2.7986 -0.7411  2.8645
 3293SOL    HW221516   0.932   3.690   1.670 -2.0753 -0.4049 -0.5464
 3294SOL     OW21517   2.329   4.556   4.400  1.2312  0.3482 -0.0766
 3294SOL    HW121518   2.275   4.509   4.337  0.2448 -0.5011  1.3962
 3294SOL    HW221519   2.303   4.647   4.384 -0.8018 -0.4784 -1.3990
 3295SOL     OW21520   1.142   2.698   4.738 -0.4118  0.5459  0.2591
 3295SOL    HW121521   1.110   2.781   4.772  0.4814  0.7377  0.6402
 3295SOL    HW221522   1.235   2.715   4.753 -0.2675  0.1129 -0.1172
 3296SOL     OW21523   1.466   0.191  14.190 -0.9387 -0.6306  0.7435
 3296SOL    HW121524   1.531   0.199  14.259  1.5005 -1.4665 -1.4447
 3296SOL    HW221525   1.454   0.097  14.182  0.3361 -0.7986  0.8604
 3297SOL     OW21526   2.773   0.154   2.398 -0.3011 -0.4159  0.0811
 3297SOL    HW121527   2.691   0.133   2.354 -0.2832  1.4054 -0.8011
 3297SOL    HW221528   2.736   0.184   2.481 -3.3308  0.5264 -1.6351
 3298SOL     OW21529   3.993   0.121  17.227 -0.0152  0.1910  0.8247
 3298SOL    HW121530   4.003   0.193  17.165 -1.4116 -1.1720 -0.9725
 3298SOL    HW221531   3.898   0.129  17.234 -0.1122  2.2999 -2.9199
 3299SOL     OW21532   1.409   0.462   5.955  0.0672 -0.2024  0.1078
 3299SOL    HW121533   1.390   0.410   5.877 -1.9833 -1.4663  1.4590
 3299SOL    HW221534   1.483   0.518   5.931 -0.4954  0.4920 -0.0068
 3300SOL     OW21535   3.319   2.622  14.629 -0.0639  0.4593  0.0261
 3300SOL    HW121536   3.412   2.612  14.608  0.0196  0.0231  0.6088
 3300SOL    HW221537   3.283   2.538  14.600  3.0968 -1.5550  1.9948
 3301SOL     OW21538   4.357   3.765   3.100  0.6975 -0.2073 -0.1779
 3301SOL    HW121539   4.412   3.692   3.128 -0.8041 -0.8524  1.0923
 3301SOL    HW221540   4.326   3.795   3.186  0.0995  0.6402 -0.6965
 3302SOL     OW21541   0.074   2.779   6.355 -0.5048 -0.4415  0.0662
 3302SOL    HW121542   0.061   2.858   6.407 -2.6655 -1.5931  1.2948
 3302SOL    HW221543   0.129   2.808   6.282  1.0119  0.4226  1.5544
 3303SOL     OW21544   0.437   3.858   6.846 -0.1534 -0.1955  0.1565
 3303SOL    HW121545   0.426   3.953   6.843 -0.0963 -0.2635 -2.1999
 3303SOL    HW221546   0.351   3.826   6.875 -0.2213 -0.8281 -0.7447
 3304SOL     OW21547   2.437   2.863   5.929 -0.2255 -0.1456 -0.0276
 3304SOL    HW121548   2.346   2.834   5.926 -0.1570 -0.2496 -0.9282
 3304SOL    HW221549   2.449   2.883   6.022 -0.0748 -2.0841  0.3763
 3305SOL     OW21550   0.414   4.591   8.560  0.3015 -0.3384 -0.2183
 3305SOL    HW121551   0.333   4.560   8.600  0.2410 -0.0687 -0.1293
 3305SOL    HW221552   0.396   4.685   8.568  3.1578  0.0911  1.0727
 3306SOL     OW21553   0.693   4.052   2.683  0.6640 -0.2862  0.2750
 3306SOL    HW121554   0.698   3.975   2.740  0.1513  0.0147  0.7343
 3306SOL    HW221555   0.701   4.013   2.596 -0.9210  0.8681 -0.3759
 3307SOL     OW21556   2.787   3.812   7.488 -0.0482  0.3321  0.0418
 3307SOL    HW121557   2.763   3.847   7.402  0.0188 -0.0860 -0.1487
 3307SOL    HW221558   2.701   3.791   7.523  0.0266 -1.0168 -0.5793
 3308SOL     OW21559   0.966   2.475   6.305 -0.6578  0.0560 -0.7090
 3308SOL    HW121560   0.930   2.387   6.296 -1.3517  0.0516  1.9846
 3308SOL    HW221561   1.028   2.446   6.372 -0.1483  1.3890 -0.6163
 3309SOL     OW21562   2.205   3.194   8.101 -0.4802 -0.1347  0.2041
 3309SOL    HW121563   2.118   3.172   8.068 -0.2830 -0.1795 -0.2762
 3309SOL    HW221564   2.238   3.112   8.139  0.7756  0.4433  0.3609
 3310SOL     OW21565   1.108   4.637   5.201 -0.5903 -0.5031 -0.3482
 3310SOL    HW121566   1.068   4.552   5.182  0.3309 -1.0177 -0.0036
 3310SOL    HW221567   1.037   4.697   5.224  0.2080 -0.2383  1.4291
 3311SOL     OW21568   0.421   2.396   8.593  0.1037 -0.0802 -0.0263
 3311SOL    HW121569   0.371   2.478   8.593 -1.9626 -1.3510 -0.2549
 3311SOL    HW221570   0.481   2.405   8.519 -0.8430 -1.8795 -1.0013
 3312SOL     OW21571   1.015   1.613   2.973 -0.0065  0.4150  0.4300
 3312SOL    HW121572   0.937   1.569   2.939 -0.3368 -0.2558  2.0895
 3312SOL    HW221573   1.014   1.579   3.062  3.3994 -2.5151 -0.6818
 3313SOL     OW21574   2.325   4.642   2.935 -0.0112  0.2519 -0.4749
 3313SOL    HW121575   2.281   4.575   2.988  0.5511 -0.5338 -0.9908
 3313SOL    HW221576   2.279   4.630   2.852  0.3017 -1.1113 -0.4646
 3314SOL     OW21577   3.509   3.606  17.524  0.4170 -0.4787  0.6109
 3314SOL    HW121578   3.458   3.604  17.443  1.8134 -1.3229 -0.2683
 3314SOL    HW221579   3.585   3.656  17.494 -1.0754  1.6491  0.4611
 3315SOL     OW21580   2.160   0.112  14.856 -0.5006 -0.3191  0.0037
 3315SOL    HW121581   2.164   0.144  14.765 -1.2761  1.2612  0.5261
 3315SOL    HW221582   2.065   0.112  14.869 -0.6661 -1.6772 -1.2348
 3316SOL     OW21583   1.835   3.836   0.488 -0.2921  0.2821  0.3839
 3316SOL    HW121584   1.798   3.753   0.458 -1.4498  1.2032 -0.7725
 3316SOL    HW221585   1.767   3.857   0.552  1.1277  1.3453  1.5286
 3317SOL     OW21586   2.503   0.259   5.827  0.4156 -0.1787 -0.1840
 3317SOL    HW121587   2.487   0.309   5.907  2.5798  0.9117 -0.4437
 3317SOL    HW221588   2.491   0.329   5.763  0.4452  1.2975  1.3973
 3318SOL     OW21589   1.843   2.666   2.930  0.6320 -0.1715  0.0300
 3318SOL    HW121590   1.935   2.640   2.918  0.7103  1.3347 -2.5989
 3318SOL    HW221591   1.838   2.746   2.878 -0.1369 -0.3900 -0.2378
 3319SOL     OW21592   0.675   3.288   7.137  0.3402  0.0875  0.8270
 3319SOL    HW121593   0.617   3.215   7.157  0.7673 -0.3791  0.3404
 3319SOL    HW221594   0.766   3.260   7.126 -0.0923 -1.4800  1.2724
 3320SOL     OW21595   4.526   0.275   4.538  0.5139 -0.3943  0.2896
 3320SOL    HW121596   4.493   0.351   4.585  1.7348  0.2309  0.1429
 3320SOL    HW221597   4.506   0.280   4.445  1.7312 -1.1080 -0.0024
 3321SOL     OW21598   3.648   1.167   4.851  0.1939 -0.6529  0.5625
 3321SOL    HW121599   3.607   1.087   4.885  1.2039 -2.1733 -1.7572
 3321SOL    HW221600   3.738   1.154   4.880  0.8096 -1.7329 -1.8346
 3322SOL     OW21601   3.369   3.941  13.329 -0.3155  0.0130 -0.6075
 3322SOL    HW121602   3.369   3.868  13.392 -3.2926  0.0942 -0.5397
 3322SOL    HW221603   3.371   4.020  13.383 -1.1114 -1.1716  1.1555
 3323SOL     OW21604   0.063   3.097   9.375 -0.3237 -0.0509  0.7966
 3323SOL    HW121605   0.130   3.097   9.444  0.4970 -1.2375 -0.0091
 3323SOL    HW221606   0.006   3.029   9.411 -1.9414  0.3498 -1.0207
 3324SOL     OW21607   4.510   0.225   7.090  0.3240  0.7693  0.4654
 3324SOL    HW121608   4.515   0.205   7.184 -3.0045 -2.0505  0.0594
 3324SOL    HW221609   4.475   0.314   7.091 -2.2761 -0.2201 -3.5142
 3325SOL     OW21610   4.010   4.689   6.118 -0.4223  0.1187 -0.5615
 3325SOL    HW121611   4.001   0.014   6.189  0.1723 -0.3581 -0.0684
 3325SOL    HW221612   3.975   4.608   6.155 -0.9212  0.8769  0.6121
 3326SOL     OW21613   3.753   3.339   5.652  0.0213 -0.7987 -0.5592
 3326SOL    HW121614   3.742   3.292   5.735  0.5829 -1.8938 -1.1056
 3326SOL    HW221615   3.711   3.285   5.586 -1.9037 -0.2256  0.1905
 3327SOL     OW21616   4.087   3.695   2.510 -0.9258 -0.1365 -0.0060
 3327SOL    HW121617   4.053   3.617   2.554 -2.8044 -0.1054 -1.3600
 3327SOL    HW221618   4.150   3.731   2.572  0.5174  0.0734 -1.6040
 3328SOL     OW21619   3.426   3.222   5.831 -0.5143 -0.2017 -0.5024
 3328SOL    HW121620   3.353   3.201   5.772 -2.6279  1.1524  1.6141
 3328SOL    HW221621   3.411   3.316   5.843 -0.8856 -0.3469  0.1697
 3329SOL     OW21622   3.366   2.492   1.946 -0.0008  0.6310  0.1921
 3329SOL    HW121623   3.363   2.398   1.925 -0.6981  1.1693 -2.1580
 3329SOL    HW221624   3.304   2.525   1.881 -1.6847 -1.7315  0.5868
 3330SOL     OW21625   3.684   1.830   3.624 -0.3330 -0.1830  0.2489
 3330SOL    HW121626   3.676   1.781   3.542 -0.2616  0.5577 -0.2003
 3330SOL    HW221627   3.647   1.770   3.689 -0.9431  1.1959  1.1613
 3331SOL     OW21628   3.558   0.933  12.903 -0.2256  0.4554  0.1019
 3331SOL    HW121629   3.632   0.980  12.864 -0.2565 -1.0552 -1.7705
 3331SOL    HW221630   3.587   0.842  12.898  0.8784  0.7227  1.7150
 3332SOL     OW21631   1.553   3.127  17.368  0.0630 -0.2869 -0.2866
 3332SOL    HW121632   1.460   3.116  17.349 -0.1724 -1.1694  1.3703
 3332SOL    HW221633   1.543   3.156  17.459  0.6246 -1.5480  0.1734
 3333SOL     OW21634   1.516   3.383   6.832  0.1798 -0.2206  0.1058
 3333SOL    HW121635   1.555   3.440   6.898  1.1724  0.9706 -1.5213
 3333SOL    HW221636   1.586   3.317   6.833 -0.3364 -0.7459  2.2383
 3334SOL     OW21637   1.630   2.061   8.826 -0.4985  0.4533 -0.2353
 3334SOL    HW121638   1.723   2.062   8.847 -0.4034  1.7514 -0.7253
 3334SOL    HW221639   1.618   2.152   8.801  2.5967  0.9345  0.1619
 3335SOL     OW21640   2.834   1.781  10.232  0.3619 -0.1190  0.2571
 3335SOL    HW121641   2.879   1.707  10.191 -1.3224 -1.8333  1.4900
 3335SOL    HW221642   2.876   1.783  10.318  0.5439  0.8995  0.1427
 3336SOL     OW21643   3.884   3.922   2.027  0.7840 -0.0421 -0.4429
 3336SOL    HW121644   3.811   3.882   1.980 -0.8598 -0.1145  2.1513
 3336SOL    HW221645   3.951   3.856   2.008  0.1902 -0.4051 -1.3070
 3337SOL     OW21646   1.389   3.544   7.249 -0.1506 -0.2837 -0.3590
 3337SOL    HW121647   1.344   3.573   7.170 -1.6171 -0.4870  0.3967
 3337SOL    HW221648   1.313   3.516   7.300 -1.1583 -0.9292 -2.2111
 3338SOL     OW21649   3.415   1.937   4.324  0.0256  0.1719 -0.7860
 3338SOL    HW121650   3.350   1.900   4.384  0.2634  0.2332 -0.4885
 3338SOL    HW221651   3.461   1.862   4.287 -1.0039 -0.8640  0.0261
 3339SOL     OW21652   0.737   4.298   3.452 -0.2062 -0.0718 -0.0325
 3339SOL    HW121653   0.760   4.324   3.363  0.9101  1.1597  0.6014
 3339SOL    HW221654   0.709   4.207   3.443 -0.3280  0.0830 -1.2239
 3340SOL     OW21655   4.452   2.529  15.927  0.5207  0.7649  0.0866
 3340SOL    HW121656   4.408   2.444  15.935  0.5315  0.8369  0.8947
 3340SOL    HW221657   4.413   2.580  15.997  1.9112  0.4166  1.1233
 3341SOL     OW21658   1.903   0.673   3.946  0.4151  0.1121 -0.0181
 3341SOL    HW121659   1.942   0.585   3.950  0.1962  0.0409  0.4981
 3341SOL    HW221660   1.821   0.663   3.898  0.3063  3.2572 -0.4876
 3342SOL     OW21661   0.270   1.560   1.907 -0.4616 -0.2850  0.3829
 3342SOL    HW121662   0.222   1.503   1.967 -1.1891 -1.3782 -1.2365
 3342SOL    HW221663   0.200   1.606   1.860  1.8358  2.5584 -0.2840
 3343SOL     OW21664   3.525   3.496  17.112 -0.4213 -0.2469  0.3647
 3343SOL    HW121665   3.517   3.537  17.026  1.2055  0.6312  0.6194
 3343SOL    HW221666   3.498   3.409  17.083 -1.3795  0.5202 -1.0449
 3344SOL     OW21667   0.071   2.292   8.616 -0.3577  0.8015  0.5364
 3344SOL    HW121668   0.068   2.362   8.551 -2.9809  1.5310  1.4635
 3344SOL    HW221669   4.724   2.302   8.659 -0.4002 -0.0369  0.6552
 3345SOL     OW21670   3.030   4.347   3.352 -0.1788 -0.4387  0.4036
 3345SOL    HW121671   3.108   4.324   3.403  1.1444  0.1670 -1.3441
 3345SOL    HW221672   3.018   4.260   3.314 -1.7561 -0.1727  0.3221
 3346SOL     OW21673   0.090   4.611  17.635  0.4863 -0.2160 -0.0309
 3346SOL    HW121674   0.167   4.562  17.606  1.7981  0.8149  1.7337
 3346SOL    HW221675   0.027   4.539  17.646 -0.0669 -0.0005 -1.7138
 3347SOL     OW21676   3.651   0.608   2.140 -0.3539  0.4534  0.6107
 3347SOL    HW121677   3.608   0.630   2.057 -0.2146 -0.2288  0.3569
 3347SOL    HW221678   3.619   0.520   2.162 -0.8147  0.1652 -1.2612
 3348SOL     OW21679   0.247   3.052  15.211 -0.0224  0.1717 -0.3298
 3348SOL    HW121680   0.163   3.038  15.256 -0.4826  0.1495 -1.1980
 3348SOL    HW221681   0.291   3.111  15.273  0.3559  1.4471 -1.8040
 3349SOL     OW21682   1.723   0.842   2.116 -0.1092  0.0168  0.4135
 3349SOL    HW121683   1.743   0.836   2.210  0.8620 -0.5728  0.1690
 3349SOL    HW221684   1.806   0.880   2.087  0.7629 -3.0357 -1.0793
 3350SOL     OW21685   2.861   1.776  10.648  0.1609  0.0050 -0.2586
 3350SOL    HW121686   2.770   1.780  10.677  0.5237 -2.2334  1.1598
 3350SOL    HW221687   2.858   1.682  10.631  0.8206  0.0542 -0.6281
 3351SOL     OW21688   4.324   4.648   9.196  0.2450  0.7929  0.0533
 3351SOL    HW121689   4.397   4.669   9.255  0.3319  1.6907 -0.3640
 3351SOL    HW221690   4.364   4.683   9.117  0.2587  3.0684  1.0672
 3352SOL     OW21691   0.890   2.922  12.958 -0.8983 -0.0540  0.3253
 3352SOL    HW121692   0.909   3.006  12.916  2.0516 -0.3451  1.0594
 3352SOL    HW221693   0.925   2.947  13.043 -0.4610  0.0807  0.1091
 3353SOL     OW21694   2.913   3.372   7.030 -0.2340 -0.4001 -0.1800
 3353SOL    HW121695   2.886   3.381   7.121  1.1689 -1.9173  0.3828
 3353SOL    HW221696   2.840   3.334   6.981  0.1225  1.0612 -1.8392
 3354SOL     OW21697   3.254   2.981   9.370 -0.0927 -0.1837 -0.5118
 3354SOL    HW121698   3.260   2.985   9.465  2.6916 -2.9355 -0.5630
 3354SOL    HW221699   3.202   3.059   9.353  1.2945  0.5499 -1.3908
 3355SOL     OW21700   2.473   4.498  16.430  0.6689  0.2960 -0.2475
 3355SOL    HW121701   2.537   4.570  16.431 -0.9155  1.6733  2.5318
 3355SOL    HW221702   2.439   4.484  16.519 -0.4590 -2.6440 -1.1637
 3356SOL     OW21703   4.224   4.472   3.827  0.1788  0.2025 -0.0271
 3356SOL    HW121704   4.155   4.536   3.844 -1.5792 -1.3090 -1.5554
 3356SOL    HW221705   4.181   4.395   3.863  2.4394 -0.7326  0.6906
 3357SOL     OW21706   0.748   0.880  15.470  0.5573  0.2203 -0.1093
 3357SOL    HW121707   0.694   0.898  15.547 -2.4664  0.4875 -2.3050
 3357SOL    HW221708   0.734   0.785  15.466  0.0223  0.3162 -0.6929
 3358SOL     OW21709   4.334   4.667   6.816 -0.5574  0.2661  0.0335
 3358SOL    HW121710   4.313   0.020   6.792  0.7213  1.3807  3.1231
 3358SOL    HW221711   4.248   4.626   6.818 -1.2874  1.7046 -2.2868
 3359SOL     OW21712   3.685   0.004  17.049  0.7198 -0.4720 -0.2534
 3359SOL    HW121713   3.744   4.690  17.104 -0.3455  1.4607  2.7192
 3359SOL    HW221714   3.689   4.698  16.964  0.6383  3.0636 -2.0556
 3360SOL     OW21715   0.798   2.887   7.222  0.6797 -0.7803  0.2293
 3360SOL    HW121716   0.729   2.862   7.283  0.4087  2.7592  1.3481
 3360SOL    HW221717   0.793   2.816   7.158 -0.8525 -0.7184  0.2952
 3361SOL     OW21718   0.085   0.943   8.523 -0.4760  0.0228  0.5638
 3361SOL    HW121719   0.108   0.960   8.615 -1.1241  1.2219  0.4943
 3361SOL    HW221720   4.734   0.909   8.535 -0.1722 -1.3213 -1.1067
 3362SOL     OW21721   0.090   4.324   7.660 -0.7263  0.1492 -0.0315
 3362SOL    HW121722   0.165   4.379   7.683  1.3535 -1.9591 -1.7350
 3362SOL    HW221723   0.044   4.389   7.608 -0.1171 -1.0321 -2.0251
 3363SOL     OW21724   0.468   1.784   6.832  0.1200 -0.3159 -0.8078
 3363SOL    HW121725   0.388   1.735   6.814 -0.6619  0.9014 -0.6449
 3363SOL    HW221726   0.534   1.716   6.820  1.9723  1.1865  0.7017
 3364SOL     OW21727   4.016   2.172   7.297  0.1376 -0.1541 -0.0910
 3364SOL    HW121728   4.046   2.240   7.358 -1.1934  0.8863 -0.6072
 3364SOL    HW221729   4.073   2.182   7.221 -0.9521 -0.1306 -0.8942
 3365SOL     OW21730   2.269   1.300  11.895 -0.3079  0.1493 -0.1767
 3365SOL    HW121731   2.232   1.270  11.811 -0.0702  1.0265 -0.5969
 3365SOL    HW221732   2.253   1.395  11.886 -1.0991 -0.0109 -0.5206
 3366SOL     OW21733   1.233   0.227   5.419 -0.4417 -0.2034  0.1192
 3366SOL    HW121734   1.170   0.191   5.358 -0.2255  2.2013 -1.5559
 3366SOL    HW221735   1.183   0.221   5.500  0.1798 -0.2990  0.4974
 3367SOL     OW21736   3.497   3.969   7.471  0.2118 -0.2462  0.0588
 3367SOL    HW121737   3.568   3.995   7.531  0.4348 -2.2387  0.6412
 3367SOL    HW221738   3.494   3.874   7.478 -0.4858 -0.2604 -0.4744
 3368SOL     OW21739   1.041   1.214  10.821  0.0201  0.2750  0.1891
 3368SOL    HW121740   0.960   1.206  10.870 -0.6971 -1.3822 -1.2789
 3368SOL    HW221741   1.102   1.168  10.879  0.0703  0.4201  0.2512
 3369SOL     OW21742   2.247   0.629   1.110  0.3958 -0.1625 -0.3348
 3369SOL    HW121743   2.305   0.634   1.185 -1.5069  0.8877  1.0875
 3369SOL    HW221744   2.202   0.546   1.126  2.3581 -0.6589  2.4807
 3370SOL     OW21745   4.095   3.365   3.156 -0.6282 -0.0340  0.0640
 3370SOL    HW121746   4.169   3.329   3.205  0.1827 -0.3327 -1.3652
 3370SOL    HW221747   4.139   3.369   3.071  0.7182 -3.1494  0.5764
 3371SOL     OW21748   2.872   1.666   9.402  0.4815  0.3793 -0.5577
 3371SOL    HW121749   2.784   1.676   9.366  1.1825 -1.7297 -2.8249
 3371SOL    HW221750   2.838   1.666   9.491  0.4185  1.3572 -0.5755
 3372SOL     OW21751   1.696   3.949   3.160 -0.4006 -0.0046 -0.4568
 3372SOL    HW121752   1.789   3.955   3.138 -0.4869  0.4516 -0.6913
 3372SOL    HW221753   1.660   4.018   3.105 -0.4618 -0.0482 -0.4717
 3373SOL     OW21754   1.689   2.536   3.123  0.1189  0.1748 -0.3487
 3373SOL    HW121755   1.753   2.591   3.078  2.5723 -0.8869  1.8173
 3373SOL    HW221756   1.742   2.456   3.131  0.0384  0.1873  0.3635
 3374SOL     OW21757   4.377   0.954   0.945  0.2454  0.5442 -0.1028
 3374SOL    HW121758   4.328   1.003   1.010 -2.1715 -2.4899  0.3758
 3374SOL    HW221759   4.400   1.028   0.888  0.3082  0.1346 -0.6119
 3375SOL     OW21760   2.935   0.079   5.475  0.1078  0.4533  0.1646
 3375SOL    HW121761   2.919   0.091   5.569  0.9084  0.8171  0.2520
 3375SOL    HW221762   3.027   0.053   5.476  0.1937  0.8001  1.2938
 3376SOL     OW21763   3.615   1.671   8.392 -0.6452  0.3042  0.1059
 3376SOL    HW121764   3.639   1.587   8.351  1.1551  0.6414  0.4681
 3376SOL    HW221765   3.654   1.737   8.334  0.4229 -1.1260 -0.8218
 3377SOL     OW21766   2.757   0.773   6.896  0.4270 -0.5967  0.0462
 3377SOL    HW121767   2.792   0.816   6.818 -1.4971  1.2035  0.1725
 3377SOL    HW221768   2.756   0.844   6.961  1.8500 -1.0381  0.5430
 3378SOL     OW21769   1.319   2.197   6.865 -0.2399 -0.2029  0.3525
 3378SOL    HW121770   1.276   2.249   6.797 -0.1962 -1.5240 -0.6862
 3378SOL    HW221771   1.257   2.223   6.933 -1.0264  0.4049 -0.6033
 3379SOL     OW21772   4.737   2.896   9.737  0.2510 -0.0617 -0.5260
 3379SOL    HW121773   4.688   2.934   9.810  1.7934 -1.2519  1.1159
 3379SOL    HW221774   4.736   2.959   9.664 -2.8007  0.1299 -0.3198
 3380SOL     OW21775   1.650   0.542   1.800 -0.1039 -0.2926 -0.2364
 3380SOL    HW121776   1.612   0.539   1.712 -2.2217 -0.9620  0.6993
 3380SOL    HW221777   1.574   0.515   1.851 -0.1064 -1.8366 -1.0749
 3381SOL     OW21778   0.090   2.523  10.963 -0.4107  0.2804 -0.2713
 3381SOL    HW121779   0.178   2.539  10.929 -0.1562  0.5555  0.5204
 3381SOL    HW221780   0.042   2.509  10.881 -1.2909  0.5288  0.1962
 3382SOL     OW21781   1.361   1.427  14.194 -0.4614 -0.1568  0.1815
 3382SOL    HW121782   1.410   1.405  14.114  2.0477 -1.2245  2.0130
 3382SOL    HW221783   1.410   1.497  14.237 -1.8440  0.8187  0.1724
 3383SOL     OW21784   1.888   0.041   8.117 -0.4803 -0.2456  0.1396
 3383SOL    HW121785   1.892   4.685   8.137  0.5506 -0.2354 -0.0412
 3383SOL    HW221786   1.831   0.060   8.191  0.2597 -1.0010  0.9083
 3384SOL     OW21787   1.033   4.326  17.032  0.0090 -0.3547  0.3931
 3384SOL    HW121788   1.005   4.416  17.047  0.4924 -0.1404 -0.0058
 3384SOL    HW221789   0.954   4.297  16.985 -0.4819  1.3549  0.1731
 3385SOL     OW21790   2.552   4.068   9.027  0.2529  0.1299 -0.1065
 3385SOL    HW121791   2.527   4.023   8.947  2.3069 -0.0633 -0.6492
 3385SOL    HW221792   2.483   4.134   9.025 -0.6011 -0.7389  0.5982
 3386SOL     OW21793   3.633   4.475   3.506 -0.3660 -0.6330  0.0743
 3386SOL    HW121794   3.660   4.400   3.453 -1.8065  0.2642 -1.9225
 3386SOL    HW221795   3.713   4.527   3.512 -1.7730  1.4536  0.6020
 3387SOL     OW21796   3.476   1.482   9.713 -0.4940  0.5682  0.3365
 3387SOL    HW121797   3.415   1.419   9.752  0.5658 -1.2849 -1.0302
 3387SOL    HW221798   3.475   1.467   9.619 -1.3180  4.0892 -0.2097
 3388SOL     OW21799   4.013   0.285  12.394  0.5735  0.6494  0.5901
 3388SOL    HW121800   4.089   0.263  12.340  0.1956  1.1034 -0.1174
 3388SOL    HW221801   4.013   0.380  12.401 -1.5973  0.5686  1.6269
 3389SOL     OW21802   0.405   3.608   8.169  0.2321  0.1118  0.0548
 3389SOL    HW121803   0.448   3.580   8.088 -0.5999 -1.5618  0.1936
 3389SOL    HW221804   0.378   3.695   8.141  0.2027 -0.0159 -0.3227
 3390SOL     OW21805   3.755   3.800   6.756 -0.2900 -0.5633  0.2922
 3390SOL    HW121806   3.730   3.723   6.808 -5.2058 -1.4570 -3.4112
 3390SOL    HW221807   3.697   3.786   6.681  0.3379 -1.9294  0.0736
 3391SOL     OW21808   1.162   4.715  12.832  0.0907  0.2882 -0.1707
 3391SOL    HW121809   1.229   4.647  12.825 -0.3228  0.1631 -2.8324
 3391SOL    HW221810   1.192   0.034  12.760  1.6132 -0.4146 -0.0863
 3392SOL     OW21811   2.648   2.917  14.557 -0.3655  0.3704  0.2644
 3392SOL    HW121812   2.740   2.928  14.536 -0.5181 -1.5931 -1.4179
 3392SOL    HW221813   2.634   2.947  14.647 -1.4165  1.5733 -0.3055
 3393SOL     OW21814   2.386   2.712  12.870 -0.5909  0.1687 -0.7958
 3393SOL    HW121815   2.422   2.798  12.849 -0.8597  0.1535 -1.3196
 3393SOL    HW221816   2.447   2.701  12.943 -0.4355 -0.5122 -1.0245
 3394SOL     OW21817   0.734   0.123  16.029  0.2846  0.2679  0.4441
 3394SOL    HW121818   0.744   0.030  16.049 -4.3596 -0.4072 -0.4224
 3394SOL    HW221819   0.707   0.161  16.113  0.3604 -0.0078  0.5922
 3395SOL     OW21820   4.526   2.972  17.617  0.6349 -0.2013  0.6375
 3395SOL    HW121821   4.446   2.938  17.576  0.3789 -0.6486  1.5041
 3395SOL    HW221822   4.587   2.907  17.581  0.7628  1.1481 -1.6531
 3396SOL     OW21823   2.408   1.330   3.088 -0.2287 -0.4677 -0.3321
 3396SOL    HW121824   2.463   1.272   3.035  0.2489 -0.6225  0.3295
 3396SOL    HW221825   2.361   1.266   3.142 -1.3385  0.2630 -0.4208
 3397SOL     OW21826   2.433   2.950  10.788  0.3096  0.6453  0.2222
 3397SOL    HW121827   2.512   2.941  10.841  0.1299 -1.8307  0.1077
 3397SOL    HW221828   2.465   2.998  10.712  0.3467  0.6292  0.2279
 3398SOL     OW21829   4.135   2.000   6.335 -0.0292 -0.3339 -0.2718
 3398SOL    HW121830   4.128   1.962   6.247  0.1463 -1.5693  0.2472
 3398SOL    HW221831   4.163   2.090   6.320  1.4332 -0.9641 -1.3258
 3399SOL     OW21832   3.207   4.729   3.419 -0.1343 -0.1920 -0.1464
 3399SOL    HW121833   3.231   4.718   3.327 -1.2843  2.2528 -0.7285
 3399SOL    HW221834   3.286   4.690   3.458 -1.0306 -0.7356  1.1174
 3400SOL     OW21835   4.601   0.170   1.207  1.0807 -0.5302  0.2708
 3400SOL    HW121836   4.607   0.259   1.172  1.0673 -1.4008 -1.9357
 3400SOL    HW221837   4.561   0.188   1.293  1.0955 -0.4792  0.2668
 3401SOL     OW21838   4.502   0.067   0.300  0.3435 -0.0209  0.2116
 3401SOL    HW121839   4.550   0.065   0.217  0.0770  1.1776  0.0364
 3401SOL    HW221840   4.520   4.718   0.337  0.3330  0.4917  1.3940
 3402SOL     OW21841   2.657   4.404  17.199  0.6216 -0.3791  0.0999
 3402SOL    HW121842   2.693   4.316  17.189  1.1588 -0.2056  0.5291
 3402SOL    HW221843   2.736   4.455  17.186  1.1388 -0.6917  2.0266
 3403SOL     OW21844   4.269   1.555   8.469  0.3168 -0.0682 -0.2803
 3403SOL    HW121845   4.183   1.571   8.507 -0.2064 -1.6146 -0.8082
 3403SOL    HW221846   4.266   1.605   8.388  2.0146  2.0421  0.9509
 3404SOL     OW21847   2.130   3.430   6.181 -0.2871  0.4557 -0.6795
 3404SOL    HW121848   2.064   3.500   6.173 -0.3731  0.3650 -0.7671
 3404SOL    HW221849   2.208   3.485   6.188 -0.4681  0.5352  0.6763
 3405SOL     OW21850   2.585   0.975  14.262 -0.2497  0.1610 -0.4439
 3405SOL    HW121851   2.601   1.000  14.353 -0.8069 -1.7980  0.1865
 3405SOL    HW221852   2.650   1.029  14.216  1.8625 -2.0358 -0.0520
 3406SOL     OW21853   4.673   4.254  10.269 -0.4751  0.1743 -0.0944
 3406SOL    HW121854   4.692   4.166  10.301  0.4708  0.7644  0.9830
 3406SOL    HW221855   4.695   4.234  10.178  0.8559  0.9309  0.0601
 3407SOL     OW21856   0.117   3.690   7.857  0.2126  0.0674  0.5642
 3407SOL    HW121857   0.021   3.685   7.856  0.2276 -0.1131  0.1388
 3407SOL    HW221858   0.140   3.630   7.785  1.9744 -0.5769  1.6686
 3408SOL     OW21859   3.592   4.612   7.339 -0.5941  0.2844  0.2006
 3408SOL    HW121860   3.530   4.619   7.266 -0.4472 -1.6704 -0.1253
 3408SOL    HW221861   3.539   4.577   7.411 -0.1220  1.1596  0.9727
 3409SOL     OW21862   0.813   3.207   0.275  0.3514  0.1740 -0.4653
 3409SOL    HW121863   0.865   3.249   0.343 -0.3484 -0.3531  0.3976
 3409SOL    HW221864   0.796   3.118   0.306 -0.5544  0.5469  0.1101
 3410SOL     OW21865   2.368   4.272   9.287  0.1850  0.9373 -0.3306
 3410SOL    HW121866   2.421   4.316   9.353  1.6295  1.9866 -2.2017
 3410SOL    HW221867   2.413   4.189   9.277 -0.1747  0.4493  2.1970
 3411SOL     OW21868   3.402   3.328   2.494  0.3892 -0.3919  0.0467
 3411SOL    HW121869   3.405   3.252   2.552 -0.8078  1.6523  2.7662
 3411SOL    HW221870   3.495   3.333   2.470 -0.2720 -0.9360 -2.6369
 3412SOL     OW21871   0.914   1.363   4.074 -0.6234 -0.5913 -0.0483
 3412SOL    HW121872   0.966   1.327   4.003 -3.1900 -0.3691 -2.0311
 3412SOL    HW221873   0.966   1.350   4.154 -2.3448  2.8004  1.6403
 3413SOL     OW21874   0.240   0.696  12.735 -0.4520  0.2170 -0.4797
 3413SOL    HW121875   0.260   0.780  12.776  1.0126  0.1041 -0.9543
 3413SOL    HW221876   0.153   0.709  12.698 -0.2083  1.2472 -0.6929
 3414SOL     OW21877   4.270   3.946   1.753 -0.4301 -0.2362  0.0730
 3414SOL    HW121878   4.223   3.871   1.717 -1.5269  0.8811 -0.8376
 3414SOL    HW221879   4.258   3.924   1.845  0.1283 -2.4035 -0.3812
 3415SOL     OW21880   2.828   1.452   5.083 -0.0843  0.3665 -0.4946
 3415SOL    HW121881   2.753   1.433   5.140 -0.3748 -2.8406 -1.9186
 3415SOL    HW221882   2.898   1.467   5.147  0.2836 -0.5630 -0.6773
 3416SOL     OW21883   1.379   4.535  12.832  0.2359  0.6480  0.0975
 3416SOL    HW121884   1.353   4.459  12.780  0.7662  0.1409  0.5692
 3416SOL    HW221885   1.401   4.487  12.912 -2.6497  0.6870  0.9389
 3417SOL     OW21886   3.419   3.147   3.491  0.0746  0.1959 -0.0200
 3417SOL    HW121887   3.404   3.055   3.513 -2.3795  0.6628  0.2446
 3417SOL    HW221888   3.449   3.186   3.573  2.8325 -1.7855 -0.0925
 3418SOL     OW21889   2.360   4.570  10.270 -0.1103 -0.0103  0.4726
 3418SOL    HW121890   2.412   4.569  10.350 -0.7118 -2.6997  0.8224
 3418SOL    HW221891   2.338   4.477  10.265  0.8013 -0.0972 -2.3432
 3419SOL     OW21892   4.661   4.078   6.787  0.1810  0.0383  0.2628
 3419SOL    HW121893   4.623   4.004   6.740  2.8428 -0.2171 -1.4861
 3419SOL    HW221894   4.655   4.146   6.720 -0.9383 -0.4769 -0.1607
 3420SOL     OW21895   3.408   2.727   8.662 -0.5519  0.6982  0.1903
 3420SOL    HW121896   3.395   2.812   8.619 -0.8530  0.9856  0.8577
 3420SOL    HW221897   3.376   2.661   8.600  0.7917  0.4998 -0.2846
 3421SOL     OW21898   2.559   0.710  14.320  0.4639  0.1257 -0.1273
 3421SOL    HW121899   2.648   0.704  14.285  0.1075 -1.7291 -0.7366
 3421SOL    HW221900   2.548   0.801  14.292 -4.0848 -0.1685  0.5749
 3422SOL     OW21901   1.743   1.576   0.259  0.0441  0.5945 -1.0518
 3422SOL    HW121902   1.658   1.555   0.298 -0.2733  1.8408 -1.0773
 3422SOL    HW221903   1.747   1.500   0.201  0.6486 -0.2387  0.0797
 3423SOL     OW21904   0.187   1.292   2.355  0.6568 -0.4221  0.1618
 3423SOL    HW121905   0.100   1.331   2.366  1.1042  0.3857  0.8144
 3423SOL    HW221906   0.227   1.363   2.305 -1.6328  2.4451  2.4088
 3424SOL     OW21907   4.541   0.646  12.436 -0.0829 -0.8139  0.2072
 3424SOL    HW121908   4.531   0.601  12.352 -0.8997 -1.2978  0.5702
 3424SOL    HW221909   4.519   0.733  12.401 -0.3499 -1.1941 -0.5706
 3425SOL     OW21910   0.106   1.301   3.932 -0.3098 -0.4739 -0.5312
 3425SOL    HW121911   0.130   1.387   3.967 -0.8362 -0.3152 -0.5574
 3425SOL    HW221912   0.025   1.283   3.980  1.2565 -2.9365  1.1656
 3426SOL     OW21913   1.953   0.584   5.416  0.4252 -0.1937 -0.4792
 3426SOL    HW121914   1.904   0.665   5.404  0.0982 -0.4899 -1.1767
 3426SOL    HW221915   1.941   0.565   5.509 -1.9854  0.3866 -0.6565
 3427SOL     OW21916   3.023   0.300  13.443  0.1049  0.2029  0.3200
 3427SOL    HW121917   3.019   0.328  13.534  1.6485 -0.4086  0.5788
 3427SOL    HW221918   2.930   0.304  13.418  0.5811  0.8522 -1.3656
 3428SOL     OW21919   2.362   3.674  12.041 -0.4117 -0.1706 -0.1455
 3428SOL    HW121920   2.380   3.581  12.027 -1.4020 -0.3940  0.0575
 3428SOL    HW221921   2.370   3.683  12.136 -0.3226  2.0008 -0.3387
 3429SOL     OW21922   2.523   0.287  13.102 -0.7257 -0.5702 -0.0964
 3429SOL    HW121923   2.558   0.369  13.136  0.0126 -1.5325  1.4708
 3429SOL    HW221924   2.436   0.288  13.144 -0.0224 -0.1057  1.3564
 3430SOL     OW21925   2.697   0.418  14.199 -0.0718  0.2496  0.1147
 3430SOL    HW121926   2.675   0.430  14.106 -0.2312 -0.2434  0.0926
 3430SOL    HW221927   2.791   0.403  14.197 -0.2547 -0.7991 -0.4536
 3431SOL     OW21928   1.427   3.251   2.378 -0.2954  0.2171  0.9930
 3431SOL    HW121929   1.474   3.203   2.446  0.1920 -1.8529 -0.7920
 3431SOL    HW221930   1.484   3.228   2.304 -0.7133  1.3234  0.3375
 3432SOL     OW21931   1.979   1.485   3.759  0.5288 -0.2593  0.5217
 3432SOL    HW121932   1.946   1.569   3.729  2.0922  0.2061  0.1498
 3432SOL    HW221933   2.048   1.510   3.820  0.9900  0.0874 -0.1433
 3433SOL     OW21934   2.389   2.514   2.807 -0.4482  0.1492 -1.3989
 3433SOL    HW121935   2.456   2.537   2.743 -1.1317  2.1503 -1.4097
 3433SOL    HW221936   2.319   2.576   2.785 -2.0881 -2.1061 -2.5368
 3434SOL     OW21937   0.176   0.808   8.029  0.1429  0.2810 -0.0291
 3434SOL    HW121938   0.129   0.890   8.036 -1.2455 -0.3498 -1.9095
 3434SOL    HW221939   0.268   0.834   8.042  0.3961 -0.5117 -0.1935
 3435SOL     OW21940   0.750   1.944   5.495 -0.1881 -0.0057 -0.2395
 3435SOL    HW121941   0.763   1.904   5.409 -0.3496  0.5645 -0.5336
 3435SOL    HW221942   0.827   2.001   5.490 -0.3810  0.2900  0.1524
 3436SOL     OW21943   4.365   0.051   5.423 -0.6980  0.3284  0.2168
 3436SOL    HW121944   4.430   0.095   5.369  0.1170 -0.8977  0.2175
 3436SOL    HW221945   4.325   4.722   5.367 -0.1977 -1.6867  2.2472
 3437SOL     OW21946   0.707   2.078   4.733 -0.5101  0.3071  0.0604
 3437SOL    HW121947   0.787   2.075   4.785  0.6688 -0.2013 -1.7851
 3437SOL    HW221948   0.714   2.170   4.709 -0.3546 -0.0159 -1.1368
 3438SOL     OW21949   0.965   4.523  11.014  0.0628  0.0921 -0.2205
 3438SOL    HW121950   0.903   4.523  10.941  2.0491 -0.2045 -1.8951
 3438SOL    HW221951   1.034   4.586  10.993 -0.7454  0.5646 -1.4838
 3439SOL     OW21952   1.682   1.659   7.118  0.5503  0.3570 -0.2575
 3439SOL    HW121953   1.642   1.731   7.166 -2.5331 -0.5204 -1.4659
 3439SOL    HW221954   1.676   1.692   7.028  1.7272 -0.8442 -0.7878
 3440SOL     OW21955   1.661   3.240   3.746  0.1119 -1.0576  0.4810
 3440SOL    HW121956   1.618   3.226   3.830 -1.3720  1.2152  0.1019
 3440SOL    HW221957   1.620   3.175   3.688 -0.5440 -2.2693  2.3088
 3441SOL     OW21958   4.651   1.663  12.701 -0.3104 -0.1675  0.5469
 3441SOL    HW121959   4.612   1.575  12.702  0.3384 -0.4617  0.1957
 3441SOL    HW221960   0.008   1.646  12.705 -0.2303  0.0212 -0.7065
 3442SOL     OW21961   4.488   1.406   1.587 -0.9468  0.3535  0.0820
 3442SOL    HW121962   4.488   1.340   1.656 -0.1738  0.0616 -0.2054
 3442SOL    HW221963   4.582   1.414   1.571 -0.6051 -0.0682  1.8678
 3443SOL     OW21964   1.294   2.348   1.472 -0.2017  0.4577  0.5438
 3443SOL    HW121965   1.348   2.421   1.440  0.3629 -0.5021 -0.7306
 3443SOL    HW221966   1.263   2.303   1.394  0.0406  2.4127 -0.6931
 3444SOL     OW21967   0.880   0.571   5.791  0.1324 -0.3177  0.1473
 3444SOL    HW121968   0.904   0.572   5.699 -0.6310  1.1315 -0.0264
 3444SOL    HW221969   0.799   0.521   5.791  1.1780 -2.1012  4.2312
 3445SOL     OW21970   3.861   4.087   6.097  0.1230 -0.1476  0.2147
 3445SOL    HW121971   3.926   4.050   6.156  0.2994  2.4910  1.6699
 3445SOL    HW221972   3.812   4.008   6.074  0.8652 -0.8213  0.9339
 3446SOL     OW21973   3.031   0.049   3.212  0.2442  0.3041  0.6167
 3446SOL    HW121974   3.088   4.725   3.166  1.0702  1.9444 -0.5591
 3446SOL    HW221975   3.047   0.013   3.300  3.3200 -0.9603 -0.4516
 3447SOL     OW21976   3.947   4.139  12.764  0.2045  0.0555  0.0964
 3447SOL    HW121977   3.967   4.058  12.718 -1.3103  0.1172 -0.6803
 3447SOL    HW221978   3.860   4.127  12.800  1.4586  1.3196  3.5086
 3448SOL     OW21979   3.655   3.140  12.493 -0.2590  0.8193  0.3615
 3448SOL    HW121980   3.603   3.218  12.473 -1.4618  0.0125  0.3331
 3448SOL    HW221981   3.591   3.070  12.481  0.5362  0.1311  0.1974
 3449SOL     OW21982   1.881   4.414   9.334  0.5652  0.3807  0.0976
 3449SOL    HW121983   1.836   4.430   9.417  0.9390 -2.8231  0.9386
 3449SOL    HW221984   1.952   4.479   9.334  0.4518  0.5044 -0.0100
 3450SOL     OW21985   3.300   2.213   1.219  0.2603 -0.2814 -0.2139
 3450SOL    HW121986   3.207   2.235   1.212  0.1552 -0.9194 -0.8111
 3450SOL    HW221987   3.295   2.120   1.238 -0.3539 -0.8520 -3.0646
 3451SOL     OW21988   2.272   1.264   6.207  0.4664  0.5223 -0.1097
 3451SOL    HW121989   2.273   1.216   6.290  2.4346  1.1942  0.2418
 3451SOL    HW221990   2.361   1.297   6.207  0.6303  0.0741 -0.3661
 3452SOL     OW21991   4.684   1.886   4.334  0.2010 -0.1988  0.3694
 3452SOL    HW121992   4.699   1.906   4.241 -0.3211 -0.7514  0.1657
 3452SOL    HW221993   0.031   1.916   4.367 -0.2995  0.6898  0.8276
 3453SOL     OW21994   3.220   2.391   1.546 -0.6102  0.0325 -0.6356
 3453SOL    HW121995   3.125   2.387   1.556 -0.5072  1.7569  1.0674
 3453SOL    HW221996   3.249   2.315   1.596  0.8660  2.1019  1.6403
 3454SOL     OW21997   2.207   1.363   8.622 -0.3407  0.0588 -0.3118
 3454SOL    HW121998   2.169   1.445   8.651  0.1149  0.2535 -0.2767
 3454SOL    HW221999   2.299   1.388   8.624  0.1189 -1.4307 -2.6303
 3455SOL     OW22000   4.288   1.981   8.498  0.3212  0.0676 -0.1614
 3455SOL    HW122001   4.267   2.003   8.408  1.2305 -2.3332 -0.9560
 3455SOL    HW222002   4.383   1.993   8.506  0.5744 -1.5022 -0.7962
 3456SOL     OW22003   4.433   2.560   3.327  0.1638  0.1786  0.4795
 3456SOL    HW122004   4.433   2.466   3.308 -0.3556  0.2121  0.3253
 3456SOL    HW222005   4.521   2.592   3.305  0.8366 -2.1153 -0.1555
 3457SOL     OW22006   3.929   4.299   2.692  0.4299 -0.2119  0.2527
 3457SOL    HW122007   4.006   4.304   2.636  0.4778 -0.8900  0.2505
 3457SOL    HW222008   3.947   4.213   2.730  0.5569  0.8473  2.5936
 3458SOL     OW22009   0.874   1.543   2.512 -0.7837 -0.2396 -0.1701
 3458SOL    HW122010   0.856   1.559   2.419  0.9681 -0.8660 -0.6066
 3458SOL    HW222011   0.965   1.572   2.510 -1.7752  2.9835  0.2163
 3459SOL     OW22012   3.681   3.081  13.816  0.4819 -0.4938 -0.2677
 3459SOL    HW122013   3.726   3.132  13.748 -0.2121  0.5219  0.0436
 3459SOL    HW222014   3.628   3.025  13.760 -1.0813 -1.4080  2.1690
 3460SOL     OW22015   2.100   2.710  15.473  0.3811  0.1335 -0.0649
 3460SOL    HW122016   2.153   2.641  15.512  2.3796  0.8233 -1.5806
 3460SOL    HW222017   2.137   2.789  15.512  1.5019  0.0760 -1.0231
 3461SOL     OW22018   0.027   0.476   8.510 -0.3202  0.0520 -0.4042
 3461SOL    HW122019   4.719   0.540   8.566 -0.2235  1.4990 -1.9838
 3461SOL    HW222020   0.113   0.466   8.550 -0.9873 -2.0016  0.5190
 3462SOL     OW22021   3.557   4.164   4.878 -0.3351  0.2196  0.3686
 3462SOL    HW122022   3.503   4.086   4.892 -1.5738  1.1283  0.6267
 3462SOL    HW222023   3.641   4.127   4.848 -1.0331 -0.5287 -0.6992
 3463SOL     OW22024   2.433   2.404   1.715 -0.3876 -0.2256 -0.5567
 3463SOL    HW122025   2.435   2.377   1.807  2.0884 -1.6292 -1.0081
 3463SOL    HW222026   2.389   2.333   1.668 -0.0228 -0.6119 -0.3166
 3464SOL     OW22027   4.732   4.309  10.020 -0.1913  0.5144  0.0383
 3464SOL    HW122028   0.031   4.391  10.051  2.0260 -0.7467  0.7874
 3464SOL    HW222029   0.036   4.296   9.934 -0.3263 -0.2107  0.0811
 3465SOL     OW22030   0.343   3.581   2.533 -0.2110 -0.4573  0.3822
 3465SOL    HW122031   0.360   3.659   2.479 -1.9539  0.5538  1.2927
 3465SOL    HW222032   0.247   3.584   2.531 -0.2583 -2.4897  0.4187
 3466SOL     OW22033   0.832   1.479   1.438  0.4502  0.0644  0.0673
 3466SOL    HW122034   0.829   1.419   1.363 -1.5123 -0.0594  0.2256
 3466SOL    HW222035   0.878   1.428   1.504  3.5253  0.5362 -1.7179
 3467SOL     OW22036   2.592   3.613   2.955  0.0298 -0.2522 -0.4195
 3467SOL    HW122037   2.662   3.675   2.976 -0.3062  0.4651 -1.4124
 3467SOL    HW222038   2.619   3.524   2.978 -1.6978 -0.4173  0.9584
 3468SOL     OW22039   1.390   2.409   1.100 -0.0298  0.0528 -0.1857
 3468SOL    HW122040   1.403   2.315   1.109  0.2925  0.0355 -0.8067
 3468SOL    HW222041   1.443   2.436   1.025  0.3109  0.9081  0.3632
 3469SOL     OW22042   0.752   3.547   3.367  0.1363  0.1178  0.2690
 3469SOL    HW122043   0.676   3.489   3.370  1.3604 -1.3783  2.7483
 3469SOL    HW222044   0.809   3.489   3.318  1.6899  1.4783  0.4572
 3470SOL     OW22045   2.510   0.143   7.791  0.1868 -0.0964 -0.3531
 3470SOL    HW122046   2.588   0.116   7.839 -0.9017 -0.9533  0.9135
 3470SOL    HW222047   2.553   0.191   7.719 -0.1329 -0.9450 -1.1057
 3471SOL     OW22048   4.223   0.964   4.383 -0.2240 -0.5110 -0.4497
 3471SOL    HW122049   4.265   0.887   4.423  1.3622 -0.4391 -1.9732
 3471SOL    HW222050   4.258   1.027   4.447 -0.3345  0.0709 -0.9616
 3472SOL     OW22051   1.011   2.072   0.372  0.0403 -0.5127  0.1354
 3472SOL    HW122052   0.979   2.098   0.458 -1.8546 -1.2210 -0.3544
 3472SOL    HW222053   1.105   2.081   0.388 -0.3684 -1.7154  3.2429
 3473SOL     OW22054   2.034   3.460   4.613 -0.1879 -0.2027  0.3530
 3473SOL    HW122055   2.108   3.454   4.553  1.2432 -2.0694  2.3103
 3473SOL    HW222056   2.049   3.549   4.646 -0.6184  0.2176 -0.5603
 3474SOL     OW22057   3.425   2.037   8.515  0.4870  0.5759  0.2518
 3474SOL    HW122058   3.405   2.105   8.451 -0.9364  0.3384  0.4455
 3474SOL    HW222059   3.519   2.047   8.498  0.3341  0.4486 -0.6983
 3475SOL     OW22060   0.916   1.179   3.766 -0.1619  0.3458  0.6388
 3475SOL    HW122061   1.007   1.202   3.785 -0.5044  0.2953  2.3946
 3475SOL    HW222062   0.900   1.234   3.690 -1.3897  0.6597  1.1150
 3476SOL     OW22063   1.396   2.866   5.341  0.1040 -0.1523  0.4583
 3476SOL    HW122064   1.365   2.899   5.425  0.5504 -0.8146  0.8778
 3476SOL    HW222065   1.470   2.818   5.378 -1.7859 -1.8283  2.0669
 3477SOL     OW22066   3.341   4.598  14.776 -0.5714 -0.2429 -0.2498
 3477SOL    HW122067   3.421   4.547  14.788  0.7542  1.5389 -1.4802
 3477SOL    HW222068   3.312   4.570  14.690 -1.7129  2.8737 -0.8848
 3478SOL     OW22069   1.440   2.396   2.309  0.7415 -0.4969  0.3193
 3478SOL    HW122070   1.436   2.315   2.258 -1.8859  1.0871 -1.9879
 3478SOL    HW222071   1.398   2.368   2.390  1.7375 -2.6683  0.0932
 3479SOL     OW22072   0.100   2.461   9.503  0.2961 -0.2177 -0.3719
 3479SOL    HW122073   0.115   2.546   9.544  0.4333  0.2021 -1.2931
 3479SOL    HW222074   0.182   2.419   9.529  1.4636  1.7608 -0.8465
 3480SOL     OW22075   1.239   3.927  16.567  0.6201 -0.0162  0.1807
 3480SOL    HW122076   1.223   4.004  16.622  1.4854  0.8042 -0.7185
 3480SOL    HW222077   1.210   3.868  16.636  0.4018  1.5664  1.4525
 3481SOL     OW22078   0.319   2.476  13.519 -0.6656  0.8899  0.1584
 3481SOL    HW122079   0.283   2.398  13.562  0.9820  1.0957  1.9114
 3481SOL    HW222080   0.235   2.520  13.509 -2.6655 -2.1892  3.1272
 3482SOL     OW22081   3.315   0.177   5.220  0.7578 -0.0487 -0.0541
 3482SOL    HW122082   3.371   0.102   5.241  0.7800  0.2419  0.9459
 3482SOL    HW222083   3.302   0.161   5.127 -0.9647  0.1856  0.1478
 3483SOL     OW22084   2.162   0.930  14.781 -0.0920 -0.4006 -0.1430
 3483SOL    HW122085   2.128   0.929  14.871  0.5422 -0.4684  0.0967
 3483SOL    HW222086   2.209   0.847  14.774  2.0383  0.7845  0.0715
 3484SOL     OW22087   4.137   3.911   7.645 -0.0034  0.4612  0.1546
 3484SOL    HW122088   4.204   3.916   7.713  2.6577  1.3743 -2.5288
 3484SOL    HW222089   4.054   3.930   7.690  0.2404  1.1176  0.3337
 3485SOL     OW22090   2.304   1.679   5.464  0.8588  0.5678  0.8952
 3485SOL    HW122091   2.241   1.736   5.506 -0.3206 -2.1733  2.8705
 3485SOL    HW222092   2.353   1.637   5.535  0.7120 -0.5443  0.3525
 3486SOL     OW22093   2.934   1.538   3.793 -0.2402 -0.8801 -0.0942
 3486SOL    HW122094   2.909   1.498   3.710  1.2260  1.4864 -1.6449
 3486SOL    HW222095   2.962   1.626   3.771 -1.6862 -0.6193 -0.8613
 3487SOL     OW22096   4.443   2.157  13.612  0.0411  0.0145  0.4908
 3487SOL    HW122097   4.491   2.202  13.682  1.3927  0.1509 -0.5269
 3487SOL    HW222098   4.361   2.146  13.661 -0.3650 -0.8434 -0.3855
 3488SOL     OW22099   3.404   0.880   7.499  0.5761 -0.8652 -0.2445
 3488SOL    HW122100   3.449   0.961   7.478 -1.6967  0.7033  0.8655
 3488SOL    HW222101   3.363   0.849   7.418 -0.5238  1.1916 -0.4891
 3489SOL     OW22102   2.719   0.098   2.674 -0.0297 -0.0907 -0.4209
 3489SOL    HW122103   2.796   0.079   2.727 -0.6261 -0.7175  0.2225
 3489SOL    HW222104   2.693   0.012   2.642  2.2597 -0.6898 -0.6195
 3490SOL     OW22105   0.421   2.384   9.780  0.5703 -0.9337 -0.5148
 3490SOL    HW122106   0.486   2.382   9.850  1.6732 -0.3048 -1.5203
 3490SOL    HW222107   0.350   2.330   9.815 -0.6974  1.4870  0.6372
 3491SOL     OW22108   2.727   0.340   5.350 -0.3224 -0.6292 -0.4544
 3491SOL    HW122109   2.657   0.277   5.336 -0.2717 -0.4747 -1.3866
 3491SOL    HW222110   2.697   0.411   5.293  0.6670  0.0663 -0.1134
 3492SOL     OW22111   3.599   3.286   2.293 -0.1102  0.5089 -0.2408
 3492SOL    HW122112   3.564   3.201   2.268  0.4371  0.2660 -0.1831
 3492SOL    HW222113   3.693   3.277   2.279 -0.4877 -1.4153 -1.4757
 3493SOL     OW22114   2.813   0.044   6.909  0.0863 -0.5683 -0.0285
 3493SOL    HW122115   2.908   0.049   6.897 -0.0306 -2.4243 -1.9093
 3493SOL    HW222116   2.784   0.062   6.819 -2.3653 -0.4464  0.8007
 3494SOL     OW22117   4.367   0.461   7.082  0.0820 -0.2860 -0.0820
 3494SOL    HW122118   4.381   0.520   7.155  1.1422  0.4842 -0.9062
 3494SOL    HW222119   4.320   0.512   7.016  1.3863  0.0733 -0.7329
 3495SOL     OW22120   4.524   0.409  15.074  0.0184 -0.1207 -0.1557
 3495SOL    HW122121   4.589   0.479  15.070 -0.2358  0.1084 -0.2642
 3495SOL    HW222122   4.570   0.327  15.093  1.9293  1.1751  0.8682
 3496SOL     OW22123   4.227   2.274  10.384 -0.5151  0.0591  0.1578
 3496SOL    HW122124   4.259   2.231  10.304 -1.1389 -2.2499  1.1384
 3496SOL    HW222125   4.131   2.274  10.379 -0.4315 -1.1088 -1.8212
 3497SOL     OW22126   4.135   2.359  13.518 -0.7466 -0.0909  0.3926
 3497SOL    HW122127   4.040   2.362  13.503 -0.9366 -0.2474  1.6050
 3497SOL    HW222128   4.166   2.273  13.488 -0.3727  1.0541 -2.5007
 3498SOL     OW22129   0.836   0.535   4.597  0.2050 -0.2141 -0.0339
 3498SOL    HW122130   0.927   0.567   4.600 -0.2860  0.8288  3.2217
 3498SOL    HW222131   0.815   0.510   4.687 -2.2507 -0.2752 -0.6355
 3499SOL     OW22132   3.217   3.603   7.326  0.1013 -0.4553  0.2702
 3499SOL    HW122133   3.305   3.609   7.362 -0.2587  3.8865  0.4649
 3499SOL    HW222134   3.165   3.620   7.405 -1.2391 -1.1400 -0.4634
 3500SOL     OW22135   4.670   3.028   8.936  0.6706 -0.5179 -0.0242
 3500SOL    HW122136   0.006   3.024   8.998 -0.4011 -6.4701  0.8579
 3500SOL    HW222137   4.595   3.022   8.994  1.5617 -0.4284  1.1376
 3501SOL     OW22138   0.629   0.172   8.499 -0.0465  0.2207  0.2751
 3501SOL    HW122139   0.667   0.157   8.412 -1.3156 -1.1091 -0.0444
 3501SOL    HW222140   0.582   0.252   8.476  0.1811  0.7941  1.8234
 3502SOL     OW22141   2.821   2.054  13.721  0.3202 -0.2617 -0.0965
 3502SOL    HW122142   2.882   2.106  13.773  0.2941 -1.1432  0.8175
 3502SOL    HW222143   2.873   1.976  13.703 -0.7227 -1.3331  1.4657
 3503SOL     OW22144   1.006   2.231   8.920 -0.1808  0.1345 -0.0946
 3503SOL    HW122145   0.926   2.217   8.970  1.2802  3.5820  3.2082
 3503SOL    HW222146   1.039   2.311   8.960  1.5039 -0.5684 -0.0570
 3504SOL     OW22147   3.946   0.417   3.906 -0.1609 -0.3884 -0.2419
 3504SOL    HW122148   4.028   0.410   3.857  0.4803  1.5605  0.5922
 3504SOL    HW222149   3.989   0.394   3.988 -1.3246 -1.9780 -0.0769
 3505SOL     OW22150   1.015   1.123   6.478 -0.0448 -0.0011  0.4170
 3505SOL    HW122151   1.019   1.116   6.573 -0.5495  0.7457  0.4908
 3505SOL    HW222152   1.095   1.167   6.449  1.2461 -1.9623  0.9435
 3506SOL     OW22153   0.266   4.609   6.403  0.1922 -0.2381  0.2646
 3506SOL    HW122154   0.178   4.571   6.413 -0.6414  0.7237 -3.3785
 3506SOL    HW222155   0.317   4.583   6.480 -1.4487 -1.7512  0.8756
 3507SOL     OW22156   0.481   4.516   4.483 -0.1845  0.8476 -0.2262
 3507SOL    HW122157   0.535   4.558   4.549  2.2101 -1.0676 -0.9604
 3507SOL    HW222158   0.410   4.490   4.542 -0.3809  1.8922  0.0000
 3508SOL     OW22159   0.957   1.950   8.587 -0.4293 -0.1350 -0.2077
 3508SOL    HW122160   0.953   1.955   8.683 -1.1245 -0.2185 -0.2349
 3508SOL    HW222161   0.956   2.043   8.565  2.4386  0.6786  2.9969
 3509SOL     OW22162   4.226   0.180  17.722 -0.4523 -0.1097  0.0437
 3509SOL    HW122163   4.266   0.246   0.029 -1.2885  0.3961  0.0435
 3509SOL    HW222164   4.302   0.123  17.716  1.4667  2.4786  0.0463
 3510SOL     OW22165   3.751   3.028   7.438 -0.2575 -0.6670  0.8264
 3510SOL    HW122166   3.682   3.094   7.435  1.5408  1.2030  0.3142
 3510SOL    HW222167   3.695   2.953   7.456  0.6645 -1.1411  1.7040
 3511SOL     OW22168   4.397   2.416   4.311 -0.0742  0.5467 -0.2569
 3511SOL    HW122169   4.393   2.473   4.235  0.5894  0.4102 -0.3849
 3511SOL    HW222170   4.482   2.377   4.294  0.2104  0.7099  0.7758
 3512SOL     OW22171   2.461   3.041  15.589 -0.1299  0.1978 -0.4499
 3512SOL    HW122172   2.488   3.012  15.501 -2.3391 -1.3668 -0.5923
 3512SOL    HW222173   2.514   3.115  15.618  1.1454  1.0157 -4.8106
 3513SOL     OW22174   4.353   1.769   9.486 -0.0862 -0.0797  0.7111
 3513SOL    HW122175   4.410   1.718   9.429 -0.4861 -0.9940  1.1170
 3513SOL    HW222176   4.412   1.800   9.554  0.9547 -0.8368  0.1594
 3514SOL     OW22177   1.102   4.730  17.724 -0.2356 -0.2070  0.3740
 3514SOL    HW122178   1.060   4.650  17.691 -1.2147  0.3497  0.2618
 3514SOL    HW222179   1.125   0.043  17.646  0.5590 -0.8263  0.2108
 3515SOL     OW22180   1.829   1.615   2.921 -0.0747 -0.0017 -0.5719
 3515SOL    HW122181   1.859   1.705   2.931  0.8305 -0.6059  2.0462
 3515SOL    HW222182   1.737   1.620   2.944  0.4712  0.6613  1.4309
 3516SOL     OW22183   4.135   0.014  11.665  0.9700  0.2992 -0.2872
 3516SOL    HW122184   4.211   0.023  11.723  1.3948 -1.4114 -0.6102
 3516SOL    HW222185   4.186   0.020  11.585  2.5645  1.9680  0.8353
 3517SOL     OW22186   1.965   3.111   4.809 -0.4368  0.5129 -0.5861
 3517SOL    HW122187   2.053   3.131   4.839 -0.0788 -3.1154  0.7428
 3517SOL    HW222188   1.976   3.017   4.794  0.2911  0.7554 -1.5570
 3518SOL     OW22189   4.080   0.926   7.316 -0.6758 -0.2716 -0.6205
 3518SOL    HW122190   4.076   0.942   7.411  0.9388  1.9749 -0.9483
 3518SOL    HW222191   4.032   0.843   7.314 -4.2042  1.6739  2.7015
 3519SOL     OW22192   4.050   1.585   7.728  0.3135 -0.0536  0.5227
 3519SOL    HW122193   4.009   1.498   7.732 -0.4924  0.5653  5.6053
 3519SOL    HW222194   3.982   1.638   7.685  2.4254  2.1713 -0.0689
 3520SOL     OW22195   0.348   0.443   4.686  0.6055 -0.5351  0.8759
 3520SOL    HW122196   0.417   0.489   4.638  0.2478 -0.2212  0.6563
 3520SOL    HW222197   0.299   0.519   4.716 -0.9176 -1.0786 -0.2399
 3521SOL     OW22198   3.679   0.326  15.117  0.3319  0.2017 -0.7336
 3521SOL    HW122199   3.728   0.291  15.191 -0.7971 -0.4052 -0.2671
 3521SOL    HW222200   3.746   0.360  15.059 -0.4329 -0.1071 -1.8008
 3522SOL     OW22201   1.939   2.117   1.055 -0.1551 -0.6001 -0.1579
 3522SOL    HW122202   1.954   2.169   1.133  0.3306  2.7228 -2.4868
 3522SOL    HW222203   1.930   2.186   0.990 -0.6446 -1.4494 -1.0008
 3523SOL     OW22204   1.828   0.245   8.941  0.2485  0.1917  0.5320
 3523SOL    HW122205   1.862   0.335   8.939 -0.8429  0.5698 -0.8550
 3523SOL    HW222206   1.745   0.253   8.987 -0.4893  0.2103 -0.8061
 3524SOL     OW22207   4.691   2.658   3.303  0.2542 -0.2473  0.1529
 3524SOL    HW122208   0.037   2.614   3.315 -0.6753 -1.2105  3.2216
 3524SOL    HW222209   4.716   2.745   3.334 -1.6120  0.8114 -1.3041
 3525SOL     OW22210   2.762   2.392   4.232 -0.6515  0.1009  0.4706
 3525SOL    HW122211   2.758   2.333   4.307 -2.0458  0.3954  0.6239
 3525SOL    HW222212   2.706   2.461   4.267  0.6130  1.0314  0.6713
 3526SOL     OW22213   1.822   3.320   1.086 -0.2891  0.1845  0.1735
 3526SOL    HW122214   1.738   3.274   1.093 -0.4934  0.2590 -1.7889
 3526SOL    HW222215   1.886   3.266   1.132 -2.4120 -0.8867  1.8738
 3527SOL     OW22216   3.818   4.701   6.913 -0.5228  0.2214 -0.1676
 3527SOL    HW122217   3.754   0.028   6.882  1.1739  0.0766 -3.9664
 3527SOL    HW222218   3.746   4.637   6.908 -0.5279 -0.0007  3.1015
 3528SOL     OW22219   3.672   1.270   9.600  0.2620  0.4476 -0.2251
 3528SOL    HW122220   3.669   1.299   9.509  0.3527 -0.8512 -0.6480
 3528SOL    HW222221   3.666   1.174   9.592  1.0513  0.3721  0.1203
 3529SOL     OW22222   1.923   4.368   4.857  0.5750 -0.0403  0.2549
 3529SOL    HW122223   1.887   4.305   4.920  1.4600  0.4912  1.3017
 3529SOL    HW222224   1.957   4.438   4.914 -3.2774  0.2109  2.2344
 3530SOL     OW22225   1.023   1.790   2.762  0.1937  0.3220 -0.0296
 3530SOL    HW122226   1.065   1.868   2.799  1.6338 -0.0445 -0.8882
 3530SOL    HW222227   1.023   1.718   2.825  1.2306  1.7780  1.6397
 3531SOL     OW22228   1.991   0.696  15.675 -0.3489 -0.5628 -0.6662
 3531SOL    HW122229   2.026   0.782  15.698  2.3876 -1.5897 -1.1050
 3531SOL    HW222230   1.908   0.727  15.637 -1.4147 -0.4175  1.7354
 3532SOL     OW22231   1.315   1.886   5.131  0.3556  0.3995  0.1776
 3532SOL    HW122232   1.319   1.846   5.218 -2.7082 -0.2766  0.0054
 3532SOL    HW222233   1.238   1.942   5.126 -0.4415 -0.5984  1.3477
 3533SOL     OW22234   2.674   2.239   3.683  0.4964 -0.1345  0.3551
 3533SOL    HW122235   2.609   2.233   3.614  1.4525  3.8116 -0.9172
 3533SOL    HW222236   2.622   2.242   3.764  0.9507 -0.7589  0.6734
 3534SOL     OW22237   1.308   3.015   5.900 -0.1866 -0.8135  0.0279
 3534SOL    HW122238   1.239   3.048   5.958 -2.1863  0.3082 -2.9286
 3534SOL    HW222239   1.306   2.930   5.944 -0.0091 -1.1235 -0.5585
 3535SOL     OW22240   1.491   0.251   1.949 -0.3262  0.5859  0.1975
 3535SOL    HW122241   1.502   0.234   1.855 -2.8155  0.3804 -0.0440
 3535SOL    HW222242   1.477   0.344   1.964 -1.8374  0.4409 -0.2681
 3536SOL     OW22243   1.585   2.479   8.500  0.3230  0.3362  0.1836
 3536SOL    HW122244   1.561   2.569   8.525 -0.7985 -0.0666  0.5528
 3536SOL    HW222245   1.673   2.493   8.465  0.6922  0.1086  1.0279
 3537SOL     OW22246   3.456   2.806   5.406  0.0125  0.5935 -0.6765
 3537SOL    HW122247   3.388   2.842   5.463  0.7907 -0.8730  1.1481
 3537SOL    HW222248   3.472   2.726   5.455  2.1428  0.9819 -0.7370
 3538SOL     OW22249   0.306   2.536   4.094  0.1717  0.4709 -0.1121
 3538SOL    HW122250   0.323   2.525   4.001 -0.3530 -1.2345 -0.0022
 3538SOL    HW222251   0.212   2.549   4.081  0.6718  2.2898 -1.8661
 3539SOL     OW22252   4.555   1.075   8.064  0.0671  0.5664  0.6936
 3539SOL    HW122253   4.643   1.107   8.043  1.1986 -0.9740  3.1339
 3539SOL    HW222254   4.519   1.143   8.120 -1.9502  0.4568 -0.4773
 3540SOL     OW22255   4.379   4.609   7.085 -0.2217  0.1479  0.4345
 3540SOL    HW122256   4.363   4.607   6.991 -0.6493 -0.2838  0.5157
 3540SOL    HW222257   4.300   4.649   7.123 -0.2455 -0.5056  1.0812
 3541SOL     OW22258   3.469   1.743   9.404 -0.2066 -0.4454  0.1382
 3541SOL    HW122259   3.442   1.811   9.466  3.1493  1.4527 -0.5134
 3541SOL    HW222260   3.561   1.727   9.423 -0.1803 -1.7712 -1.0723
 3542SOL     OW22261   2.350   0.967   7.749 -0.3485 -0.4755 -0.8820
 3542SOL    HW122262   2.338   1.050   7.703  1.0533  0.1168 -0.1782
 3542SOL    HW222263   2.444   0.957   7.758 -0.0452  2.9085 -0.3629
 3543SOL     OW22264   1.106   3.717   8.084 -0.0131  0.0336 -0.0085
 3543SOL    HW122265   1.050   3.794   8.070 -1.5532 -0.7929  1.5467
 3543SOL    HW222266   1.111   3.725   8.180 -0.2738  1.0686 -0.0837
 3544SOL     OW22267   3.658   2.639  14.215 -0.2638 -0.6921  0.5390
 3544SOL    HW122268   3.744   2.672  14.240 -0.6588  1.5739 -1.0405
 3544SOL    HW222269   3.667   2.667  14.124 -1.2873  1.0874  0.9744
 3545SOL     OW22270   3.685   2.918  11.689  0.1249 -0.0955 -0.9278
 3545SOL    HW122271   3.752   2.878  11.634 -0.4318  1.3588 -2.6867
 3545SOL    HW222272   3.624   2.847  11.709 -0.1321  0.0769 -1.0859
 3546SOL     OW22273   1.251   0.634   9.617 -0.2206  0.3305  0.7481
 3546SOL    HW122274   1.185   0.703   9.606 -1.4605 -1.3209 -2.1891
 3546SOL    HW222275   1.266   0.610   9.526  1.0454  0.1700  1.0055
 3547SOL     OW22276   4.286   4.165   7.607  0.0887  0.1420  0.0016
 3547SOL    HW122277   4.201   4.122   7.616  1.8257 -3.2432  0.4225
 3547SOL    HW222278   4.307   4.131   7.520 -1.1872 -0.2148 -0.1716
 3548SOL     OW22279   2.216   1.680  11.619  0.5322 -0.6705 -0.6382
 3548SOL    HW122280   2.312   1.679  11.619  0.5466  0.4689  0.6220
 3548SOL    HW222281   2.194   1.615  11.553 -4.9633 -1.6470  2.1506
 3549SOL     OW22282   4.601   4.136   7.550  0.1189  0.0072 -0.6482
 3549SOL    HW122283   4.689   4.138   7.587  0.3855 -1.9304 -1.1539
 3549SOL    HW222284   4.598   4.228   7.524 -1.1633 -0.3308 -1.6994
 3550SOL     OW22285   0.633   1.956   6.638  0.3848 -0.1987  0.0012
 3550SOL    HW122286   0.605   2.033   6.589 -0.0990 -0.2626  0.1808
 3550SOL    HW222287   0.562   1.952   6.701 -1.1270  0.3815 -1.6462
 3551SOL     OW22288   2.774   3.155   8.633 -0.7398 -0.6400 -0.3505
 3551SOL    HW122289   2.833   3.088   8.598 -0.0710 -0.3471  0.2311
 3551SOL    HW222290   2.766   3.211   8.555  4.0921  3.3455  2.0578
 3552SOL     OW22291   3.933   0.128   8.059  0.7113  0.8996 -0.3804
 3552SOL    HW122292   3.975   0.065   8.117 -0.0976  0.4435 -0.2902
 3552SOL    HW222293   3.971   0.121   7.971  2.7358  1.0620  0.4857
 3553SOL     OW22294   0.698   3.079   4.219 -0.5866  0.3073  0.1773
 3553SOL    HW122295   0.677   3.172   4.218  0.0061  0.4087 -2.5051
 3553SOL    HW222296   0.677   3.040   4.304  1.7778  1.3004  1.2069
 3554SOL     OW22297   2.270   3.602   8.037 -0.0641 -0.1015  0.0388
 3554SOL    HW122298   2.358   3.575   8.063  0.8920  1.1532 -1.8966
 3554SOL    HW222299   2.289   3.692   8.013  0.2522  0.5392  2.7087
 3555SOL     OW22300   4.077   0.897  12.363  0.0924  0.4376  0.1745
 3555SOL    HW122301   4.090   0.975  12.309  1.6055 -0.9505 -1.4797
 3555SOL    HW222302   4.160   0.852  12.345 -0.1057  0.1235  0.0386
 3556SOL     OW22303   3.477   4.715   5.276  0.4671  0.1926  0.3963
 3556SOL    HW122304   3.432   4.634   5.299  0.4111 -0.1518 -0.9215
 3556SOL    HW222305   3.551   4.695   5.219 -1.4877 -1.2312 -1.6880
 3557SOL     OW22306   0.959   2.749   7.591  0.4261 -0.3428  0.0651
 3557SOL    HW122307   0.880   2.799   7.569  0.9035 -0.4927 -1.9600
 3557SOL    HW222308   0.937   2.691   7.664  1.5737 -0.8334  0.0262
 3558SOL     OW22309   3.331   3.379   8.596 -0.6671 -0.1794 -0.2443
 3558SOL    HW122310   3.411   3.392   8.546  0.5797  2.2445  2.3914
 3558SOL    HW222311   3.283   3.462   8.599 -0.9063 -0.2879 -0.9967
 3559SOL     OW22312   0.864   2.902   3.199 -0.0471  0.2761 -0.5967
 3559SOL    HW122313   0.841   2.858   3.281 -0.3505  0.8232 -0.3907
 3559SOL    HW222314   0.850   2.992   3.227  1.5550  0.8038 -1.4748
 3560SOL     OW22315   2.994   0.210   1.814  0.5082  0.5707  0.0813
 3560SOL    HW122316   2.943   0.207   1.733  0.7902 -1.3842 -0.0177
 3560SOL    HW222317   2.955   0.144   1.870  1.4156 -2.0219 -2.3486
 3561SOL     OW22318   0.579   2.116   5.042 -0.1231 -0.2621  0.1974
 3561SOL    HW122319   0.665   2.090   5.010 -0.8641 -0.4218 -1.6490
 3561SOL    HW222320   0.585   2.211   5.051  1.0339 -0.4129  1.0235
 3562SOL     OW22321   0.739   2.168   5.671  0.0171  0.2369  0.2109
 3562SOL    HW122322   0.731   2.081   5.632 -1.1358  0.4424 -0.0332
 3562SOL    HW222323   0.655   2.172   5.718  0.0465 -0.1021  0.2967
 3563SOL     OW22324   0.143   3.019   8.755 -0.0069 -0.2148 -0.2848
 3563SOL    HW122325   0.205   3.029   8.828 -1.4285  1.2055  0.7249
 3563SOL    HW222326   0.060   3.026   8.804  0.9975 -0.1745  1.4117
 3564SOL     OW22327   2.372   1.659   0.299 -0.0300  0.0645  0.7399
 3564SOL    HW122328   2.331   1.611   0.228  0.0005  1.5744 -0.2811
 3564SOL    HW222329   2.299   1.709   0.335 -1.0132 -0.0372 -1.1460
 3565SOL     OW22330   1.864   0.910   3.067  0.5266  0.4764  0.8350
 3565SOL    HW122331   1.872   0.835   3.125  1.1454  0.2875  0.5006
 3565SOL    HW222332   1.912   0.887   2.987  1.3586 -1.6809  1.9620
 3566SOL     OW22333   4.695   3.039   4.296  0.1621 -0.4120 -0.2817
 3566SOL    HW122334   4.622   2.978   4.308 -1.4606  1.5093 -0.4549
 3566SOL    HW222335   0.019   3.001   4.359  0.8679  0.0446 -0.7008
 3567SOL     OW22336   4.001   1.603   8.659  0.5501  0.6906  0.2842
 3567SOL    HW122337   3.978   1.560   8.577  0.4752  1.2196  0.0300
 3567SOL    HW222338   3.945   1.680   8.650 -0.5519 -0.4226 -2.3076
 3568SOL     OW22339   0.758   0.383   5.368 -0.4157 -0.2462 -0.1548
 3568SOL    HW122340   0.701   0.451   5.405 -2.4232 -1.6265 -0.7232
 3568SOL    HW222341   0.752   0.309   5.429  0.5649 -0.1511  0.0573
 3569SOL     OW22342   4.553   0.730  13.239  0.2274 -0.0962 -0.1945
 3569SOL    HW122343   4.626   0.678  13.274 -1.8419 -2.0556  1.2384
 3569SOL    HW222344   4.550   0.794  13.310  0.7735  0.6088 -0.8084
 3570SOL     OW22345   2.136   4.375   7.737 -0.5231  0.1734  0.0857
 3570SOL    HW122346   2.216   4.415   7.705 -0.5202 -1.2609 -1.7472
 3570SOL    HW222347   2.070   4.398   7.672 -2.0409 -0.8364  1.2361
 3571SOL     OW22348   2.790   0.011   6.407 -0.2475  0.5471 -0.2754
 3571SOL    HW122349   2.767   0.050   6.323 -0.0883  0.7387 -0.2292
 3571SOL    HW222350   2.880   4.723   6.391 -0.5801 -0.7152 -0.1444
 3572SOL     OW22351   2.904   0.912   4.425  0.2215  0.7093  0.3726
 3572SOL    HW122352   2.872   0.908   4.515  0.7406 -1.1738  0.4641
 3572SOL    HW222353   2.909   0.819   4.406 -1.4498  0.6934  0.0113
 3573SOL     OW22354   4.688   0.286   7.296  0.2436  0.6674  0.0474
 3573SOL    HW122355   4.679   0.303   7.390 -0.7658 -1.0803  0.2696
 3573SOL    HW222356   4.728   0.201   7.315 -2.3972 -0.8436 -1.0354
 3574SOL     OW22357   1.543   3.083   8.673  0.0629 -0.4465  0.2879
 3574SOL    HW122358   1.588   3.047   8.596  0.6653  1.4598 -0.2757
 3574SOL    HW222359   1.452   3.066   8.649 -0.4877  2.0361  0.5793
 3575SOL     OW22360   3.957   1.822   9.311  0.0846 -0.1190 -0.0839
 3575SOL    HW122361   3.892   1.872   9.262  2.0685  1.6481 -0.8978
 3575SOL    HW222362   4.036   1.875   9.303  0.3929 -0.7128 -1.0862
 3576SOL     OW22363   0.875   0.501  14.334  0.4704  0.6676  0.3253
 3576SOL    HW122364   0.811   0.506  14.263  0.0019  0.1285  0.7038
 3576SOL    HW222365   0.862   0.413  14.369 -0.8146  0.4973 -0.5835
 3577SOL     OW22366   4.189   0.376   2.920  0.2489 -0.3629 -0.1937
 3577SOL    HW122367   4.230   0.318   2.856  0.1859 -0.9021  0.2456
 3577SOL    HW222368   4.096   0.375   2.896  0.2603  1.1068 -0.3000
 3578SOL     OW22369   1.580   0.827   5.178 -0.2672 -0.2450 -0.1225
 3578SOL    HW122370   1.586   0.745   5.129  1.5021  0.2375 -0.6932
 3578SOL    HW222371   1.485   0.828   5.189 -0.1915  0.3620  0.4057
 3579SOL     OW22372   3.636   3.553  13.899  0.3444 -0.1394  0.4107
 3579SOL    HW122373   3.636   3.467  13.941 -0.1114  0.3539  1.4038
 3579SOL    HW222374   3.557   3.547  13.844 -0.2262  1.3624  1.0799
 3580SOL     OW22375   2.160   2.147   1.844 -0.0735 -0.1470 -0.7317
 3580SOL    HW122376   2.191   2.182   1.760 -1.1705  2.1650 -0.1800
 3580SOL    HW222377   2.225   2.077   1.850 -0.2575 -0.1601  1.1360
 3581SOL     OW22378   4.138   2.448  16.427 -0.2119  0.1592  0.0322
 3581SOL    HW122379   4.137   2.514  16.496  0.9703  1.4855 -1.1971
 3581SOL    HW222380   4.093   2.376  16.471  1.5261 -1.4579 -0.8404
 3582SOL     OW22381   0.693   3.482   9.330  0.4796  0.2408 -0.3620
 3582SOL    HW122382   0.633   3.523   9.392 -0.2858  0.5311 -1.2985
 3582SOL    HW222383   0.761   3.549   9.321  1.1108 -0.5751 -1.6015
 3583SOL     OW22384   3.750   2.563   7.273  0.3214 -0.3095  0.0892
 3583SOL    HW122385   3.789   2.648   7.252 -1.5503  0.0115 -2.0335
 3583SOL    HW222386   3.779   2.548   7.364  2.1781 -0.9832 -0.6115
 3584SOL     OW22387   3.296   1.085   0.274 -0.1899  0.2494 -1.2395
 3584SOL    HW122388   3.372   1.139   0.249 -1.3851  2.5176  0.0714
 3584SOL    HW222389   3.287   1.116   0.364  0.8307 -1.5467 -0.5231
 3585SOL     OW22390   3.265   1.499   4.273  0.4969 -0.4637  0.7245
 3585SOL    HW122391   3.259   1.409   4.304 -1.3343 -1.0155 -1.1832
 3585SOL    HW222392   3.359   1.513   4.278  0.4187 -0.3426  1.7599
 3586SOL     OW22393   1.918   2.677   6.841 -0.1804  0.0136  0.2953
 3586SOL    HW122394   1.851   2.652   6.906 -0.8393  1.6963  0.2569
 3586SOL    HW222395   1.863   2.695   6.765  2.8581  0.0450 -1.8870
 3587SOL     OW22396   2.465   2.934  15.013 -0.6717  0.6630 -0.4364
 3587SOL    HW122397   2.519   2.907  14.939  1.3570  2.4908  0.3765
 3587SOL    HW222398   2.407   2.992  14.963  0.3178  1.2096 -0.9567
 3588SOL     OW22399   4.616   2.506   2.033  0.2312  0.0006 -0.6608
 3588SOL    HW122400   4.581   2.425   2.070 -1.4519  1.2487  0.4954
 3588SOL    HW222401   4.702   2.478   2.000  0.4854 -3.2157  2.7138
 3589SOL     OW22402   2.643   3.419   8.218 -0.1247  0.6434  0.4470
 3589SOL    HW122403   2.648   3.344   8.278 -0.1268  0.8260  0.6777
 3589SOL    HW222404   2.727   3.427   8.174  0.0347  0.9986  0.8182
 3590SOL     OW22405   3.574   3.502   3.915 -0.4918 -0.3483 -0.1368
 3590SOL    HW122406   3.548   3.549   3.836 -1.1479 -1.5261 -0.6386
 3590SOL    HW222407   3.616   3.423   3.880 -1.8360 -1.2218  0.2083
 3591SOL     OW22408   4.254   2.694   5.769  0.0799 -0.4372  0.0454
 3591SOL    HW122409   4.247   2.716   5.676  0.9383  1.2247  0.3829
 3591SOL    HW222410   4.289   2.775   5.805  0.6836  0.2493 -2.0966
 3592SOL     OW22411   1.243   1.949   2.857  0.0887 -0.7978  0.9431
 3592SOL    HW122412   1.315   1.907   2.811 -0.2892 -0.0208 -0.3615
 3592SOL    HW222413   1.234   1.901   2.940 -1.2278 -1.2222  0.5557
 3593SOL     OW22414   4.090   1.854   1.930 -0.4846 -0.0188  0.3808
 3593SOL    HW122415   4.053   1.769   1.905  1.7714 -0.4164 -1.6093
 3593SOL    HW222416   4.049   1.861   2.016 -1.6701  0.1112 -0.1866
 3594SOL     OW22417   1.619   1.489   5.664  0.0636  0.2942 -0.1043
 3594SOL    HW122418   1.596   1.466   5.574  1.7198 -1.4135 -0.0913
 3594SOL    HW222419   1.667   1.407   5.678  2.2400  1.1847 -2.3548
 3595SOL     OW22420   4.100   4.657   4.963 -0.2951  0.2925  0.1131
 3595SOL    HW122421   4.089   0.004   5.006  1.8723 -1.9291  4.9720
 3595SOL    HW222422   4.027   4.661   4.902 -0.5623  1.7060  0.5486
 3596SOL     OW22423   3.594   1.721   7.763 -0.0030  0.7923  0.3781
 3596SOL    HW122424   3.670   1.692   7.813  1.0298 -1.1849 -2.3509
 3596SOL    HW222425   3.553   1.776   7.829  1.4225  0.8655  1.1992
 3597SOL     OW22426   2.157   4.368   5.665 -0.6146  0.0887  0.7737
 3597SOL    HW122427   2.138   4.323   5.583  1.9470 -0.3289  0.4156
 3597SOL    HW222428   2.248   4.343   5.679 -0.3692  0.6891  0.2313
 3598SOL     OW22429   2.379   2.117   2.061  0.0514  0.1387  0.3460
 3598SOL    HW122430   2.369   2.033   2.107 -2.5179 -0.4548 -1.3315
 3598SOL    HW222431   2.400   2.091   1.971  0.5328 -1.0559  0.7973
 3599SOL     OW22432   1.445   4.170   3.491 -0.3914  0.4682  0.6912
 3599SOL    HW122433   1.533   4.187   3.458 -0.4658 -0.8964 -0.2291
 3599SOL    HW222434   1.457   4.213   3.576  0.8142 -0.2844  0.9072
 3600SOL     OW22435   2.809   2.941   8.127 -0.0758  0.0757 -0.2797
 3600SOL    HW122436   2.876   3.007   8.146 -1.3113  1.5147 -0.9364
 3600SOL    HW222437   2.859   2.866   8.159 -1.2274 -0.4276  0.3433
 3601SOL     OW22438   2.428   3.702  12.304  0.1483  0.2107  0.1739
 3601SOL    HW122439   2.513   3.700  12.349 -0.5676 -0.8540  1.4809
 3601SOL    HW222440   2.384   3.778  12.343 -1.4771  1.1783 -3.5674
 3602SOL     OW22441   0.436   0.551   9.596  0.2891 -0.6336  0.6357
 3602SOL    HW122442   0.526   0.534   9.567  0.9028  0.8628  1.6848
 3602SOL    HW222443   0.385   0.488   9.545  0.5075 -0.5641  0.3387
 3603SOL     OW22444   1.578   1.925   5.096  0.2115 -0.0201  0.0760
 3603SOL    HW122445   1.498   1.936   5.046 -0.2345 -1.0686  0.5609
 3603SOL    HW222446   1.580   1.831   5.113  0.2431 -0.4427 -2.2886
 3604SOL     OW22447   1.718   0.324   6.141  0.5553  0.3531 -0.5653
 3604SOL    HW122448   1.675   0.250   6.098  2.4871 -0.4345 -1.1671
 3604SOL    HW222449   1.781   0.283   6.200  0.9528  1.5484 -0.1635
 3605SOL     OW22450   2.727   1.081   9.137  0.5121  0.0683 -0.4483
 3605SOL    HW122451   2.683   1.033   9.067 -1.6195 -1.2919  1.8156
 3605SOL    HW222452   2.793   1.140   9.101  0.5073  0.3679  0.0324
 3606SOL     OW22453   1.384   3.669   4.829 -0.4544 -0.0990 -0.2544
 3606SOL    HW122454   1.465   3.715   4.808  0.0355 -1.8466 -2.1343
 3606SOL    HW222455   1.401   3.628   4.914 -0.3464  0.0371 -0.2113
 3607SOL     OW22456   2.976   4.476   2.383  0.1887  0.2303  0.0521
 3607SOL    HW122457   3.036   4.415   2.427  1.4346  2.5940  1.6759
 3607SOL    HW222458   2.900   4.455   2.437 -0.1202 -0.4956 -0.6870
 3608SOL     OW22459   2.185   2.585   1.938 -0.1798  0.0978  0.9134
 3608SOL    HW122460   2.248   2.652   1.914 -0.4059 -0.4008 -1.0509
 3608SOL    HW222461   2.240   2.515   1.973 -0.8851 -1.8186 -1.8172
 3609SOL     OW22462   4.357   2.358  10.607 -0.8781  0.4106 -0.3702
 3609SOL    HW122463   4.342   2.276  10.654  0.9664  2.2116  3.2720
 3609SOL    HW222464   4.321   2.339  10.520 -0.1915  0.2163 -0.6130
 3610SOL     OW22465   1.457   0.577   8.213  0.4037 -1.0773  0.0835
 3610SOL    HW122466   1.481   0.669   8.198 -0.2014 -0.7990  0.8274
 3610SOL    HW222467   1.544   0.542   8.196  1.2380  0.4915  1.1083
 3611SOL     OW22468   1.693   2.037   0.040 -0.3003 -0.6662  0.3838
 3611SOL    HW122469   1.697   1.977  17.714 -0.5020 -2.0251  1.4543
 3611SOL    HW222470   1.682   1.973   0.110 -1.7779 -1.9692 -1.0097
 3612SOL     OW22471   1.238   3.767  16.179  0.0909  0.2954 -0.2241
 3612SOL    HW122472   1.316   3.750  16.232 -0.4242  2.5139  1.2604
 3612SOL    HW222473   1.249   3.693  16.119 -1.3494 -1.6426  1.9149
 3613SOL     OW22474   3.033   0.615   6.639  0.1787 -0.5115 -0.0779
 3613SOL    HW122475   3.116   0.576   6.611  0.5640 -0.5783  1.1550
 3613SOL    HW222476   3.055   0.706   6.661 -0.8377  0.2208 -2.0464
 3614SOL     OW22477   4.511   2.259   2.692  0.1155  0.5507 -0.0580
 3614SOL    HW122478   4.602   2.286   2.686  0.2531  0.2686  0.7921
 3614SOL    HW222479   4.506   2.246   2.787 -1.1132 -2.7557 -0.5811
 3615SOL     OW22480   2.616   2.686  12.592 -0.3444 -0.1269 -0.0195
 3615SOL    HW122481   2.642   2.748  12.660  1.6843  0.4828 -1.3382
 3615SOL    HW222482   2.584   2.753  12.532 -1.2626 -1.3960 -0.9363
 3616SOL     OW22483   2.507   2.756  14.390 -0.1150 -0.1847 -0.2493
 3616SOL    HW122484   2.575   2.692  14.369  1.6493  0.8404  2.2208
 3616SOL    HW222485   2.562   2.814  14.443 -1.3423 -1.8591  2.8835
 3617SOL     OW22486   2.257   4.499  12.714  0.3700 -0.1752 -0.2096
 3617SOL    HW122487   2.244   4.591  12.694  0.2768  0.2676  1.8887
 3617SOL    HW222488   2.278   4.497  12.808  2.1063 -2.4027 -0.6158
 3618SOL     OW22489   3.262   0.151   9.396  0.5161 -0.4282 -0.4324
 3618SOL    HW122490   3.200   0.220   9.376 -0.1383 -1.1497 -0.9075
 3618SOL    HW222491   3.269   0.155   9.491 -1.0220  1.0241 -0.3909
 3619SOL     OW22492   4.065   4.189   8.749  0.3975 -0.3275 -0.5033
 3619SOL    HW122493   4.090   4.280   8.736 -1.5405  0.6837  3.0208
 3619SOL    HW222494   4.113   4.177   8.831  0.1501  0.9867 -0.1747
 3620SOL     OW22495   3.010   4.123   7.828 -0.8399  0.5698 -0.1800
 3620SOL    HW122496   3.099   4.147   7.802 -1.9957  2.0498 -2.8001
 3620SOL    HW222497   2.992   4.055   7.763  3.3446  0.1689 -0.9275
 3621SOL     OW22498   0.276   1.785   8.221 -0.1969 -0.3695 -0.3140
 3621SOL    HW122499   0.262   1.691   8.228  0.6127 -0.3236  1.9605
 3621SOL    HW222500   0.353   1.807   8.169 -1.7779 -0.7158 -2.8018
 3622SOL     OW22501   3.237   0.350   3.896 -0.7778  0.2582  0.4902
 3622SOL    HW122502   3.182   0.349   3.975 -2.1598 -0.8806 -0.4877
 3622SOL    HW222503   3.243   0.444   3.876 -0.8473  0.5717  1.9134
 3623SOL     OW22504   3.198   2.754  17.222 -0.1428 -0.5732 -0.5685
 3623SOL    HW122505   3.246   2.830  17.256 -1.6706  0.7799 -1.4913
 3623SOL    HW222506   3.205   2.768  17.128 -1.4002  3.9081  0.0203
 3624SOL     OW22507   0.532   3.438   6.954  0.1667 -0.6502 -0.0982
 3624SOL    HW122508   0.494   3.366   6.904  0.6313 -1.1862  0.3226
 3624SOL    HW222509   0.582   3.408   7.029  1.7400  1.4608 -0.2946
 3625SOL     OW22510   3.533   0.441  16.083  0.3639  0.2637  0.2497
 3625SOL    HW122511   3.566   0.407  16.167 -0.2380 -0.2013  0.2953
 3625SOL    HW222512   3.475   0.376  16.044 -1.0553  1.2957  0.6319
 3626SOL     OW22513   1.996   0.094  17.314  0.4354  0.4078 -0.0505
 3626SOL    HW122514   1.908   0.056  17.315  0.1094  1.1930  0.3158
 3626SOL    HW222515   2.003   0.121  17.222 -2.0919  0.8446 -0.1190
 3627SOL     OW22516   1.685   2.386   6.652  0.0602 -0.0018  0.1555
 3627SOL    HW122517   1.606   2.429   6.685 -0.8954 -0.7513 -1.1867
 3627SOL    HW222518   1.675   2.300   6.694  1.3553 -0.9499 -1.5090
 3628SOL     OW22519   1.661   1.372   2.796  0.3966  0.0141  0.4953
 3628SOL    HW122520   1.650   1.457   2.838 -0.0888  0.4221 -0.4683
 3628SOL    HW222521   1.614   1.392   2.715 -2.1387 -1.7642  1.5158
 3629SOL     OW22522   0.980   4.576  16.475 -0.7580  0.3055 -0.3762
 3629SOL    HW122523   0.996   4.593  16.382  0.6271  2.4994  0.2514
 3629SOL    HW222524   0.886   4.593  16.476 -0.7012  0.7133 -1.6359
 3630SOL     OW22525   0.863   4.543   2.399  0.5797 -0.5032 -0.5772
 3630SOL    HW122526   0.876   4.604   2.327 -2.1034 -0.4492 -1.0158
 3630SOL    HW222527   0.927   4.477   2.374  1.6807  0.9353 -1.5004
 3631SOL     OW22528   4.634   2.682   5.164 -0.3705 -0.6762 -0.0492
 3631SOL    HW122529   4.559   2.741   5.156 -0.3411 -0.5096  0.9782
 3631SOL    HW222530   4.595   2.595   5.150  0.8414 -1.0188 -1.2760
 3632SOL     OW22531   1.915   0.947   3.900  0.3650 -0.0690 -0.6516
 3632SOL    HW122532   1.976   0.946   3.826 -1.1083 -0.2201 -1.8714
 3632SOL    HW222533   1.900   0.858   3.932 -0.9329  0.4679  0.2427
 3633SOL     OW22534   2.249   4.735   1.765 -0.2990  0.3435 -0.1400
 3633SOL    HW122535   2.184   4.731   1.836  0.1299  0.2159  0.2449
 3633SOL    HW222536   2.200   4.689   1.697  1.3416  0.8499 -1.6518
 3634SOL     OW22537   3.648   1.388   6.948 -0.5309 -0.4207 -0.3194
 3634SOL    HW122538   3.602   1.399   7.031 -2.0029  2.0200 -1.4230
 3634SOL    HW222539   3.736   1.388   6.985 -0.2425 -0.4826 -0.9955
 3635SOL     OW22540   1.665   4.389   4.745  0.4835  0.4900 -0.1295
 3635SOL    HW122541   1.686   4.441   4.667 -2.3019  0.0370 -1.1532
 3635SOL    HW222542   1.753   4.369   4.779 -0.5874  0.0127  2.3275
 3636SOL     OW22543   4.470   1.671   1.525 -0.3412  0.1766  0.8166
 3636SOL    HW122544   4.482   1.579   1.549 -0.6869 -0.2130 -0.4924
 3636SOL    HW222545   4.496   1.715   1.606  2.7764  0.2221 -0.2253
 3637SOL     OW22546   4.330   2.036  15.127  0.4169 -0.1132  0.6554
 3637SOL    HW122547   4.354   2.078  15.044  0.6848 -0.9263  0.3283
 3637SOL    HW222548   4.376   2.088  15.193  1.5208 -2.1838  1.4855
 3638SOL     OW22549   3.405   3.900   8.399 -0.3875  0.1563 -0.3460
 3638SOL    HW122550   3.474   3.952   8.441 -0.1093 -0.0366 -0.5629
 3638SOL    HW222551   3.333   3.904   8.462 -0.7668  1.2340 -0.8479
 3639SOL     OW22552   3.038   4.422  11.193  0.4573 -0.6779  0.0697
 3639SOL    HW122553   3.072   4.500  11.148 -1.3819 -0.4143 -0.8598
 3639SOL    HW222554   3.081   4.419  11.278 -1.6775 -0.5965  1.1223
 3640SOL     OW22555   0.979   0.567   5.528  0.1374  0.9319  0.6332
 3640SOL    HW122556   0.950   0.550   5.438 -0.4614 -1.2489  1.2280
 3640SOL    HW222557   1.072   0.546   5.536  0.3171  0.7103 -2.0015
 3641SOL     OW22558   1.216   4.313   5.931 -1.0151 -0.1114  0.2900
 3641SOL    HW122559   1.193   4.225   5.959 -0.9654  0.0875  0.9485
 3641SOL    HW222560   1.286   4.287   5.871 -1.6573 -0.2241 -0.4119
 3642SOL     OW22561   4.484   1.467   0.788  0.2531 -0.0454  0.2558
 3642SOL    HW122562   4.404   1.452   0.737  2.1982 -1.3444 -2.4292
 3642SOL    HW222563   4.475   1.558   0.813 -2.0480 -0.1548 -0.1608
 3643SOL     OW22564   1.685   2.960  15.513  0.3466  0.2658 -0.1513
 3643SOL    HW122565   1.619   3.021  15.544  2.0402  2.1991 -0.3260
 3643SOL    HW222566   1.755   2.987  15.572  1.8524 -0.9480 -1.3548
 3644SOL     OW22567   2.866   3.461   6.692 -0.0081 -0.1615 -0.2461
 3644SOL    HW122568   2.955   3.439   6.717 -0.1048  0.0400  0.2813
 3644SOL    HW222569   2.860   3.554   6.713  0.9593 -0.1111 -0.2066
 3645SOL     OW22570   0.554   0.620   6.957  0.6421  0.2314 -0.0601
 3645SOL    HW122571   0.627   0.658   7.006  0.9128 -0.3960  0.0187
 3645SOL    HW222572   0.486   0.685   6.978  1.2707  0.2715  1.8521
 3646SOL     OW22573   1.119   3.460   2.225  0.1699 -0.0469  0.5478
 3646SOL    HW122574   1.077   3.468   2.140  1.3132  0.7234  0.0569
 3646SOL    HW222575   1.063   3.524   2.269  2.6121  1.9223  0.7771
 3647SOL     OW22576   2.049   1.165   3.332 -0.1942 -0.2304  0.0489
 3647SOL    HW122577   2.071   1.181   3.424 -1.8478 -0.2405  0.4526
 3647SOL    HW222578   1.963   1.123   3.339 -0.7125  0.4730 -2.3131
 3648SOL     OW22579   4.054   0.861   5.403  0.2440  0.3570 -0.0145
 3648SOL    HW122580   4.116   0.816   5.462 -1.0158 -0.8338  0.3950
 3648SOL    HW222581   4.010   0.910   5.472 -0.5658 -0.1976 -0.1413
 3649SOL     OW22582   2.631   3.141   4.175 -0.3379  0.4280 -0.1890
 3649SOL    HW122583   2.641   3.134   4.080  1.9571  2.4587 -0.1239
 3649SOL    HW222584   2.708   3.098   4.211 -0.2087  1.0411  0.2661
 3650SOL     OW22585   0.457   0.821   0.693 -0.2671  0.0968  0.1724
 3650SOL    HW122586   0.434   0.910   0.719  0.1805 -0.4833  2.4979
 3650SOL    HW222587   0.537   0.802   0.743  1.1816  0.2258 -2.0541
 3651SOL     OW22588   2.759   4.403   6.132 -0.0696 -0.5514 -0.0009
 3651SOL    HW122589   2.835   4.447   6.169 -1.1555  2.0827 -0.8887
 3651SOL    HW222590   2.700   4.411   6.208  0.3403 -0.4771  0.3093
 3652SOL     OW22591   3.693   0.959   7.973  0.4637  0.0153 -0.2825
 3652SOL    HW122592   3.728   0.896   7.911  0.4676  0.6554 -0.9334
 3652SOL    HW222593   3.672   0.917   8.057 -3.7937  1.8546 -0.4247
 3653SOL     OW22594   1.952   0.272   5.807  0.3342 -0.2722 -0.1965
 3653SOL    HW122595   1.907   0.189   5.793  0.0760 -0.4482  1.7384
 3653SOL    HW222596   1.883   0.339   5.806  1.3947  0.9209  5.6247
 3654SOL     OW22597   3.787   4.711   8.355  0.3202 -0.0343  0.0835
 3654SOL    HW122598   3.761   4.620   8.370 -0.5580  0.2363  0.1926
 3654SOL    HW222599   3.876   4.706   8.320 -0.3149  0.7659 -1.6230
 3655SOL     OW22600   0.097   0.002   1.245 -0.1556 -0.4427  0.2275
 3655SOL    HW122601   0.054   0.087   1.235 -0.6095 -0.4613  1.9659
 3655SOL    HW222602   0.036   4.699   1.307 -2.8238  1.0676 -1.4166
 3656SOL     OW22603   3.906   3.834  16.743 -0.3113  0.2178 -0.2574
 3656SOL    HW122604   3.937   3.767  16.681 -0.5139 -1.5522  1.5463
 3656SOL    HW222605   3.936   3.910  16.693 -1.5828  1.8058  1.4607
 3657SOL     OW22606   0.624   4.553  12.557 -0.7073 -0.2732 -0.1085
 3657SOL    HW122607   0.691   4.503  12.604  0.2282 -0.9058 -2.1247
 3657SOL    HW222608   0.647   4.645  12.569 -0.2148 -0.5810  1.2576
 3658SOL     OW22609   3.590   2.368   3.886  0.3663 -0.0285  0.0461
 3658SOL    HW122610   3.635   2.424   3.823 -0.7435 -0.6057 -1.2563
 3658SOL    HW222611   3.659   2.363   3.953  1.0005 -1.1813 -0.6932
 3659SOL     OW22612   1.444   0.361   4.561  0.5928  0.0292  0.0811
 3659SOL    HW122613   1.495   0.291   4.602  0.1469 -0.9669 -1.0582
 3659SOL    HW222614   1.409   0.405   4.639  1.2031 -0.3016  0.5404
 3660SOL     OW22615   3.106   4.332   8.499  0.0087  0.1781 -0.2755
 3660SOL    HW122616   3.066   4.366   8.578 -0.4678 -1.5564  0.2317
 3660SOL    HW222617   3.187   4.384   8.495 -0.4153  0.9749  2.0003
 3661SOL     OW22618   2.840   0.785  15.469 -0.4042  0.0026 -0.5492
 3661SOL    HW122619   2.837   0.720  15.399 -0.6835  0.2128 -0.7269
 3661SOL    HW222620   2.935   0.792  15.483 -0.8254  2.0725  1.3046
 3662SOL     OW22621   0.626   0.485   9.408 -0.6219 -0.3673  0.0188
 3662SOL    HW122622   0.662   0.471   9.320  1.0003  0.7998  0.4878
 3662SOL    HW222623   0.597   0.396   9.428  0.5244 -0.7134  0.1285
 3663SOL     OW22624   2.098   4.663  11.213 -0.0813 -0.3602  0.1932
 3663SOL    HW122625   2.182   4.646  11.255  0.9051  0.0168 -1.6385
 3663SOL    HW222626   2.111   4.611  11.134 -0.6215  0.6512 -0.5725
 3664SOL     OW22627   2.256   3.608  17.344 -0.2399  0.0338  0.4359
 3664SOL    HW122628   2.311   3.605  17.265  0.4029  1.5809  0.8261
 3664SOL    HW222629   2.225   3.518  17.354  4.3699 -1.1981  3.2187
 3665SOL     OW22630   4.662   0.975   5.245  0.7578  0.2187  0.0848
 3665SOL    HW122631   4.686   0.996   5.335  1.1960 -0.2819  0.0878
 3665SOL    HW222632   4.696   0.886   5.231 -3.1640 -1.4140  0.7621
 3666SOL     OW22633   0.907   1.544   0.301 -0.0847  0.0258 -0.3133
 3666SOL    HW122634   0.819   1.560   0.266 -0.1284 -2.2242 -1.2275
 3666SOL    HW222635   0.905   1.448   0.300 -0.9833  0.0178  1.9349
 3667SOL     OW22636   1.188   2.656   7.485 -0.0698 -0.3106  0.2174
 3667SOL    HW122637   1.244   2.663   7.562  2.3248  1.7035 -1.6980
 3667SOL    HW222638   1.119   2.718   7.507 -1.0742 -1.2044 -0.4014
 3668SOL     OW22639   3.703   3.456   2.584  0.5036  0.3265 -0.4910
 3668SOL    HW122640   3.795   3.480   2.591 -0.0207  1.4339  2.6925
 3668SOL    HW222641   3.711   3.363   2.604 -1.5244  0.4209  0.7843
 3669SOL     OW22642   0.848   3.906  14.000  0.2465  0.2298 -0.1077
 3669SOL    HW122643   0.915   3.904  13.931  0.5912 -1.4481  0.2815
 3669SOL    HW222644   0.839   3.812  14.013 -4.4998  0.7374  0.5875
 3670SOL     OW22645   3.137   2.643   3.518 -0.0227 -0.1759 -0.6201
 3670SOL    HW122646   3.064   2.661   3.578  1.9700  0.4924  1.6195
 3670SOL    HW222647   3.088   2.641   3.436  0.1647 -2.3784 -0.6791
 3671SOL     OW22648   1.495   1.865   8.964 -0.0909  0.2720 -0.1392
 3671SOL    HW122649   1.552   1.908   9.028  0.3192 -3.0471  1.7279
 3671SOL    HW222650   1.533   1.915   8.892 -1.0231  0.1660 -0.7016
 3672SOL     OW22651   2.165   4.058   9.244 -0.1144 -0.1677  0.0888
 3672SOL    HW122652   2.153   3.963   9.251  0.6459 -0.2057  0.7872
 3672SOL    HW222653   2.257   4.059   9.268  0.1336 -2.0349 -0.8043
 3673SOL     OW22654   1.094   4.275   2.467 -0.0380 -0.2005 -0.2558
 3673SOL    HW122655   1.051   4.271   2.381  1.0368 -1.1002 -0.7425
 3673SOL    HW222656   1.060   4.199   2.514  1.3070  0.3414  1.5783
 3674SOL     OW22657   3.373   2.223  12.440 -0.3191 -1.0402  0.0314
 3674SOL    HW122658   3.292   2.260  12.475 -0.0177 -0.8844  0.5577
 3674SOL    HW222659   3.338   2.164  12.373  0.1024 -1.4597  0.1844
 3675SOL     OW22660   1.457   2.288   4.534 -0.7807 -0.2160  0.5146
 3675SOL    HW122661   1.519   2.332   4.592 -0.5819  1.3400 -0.8851
 3675SOL    HW222662   1.462   2.341   4.455  1.5126 -1.0108  0.1017
 3676SOL     OW22663   2.538   4.424  13.408  0.0792 -0.3647 -0.4329
 3676SOL    HW122664   2.516   4.377  13.488 -3.2908  0.9508 -0.5868
 3676SOL    HW222665   2.456   4.459  13.371 -0.4449 -0.6849  0.4403
 3677SOL     OW22666   2.220   3.551   3.005 -0.0748 -0.5256 -0.1547
 3677SOL    HW122667   2.145   3.499   3.035 -2.1202  1.3759 -1.8569
 3677SOL    HW222668   2.201   3.635   3.048 -0.5790 -0.5662 -0.2875
 3678SOL     OW22669   3.117   0.428   5.049  0.1923 -0.0645 -0.4725
 3678SOL    HW122670   3.207   0.397   5.053 -0.4433 -1.8116  0.1223
 3678SOL    HW222671   3.082   0.386   5.128 -0.9216  2.1442  0.2087
 3679SOL     OW22672   3.189   3.723   9.146  0.0180 -0.4099  0.7616
 3679SOL    HW122673   3.206   3.810   9.110 -1.2534 -0.1428  0.8250
 3679SOL    HW222674   3.180   3.670   9.067  0.6797 -1.1478  1.1693
 3680SOL     OW22675   0.700   0.439   6.547 -0.0962  0.2568 -0.4405
 3680SOL    HW122676   0.757   0.510   6.578 -1.4104  0.9436  0.4049
 3680SOL    HW222677   0.645   0.432   6.625  1.1698  0.0642  0.4410
 3681SOL     OW22678   1.893   2.389  15.617  0.1600  0.4419 -0.2328
 3681SOL    HW122679   1.882   2.308  15.665 -0.2149  0.9375  0.5174
 3681SOL    HW222680   1.980   2.393  15.576  0.1898 -1.8140 -0.3802
 3682SOL     OW22681   4.245   0.914  12.056 -0.2538 -0.8467  0.0332
 3682SOL    HW122682   4.295   0.833  12.061 -0.1000 -0.6558  1.7257
 3682SOL    HW222683   4.157   0.882  12.079 -1.3900  0.2642 -2.7625
 3683SOL     OW22684   0.921   4.101   1.049 -0.1075  0.4810  0.4364
 3683SOL    HW122685   0.866   4.028   1.077  3.6746 -2.0438  1.3667
 3683SOL    HW222686   1.010   4.089   1.082  0.0311 -0.7975 -0.4067
 3684SOL     OW22687   2.680   1.012   8.049 -0.5896  0.1481  0.1776
 3684SOL    HW122688   2.771   1.038   8.035 -0.5840 -0.1930 -0.4413
 3684SOL    HW222689   2.641   1.020   7.961 -1.1947 -0.3623  0.4006
 3685SOL     OW22690   0.023   1.856   2.650  0.0932 -0.6914  0.2805
 3685SOL    HW122691   4.735   1.941   2.614  0.1944 -1.1379 -0.8443
 3685SOL    HW222692   4.674   1.834   2.682  1.0724  0.0965  3.4492
 3686SOL     OW22693   3.286   3.173   7.481 -0.3928  0.1269  0.3707
 3686SOL    HW122694   3.207   3.224   7.466 -2.0607 -2.3351  0.7144
 3686SOL    HW222695   3.293   3.192   7.574 -0.9614 -0.3410  0.5100
 3687SOL     OW22696   0.076   2.372   4.903  0.2915  0.1487 -0.1364
 3687SOL    HW122697   0.056   2.278   4.903 -0.6952  0.3534  0.0246
 3687SOL    HW222698   0.082   2.383   4.808  0.2871  1.1509 -0.0223
 3688SOL     OW22699   2.695   2.982   7.677  0.1615 -0.3869  0.4984
 3688SOL    HW122700   2.693   2.961   7.584  1.7305 -2.5566  0.9598
 3688SOL    HW222701   2.605   3.015   7.686  0.2340  0.2549 -1.0994
 3689SOL     OW22702   3.319   1.606   3.439  0.2590  0.3151 -0.7152
 3689SOL    HW122703   3.357   1.688   3.471  1.0859  0.5728 -2.3231
 3689SOL    HW222704   3.308   1.549   3.515 -0.0736  2.0662  0.5487
 3690SOL     OW22705   2.935   0.853  14.511  0.3279  0.3248 -0.2466
 3690SOL    HW122706   3.021   0.814  14.528  0.6190  1.3367  0.5672
 3690SOL    HW222707   2.966   0.926  14.458  1.4089 -0.2002 -0.3441
 3691SOL     OW22708   2.170   0.574   5.251  0.3465  0.1215  0.4272
 3691SOL    HW122709   2.086   0.547   5.289 -0.5830 -1.2853 -2.5501
 3691SOL    HW222710   2.220   0.539   5.325  2.4971 -0.7645 -1.4370
 3692SOL     OW22711   4.090   2.931   5.424 -0.3341  0.2097 -0.5361
 3692SOL    HW122712   4.134   2.960   5.503 -2.2734 -0.2799  0.7163
 3692SOL    HW222713   4.052   2.845   5.441 -1.1321  1.3181  3.1752
 3693SOL     OW22714   4.711   1.499   6.675 -0.4959  0.1990  0.0509
 3693SOL    HW122715   4.729   1.404   6.673 -2.8369 -0.2854  2.0153
 3693SOL    HW222716   4.708   1.519   6.581 -1.1077  0.7720  0.2023
 3694SOL     OW22717   1.577   2.832   4.623  0.2455 -0.2944 -0.0801
 3694SOL    HW122718   1.526   2.752   4.612 -2.3280  1.7188 -2.6354
 3694SOL    HW222719   1.569   2.836   4.718 -0.9883  1.9105 -0.2595
 3695SOL     OW22720   2.947   0.030   7.258 -0.1648  0.7414  0.0636
 3695SOL    HW122721   2.880   0.096   7.272 -1.4328 -0.8634  1.4691
 3695SOL    HW222722   2.985   0.021   7.345 -0.1475  0.6257  0.0441
 3696SOL     OW22723   2.958   2.004   5.519 -0.7964  0.3966  0.5977
 3696SOL    HW122724   2.906   1.934   5.479  0.2599 -1.1640  1.9540
 3696SOL    HW222725   3.004   2.049   5.447 -1.3438  1.6505  1.0348
 3697SOL     OW22726   2.163   1.775   6.801  0.9133  0.0667  0.4047
 3697SOL    HW122727   2.095   1.710   6.786 -1.0625  1.7926  1.9472
 3697SOL    HW222728   2.227   1.719   6.845  0.0311  0.0996  1.7209
 3698SOL     OW22729   0.602   2.642   7.158 -0.2185 -0.0766 -0.0295
 3698SOL    HW122730   0.600   2.698   7.235  0.4341 -0.7194  0.4579
 3698SOL    HW222731   0.599   2.557   7.202 -1.0788  1.0330  2.0470
 3699SOL     OW22732   1.986   0.932  16.634 -0.4327  0.2468  0.5528
 3699SOL    HW122733   2.015   0.996  16.700 -0.7744  1.7724 -0.7670
 3699SOL    HW222734   2.071   0.889  16.626  0.3634  1.9186 -0.0066
 3700SOL     OW22735   1.433   3.147   9.523 -0.0684  0.0853  0.8731
 3700SOL    HW122736   1.358   3.173   9.577 -0.4145  1.0902 -0.0730
 3700SOL    HW222737   1.503   3.157   9.587  1.4481  1.7974 -1.0628
 3701SOL     OW22738   0.745   2.204   6.830 -0.1138  0.5074 -0.4027
 3701SOL    HW122739   0.690   2.249   6.894 -1.1883 -1.8913  0.3494
 3701SOL    HW222740   0.735   2.112   6.853  0.3493  0.1744 -1.5423
 3702SOL     OW22741   1.031   2.477  11.816 -0.3031 -0.2641  0.1695
 3702SOL    HW122742   1.093   2.549  11.824 -2.4215  1.3988  1.4698
 3702SOL    HW222743   1.076   2.405  11.859  0.0923  0.4528  0.9423
 3703SOL     OW22744   0.820   3.625   1.092  0.4274 -0.2631 -0.1271
 3703SOL    HW122745   0.783   3.710   1.119 -1.1616 -0.2917 -2.2528
 3703SOL    HW222746   0.748   3.564   1.111  0.1683 -0.2300 -1.0058
 3704SOL     OW22747   0.418   4.411   3.445 -0.0611 -0.7250 -0.0867
 3704SOL    HW122748   0.507   4.399   3.411 -0.3306  3.3915 -2.2473
 3704SOL    HW222749   0.419   4.484   3.506 -1.3502 -1.3480  0.6898
 3705SOL     OW22750   2.770   4.580  13.248 -0.1510  0.2192  0.0513
 3705SOL    HW122751   2.792   4.647  13.313  1.2100 -1.7144  1.6021
 3705SOL    HW222752   2.675   4.595  13.248 -0.0286  1.0474  2.2910
 3706SOL     OW22753   0.701   1.208   1.924  0.1290  0.0484  0.6249
 3706SOL    HW122754   0.743   1.122   1.920 -1.5541 -0.5956 -3.3014
 3706SOL    HW222755   0.764   1.251   1.982  0.7108 -2.1406  1.6365
 3707SOL     OW22756   2.131   0.546   2.956 -0.3469  0.6632  0.5115
 3707SOL    HW122757   2.085   0.534   3.040 -1.3979 -0.5443 -0.2311
 3707SOL    HW222758   2.193   0.475   2.969 -1.0555  0.0559  0.6103
 3708SOL     OW22759   2.370   3.105  13.354  0.1574 -0.2381 -0.0388
 3708SOL    HW122760   2.432   3.177  13.360  0.4917 -0.5275  0.0012
 3708SOL    HW222761   2.387   3.056  13.273 -2.5669  0.4210 -1.0210
 3709SOL     OW22762   4.259   3.931   7.936 -0.6419 -0.0266  0.5493
 3709SOL    HW122763   4.283   3.926   8.029 -0.6140  1.2436  0.6207
 3709SOL    HW222764   4.271   3.839   7.915  0.7012 -0.0340  1.3572
 3710SOL     OW22765   4.255   1.068   8.864 -0.1307  0.3100  0.0659
 3710SOL    HW122766   4.349   1.064   8.876 -0.0484  2.1113  0.0286
 3710SOL    HW222767   4.239   1.155   8.828 -1.3749  1.0330  2.3737
 3711SOL     OW22768   0.969   3.119   2.203  0.7311 -0.7025 -0.2709
 3711SOL    HW122769   1.011   3.033   2.202  0.7796 -0.6565 -1.8100
 3711SOL    HW222770   0.988   3.139   2.111 -0.0684 -0.6226 -0.4183
 3712SOL     OW22771   1.423   3.810  16.405  0.3401 -0.1078  0.5989
 3712SOL    HW122772   1.494   3.871  16.390 -1.0007  1.5326  0.9386
 3712SOL    HW222773   1.362   3.859  16.459  1.1418  0.5581  0.8873
 3713SOL     OW22774   2.960   2.237   4.112 -0.5747 -0.1708 -0.6075
 3713SOL    HW122775   2.877   2.284   4.118  0.2145  0.6866  3.7439
 3713SOL    HW222776   2.922   2.172   4.052 -2.5813  0.2834  0.1773
 3714SOL     OW22777   1.879   0.415   6.501  0.0397  0.3006 -0.4072
 3714SOL    HW122778   1.800   0.445   6.458 -0.0866  0.2941 -0.1808
 3714SOL    HW222779   1.842   0.341   6.549 -0.5021  2.0138  1.8492
 3715SOL     OW22780   1.521   4.075   6.709  0.0472 -0.0554 -0.1323
 3715SOL    HW122781   1.479   4.129   6.776  1.4344 -1.0263  1.5187
 3715SOL    HW222782   1.443   4.037   6.669  0.2590  0.6014 -1.1788
 3716SOL     OW22783   1.897   3.055  11.820  0.4728 -0.4676  0.2303
 3716SOL    HW122784   1.888   3.150  11.827 -1.6894 -0.6364 -0.2025
 3716SOL    HW222785   1.853   3.026  11.899 -0.5132 -0.3286 -0.2727
 3717SOL     OW22786   2.962   1.376   0.901 -0.4717  0.5721 -0.3427
 3717SOL    HW122787   2.879   1.399   0.944 -0.4191  0.6496 -0.2830
 3717SOL    HW222788   2.949   1.282   0.889 -0.0386  0.5055 -0.2810
 3718SOL     OW22789   3.949   1.632   5.091  0.0843 -0.6502 -0.0939
 3718SOL    HW122790   3.884   1.594   5.150 -1.2258  0.9276 -0.5230
 3718SOL    HW222791   3.907   1.707   5.049  0.4665  0.4712  1.5681
 3719SOL     OW22792   2.848   1.433   3.023  0.0595 -0.0242  1.1391
 3719SOL    HW122793   2.904   1.366   2.986 -2.8889 -1.4107 -0.8321
 3719SOL    HW222794   2.867   1.423   3.116 -2.0723 -3.4164  1.2007
 3720SOL     OW22795   3.236   4.709   8.558  0.1120 -0.0228 -0.5283
 3720SOL    HW122796   3.325   0.006   8.553  0.3194 -0.7000 -1.4889
 3720SOL    HW222797   3.185   0.035   8.509 -0.5732 -0.7596 -0.7819
 3721SOL     OW22798   0.669   0.170   8.201  0.2793 -0.5693  0.0496
 3721SOL    HW122799   0.704   0.126   8.123 -0.7610  0.3152 -0.9140
 3721SOL    HW222800   0.747   0.196   8.249 -0.8529  1.3732  0.8410
 3722SOL     OW22801   4.671   1.113   4.663 -0.4359  0.4109  0.3448
 3722SOL    HW122802   4.710   1.025   4.666  2.9681  2.0082  2.6250
 3722SOL    HW222803   4.602   1.115   4.728 -0.9743  0.1219 -0.2109
 3723SOL     OW22804   1.568   4.617  16.110  0.1960  0.0160 -0.4717
 3723SOL    HW122805   1.513   4.654  16.179 -0.8675  1.3253 -2.0042
 3723SOL    HW222806   1.507   4.581  16.045  2.1700 -2.7208 -0.8312
 3724SOL     OW22807   4.515   0.012   2.203 -0.2105 -0.0666 -0.2235
 3724SOL    HW122808   4.419   0.020   2.203 -0.4053 -2.1699 -0.4200
 3724SOL    HW222809   4.546   0.095   2.167  2.9518 -1.4370 -0.6547
 3725SOL     OW22810   3.608   1.362   7.213 -0.1744  0.3939 -0.0883
 3725SOL    HW122811   3.659   1.281   7.201  0.3215  0.8931 -1.3519
 3725SOL    HW222812   3.674   1.418   7.253  0.1750  0.3222 -0.5670
 3726SOL     OW22813   1.766   2.341  14.485 -0.0075  0.3438  0.5057
 3726SOL    HW122814   1.852   2.341  14.528  1.1357 -1.1824 -1.7748
 3726SOL    HW222815   1.728   2.260  14.518  1.3542 -0.2463  0.6533
 3727SOL     OW22816   2.405   0.593   7.665  0.2835  0.1237 -0.5297
 3727SOL    HW122817   2.339   0.611   7.732  0.5395  1.8371 -0.7309
 3727SOL    HW222818   2.481   0.571   7.720 -0.5741 -1.1676  0.1523
 3728SOL     OW22819   3.901   0.616   3.719  0.4963 -0.2722 -0.2479
 3728SOL    HW122820   3.808   0.630   3.706  0.4875 -0.0492  0.0451
 3728SOL    HW222821   3.900   0.555   3.793 -2.5693 -4.1742 -3.5309
 3729SOL     OW22822   2.028   0.876  13.575 -0.3230  0.3035  0.0777
 3729SOL    HW122823   1.995   0.918  13.654  1.2138  2.7145 -0.5583
 3729SOL    HW222824   1.964   0.806  13.561  0.0842  0.2836 -1.6444
 3730SOL     OW22825   1.027   2.228   7.307  0.1797  0.0740 -0.2162
 3730SOL    HW122826   1.075   2.303   7.273  0.9852 -0.1651  0.4022
 3730SOL    HW222827   1.050   2.245   7.398  3.1135 -0.2232 -0.8902
 3731SOL     OW22828   0.655   2.490   1.534 -0.1823  0.3826  0.0578
 3731SOL    HW122829   0.679   2.457   1.620 -1.5515 -1.5278 -0.2872
 3731SOL    HW222830   0.567   2.526   1.546 -0.3450 -0.4055  1.1567
 3732SOL     OW22831   3.650   0.565   9.953 -0.1290  0.2850  0.3185
 3732SOL    HW122832   3.686   0.499   9.894 -1.4613 -0.8504  0.7771
 3732SOL    HW222833   3.609   0.515  10.024  0.0508 -2.2882 -1.4263
 3733SOL     OW22834   4.653   4.392   8.036 -0.0375 -0.3478 -0.6300
 3733SOL    HW122835   4.663   4.444   8.115 -1.2272 -3.6795  1.7198
 3733SOL    HW222836   4.669   4.465   7.976  3.3282 -0.4405  0.1661
 3734SOL     OW22837   3.562   0.141  16.475  0.2142  0.2905  0.0375
 3734SOL    HW122838   3.604   0.175  16.554 -0.9641  0.2435  0.6724
 3734SOL    HW222839   3.478   0.105  16.503 -0.4268  0.1542 -2.0492
 3735SOL     OW22840   1.804   0.480   1.074  0.6790 -0.4711 -0.4999
 3735SOL    HW122841   1.774   0.405   1.023  2.7745 -1.1159 -0.7924
 3735SOL    HW222842   1.725   0.532   1.060  0.7010  0.1102  1.5773
 3736SOL     OW22843   1.026   1.510   4.864 -0.0853 -0.0808 -0.2368
 3736SOL    HW122844   1.023   1.459   4.783 -0.0934 -1.6647  0.7510
 3736SOL    HW222845   0.954   1.478   4.918  0.7243  1.8254  1.9763
 3737SOL     OW22846   4.555   3.801   2.428 -0.9084 -0.6286  0.1256
 3737SOL    HW122847   4.619   3.773   2.493 -1.5630 -0.8371  0.6739
 3737SOL    HW222848   4.497   3.855   2.482  1.9457  2.7602 -0.2050
 3738SOL     OW22849   1.743   1.713  15.127  0.7674 -0.0887 -0.5625
 3738SOL    HW122850   1.780   1.789  15.172 -0.3092  0.5681 -0.7861
 3738SOL    HW222851   1.820   1.656  15.126  0.9875  0.1985 -0.0573
 3739SOL     OW22852   4.601   1.218   9.823 -0.6941  0.4642  0.2259
 3739SOL    HW122853   4.689   1.257   9.818  0.4023 -2.0558  0.1271
 3739SOL    HW222854   4.596   1.176   9.737  0.1583 -3.2160  2.0002
 3740SOL     OW22855   4.664   3.886  15.050 -0.0678 -0.0353  0.2626
 3740SOL    HW122856   4.653   3.827  15.124 -2.8899 -0.3105 -0.3732
 3740SOL    HW222857   4.657   3.965  15.104 -2.8573  0.3429 -0.6385
 3741SOL     OW22858   1.910   2.808   1.753 -0.3072 -0.4718  0.5624
 3741SOL    HW122859   1.847   2.854   1.697  0.9344 -0.8872 -1.1675
 3741SOL    HW222860   1.912   2.871   1.825  1.7558  0.5330 -0.3935
 3742SOL     OW22861   4.235   4.335  13.853  0.2051 -0.4012 -0.4336
 3742SOL    HW122862   4.315   4.385  13.862 -1.1952  1.8742 -0.7425
 3742SOL    HW222863   4.204   4.356  13.765 -0.4116  2.5547  0.4947
 3743SOL     OW22864   2.820   2.465  12.278 -0.1253  0.0384 -0.3977
 3743SOL    HW122865   2.797   2.482  12.369 -1.6244  0.4084 -0.8429
 3743SOL    HW222866   2.771   2.530  12.227  1.9400  0.1685 -2.2327
 3744SOL     OW22867   3.418   0.531   9.584  0.0113 -0.7844 -0.4072
 3744SOL    HW122868   3.444   0.569   9.667 -0.9759 -0.8891 -0.0485
 3744SOL    HW222869   3.354   0.598   9.559  1.8187  0.6121 -1.2646
 3745SOL     OW22870   4.026   2.926   0.809 -0.0934  0.0792 -0.1564
 3745SOL    HW122871   4.117   2.955   0.796 -0.6143  1.6249 -0.3256
 3745SOL    HW222872   3.984   3.005   0.842 -1.0009  0.0940 -1.3468
 3746SOL     OW22873   4.543   0.960   6.495  0.1999 -0.8680 -0.5663
 3746SOL    HW122874   4.573   1.002   6.414  0.9091 -0.0253  0.1407
 3746SOL    HW222875   4.586   0.876   6.480  0.4531 -0.3988 -2.5800
 3747SOL     OW22876   4.240   3.960   4.998 -0.2145 -0.4565 -0.2269
 3747SOL    HW122877   4.266   4.020   4.929 -0.9319  0.2607  0.1342
 3747SOL    HW222878   4.296   3.985   5.072  2.5478 -2.4390 -1.6369
 3748SOL     OW22879   3.841   2.784  11.522 -0.3007 -0.2075 -0.5623
 3748SOL    HW122880   3.919   2.739  11.553 -0.7021 -2.2689 -2.5913
 3748SOL    HW222881   3.796   2.725  11.463  1.6908 -2.2883 -0.0007
 3749SOL     OW22882   2.823   1.040   1.395  0.6672  0.5506 -0.3045
 3749SOL    HW122883   2.874   1.088   1.329 -1.2720 -1.6207 -3.3716
 3749SOL    HW222884   2.741   1.085   1.379 -0.3878 -1.7435 -1.4111
 3750SOL     OW22885   0.105   0.106   7.721  0.1836 -0.3588  0.3249
 3750SOL    HW122886   0.165   0.156   7.776 -0.5802 -0.3127  1.1035
 3750SOL    HW222887   0.153   0.113   7.638  0.7745 -1.1608  0.5898
 3751SOL     OW22888   1.198   1.348   6.236  0.2089 -0.1407  0.2017
 3751SOL    HW122889   1.229   1.332   6.326 -1.3848 -1.5261  0.4988
 3751SOL    HW222890   1.203   1.443   6.224  2.7123 -0.4825 -1.2959
 3752SOL     OW22891   0.570   3.154  11.349 -0.0875  0.5345 -0.6244
 3752SOL    HW122892   0.616   3.074  11.321  1.3039  1.1768 -0.1280
 3752SOL    HW222893   0.645   3.212  11.361  0.6327 -0.3481 -0.8757
 3753SOL     OW22894   2.452   2.784  10.555  0.5625 -0.2626  1.0182
 3753SOL    HW122895   2.545   2.759  10.555  0.6028 -0.1234  1.3487
 3753SOL    HW222896   2.447   2.822  10.643 -0.2780  0.1346  0.7959
 3754SOL     OW22897   0.193   4.676   5.093 -0.1827  0.1278 -0.3576
 3754SOL    HW122898   0.191   4.590   5.051 -1.7568 -0.0743  0.1424
 3754SOL    HW222899   0.275   4.665   5.141 -0.4362  2.5466  0.6291
 3755SOL     OW22900   4.561   2.919   9.465  0.4278 -0.3609  0.9328
 3755SOL    HW122901   4.487   2.910   9.525  1.2250 -4.1145  1.3059
 3755SOL    HW222902   4.523   2.897   9.379  0.7825 -0.4287  0.7960
 3756SOL     OW22903   3.743   0.248   5.385 -0.8403 -0.4144  0.1435
 3756SOL    HW122904   3.739   0.154   5.404 -4.3586 -0.8258 -2.5671
 3756SOL    HW222905   3.778   0.281   5.467 -1.5612 -1.0911  0.7234
 3757SOL     OW22906   2.222   0.632   2.178 -0.0102 -0.0391 -0.2052
 3757SOL    HW122907   2.181   0.695   2.119 -0.5138 -1.2313 -1.1294
 3757SOL    HW222908   2.149   0.585   2.219  0.4029  0.2752  0.8795
 3758SOL     OW22909   1.865   0.840   8.990 -0.2894 -0.0785 -0.3961
 3758SOL    HW122910   1.770   0.836   8.999 -0.0540  0.8735  2.4165
 3758SOL    HW222911   1.882   0.929   9.019 -0.5712  1.1446 -4.0292
 3759SOL     OW22912   1.416   1.594  12.789 -0.0864  0.4020  0.4608
 3759SOL    HW122913   1.375   1.547  12.861  1.5742  0.1924  1.2903
 3759SOL    HW222914   1.470   1.530  12.741 -1.0447 -1.8250  2.3322
 3760SOL     OW22915   4.077   0.287   8.583  0.2233 -0.1220 -0.0200
 3760SOL    HW122916   4.064   0.381   8.569 -0.3905 -0.2892 -0.5430
 3760SOL    HW222917   4.018   0.258   8.513  0.0286  0.6393 -0.1703
 3761SOL     OW22918   4.388   2.753  11.176 -0.3216 -0.0440 -0.3037
 3761SOL    HW122919   4.365   2.709  11.094 -1.0687  0.4262 -0.3518
 3761SOL    HW222920   4.307   2.802  11.193 -0.2932  0.4152 -1.5088
 3762SOL     OW22921   4.516   4.385   7.173  0.4596 -0.0006 -0.1119
 3762SOL    HW122922   4.482   4.378   7.263  1.2923  2.2059  0.3741
 3762SOL    HW222923   4.472   4.466   7.147  1.1075  0.3975  0.0406
 3763SOL     OW22924   1.499   0.153   6.135 -0.3866  0.0675  0.4741
 3763SOL    HW122925   1.459   0.075   6.097  0.5455  0.3443 -1.0802
 3763SOL    HW222926   1.423   0.209   6.153 -0.5093  0.3109 -0.7500
 3764SOL     OW22927   4.116   4.224   6.328 -0.1771  0.3797  0.0593
 3764SOL    HW122928   4.136   4.169   6.251 -1.2537 -1.1873  0.9069
 3764SOL    HW222929   4.058   4.163   6.373  0.5390  1.4667  2.4163
 3765SOL     OW22930   3.787   4.087   2.243  0.1379 -0.0429 -0.0335
 3765SOL    HW122931   3.819   4.026   2.177 -0.9805  1.3455 -1.8542
 3765SOL    HW222932   3.807   4.169   2.200 -2.0675  0.0756 -0.8469
 3766SOL     OW22933   0.700   0.628   8.943  0.4866  0.1160  0.2817
 3766SOL    HW122934   0.787   0.668   8.949  0.5356 -0.2173  1.8275
 3766SOL    HW222935   0.667   0.658   8.858  1.1716  0.8999  0.2918
 3767SOL     OW22936   2.425   1.460   1.717  0.9827 -0.2853  0.5924
 3767SOL    HW122937   2.449   1.486   1.628 -2.1131 -1.5560 -0.5999
 3767SOL    HW222938   2.466   1.374   1.726 -1.2205 -1.4251 -0.1412
 3768SOL     OW22939   4.303   2.452   5.640  0.1640 -0.0609 -0.1699
 3768SOL    HW122940   4.248   2.521   5.676 -0.7477 -1.0732  0.3614
 3768SOL    HW222941   4.264   2.433   5.555  0.8141  0.0960 -0.5085
 3769SOL     OW22942   0.390   3.278  12.383  0.4428  0.0049 -0.6183
 3769SOL    HW122943   0.304   3.285  12.423  0.3518  0.5204 -0.9165
 3769SOL    HW222944   0.445   3.297  12.459 -1.8462 -0.3879  1.1242
 3770SOL     OW22945   4.667   0.944   9.116  0.8400  0.4789 -0.3977
 3770SOL    HW122946   4.671   0.849   9.126  2.4114  0.8547  2.6810
 3770SOL    HW222947   4.667   0.980   9.205  0.4611 -2.1603  0.6867
 3771SOL     OW22948   4.031   1.804   3.083 -0.0207  0.0082 -0.0864
 3771SOL    HW122949   4.007   1.890   3.049  2.8500  0.3753 -1.1435
 3771SOL    HW222950   4.074   1.751   3.016 -0.1243 -0.0118 -0.1372
 3772SOL     OW22951   0.351   1.879  10.532  0.4275  0.3466 -0.1950
 3772SOL    HW122952   0.325   1.881  10.440  0.3609 -1.4814 -0.2244
 3772SOL    HW222953   0.351   1.786  10.558  1.0151 -0.0735 -1.6761
 3773SOL     OW22954   3.571   2.611   6.530  0.1233 -0.1394  0.1873
 3773SOL    HW122955   3.566   2.652   6.444  1.6497 -1.9983 -0.7800
 3773SOL    HW222956   3.575   2.695   6.576 -0.9141  0.0447 -0.0689
 3774SOL     OW22957   4.602   3.798   7.393  0.4046  0.2131  0.7038
 3774SOL    HW122958   4.538   3.846   7.446  1.4154  1.0763  1.1606
 3774SOL    HW222959   4.668   3.821   7.458  0.8836  1.4304 -0.1872
 3775SOL     OW22960   3.409   4.332   1.643  0.6533  0.2245 -0.0980
 3775SOL    HW122961   3.343   4.288   1.697 -1.3701 -0.3548 -3.0140
 3775SOL    HW222962   3.432   4.398   1.708 -0.0986 -1.4501  1.8912
 3776SOL     OW22963   3.329   1.762   3.728 -0.2711 -0.2856  0.6989
 3776SOL    HW122964   3.284   1.800   3.803 -1.8993 -2.3296  0.7709
 3776SOL    HW222965   3.414   1.740   3.767  1.4236  0.3242 -2.6647
 3777SOL     OW22966   1.313   2.182   5.710  0.0742 -0.6128 -0.2508
 3777SOL    HW122967   1.364   2.108   5.676 -2.3812 -2.0091 -0.8562
 3777SOL    HW222968   1.377   2.219   5.771 -0.5139  0.0211 -0.0167
 3778SOL     OW22969   3.990   4.455   2.266 -0.3820 -0.0528 -0.2327
 3778SOL    HW122970   3.921   4.453   2.200 -0.6754  1.3326  0.0406
 3778SOL    HW222971   3.941   4.408   2.334 -0.2734  3.2494  2.0900
 3779SOL     OW22972   3.571   1.618   6.330  0.4977  0.5275 -0.9555
 3779SOL    HW122973   3.495   1.589   6.380  1.2718  1.0453  0.5436
 3779SOL    HW222974   3.566   1.711   6.353 -3.4121 -0.2050  1.1532
 3780SOL     OW22975   2.973   1.727   3.050  0.3873  0.1249  0.5418
 3780SOL    HW122976   2.965   1.694   3.139 -1.4247 -0.5903  0.1161
 3780SOL    HW222977   3.066   1.748   3.038  0.6276 -1.0364  0.3220
 3781SOL     OW22978   3.809   2.434   0.850  0.2347  0.2990 -0.1415
 3781SOL    HW122979   3.802   2.357   0.795 -1.3751  0.4952 -0.2169
 3781SOL    HW222980   3.727   2.423   0.899 -0.0652  3.4917  0.1165
 3782SOL     OW22981   0.046   3.903  14.791 -0.4898 -0.2718 -0.6253
 3782SOL    HW122982   4.699   3.943  14.772  0.5918  1.0740 -2.5762
 3782SOL    HW222983   0.030   3.863  14.876 -0.5604 -1.2562 -1.0903
 3783SOL     OW22984   4.379   2.960  11.419 -0.3770 -0.1045  0.2358
 3783SOL    HW122985   4.456   3.007  11.451 -1.0003  1.1530 -0.1071
 3783SOL    HW222986   4.361   3.021  11.347  0.8871 -0.2954 -0.2480
 3784SOL     OW22987   2.773   3.382   5.949  0.2985 -0.3877 -0.0204
 3784SOL    HW122988   2.853   3.331   5.958  1.6224  1.6924  0.0807
 3784SOL    HW222989   2.777   3.429   6.033  0.6302  0.5748 -0.5756
 3785SOL     OW22990   1.448   3.945   0.728 -0.0243 -0.0120 -0.0244
 3785SOL    HW122991   1.416   4.001   0.658  0.6018  1.0301  0.5222
 3785SOL    HW222992   1.367   3.931   0.777  0.7192  1.0559  1.5167
 3786SOL     OW22993   2.820   0.247   3.914  0.2621  0.1267 -0.2187
 3786SOL    HW122994   2.874   0.259   3.836 -2.1022  1.8713 -1.5992
 3786SOL    HW222995   2.874   0.196   3.974  1.0918  1.1978 -0.0458
 3787SOL     OW22996   2.928   1.531   8.367  0.3505  0.0841  0.7420
 3787SOL    HW122997   2.861   1.544   8.299 -0.3861 -1.9718  1.0840
 3787SOL    HW222998   2.872   1.488   8.432 -1.3347 -0.5130 -1.0960
 3788SOL     OW22999   0.733   2.094   1.992 -0.1461 -0.1160  0.3365
 3788SOL    HW123000   0.663   2.055   1.941 -2.9931  1.6662  2.8647
 3788SOL    HW223001   0.786   2.117   1.916 -0.4168 -0.0312  0.1758
 3789SOL     OW23002   2.665   4.267  11.556  0.1612  0.0629  0.2340
 3789SOL    HW123003   2.685   4.358  11.577  1.0948 -0.2950  0.9171
 3789SOL    HW223004   2.588   4.266  11.499  1.2671  0.0780 -1.2563
 3790SOL     OW23005   4.281   4.268  12.536  0.8018 -0.5283  0.1879
 3790SOL    HW123006   4.314   4.357  12.545 -1.4635  0.2680  0.3981
 3790SOL    HW223007   4.307   4.225  12.618 -0.2256  1.1221  1.3544
 3791SOL     OW23008   0.221   3.389  16.909 -0.1191  0.0940 -0.2014
 3791SOL    HW123009   0.189   3.299  16.916 -0.4395  0.0580 -2.1533
 3791SOL    HW223010   0.295   3.378  16.969 -0.4409  2.5151  0.6420
 3792SOL     OW23011   3.598   0.802   6.273  0.3734  0.2030  0.1296
 3792SOL    HW123012   3.678   0.786   6.222 -1.3489 -0.1176 -2.4783
 3792SOL    HW223013   3.562   0.879   6.229  0.2943  0.4650  0.6499
 3793SOL     OW23014   4.110   1.365   5.310  0.9498  0.0988  0.0449
 3793SOL    HW123015   4.048   1.408   5.252 -0.9241 -0.0166  1.9251
 3793SOL    HW223016   4.056   1.327   5.379  1.2103  1.1090  0.8051
 3794SOL     OW23017   2.070   4.031   4.815  0.0565 -0.2675 -0.6120
 3794SOL    HW123018   2.124   4.108   4.831 -0.9892  0.2370  0.5145
 3794SOL    HW223019   2.107   4.017   4.728  0.0087 -0.4492 -0.6045
 3795SOL     OW23020   2.132   4.591   1.570 -0.3961  0.4073  0.4680
 3795SOL    HW123021   2.172   4.553   1.492  0.8019 -1.4637  1.9676
 3795SOL    HW223022   2.135   4.515   1.629  1.2829  0.3826  0.3581
 3796SOL     OW23023   3.166   0.181   4.769 -0.0798  0.2021 -1.1124
 3796SOL    HW123024   3.238   0.242   4.782  0.0302 -0.2474  0.3568
 3796SOL    HW223025   3.126   0.180   4.856  2.1484 -0.9249 -0.0893
 3797SOL     OW23026   2.652   0.812   1.440  0.0263 -0.5561  0.1895
 3797SOL    HW123027   2.707   0.875   1.393  0.0326  0.2166  1.2406
 3797SOL    HW223028   2.612   0.871   1.503  0.4010 -1.3593  1.1672
 3798SOL     OW23029   1.486   0.760   2.424 -0.4317 -0.3249  0.1278
 3798SOL    HW123030   1.397   0.750   2.390 -0.1192  1.3985 -1.1833
 3798SOL    HW223031   1.483   0.746   2.519  0.0716 -0.1323  0.1733
 3799SOL     OW23032   2.969   1.928   3.370 -0.5665  0.3417  0.2809
 3799SOL    HW123033   2.878   1.899   3.378 -0.2210 -0.1863  2.3285
 3799SOL    HW223034   2.982   2.011   3.416 -0.1033  0.1274  0.5328
 3800SOL     OW23035   0.038   4.631   0.830 -0.1568  0.2894 -0.6774
 3800SOL    HW123036   0.102   4.626   0.901 -1.3982 -0.6983  0.3716
 3800SOL    HW223037   0.072   4.702   0.777  1.0264 -0.1078 -0.4565
 3801SOL     OW23038   2.242   4.491   6.734  0.4538  0.1819  0.5379
 3801SOL    HW123039   2.286   4.476   6.817  2.3955  1.0937 -0.3171
 3801SOL    HW223040   2.200   4.573   6.756 -2.2678 -1.0119 -0.2532
 3802SOL     OW23041   2.258   3.702  15.326 -0.2093 -0.5297  0.4721
 3802SOL    HW123042   2.301   3.788  15.335  0.2669 -0.5108 -1.9790
 3802SOL    HW223043   2.226   3.710  15.236  0.7055 -2.6203 -0.0195
 3803SOL     OW23044   3.637   0.364   2.739 -0.0491 -0.1682 -0.4111
 3803SOL    HW123045   3.653   0.346   2.832  0.8588  0.6847 -0.4021
 3803SOL    HW223046   3.603   0.276   2.724 -0.7331  0.1013 -0.4428
 3804SOL     OW23047   1.892   3.626  17.627 -0.1766  0.2265  0.6565
 3804SOL    HW123048   1.924   3.537  17.647 -0.8832 -0.3565 -0.7829
 3804SOL    HW223049   1.972   3.664  17.591 -0.7719 -0.8570 -1.8516
 3805SOL     OW23050   3.975   2.472   8.231 -0.2351  0.4091 -0.1147
 3805SOL    HW123051   3.918   2.396   8.244  2.7955 -2.0893 -1.4340
 3805SOL    HW223052   4.063   2.436   8.224 -0.4361 -0.3420  1.1974
 3806SOL     OW23053   4.396   2.219  13.126  0.5097  0.2540  0.4821
 3806SOL    HW123054   4.452   2.150  13.161 -0.2629 -0.5520  0.1521
 3806SOL    HW223055   4.324   2.195  13.185 -0.5924  1.1537 -0.4868
 3807SOL     OW23056   3.282   2.349   2.929 -0.0369  0.5317 -0.0239
 3807SOL    HW123057   3.197   2.309   2.916 -0.4741  0.9321  1.5717
 3807SOL    HW223058   3.331   2.278   2.969 -0.2866  0.6348  0.4601
 3808SOL     OW23059   3.520   1.566   2.136  0.2097 -0.1616  0.3473
 3808SOL    HW123060   3.503   1.656   2.111  1.3561 -0.0291  0.0534
 3808SOL    HW223061   3.449   1.552   2.199 -0.4057  2.7067  0.2563
 3809SOL     OW23062   0.810   3.266   8.886  0.1694  0.2051 -0.5469
 3809SOL    HW123063   0.896   3.257   8.927 -1.0600 -1.7104  1.5893
 3809SOL    HW223064   0.753   3.224   8.950 -0.3983  0.7291 -0.7156
 3810SOL     OW23065   0.432   2.787   5.344 -0.0807  0.3489 -0.7252
 3810SOL    HW123066   0.455   2.745   5.261 -0.6967 -1.5342  0.0602
 3810SOL    HW223067   0.386   2.862   5.306 -1.1162 -0.0622 -0.2935
 3811SOL     OW23068   2.488   3.950  13.691  0.9086  0.4755  0.1064
 3811SOL    HW123069   2.422   4.017  13.674 -1.9070 -2.0981  0.9528
 3811SOL    HW223070   2.565   4.004  13.675  0.4316  0.4154 -2.3027
 3812SOL     OW23071   1.025   2.044   5.501  0.4823  0.1354  0.1666
 3812SOL    HW123072   1.035   2.051   5.596  0.0516  1.1941  0.1333
 3812SOL    HW223073   1.116   2.051   5.475  0.8328 -1.5021  0.9519
 3813SOL     OW23074   4.428   1.187   0.836  0.0932  0.2983  0.2169
 3813SOL    HW123075   4.357   1.236   0.794  1.9291  0.5605 -2.5291
 3813SOL    HW223076   4.484   1.255   0.872 -0.5652  0.8643  0.1676
 3814SOL     OW23077   2.955   1.440   9.925  0.1679  0.0705  0.3509
 3814SOL    HW123078   3.014   1.510   9.954 -0.7462  1.0121 -0.0656
 3814SOL    HW223079   2.915   1.489   9.853 -0.3977 -1.1972 -0.1883
 3815SOL     OW23080   4.470   2.450  11.327 -0.4733 -0.5084 -0.2784
 3815SOL    HW123081   4.478   2.545  11.336  0.0169 -0.8552  2.8742
 3815SOL    HW223082   4.399   2.431  11.266  0.0526  1.6159 -1.5667
 3816SOL     OW23083   0.317   3.210   8.401 -0.4832  0.1078 -0.6494
 3816SOL    HW123084   0.388   3.150   8.422 -2.6990 -2.4441 -0.3907
 3816SOL    HW223085   0.245   3.164   8.445  1.4432 -1.2727  1.0321
 3817SOL     OW23086   1.015   2.084   5.778  0.2521 -0.5097 -0.2019
 3817SOL    HW123087   1.110   2.087   5.792  0.2198  1.6243 -0.3546
 3817SOL    HW223088   0.996   2.166   5.823  0.0152 -0.4269 -0.4494
 3818SOL     OW23089   4.427   1.619   9.922  0.5815 -0.0999 -1.0261
 3818SOL    HW123090   4.405   1.538   9.876  0.4115 -1.3353  1.2008
 3818SOL    HW223091   4.438   1.586  10.011 -0.4305  2.1255 -0.0966
 3819SOL     OW23092   3.618   2.351  12.505 -0.0406  0.3553  0.5569
 3819SOL    HW123093   3.664   2.282  12.552  1.3091 -1.3260 -3.1791
 3819SOL    HW223094   3.554   2.303  12.451 -0.9129 -1.2178  2.9925
 3820SOL     OW23095   0.294   1.211   0.065 -0.0913 -0.0598 -0.3310
 3820SOL    HW123096   0.210   1.216   0.111 -0.2491 -0.3864 -0.5787
 3820SOL    HW223097   0.345   1.285   0.098 -0.9336  0.4359 -0.1361
 3821SOL     OW23098   4.246   2.595  12.232  0.4806 -0.1306 -0.1783
 3821SOL    HW123099   4.329   2.581  12.276  0.0081  1.1861  1.1294
 3821SOL    HW223100   4.248   2.523  12.169 -1.7283  1.8772 -2.5783
 3822SOL     OW23101   4.158   2.669   8.456  0.0724  0.2195 -0.1704
 3822SOL    HW123102   4.209   2.621   8.391  0.7095 -2.2005  2.1550
 3822SOL    HW223103   4.075   2.623   8.453  0.1577 -0.0673  1.9020
 3823SOL     OW23104   1.297   4.385  10.520  0.9328 -0.1362  0.1799
 3823SOL    HW123105   1.332   4.344  10.441  1.2700 -0.1056  0.3130
 3823SOL    HW223106   1.204   4.361  10.516  0.6864  0.9988 -0.6767
 3824SOL     OW23107   0.299   1.204   7.936 -0.1162 -0.1061 -0.2252
 3824SOL    HW123108   0.360   1.247   7.875  0.4901 -2.6400 -1.3881
 3824SOL    HW223109   0.346   1.121   7.944  0.2955 -0.0379 -1.8700
 3825SOL     OW23110   3.744   3.649   4.474 -0.2086 -0.0228 -0.2428
 3825SOL    HW123111   3.789   3.567   4.493 -1.3542 -0.5028  0.4285
 3825SOL    HW223112   3.696   3.636   4.392  0.1667 -0.7160 -0.3570
 3826SOL     OW23113   0.121   3.337   7.018 -0.5724 -0.0815  0.0967
 3826SOL    HW123114   0.027   3.351   7.005 -0.1098  2.1014 -0.7697
 3826SOL    HW223115   0.143   3.400   6.950  2.0809 -2.6380 -1.4514
 3827SOL     OW23116   1.351   3.304   4.883 -0.4503 -0.7052  0.0535
 3827SOL    HW123117   1.446   3.303   4.869 -0.7436 -2.4525 -1.8282
 3827SOL    HW223118   1.317   3.256   4.807 -0.3313  0.3411 -0.6595
 3828SOL     OW23119   0.629   1.796   1.606  0.1243  0.0244 -0.2251
 3828SOL    HW123120   0.576   1.727   1.646 -0.6562  1.3015  0.9701
 3828SOL    HW223121   0.629   1.777   1.513  0.5229  1.7841 -0.5966
 3829SOL     OW23122   0.395   1.336   4.208  1.7704  0.0979  0.6037
 3829SOL    HW123123   0.431   1.289   4.283  1.2109 -1.3500 -0.0357
 3829SOL    HW223124   0.301   1.326   4.223  1.4444  2.1775 -0.0265
 3830SOL     OW23125   3.690   0.220   6.890 -0.6928 -0.0100 -0.1139
 3830SOL    HW123126   3.733   0.305   6.887  0.8364 -0.7657  0.0044
 3830SOL    HW223127   3.596   0.237   6.887 -0.4663  1.2808  0.4830
 3831SOL     OW23128   2.078   0.372   1.156 -0.2530  0.2082 -0.4568
 3831SOL    HW123129   2.119   0.314   1.093 -0.9831 -1.0561  0.2396
 3831SOL    HW223130   2.000   0.408   1.114  0.6622  3.9107  0.9802
 3832SOL     OW23131   3.401   1.901   9.209 -0.4316  0.0093 -0.5226
 3832SOL    HW123132   3.438   1.857   9.285 -0.8864 -0.8055 -0.7725
 3832SOL    HW223133   3.426   1.843   9.137  0.2645 -1.5459  0.9943
 3833SOL     OW23134   0.963   0.143   5.250 -0.5848  0.3716  0.5039
 3833SOL    HW123135   0.892   0.159   5.312 -0.9645 -1.8603  0.6250
 3833SOL    HW223136   0.911   0.128   5.171 -1.6294 -3.0484  1.8578
 3834SOL     OW23137   2.421   3.528   8.664  0.0415 -0.2690  0.1372
 3834SOL    HW123138   2.409   3.446   8.712  1.0136  0.8107  2.2012
 3834SOL    HW223139   2.516   3.540   8.661 -0.3381  2.3263 -1.1845
 3835SOL     OW23140   3.975   0.485   5.312  0.5207  0.6889 -0.1608
 3835SOL    HW123141   3.959   0.457   5.402 -2.1737  0.5452 -0.6655
 3835SOL    HW223142   4.051   0.430   5.296 -0.5574 -0.8754  0.1197
 3836SOL     OW23143   3.107   2.392   6.788 -0.7022  0.0265 -0.2227
 3836SOL    HW123144   3.014   2.406   6.810 -0.7961  0.0091 -0.6139
 3836SOL    HW223145   3.093   2.315   6.733 -0.5494  0.1763 -0.4668
 3837SOL     OW23146   4.689   2.567  10.584 -0.6500  0.3720  0.0800
 3837SOL    HW123147   4.687   2.547  10.490  2.3300 -1.4454  0.4061
 3837SOL    HW223148   0.042   2.597  10.591 -0.5544  0.4057 -1.2723
 3838SOL     OW23149   3.297   3.191   6.763  0.0023 -0.4823 -0.1118
 3838SOL    HW123150   3.348   3.263   6.802 -0.7092 -0.5028  0.8587
 3838SOL    HW223151   3.253   3.160   6.842 -2.3299  1.7979 -0.5145
 3839SOL     OW23152   0.741   0.656   2.730 -0.3395  0.1597 -0.0275
 3839SOL    HW123153   0.795   0.661   2.809 -0.4486  1.2472 -0.0221
 3839SOL    HW223154   0.780   0.577   2.692 -1.6927  0.0931 -1.2743
 3840SOL     OW23155   2.912   0.731   5.518 -0.1647  0.5502  0.4655
 3840SOL    HW123156   3.005   0.717   5.502 -0.5851  0.6972 -2.0880
 3840SOL    HW223157   2.905   0.800   5.584 -1.4523 -0.5710  1.5050
 3841SOL     OW23158   2.144   0.505  15.751 -0.6815 -0.0153 -0.4846
 3841SOL    HW123159   2.087   0.454  15.807 -0.5997  1.3003  0.8121
 3841SOL    HW223160   2.085   0.574  15.721 -2.0380 -0.5287  1.0288
 3842SOL     OW23161   1.844   2.379  13.860 -0.7279 -0.3886  0.2965
 3842SOL    HW123162   1.903   2.308  13.833 -1.4812 -1.6013  1.8635
 3842SOL    HW223163   1.807   2.406  13.776 -1.1007 -0.7582  0.3458
 3843SOL     OW23164   4.721   0.696   1.315  1.1261 -0.0017 -0.5191
 3843SOL    HW123165   0.035   0.671   1.239 -2.0633 -0.9986 -2.3625
 3843SOL    HW223166   4.638   0.718   1.272 -0.2767 -1.8259  1.2568
 3844SOL     OW23167   0.600   3.183  10.177  0.5265 -0.1231 -0.1440
 3844SOL    HW123168   0.672   3.125  10.200  0.5843  0.1361  0.3322
 3844SOL    HW223169   0.633   3.241  10.108  1.1017 -0.7038 -0.3559
 3845SOL     OW23170   3.778   4.382   3.804 -0.3384 -0.5151  0.5800
 3845SOL    HW123171   3.772   4.446   3.875 -0.1447 -0.6619  0.7273
 3845SOL    HW223172   3.685   4.362   3.790 -0.2508  1.4250 -2.6981
 3846SOL     OW23173   4.090   3.479   6.810  0.1492 -0.3537  0.7946
 3846SOL    HW123174   4.076   3.457   6.718  0.2859 -0.9377  0.9145
 3846SOL    HW223175   4.003   3.461   6.845 -0.5093  0.2809 -0.5010
 3847SOL     OW23176   4.240   0.481   6.511 -0.0583  0.7540  0.3406
 3847SOL    HW123177   4.250   0.572   6.484  0.4830  1.1461  1.8687
 3847SOL    HW223178   4.187   0.443   6.440  1.0246 -0.3033  0.1056
 3848SOL     OW23179   0.391   1.946   8.828 -0.5439  0.0828 -0.3360
 3848SOL    HW123180   0.473   1.995   8.836 -0.4114 -0.4924  1.8796
 3848SOL    HW223181   0.332   2.021   8.812  0.0670  0.8954  1.1681
 3849SOL     OW23182   4.151   1.508  15.476 -0.1406  0.5573  0.0061
 3849SOL    HW123183   4.119   1.435  15.422 -0.4298  0.4403  0.3323
 3849SOL    HW223184   4.115   1.486  15.562  1.0041  0.8028  0.5461
 3850SOL     OW23185   1.727   2.091  14.649 -0.2230  0.4975 -0.4443
 3850SOL    HW123186   1.634   2.105  14.663 -0.2990 -2.6016  2.2429
 3850SOL    HW223187   1.751   2.027  14.716  1.5561  1.9141  0.2619
 3851SOL     OW23188   2.141   2.330  14.859 -0.1405 -0.1813  0.0525
 3851SOL    HW123189   2.112   2.243  14.831 -0.5992  0.3304 -1.0890
 3851SOL    HW223190   2.170   2.314  14.949 -0.7102 -1.5182  0.0015
 3852SOL     OW23191   2.711   2.477   7.851  0.2559 -0.5768 -0.3440
 3852SOL    HW123192   2.783   2.427   7.812  2.4648  1.4222  1.1588
 3852SOL    HW223193   2.691   2.540   7.783  1.9448  0.7370  0.3793
 3853SOL     OW23194   4.344   1.638   4.786 -0.0708  0.3056 -0.3267
 3853SOL    HW123195   4.371   1.555   4.825 -0.5007  0.1172 -0.4310
 3853SOL    HW223196   4.261   1.637   4.834  0.6639  0.5132  0.9259
 3854SOL     OW23197   2.720   2.802  10.209  0.2939 -0.2755 -0.1031
 3854SOL    HW123198   2.792   2.860  10.232  0.5788 -0.7703  0.2492
 3854SOL    HW223199   2.644   2.858  10.228  0.8009  0.5364 -0.5127
 3855SOL     OW23200   2.013   0.515   4.678  0.1359  0.0266  0.0582
 3855SOL    HW123201   1.952   0.548   4.744  1.7153  0.0858  1.4660
 3855SOL    HW223202   2.039   0.594   4.631 -0.1017  0.1291  0.0991
 3856SOL     OW23203   0.899   1.840   9.596 -0.2140  0.0607 -0.5854
 3856SOL    HW123204   0.954   1.782   9.649  0.4829  0.9799 -0.2946
 3856SOL    HW223205   0.835   1.775   9.569  0.0918 -0.5249  0.0996
 3857SOL     OW23206   0.943   4.669   9.283  0.6977 -0.5344  0.5512
 3857SOL    HW123207   1.036   4.689   9.275 -0.1336  3.1271 -0.1107
 3857SOL    HW223208   0.928   4.623   9.200 -1.9078 -0.8123  1.1672
 3858SOL     OW23209   3.362   4.724   1.874  0.0108 -0.4809 -0.8458
 3858SOL    HW123210   3.330   4.697   1.788 -0.6651  1.9800 -1.3559
 3858SOL    HW223211   3.458   4.727   1.872 -0.0111 -0.7891 -2.2696
 3859SOL     OW23212   4.183   0.798   7.051  0.3597  0.1000 -0.3900
 3859SOL    HW123213   4.197   0.828   7.141 -0.1580  2.2072 -1.0156
 3859SOL    HW223214   4.276   0.799   7.031  0.3233 -2.8089 -0.6137
 3860SOL     OW23215   2.980   1.203   7.092 -0.1841 -0.5676  0.4953
 3860SOL    HW123216   2.953   1.295   7.094 -0.2771 -0.6031  0.9067
 3860SOL    HW223217   3.047   1.206   7.161  1.4460  2.8925 -1.2223
 3861SOL     OW23218   0.396   0.690   4.977 -0.1006 -0.3014  0.7981
 3861SOL    HW123219   0.459   0.752   4.941 -0.5036  0.3845  1.2779
 3861SOL    HW223220   0.314   0.730   4.950 -0.6215 -0.8817  1.5323
 3862SOL     OW23221   0.275   4.664   1.014 -0.0015  0.0456 -0.2575
 3862SOL    HW123222   0.210   4.689   1.080 -1.9099  0.1469 -2.2177
 3862SOL    HW223223   0.335   4.736   1.034 -0.9425  0.4734  1.0419
 3863SOL     OW23224   4.557   0.920   8.634 -0.1172  0.3967  0.1916
 3863SOL    HW123225   4.536   0.829   8.613 -0.2127  1.0249 -2.4923
 3863SOL    HW223226   4.525   0.930   8.724 -0.0569  0.7538  0.1743
 3864SOL     OW23227   3.041   3.885   9.496 -0.3894 -0.7115 -0.0612
 3864SOL    HW123228   3.089   3.896   9.414 -3.0557 -0.9145 -1.6587
 3864SOL    HW223229   3.097   3.942   9.549  0.3786 -1.7592  0.2557
 3865SOL     OW23230   3.040   2.081   6.106 -0.4087  0.4001  0.9946
 3865SOL    HW123231   3.026   2.109   6.016 -0.6779 -0.1812  0.8496
 3865SOL    HW223232   3.046   2.166   6.150  0.9544  0.7520  0.1085
 3866SOL     OW23233   2.483   2.380   3.028  0.0215  0.1044 -0.0420
 3866SOL    HW123234   2.473   2.299   2.979  1.6443 -0.0716 -0.0940
 3866SOL    HW223235   2.454   2.436   2.957 -1.2985  0.2189  0.5847
 3867SOL     OW23236   0.808   0.391   5.092 -0.1845 -0.2697  0.7112
 3867SOL    HW123237   0.753   0.316   5.069  1.2091 -0.7112 -1.2043
 3867SOL    HW223238   0.791   0.397   5.186  1.1785  0.7197  0.8973
 3868SOL     OW23239   4.655   3.336   8.965  0.3990 -0.2853  0.1451
 3868SOL    HW123240   4.641   3.255   8.916 -0.2289  0.0057 -0.1537
 3868SOL    HW223241   0.012   3.349   8.960  0.6664 -2.1166  0.2798
 3869SOL     OW23242   2.938   2.006   3.949  0.2044  0.2837 -0.1515
 3869SOL    HW123243   3.016   2.053   3.920 -0.4426  0.6131 -1.3872
 3869SOL    HW223244   2.888   1.984   3.870  2.6721  0.7578 -1.8642
 3870SOL     OW23245   4.378   0.704   2.153 -0.1631 -0.0603 -0.2685
 3870SOL    HW123246   4.405   0.649   2.079 -1.8211 -2.5826  0.9637
 3870SOL    HW223247   4.307   0.654   2.195  0.6791 -0.4069  0.7497
 3871SOL     OW23248   1.825   1.975   7.099 -0.2542  0.5501  0.7353
 3871SOL    HW123249   1.748   1.955   7.151  1.6766 -4.6602  1.6357
 3871SOL    HW223250   1.802   1.971   7.006  1.0644  3.6777  0.2678
 3872SOL     OW23251   2.095   0.290  14.658  0.0160  0.1491 -0.2765
 3872SOL    HW123252   2.149   0.323  14.586 -0.7215 -0.5915 -1.1634
 3872SOL    HW223253   2.100   0.365  14.718 -0.9993 -0.3826  0.4755
 3873SOL     OW23254   3.182   3.744   9.726 -0.0987 -0.4566 -0.2893
 3873SOL    HW123255   3.101   3.757   9.677 -0.5729  0.9661  0.8948
 3873SOL    HW223256   3.247   3.789   9.672 -0.5624 -0.0420 -0.5026
 3874SOL     OW23257   0.750   0.739   4.439  0.0783  0.3171 -0.1979
 3874SOL    HW123258   0.696   0.711   4.365  0.2678  2.2918 -1.0998
 3874SOL    HW223259   0.775   0.660   4.486  0.5475 -0.6178 -2.0300
 3875SOL     OW23260   2.591   0.965   5.224  0.1560 -0.9785  0.4902
 3875SOL    HW123261   2.501   0.996   5.218  0.1178 -1.4370 -1.2829
 3875SOL    HW223262   2.573   0.876   5.255 -3.9825  0.1516  1.2959
 3876SOL     OW23263   1.978   1.059   6.495 -0.6912 -0.0470  0.0814
 3876SOL    HW123264   2.010   1.058   6.405 -0.9063 -1.7668  0.0238
 3876SOL    HW223265   2.005   1.142   6.535  0.2922 -0.9186  1.2227
 3877SOL     OW23266   1.152   0.228   4.240  0.7043  0.1016 -0.4879
 3877SOL    HW123267   1.101   0.164   4.190 -0.7457 -0.5982  1.9056
 3877SOL    HW223268   1.140   0.190   4.327 -1.8819 -1.6423 -1.6086
 3878SOL     OW23269   1.856   4.295   7.534  0.1625 -0.3492  0.2162
 3878SOL    HW123270   1.845   4.388   7.552 -0.2478  0.0148 -1.9402
 3878SOL    HW223271   1.810   4.281   7.451  1.5589 -0.9585 -0.4615
 3879SOL     OW23272   0.387   0.510  13.546  0.0833  0.2429  0.2352
 3879SOL    HW123273   0.430   0.590  13.514 -0.5249  0.7714  0.7347
 3879SOL    HW223274   0.350   0.543  13.628  1.9251 -0.0821  1.1915
 3880SOL     OW23275   0.567   1.603   8.887 -0.5898 -0.2145 -0.3142
 3880SOL    HW123276   0.534   1.513   8.883  0.5165 -0.6812  1.7019
 3880SOL    HW223277   0.523   1.644   8.961  1.0625 -1.3015  1.2610
 3881SOL     OW23278   1.993   1.021   2.085  0.5705  0.1465 -0.2645
 3881SOL    HW123279   1.984   1.107   2.045  0.2483  0.2184 -0.0327
 3881SOL    HW223280   2.052   1.028   2.160  1.4116 -0.2583 -0.8863
 3882SOL     OW23281   0.825   3.817   6.726 -0.4601  0.4875 -0.5905
 3882SOL    HW123282   0.778   3.760   6.786  0.0719  0.0928 -0.5420
 3882SOL    HW223283   0.780   3.900   6.742 -1.3272  0.5754 -3.4456
 3883SOL     OW23284   4.168   2.076   6.604 -0.0594 -0.6656  0.1014
 3883SOL    HW123285   4.250   2.073   6.553 -0.0594  1.0078  0.0167
 3883SOL    HW223286   4.112   2.024   6.547 -1.8509 -0.4950  1.7223
 3884SOL     OW23287   1.126   3.243  15.001  0.0790 -0.6632  0.0093
 3884SOL    HW123288   1.197   3.279  14.948  1.2976 -0.5642  1.7239
 3884SOL    HW223289   1.076   3.324  15.018  0.5404 -0.5749  0.9486
 3885SOL     OW23290   0.352   3.505   1.117  0.1220 -0.5143 -0.1942
 3885SOL    HW123291   0.337   3.439   1.049  0.7510 -2.7232  1.7932
 3885SOL    HW223292   0.287   3.476   1.181  1.7447 -0.7101  1.3455
 3886SOL     OW23293   2.507   2.295   7.967 -0.1568 -0.0418 -0.2844
 3886SOL    HW123294   2.436   2.355   7.942 -0.9315  0.6595  3.5806
 3886SOL    HW223295   2.577   2.337   7.918  1.2526  0.7838  2.4315
 3887SOL     OW23296   1.131   1.834   0.106 -0.4051 -0.7564 -0.3798
 3887SOL    HW123297   1.173   1.780   0.039 -0.2834  0.4987 -1.3128
 3887SOL    HW223298   1.193   1.828   0.179 -1.4508 -0.1132  0.5526
 3888SOL     OW23299   3.508   0.737  13.414  0.0664 -0.3941 -0.1271
 3888SOL    HW123300   3.464   0.657  13.442 -0.5889  0.0003 -0.0301
 3888SOL    HW223301   3.460   0.805  13.460 -0.5291 -0.8832 -0.0189
 3889SOL     OW23302   4.186   2.066   9.938 -0.7392  0.4394 -0.4604
 3889SOL    HW123303   4.152   1.983   9.906 -0.5395  0.8357 -1.7103
 3889SOL    HW223304   4.113   2.123   9.914 -2.3526 -2.0968 -1.5769
 3890SOL     OW23305   1.891   3.738   2.626 -0.6993  0.2045 -0.0903
 3890SOL    HW123306   1.839   3.801   2.676 -0.9249 -0.4536  0.5000
 3890SOL    HW223307   1.899   3.790   2.546  2.4151  0.3220  0.2854
 3891SOL     OW23308   0.100   4.089   2.465 -0.5257  0.2141  0.4228
 3891SOL    HW123309   0.185   4.128   2.481 -0.7230 -0.1763  2.3719
 3891SOL    HW223310   0.085   4.046   2.549  0.3025  0.0099  0.4595
 3892SOL     OW23311   2.071   2.662   5.033  1.0363 -0.0856  0.1065
 3892SOL    HW123312   2.072   2.758   5.038 -1.6408 -0.1338  1.6498
 3892SOL    HW223313   2.132   2.648   4.961  1.8183 -1.0647  0.9632
 3893SOL     OW23314   2.503   1.720   1.731  0.1430 -0.1399  0.0814
 3893SOL    HW123315   2.456   1.751   1.808 -1.4416  0.2917 -1.0652
 3893SOL    HW223316   2.476   1.629   1.737 -2.1083  0.5371  0.1132
 3894SOL     OW23317   1.116   2.584   4.158  0.5789 -0.6026  0.7726
 3894SOL    HW123318   1.165   2.509   4.192 -1.0182 -0.9026  2.4580
 3894SOL    HW223319   1.120   2.567   4.064  1.3562 -0.7594  0.8323
 3895SOL     OW23320   2.693   4.144   4.321  0.3610 -0.1393 -0.4128
 3895SOL    HW123321   2.647   4.088   4.259 -0.2569  1.1235 -1.0869
 3895SOL    HW223322   2.657   4.232   4.311 -1.1258 -0.1261  5.4521
 3896SOL     OW23323   2.885   3.431   8.095  0.0490  0.7261 -0.4592
 3896SOL    HW123324   2.881   3.526   8.083  3.4090  0.9990  0.6788
 3896SOL    HW223325   2.900   3.400   8.005 -1.7957  1.0346 -0.8702
 3897SOL     OW23326   0.971   0.819   1.619  0.3206  0.2683 -0.2536
 3897SOL    HW123327   1.062   0.826   1.591  0.4229 -0.4932 -0.1229
 3897SOL    HW223328   0.936   0.810   1.531  1.2394 -1.1770 -0.4786
 3898SOL     OW23329   0.156   2.636   0.349  0.2432 -0.4191 -0.3226
 3898SOL    HW123330   0.244   2.673   0.355 -0.5473  1.0861  1.7696
 3898SOL    HW223331   0.108   2.699   0.296  0.5560 -0.4407 -0.6262
 3899SOL     OW23332   4.046   0.711   7.820 -0.4321 -0.5785 -0.0029
 3899SOL    HW123333   4.105   0.744   7.888 -0.0560  1.3027 -1.2366
 3899SOL    HW223334   3.966   0.725   7.871 -1.1125 -1.1901 -0.8851
 3900SOL     OW23335   0.142   1.092   6.364 -0.1259 -0.0912  0.5501
 3900SOL    HW123336   0.049   1.097   6.339  0.1465 -0.9372 -0.6439
 3900SOL    HW223337   0.172   1.147   6.291  0.8743  0.5579  1.4488
 3901SOL     OW23338   4.183   3.321   2.144  0.5163 -0.0119  0.1898
 3901SOL    HW123339   4.207   3.350   2.233 -0.2728 -0.3306  0.5027
 3901SOL    HW223340   4.128   3.396   2.122 -0.3950 -0.6239  0.3755
 3902SOL     OW23341   1.781   4.587   7.813 -0.2628  0.5637 -0.6743
 3902SOL    HW123342   1.840   4.567   7.740  0.9761 -1.8554  0.9886
 3902SOL    HW223343   1.774   4.503   7.859  0.6042 -0.6260 -2.7093
 3903SOL     OW23344   2.005   1.851   4.174  0.2516  0.2996 -0.3594
 3903SOL    HW123345   2.081   1.842   4.116  0.3126  3.0978 -0.7341
 3903SOL    HW223346   2.041   1.794   4.241 -0.9502  1.5121  1.3049
 3904SOL     OW23347   0.754   2.821   0.610 -1.1321  0.3608  0.1537
 3904SOL    HW123348   0.676   2.767   0.595 -0.2885 -1.2816  1.6539
 3904SOL    HW223349   0.808   2.755   0.654 -2.3645  2.2108  4.4033
 3905SOL     OW23350   1.271   1.352  10.044  0.0013  0.0263  0.0158
 3905SOL    HW123351   1.290   1.354  10.138 -0.5732  2.6613  0.0830
 3905SOL    HW223352   1.241   1.262  10.039 -2.2397  0.8449 -1.2324
 3906SOL     OW23353   3.925   0.500  15.577  0.2783  0.3340 -0.5797
 3906SOL    HW123354   3.865   0.442  15.531  0.3774  0.4772 -0.8898
 3906SOL    HW223355   3.995   0.531  15.520  1.1022 -0.4198  0.0201
 3907SOL     OW23356   3.185   0.564   4.489 -0.1159  0.0064  0.1315
 3907SOL    HW123357   3.217   0.475   4.503  0.8070  0.1397 -1.0768
 3907SOL    HW223358   3.145   0.583   4.574  0.8301  2.6479  0.0011
 3908SOL     OW23359   0.564   3.612   3.630 -0.4145  0.0058  0.1701
 3908SOL    HW123360   0.636   3.554   3.655 -0.9600 -0.6806  0.1665
 3908SOL    HW223361   0.558   3.666   3.709  1.7155  2.7618 -1.5563
 3909SOL     OW23362   2.188   3.021   3.659 -0.0980 -0.7708  0.8342
 3909SOL    HW123363   2.142   3.097   3.624 -0.3319 -1.0834  0.4567
 3909SOL    HW223364   2.203   2.959   3.587  0.2271  1.5722 -1.1314
 3910SOL     OW23365   2.039   0.473   7.665 -0.6050  0.1084 -0.0383
 3910SOL    HW123366   2.018   0.383   7.641 -2.9817  0.9723 -1.2652
 3910SOL    HW223367   2.116   0.496   7.613 -0.3883  1.5968  0.9322
 3911SOL     OW23368   1.117   2.198   2.876  0.1631 -0.0544  0.3262
 3911SOL    HW123369   1.167   2.117   2.868  0.9519  0.4426  0.2819
 3911SOL    HW223370   1.064   2.191   2.955 -0.0734  0.0110  0.1744
 3912SOL     OW23371   3.262   1.034   8.157 -0.4179  0.3041 -0.4359
 3912SOL    HW123372   3.355   1.037   8.137 -0.4486 -0.5002 -0.7138
 3912SOL    HW223373   3.270   1.076   8.243 -0.2043 -0.2369 -0.1924
 3913SOL     OW23374   2.435   1.741  17.372  0.3062 -0.0433 -0.4111
 3913SOL    HW123375   2.348   1.734  17.412  0.1006  0.6522 -0.7507
 3913SOL    HW223376   2.503   1.710  17.432  0.8824  1.1336 -0.4675
 3914SOL     OW23377   4.189   2.214   6.066  0.2107  0.7215  0.1356
 3914SOL    HW123378   4.136   2.279   6.112  2.2792  3.2340 -1.0061
 3914SOL    HW223379   4.275   2.250   6.087  1.2854 -0.3222 -2.4797
 3915SOL     OW23380   4.550   0.478  12.198 -0.0610 -0.0165  0.1212
 3915SOL    HW123381   4.543   0.469  12.103  2.1530 -1.4153  0.0885
 3915SOL    HW223382   4.644   0.463  12.206 -0.5227 -2.4292  1.2696
 3916SOL     OW23383   1.235   1.952   8.519 -0.0603 -0.2581  0.0677
 3916SOL    HW123384   1.153   1.910   8.545  0.6429 -1.6912 -0.0207
 3916SOL    HW223385   1.232   2.036   8.564 -0.3636 -0.8459  1.1443
 3917SOL     OW23386   1.062   4.627   1.656  0.1468 -0.3210 -0.0461
 3917SOL    HW123387   1.075   4.674   1.739 -0.0179  1.3712 -0.9813
 3917SOL    HW223388   1.049   4.539   1.691 -1.4065  0.3247  1.0256
 3918SOL     OW23389   2.101   4.018  17.658 -0.0186 -0.0575  0.0911
 3918SOL    HW123390   2.047   4.083  17.703 -1.6770 -0.5080 -1.2129
 3918SOL    HW223391   2.054   3.945  17.698 -2.3800  2.1613  1.3923
 3919SOL     OW23392   1.883   0.913   3.587 -1.2015  0.0727  0.4356
 3919SOL    HW123393   1.975   0.900   3.564 -1.1820 -2.8854  2.1582
 3919SOL    HW223394   1.853   0.975   3.520 -0.2144  0.3259  0.2260
 3920SOL     OW23395   2.095   3.714   6.507 -0.5118  0.1368  0.6013
 3920SOL    HW123396   2.049   3.767   6.442  0.7644  0.7134  0.1784
 3920SOL    HW223397   2.129   3.643   6.452  4.2371  0.2310  3.4542
 3921SOL     OW23398   1.841   4.553   8.667 -0.2001 -0.0076 -0.4088
 3921SOL    HW123399   1.797   4.542   8.752  0.1347 -1.9305 -0.4817
 3921SOL    HW223400   1.928   4.527   8.697 -0.3634  0.1961  0.2560
 3922SOL     OW23401   0.570   1.750   2.412 -0.0559  0.2793  0.0558
 3922SOL    HW123402   0.658   1.763   2.447  1.6270 -0.6402 -3.8056
 3922SOL    HW223403   0.532   1.838   2.422 -2.1379 -0.8093  1.7249
 3923SOL     OW23404   0.005   0.695   2.464  0.7198  0.3264 -0.1061
 3923SOL    HW123405   4.709   0.743   2.388  2.8047  0.9107 -0.6424
 3923SOL    HW223406   4.655   0.699   2.502  0.4940 -0.5197 -0.5319
 3924SOL     OW23407   2.592   0.106   7.299  0.8716  0.2679  0.2576
 3924SOL    HW123408   2.640   0.161   7.237 -0.3442  2.5052  1.2736
 3924SOL    HW223409   2.588   0.153   7.383  1.0441  0.8866 -0.0844
 3925SOL     OW23410   1.873   4.136   9.287  0.5500 -0.2356  0.0046
 3925SOL    HW123411   1.952   4.118   9.236  1.4587  0.3524  1.2025
 3925SOL    HW223412   1.873   4.232   9.289 -1.3440 -0.2094 -1.1016
 3926SOL     OW23413   4.112   0.404  11.372  0.0076  0.4379 -0.5167
 3926SOL    HW123414   4.068   0.371  11.450  1.8930  2.0720  1.2584
 3926SOL    HW223415   4.120   0.324  11.321  0.4481 -0.9655  1.7583
 3927SOL     OW23416   2.867   0.169  16.424 -0.0812 -0.4206 -0.8286
 3927SOL    HW123417   2.867   0.229  16.350 -1.2783 -0.4501 -0.8528
 3927SOL    HW223418   2.822   0.217  16.494  0.8341  0.0525 -0.5768
 3928SOL     OW23419   1.613   4.571  15.713  0.1270  0.5311 -0.1011
 3928SOL    HW123420   1.567   4.571  15.628  0.1340 -0.3994 -0.1031
 3928SOL    HW223421   1.547   4.589  15.780  0.5018 -3.0431  1.2186
 3929SOL     OW23422   1.115   2.111   6.226 -0.5545 -0.6605 -0.2329
 3929SOL    HW123423   1.049   2.162   6.272  0.1855  0.1179 -0.0366
 3929SOL    HW223424   1.108   2.039   6.288 -0.3819  0.8826  1.5682
 3930SOL     OW23425   2.037   1.639  16.833  0.7579 -0.2000 -0.3440
 3930SOL    HW123426   2.120   1.688  16.840  0.2677  0.0692  3.5635
 3930SOL    HW223427   1.971   1.707  16.851 -0.1163 -1.1576  0.0201
 3931SOL     OW23428   2.660   2.797   4.113  0.0258 -0.1499 -0.3061
 3931SOL    HW123429   2.677   2.824   4.023  3.3352  2.3759  1.0794
 3931SOL    HW223430   2.727   2.853   4.153 -0.9004  0.5945  0.1960
 3932SOL     OW23431   0.181   0.234   2.811 -0.4990  0.0981 -0.0525
 3932SOL    HW123432   0.097   0.241   2.857  0.1886 -0.1961  1.2691
 3932SOL    HW223433   0.161   0.196   2.726 -1.6240  2.3263 -0.7783
 3933SOL     OW23434   1.949   1.572   8.197 -0.9842 -0.0357  0.5459
 3933SOL    HW123435   1.923   1.647   8.250  2.4503  1.5263  0.0423
 3933SOL    HW223436   1.885   1.584   8.128 -1.6840  0.3903  1.2731
 3934SOL     OW23437   3.774   0.812   2.948  0.1368  0.4785  0.3784
 3934SOL    HW123438   3.855   0.817   2.897  0.3461  2.4528  0.9120
 3934SOL    HW223439   3.765   0.716   2.951  1.8920  0.3305  1.1917
 3935SOL     OW23440   1.342   2.579   2.008 -0.0306 -0.0585 -0.1827
 3935SOL    HW123441   1.302   2.531   2.081 -1.7540 -0.6297 -1.5142
 3935SOL    HW223442   1.275   2.562   1.942 -1.5263 -0.6121  1.4587
 3936SOL     OW23443   2.053   3.651   4.052 -0.1094 -0.5152  0.2811
 3936SOL    HW123444   1.967   3.609   4.043 -0.5272  0.9231 -2.6991
 3936SOL    HW223445   2.027   3.742   4.035  1.2862 -0.0296  0.7591
 3937SOL     OW23446   2.059   2.151  11.417 -0.5969 -0.6416  0.2988
 3937SOL    HW123447   1.997   2.168  11.488  0.0207 -0.1345  0.7177
 3937SOL    HW223448   2.086   2.060  11.432  1.6999  0.2591  1.5763
 3938SOL     OW23449   1.916   0.196   4.973  0.9442  0.1929 -0.2653
 3938SOL    HW123450   1.958   0.279   4.994  2.3730  0.0345 -2.4658
 3938SOL    HW223451   1.932   0.144   5.052  0.3439 -0.9560 -0.9057
 3939SOL     OW23452   0.359   1.955   3.875  0.6264  0.7180 -0.1635
 3939SOL    HW123453   0.360   1.879   3.934 -1.3170 -1.0421 -2.4126
 3939SOL    HW223454   0.278   1.932   3.831  0.5877 -0.3864  0.4792
 3940SOL     OW23455   4.243   2.661  14.870 -0.4749 -0.1731  0.0316
 3940SOL    HW123456   4.275   2.712  14.795 -1.3139  0.1120 -0.1294
 3940SOL    HW223457   4.310   2.661  14.938 -0.0004 -0.5718 -0.4355
 3941SOL     OW23458   0.246   1.774   4.272 -0.0002 -0.5877  0.6519
 3941SOL    HW123459   0.207   1.794   4.357 -0.4755 -0.5941  0.4391
 3941SOL    HW223460   0.214   1.685   4.260  0.8521 -0.7740 -0.2221
 3942SOL     OW23461   3.492   3.064   2.255  0.4577 -0.4672 -0.2389
 3942SOL    HW123462   3.519   2.988   2.308  1.1975  1.2436  1.8591
 3942SOL    HW223463   3.446   3.023   2.181  0.8803 -0.7974 -0.3219
 3943SOL     OW23464   1.039   0.951   4.604  0.4733 -0.2718 -0.0113
 3943SOL    HW123465   1.050   0.860   4.576 -0.4286 -0.2065 -0.5945
 3943SOL    HW223466   1.132   0.974   4.594 -0.3580  3.1650  0.0285
 3944SOL     OW23467   3.189   4.131   2.827 -0.1326  0.2723  0.0158
 3944SOL    HW123468   3.103   4.116   2.867  1.6492  0.2523  3.8418
 3944SOL    HW223469   3.209   4.043   2.796  2.0943  1.0646 -0.7268
 3945SOL     OW23470   1.748   2.163  15.469  0.6194 -0.3893  0.0744
 3945SOL    HW123471   1.772   2.169  15.562 -0.9208  2.6906  0.2562
 3945SOL    HW223472   1.701   2.246  15.460 -1.8469 -1.6668  0.9474
 3946SOL     OW23473   2.086   2.713   7.587 -0.1763  0.6102 -0.1482
 3946SOL    HW123474   2.034   2.757   7.655 -1.0287  0.3573 -0.6323
 3946SOL    HW223475   2.067   2.621   7.605  3.2026 -0.2100 -0.7728
 3947SOL     OW23476   0.498   4.502   6.026  0.0505 -0.2584  0.3600
 3947SOL    HW123477   0.576   4.456   5.994  1.9119  2.5925  0.7283
 3947SOL    HW223478   0.493   4.484   6.120 -0.0565  1.6958  0.7342
 3948SOL     OW23479   1.553   2.181   3.053  0.8245  0.1218  0.2458
 3948SOL    HW123480   1.633   2.230   3.072  0.7328  2.3259 -4.8708
 3948SOL    HW223481   1.500   2.235   3.112  1.1403  0.4004  0.2779
 3949SOL     OW23482   2.866   1.425   8.104  0.7251  0.0576 -0.6407
 3949SOL    HW123483   2.946   1.381   8.135 -0.0124 -1.2879 -0.6663
 3949SOL    HW223484   2.877   1.428   8.008  0.1987  0.6604 -0.6754
 3950SOL     OW23485   1.085   1.179   1.571  0.3811  0.0055 -0.2465
 3950SOL    HW123486   1.128   1.149   1.652 -0.0175  1.0222  0.3386
 3950SOL    HW223487   1.154   1.175   1.505 -0.3629  0.6368 -1.0478
 3951SOL     OW23488   2.580   0.229  12.846 -0.0064  0.2313  0.1559
 3951SOL    HW123489   2.601   0.137  12.863 -0.7373  0.4362  2.1638
 3951SOL    HW223490   2.575   0.264  12.935 -1.8342  1.4560 -0.4236
 3952SOL     OW23491   3.851   3.557   6.370  0.2713  0.1343  0.4655
 3952SOL    HW123492   3.785   3.570   6.302  0.3855  0.2402  0.3748
 3952SOL    HW223493   3.928   3.523   6.324 -1.0837 -1.6943 -0.4651
 3953SOL     OW23494   4.427   4.471   1.005  0.0724  0.1425 -0.1819
 3953SOL    HW123495   4.438   4.399   1.067  1.3752 -1.2166 -1.9707
 3953SOL    HW223496   4.481   4.545   1.032  0.9121  1.1514 -4.5591
 3954SOL     OW23497   1.368   3.995  13.499  0.4404  0.5869 -0.5841
 3954SOL    HW123498   1.351   3.908  13.462 -1.0943  0.0154  1.4643
 3954SOL    HW223499   1.452   3.989  13.544 -0.7934  0.6071  1.7451
 3955SOL     OW23500   4.428   1.871   4.470 -0.3413  0.2737  0.2768
 3955SOL    HW123501   4.463   1.873   4.381 -1.5415 -0.9618 -0.2227
 3955SOL    HW223502   4.502   1.843   4.525 -0.2866  2.0199  1.0943
 3956SOL     OW23503   0.551   3.761   3.396 -0.3259 -0.0741 -0.0503
 3956SOL    HW123504   0.518   3.704   3.465 -0.5865 -0.8505 -0.8163
 3956SOL    HW223505   0.643   3.767   3.419 -0.3603 -0.1744  0.1099
 3957SOL     OW23506   0.567   2.651   3.160  0.2857  0.0270  0.3852
 3957SOL    HW123507   0.585   2.613   3.246  0.4385  0.1185  0.3922
 3957SOL    HW223508   0.528   2.731   3.195 -0.3583 -0.8512  1.6553
 3958SOL     OW23509   1.907   2.607   4.652  0.7708 -0.3879  0.1324
 3958SOL    HW123510   1.912   2.536   4.588 -2.6710 -0.2877 -0.2599
 3958SOL    HW223511   1.842   2.662   4.607  1.2656  0.4387  0.4240
 3959SOL     OW23512   0.571   1.186   8.305 -0.5764  0.2973  0.3433
 3959SOL    HW123513   0.605   1.273   8.288 -1.1314  0.4757  0.1324
 3959SOL    HW223514   0.541   1.206   8.393 -0.4152  0.0100  0.4622
 3960SOL     OW23515   4.381   4.543  13.653 -0.2588  0.4152  0.1180
 3960SOL    HW123516   4.345   4.482  13.588 -1.2721  1.3393 -0.1941
 3960SOL    HW223517   4.296   4.567  13.690 -1.0573 -1.0399 -0.7606
 3961SOL     OW23518   2.035   1.526   6.395 -0.6111 -0.3303 -0.2172
 3961SOL    HW123519   2.085   1.545   6.316 -0.3537 -2.7253 -0.6207
 3961SOL    HW223520   1.946   1.534   6.362 -0.4783 -0.3918 -0.5946
 3962SOL     OW23521   0.963   4.124   4.271 -0.1995  0.6463  0.2033
 3962SOL    HW123522   0.900   4.159   4.334 -0.9415 -2.8893  1.4780
 3962SOL    HW223523   0.923   4.140   4.186  0.0560  0.3240  0.0237
 3963SOL     OW23524   2.741   0.542  14.996 -0.0869  0.7163 -0.0354
 3963SOL    HW123525   2.663   0.567  14.947  0.7075  1.6302 -0.8410
 3963SOL    HW223526   2.718   0.539  15.089  0.3179 -0.0717  0.0369
 3964SOL     OW23527   0.274   0.995   5.232 -0.5742 -0.0550 -0.7658
 3964SOL    HW123528   0.247   1.011   5.323  1.6422  0.6605 -0.2233
 3964SOL    HW223529   0.362   0.957   5.242 -1.2911 -0.9422  2.3018
 3965SOL     OW23530   1.169   3.869   4.809  0.5715  0.4927  0.1830
 3965SOL    HW123531   1.078   3.842   4.798  1.0045 -0.7066 -0.4981
 3965SOL    HW223532   1.214   3.784   4.806 -0.3986  0.0034 -0.3366
 3966SOL     OW23533   3.972   4.614   3.141  0.5572 -0.0622  0.1401
 3966SOL    HW123534   3.905   4.548   3.124  0.2890  0.5069 -0.9980
 3966SOL    HW223535   4.030   4.567   3.202  1.8813 -0.7133 -1.6337
 3967SOL     OW23536   2.852   3.643   2.531  0.5250 -0.0913 -0.0797
 3967SOL    HW123537   2.906   3.717   2.503  0.7289 -0.4461 -0.6259
 3967SOL    HW223538   2.878   3.610   2.618 -0.7601  1.2093  0.7901
 3968SOL     OW23539   2.783   2.195   1.828 -0.8406 -0.1093 -0.1590
 3968SOL    HW123540   2.824   2.281   1.836 -1.0240  0.0829 -1.2499
 3968SOL    HW223541   2.735   2.171   1.908  0.0942 -0.5334  0.2647
 3969SOL     OW23542   1.088   0.226   8.058 -1.1444  0.5109 -0.5383
 3969SOL    HW123543   1.170   0.224   8.008  0.0340  0.6929  1.3938
 3969SOL    HW223544   1.085   0.143   8.104  1.6258  1.7587  1.9494
 3970SOL     OW23545   4.348   1.338   2.247  0.0605 -0.4492  0.4890
 3970SOL    HW123546   4.397   1.412   2.281  0.3833 -0.0527 -0.8467
 3970SOL    HW223547   4.370   1.284   2.323  0.0823 -1.4148 -0.1902
 3971SOL     OW23548   3.012   4.012  11.289  0.0856  0.0281  0.2647
 3971SOL    HW123549   2.962   3.932  11.273  1.4557 -0.7175 -0.2882
 3971SOL    HW223550   3.090   3.983  11.243 -0.2493 -0.8320  0.2288
 3972SOL     OW23551   1.788   2.251   8.321  0.3958 -0.0829  0.0618
 3972SOL    HW123552   1.876   2.234   8.355  0.9904  2.6657 -0.0733
 3972SOL    HW223553   1.776   2.344   8.338 -0.6797 -0.2365  0.1313
 3973SOL     OW23554   1.684   1.836   8.641 -0.3940  0.5779  0.0231
 3973SOL    HW123555   1.618   1.882   8.693  0.7956  0.6114  1.4909
 3973SOL    HW223556   1.680   1.890   8.562 -0.9941  0.7297  0.1538
 3974SOL     OW23557   1.601   0.261   8.694 -0.2493 -0.0772  0.3963
 3974SOL    HW123558   1.630   0.193   8.633 -1.2247 -1.5353  1.5822
 3974SOL    HW223559   1.669   0.329   8.692 -2.0768  1.6752 -2.8053
 3975SOL     OW23560   3.223   3.417   3.128  0.2625 -0.1634  0.0332
 3975SOL    HW123561   3.190   3.423   3.218 -0.7969 -1.4622 -0.2616
 3975SOL    HW223562   3.158   3.352   3.102 -1.1499  1.1532  0.2499
 3976SOL     OW23563   0.686   1.321   3.594 -0.2059 -0.0593 -0.4451
 3976SOL    HW123564   0.690   1.385   3.664 -3.2042 -1.0007  0.5666
 3976SOL    HW223565   0.604   1.274   3.609 -1.5223  2.0090 -1.1456
 3977SOL     OW23566   1.422   3.860   3.940  0.3355 -0.0815 -0.0376
 3977SOL    HW123567   1.424   3.935   3.999 -1.4553  0.2513 -0.4247
 3977SOL    HW223568   1.380   3.905   3.867 -1.6391  0.4740  1.4436
 3978SOL     OW23569   1.556   2.025   4.561  0.4109 -0.4977 -0.3423
 3978SOL    HW123570   1.498   2.101   4.559  1.1336  0.0082 -1.8715
 3978SOL    HW223571   1.644   2.061   4.572  0.3571 -0.0354 -1.3829
 3979SOL     OW23572   1.239   4.679   5.703  0.1955 -0.4259 -0.0847
 3979SOL    HW123573   1.160   4.646   5.745 -0.0631 -0.1790 -0.3750
 3979SOL    HW223574   1.246   4.646   5.613  0.9917 -0.4128 -0.0236
 3980SOL     OW23575   0.789   4.251   1.786 -0.4463  0.5076  0.4719
 3980SOL    HW123576   0.706   4.252   1.740  0.3608 -0.8114 -1.0150
 3980SOL    HW223577   0.798   4.158   1.808  0.8202  0.4812 -0.1213
 3981SOL     OW23578   0.896   1.279   7.247  0.1646  0.1267  0.2491
 3981SOL    HW123579   0.866   1.272   7.156  1.7487  0.3758 -0.2864
 3981SOL    HW223580   0.983   1.242   7.232 -1.0096 -2.2767 -0.5683
 3982SOL     OW23581   3.891   3.143   0.878 -0.1494 -0.1539 -0.5126
 3982SOL    HW123582   3.812   3.143   0.931 -0.1722  2.5645 -0.5447
 3982SOL    HW223583   3.913   3.236   0.880 -1.2358  0.1473 -2.6875
 3983SOL     OW23584   3.734   1.870   6.665  0.1737  0.1258  0.6070
 3983SOL    HW123585   3.709   1.787   6.706 -2.7841 -0.8325 -3.1363
 3983SOL    HW223586   3.816   1.898   6.706 -1.0603  1.2337  2.2962
 3984SOL     OW23587   2.798   2.369   4.681  0.3049 -0.3181  0.0660
 3984SOL    HW123588   2.802   2.462   4.659 -0.0174 -0.5107 -0.8028
 3984SOL    HW223589   2.707   2.354   4.656  0.5170 -0.0085 -0.8986
 3985SOL     OW23590   2.117   2.589   2.975  0.0313  0.1117 -0.0232
 3985SOL    HW123591   2.159   2.588   2.889 -1.4620  0.9064 -0.7690
 3985SOL    HW223592   2.194   2.591   3.031 -1.3539  0.1987  1.8858
 3986SOL     OW23593   3.807   2.855  14.761 -0.1688 -0.9484 -0.2335
 3986SOL    HW123594   3.717   2.850  14.793 -0.5021  0.9259 -0.8917
 3986SOL    HW223595   3.840   2.939  14.794 -0.7731 -0.5951 -0.5441
 3987SOL     OW23596   1.285   1.752  12.018  0.0260  0.2736  0.7426
 3987SOL    HW123597   1.311   1.678  12.072 -2.8198 -1.1872  0.1166
 3987SOL    HW223598   1.354   1.818  12.013 -1.2074  1.4732 -0.5972
 3988SOL     OW23599   1.892   1.132   2.369 -0.1636  0.0542  0.0747
 3988SOL    HW123600   1.903   1.210   2.424  1.3175 -2.6990  3.6778
 3988SOL    HW223601   1.804   1.147   2.336 -0.9690 -2.6257  1.0803
 3989SOL     OW23602   0.771   3.705   5.002  0.4317  0.0970 -0.1932
 3989SOL    HW123603   0.814   3.651   5.068  0.6882 -0.4864 -0.8434
 3989SOL    HW223604   0.711   3.747   5.063  0.0202  0.6573 -0.9923
 3990SOL     OW23605   4.703   2.230   5.916  0.3984 -0.1454  0.5690
 3990SOL    HW123606   4.629   2.276   5.876  0.1032 -0.3536  0.8734
 3990SOL    HW223607   0.027   2.226   5.843  1.5096  2.4723  1.3722
 3991SOL     OW23608   2.339   0.890   8.874  0.6044  0.2614  0.0490
 3991SOL    HW123609   2.311   0.901   8.965  2.2911  2.0010  0.3439
 3991SOL    HW223610   2.281   0.947   8.823 -0.0213 -2.4608 -2.2369
 3992SOL     OW23611   2.817   3.552   9.290  0.2650  0.2955 -0.3491
 3992SOL    HW123612   2.763   3.475   9.306  1.5560 -0.6631 -0.6744
 3992SOL    HW223613   2.861   3.571   9.372  1.7937  1.8025 -1.5077
 3993SOL     OW23614   2.017   1.426   7.266  0.7503 -0.3930  0.0582
 3993SOL    HW123615   2.042   1.371   7.339  0.5305 -0.5461  0.0201
 3993SOL    HW223616   1.940   1.472   7.299  1.5676 -0.5056  2.0715
 3994SOL     OW23617   2.472   3.248   8.790 -0.1655  0.2051  0.2173
 3994SOL    HW123618   2.380   3.240   8.815 -0.1236  1.1499  0.6713
 3994SOL    HW223619   2.504   3.166   8.828  1.8816 -0.6040 -3.2017
 3995SOL     OW23620   3.020   1.789   5.258  0.1598  0.1250  0.3896
 3995SOL    HW123621   3.055   1.755   5.176 -1.2867  2.1765 -1.0690
 3995SOL    HW223622   2.970   1.864   5.224 -0.5448  0.7689  2.8233
 3996SOL     OW23623   4.062   2.919   6.607 -0.8334 -0.5671 -0.2420
 3996SOL    HW123624   3.967   2.923   6.597 -0.9252  1.4520  1.2600
 3996SOL    HW223625   4.078   2.884   6.695  0.8459 -0.0561 -0.3332
 3997SOL     OW23626   4.499   1.157   5.113  0.4621  0.1657 -0.1164
 3997SOL    HW123627   4.533   1.077   5.153  2.0404  0.3315 -1.1240
 3997SOL    HW223628   4.414   1.147   5.156  0.1301 -2.6334 -1.3724
 3998SOL     OW23629   2.611   0.428   4.361 -0.2272 -0.1511 -0.2020
 3998SOL    HW123630   2.610   0.352   4.303  1.8982  0.5166 -1.1321
 3998SOL    HW223631   2.703   0.429   4.389 -0.3470 -3.8423  0.3502
 3999SOL     OW23632   2.416   0.973   7.117 -0.5497 -0.3242 -0.5064
 3999SOL    HW123633   2.388   0.910   7.184 -1.0655 -0.2735 -0.6783
 3999SOL    HW223634   2.389   0.930   7.036 -3.6157 -0.3890  0.5711
 4000SOL     OW23635   0.476   3.200   7.705 -0.2674 -0.5379  0.1860
 4000SOL    HW123636   0.402   3.167   7.755 -0.4688  1.2992  1.0992
 4000SOL    HW223637   0.460   3.145   7.628 -0.5603 -0.9427  0.5353
 4001SOL     OW23638   2.575   1.844   7.065  0.2177  0.1980  0.3242
 4001SOL    HW123639   2.490   1.877   7.036  0.6010 -1.3747 -2.7027
 4001SOL    HW223640   2.579   1.767   7.008  1.8099  1.0079 -0.6665
 4002SOL     OW23641   4.658   4.195   3.688  0.1419 -0.4332  0.2453
 4002SOL    HW123642   4.708   4.178   3.769  1.2646 -2.8108 -0.9415
 4002SOL    HW223643   4.630   4.110   3.654  1.2912 -1.9548  3.0585
 4003SOL     OW23644   2.119   0.272   6.035  0.0111 -0.1777  0.5608
 4003SOL    HW123645   2.087   0.337   6.097  3.4215  0.3808  1.7847
 4003SOL    HW223646   2.062   0.300   5.964  2.1507  0.7944 -0.7643
 4004SOL     OW23647   1.716   0.143   4.446  0.3294 -0.3508 -0.1709
 4004SOL    HW123648   1.791   0.203   4.440 -0.3537  0.3920 -1.0553
 4004SOL    HW223649   1.689   0.156   4.537  0.8942 -0.1939 -0.0253
 4005SOL     OW23650   3.891   4.622   4.587  0.2688 -0.3785  0.2003
 4005SOL    HW123651   3.908   4.637   4.680  0.1267  2.5603 -0.2659
 4005SOL    HW223652   3.980   4.633   4.553 -0.0866 -1.1707 -0.9865
 4006SOL     OW23653   1.102   2.712   6.213 -0.2618  0.7819  0.1900
 4006SOL    HW123654   1.045   2.641   6.242 -0.5853  1.0440  0.1892
 4006SOL    HW223655   1.122   2.771   6.287 -0.6704 -0.0359  0.9552
 4007SOL     OW23656   3.871   4.021   8.052  0.4339 -0.7911 -0.5267
 4007SOL    HW123657   3.789   4.062   8.081  0.0773 -1.6879 -0.2680
 4007SOL    HW223658   3.911   4.011   8.138 -0.4510  2.7413  0.3160
 4008SOL     OW23659   2.036   0.880   8.478 -0.0475 -0.1268 -0.7840
 4008SOL    HW123660   2.031   0.858   8.571  1.3519  3.5202  0.1599
 4008SOL    HW223661   2.069   0.970   8.474 -0.2181  0.0038  0.9314
 4009SOL     OW23662   1.114   0.148   4.497  0.3559 -0.3009 -0.0331
 4009SOL    HW123663   1.050   0.093   4.542 -1.0035  2.0025  0.8117
 4009SOL    HW223664   1.125   0.213   4.566 -1.1266  0.6118 -0.6530
 4010SOL     OW23665   1.469   1.003   1.821 -0.3198 -0.5312 -0.1121
 4010SOL    HW123666   1.507   0.960   1.898  0.0620 -1.1820 -0.6553
 4010SOL    HW223667   1.542   0.994   1.760  0.9064  0.0390  1.2590
 4011SOL     OW23668   0.450   1.283   2.017 -0.3532  0.2391  0.7815
 4011SOL    HW123669   0.400   1.251   1.942  1.3842 -1.8137  0.4750
 4011SOL    HW223670   0.543   1.271   1.995 -0.6149 -1.9453  0.8974
 4012SOL     OW23671   3.573   1.875   0.987 -0.3622  0.8825 -0.9348
 4012SOL    HW123672   3.603   1.826   1.064 -0.8091 -0.6908 -1.7569
 4012SOL    HW223673   3.575   1.964   1.021 -1.2399  0.6632 -0.3029
 4013SOL     OW23674   0.397   0.459  16.200  0.0252  0.7382  0.5389
 4013SOL    HW123675   0.488   0.436  16.218 -0.5857 -1.1214  1.1346
 4013SOL    HW223676   0.354   0.456  16.285  0.6856 -0.7775  0.8133
 4014SOL     OW23677   3.994   3.243   0.599  0.1790 -0.0875  0.0364
 4014SOL    HW123678   3.999   3.210   0.689 -0.4007 -0.3512 -0.0295
 4014SOL    HW223679   4.050   3.175   0.562  2.5428  1.4012  0.8682
 4015SOL     OW23680   1.133   1.673   1.755  0.2821  0.5696  0.2375
 4015SOL    HW123681   1.055   1.722   1.783  0.5867  1.0282  0.2969
 4015SOL    HW223682   1.115   1.588   1.793  0.3059 -0.7334 -2.6631
 4016SOL     OW23683   2.022   2.229   7.230  0.0122 -0.1403  0.1221
 4016SOL    HW123684   2.009   2.323   7.219 -1.7359 -0.1362  2.2055
 4016SOL    HW223685   1.960   2.201   7.298 -2.3126 -1.9273 -2.7522
 4017SOL     OW23686   0.972   4.175   6.280  0.3743 -0.0158 -0.3443
 4017SOL    HW123687   0.893   4.229   6.274 -1.3903 -2.8043 -2.0609
 4017SOL    HW223688   0.962   4.121   6.202  1.5327  1.6167 -1.6337
 4018SOL     OW23689   2.307   1.448  13.781 -0.2488 -0.6303  0.4661
 4018SOL    HW123690   2.277   1.438  13.871  0.9842  0.6363  1.0166
 4018SOL    HW223691   2.233   1.417  13.728  1.2234  1.7287 -3.0193
 4019SOL     OW23692   4.067   4.680   1.916 -0.5497 -0.0529 -0.6947
 4019SOL    HW123693   4.034   4.689   2.005  0.1554  0.4528 -0.4826
 4019SOL    HW223694   4.021   4.601   1.887 -1.7054 -0.1991  1.4952
 4020SOL     OW23695   4.115   2.649   8.768  0.1677 -0.5340  0.2949
 4020SOL    HW123696   4.050   2.595   8.814 -0.1341 -0.4175  0.0008
 4020SOL    HW223697   4.086   2.734   8.800  1.4348 -0.8015  2.1512
 4021SOL     OW23698   1.438   3.677  14.914  0.3359  0.1451 -0.0829
 4021SOL    HW123699   1.438   3.739  14.842 -2.8686 -3.6277 -3.3540
 4021SOL    HW223700   1.470   3.602  14.863  1.1527  0.4643 -0.0262
 4022SOL     OW23701   4.480   4.655   7.340  0.8469 -0.0403  0.2646
 4022SOL    HW123702   4.412   4.705   7.385  1.7560  0.2977  1.2596
 4022SOL    HW223703   4.464   4.685   7.251  1.1071  0.7466  0.4845
 4023SOL     OW23704   2.259   4.480   8.336  0.0860  0.0847  0.8760
 4023SOL    HW123705   2.180   4.511   8.293  1.3171 -0.1355 -1.5576
 4023SOL    HW223706   2.248   4.486   8.431 -2.2433  1.5919  0.5026
 4024SOL     OW23707   0.380   1.624   0.102  0.1802  0.0488 -0.1709
 4024SOL    HW123708   0.292   1.599   0.074 -0.6173  0.3301  2.0463
 4024SOL    HW223709   0.358   1.599   0.192 -0.7794 -1.8167 -0.9281
 4025SOL     OW23710   2.689   3.861   7.229 -0.6442  0.2528 -0.0949
 4025SOL    HW123711   2.703   3.951   7.201 -0.7974  0.0714 -0.7577
 4025SOL    HW223712   2.729   3.811   7.157  0.3391  1.1544 -0.1684
 4026SOL     OW23713   2.374   3.978   5.977 -0.1661  0.3122 -0.0716
 4026SOL    HW123714   2.373   4.039   6.051 -0.4365 -1.0191  1.0213
 4026SOL    HW223715   2.467   3.983   5.954 -0.4387  1.2486 -0.9301
 4027SOL     OW23716   4.559   2.844   2.281 -0.4386  0.5075 -0.3916
 4027SOL    HW123717   4.557   2.824   2.187 -2.6062 -0.0387 -0.2185
 4027SOL    HW223718   4.484   2.904   2.278 -0.8495  0.0409  0.7127
 4028SOL     OW23719   0.042   1.005   2.866  0.7001  0.1437 -0.4655
 4028SOL    HW123720   0.022   1.065   2.794 -0.0674  0.6970  0.2190
 4028SOL    HW223721   0.136   0.989   2.858  0.5260  0.1280 -2.3918
 4029SOL     OW23722   2.701   0.579   8.556  0.2412  0.1796  0.0391
 4029SOL    HW123723   2.733   0.581   8.466 -2.5039  0.5702 -0.9499
 4029SOL    HW223724   2.688   0.672   8.578  2.3417  0.4823 -0.0515
 4030SOL     OW23725   0.054   3.643   5.508  0.3878  0.2093 -0.4547
 4030SOL    HW123726   4.737   3.574   5.471 -0.3358  0.7762 -0.4315
 4030SOL    HW223727   0.080   3.693   5.430  1.0817  0.8003  0.1589
 4031SOL     OW23728   3.441   0.853   3.245  0.5922  0.1544  0.5178
 4031SOL    HW123729   3.407   0.777   3.292  2.2936 -0.7936  0.2276
 4031SOL    HW223730   3.407   0.926   3.297  0.2795  0.5366 -0.2230
 4032SOL     OW23731   1.830   3.300  16.703 -0.2425  0.5912  0.6890
 4032SOL    HW123732   1.751   3.261  16.666 -0.0214 -1.2517  2.1475
 4032SOL    HW223733   1.884   3.327  16.629  0.6123 -2.3026  0.2395
 4033SOL     OW23734   3.696   1.374   5.053  0.0668  0.9080  0.3209
 4033SOL    HW123735   3.647   1.450   5.084 -1.5399 -0.4202  1.0268
 4033SOL    HW223736   3.649   1.347   4.974 -0.4553 -0.8565  1.2331
 4034SOL     OW23737   1.197   3.211   1.751  0.2063  0.0758 -0.4241
 4034SOL    HW123738   1.106   3.197   1.778  0.4802 -0.2411  0.3234
 4034SOL    HW223739   1.192   3.233   1.658  1.0255  1.6408 -0.0817
 4035SOL     OW23740   0.906   1.158  10.407 -0.1268  0.2886  0.0158
 4035SOL    HW123741   0.909   1.202  10.492 -1.3091 -0.3591  0.4035
 4035SOL    HW223742   0.995   1.155  10.372  0.0786  0.2687  0.5403
 4036SOL     OW23743   3.934   0.497   3.477 -0.1698  0.4347 -0.2686
 4036SOL    HW123744   3.973   0.414   3.504 -1.3207 -0.5651 -1.7047
 4036SOL    HW223745   3.944   0.541   3.561  1.7502  3.1069 -1.8838
 4037SOL     OW23746   2.205   1.517  11.398  0.2866 -0.0803 -0.3297
 4037SOL    HW123747   2.285   1.484  11.358 -1.0481 -0.8094 -2.3891
 4037SOL    HW223748   2.132   1.476  11.350 -1.7072 -1.2081  3.6518
 4038SOL     OW23749   3.258   3.312   4.775 -0.2085 -0.2325 -0.0000
 4038SOL    HW123750   3.334   3.273   4.734  0.5678 -1.7354  2.8354
 4038SOL    HW223751   3.207   3.345   4.701  1.4652 -0.4059 -1.1977
 4039SOL     OW23752   0.846   1.021   1.786 -0.3432  0.6290  0.4711
 4039SOL    HW123753   0.863   0.954   1.720 -0.9361  1.3514 -0.4173
 4039SOL    HW223754   0.821   1.092   1.727  0.3358  0.4800  0.0022
 4040SOL     OW23755   1.135   2.026   0.863  0.1211  0.2359 -0.3439
 4040SOL    HW123756   1.213   2.008   0.811  0.2247  1.4395 -0.6058
 4040SOL    HW223757   1.113   2.106   0.816  1.5925  0.8136 -0.0563
 4041SOL     OW23758   4.033   4.281   3.926 -0.0011 -0.1158 -0.3143
 4041SOL    HW123759   3.986   4.333   3.861  0.6111  0.2615 -0.4506
 4041SOL    HW223760   3.968   4.260   3.993 -1.0881  3.7496 -0.1847
 4042SOL     OW23761   2.095   2.790  12.341  0.1377  0.3507  0.4735
 4042SOL    HW123762   2.007   2.819  12.364 -1.2721 -1.6215 -2.3836
 4042SOL    HW223763   2.091   2.699  12.371 -0.8926  0.0904 -0.4809
 4043SOL     OW23764   1.759   2.414   6.264 -0.7624  0.2774  0.2189
 4043SOL    HW123765   1.719   2.473   6.201  0.6234  0.1448 -0.7994
 4043SOL    HW223766   1.786   2.476   6.331  0.3645 -1.0958  1.0454
 4044SOL     OW23767   4.453   0.388   0.003  0.1029 -0.0870 -0.0059
 4044SOL    HW123768   4.491   0.352  17.672  2.6893  0.3176  1.0444
 4044SOL    HW223769   4.395   0.453  17.711  1.4397  1.5875  0.7707
 4045SOL     OW23770   2.070   1.660   4.355 -0.2395 -0.8150 -0.6472
 4045SOL    HW123771   2.153   1.666   4.403 -1.8411 -2.7588  2.3004
 4045SOL    HW223772   1.999   1.675   4.418  0.7737 -1.7832  0.7228
 4046SOL     OW23773   1.036   0.595   2.581  0.2954 -0.2454  0.6282
 4046SOL    HW123774   1.107   0.538   2.613  0.6805  1.9095  3.5821
 4046SOL    HW223775   0.995   0.537   2.517  0.1870  1.6059 -0.9406
 4047SOL     OW23776   4.210   1.477   1.555 -0.5034 -0.1638  0.6338
 4047SOL    HW123777   4.305   1.474   1.547 -0.5379 -1.8354  0.7788
 4047SOL    HW223778   4.182   1.469   1.464 -0.3155  1.3855  0.4343
 4048SOL     OW23779   1.817   0.742  13.454 -0.2601  0.1783  0.4100
 4048SOL    HW123780   1.775   0.658  13.440 -2.3256  0.8949  2.3182
 4048SOL    HW223781   1.739   0.785  13.491  0.0895 -0.6971  2.1785
 4049SOL     OW23782   0.089   4.345   5.123  0.1136  0.2315 -0.2694
 4049SOL    HW123783   0.008   4.374   5.081  1.1329  4.6325  0.8480
 4049SOL    HW223784   0.056   4.287   5.192 -0.6455 -1.1619 -1.8153
 4050SOL     OW23785   1.669   4.637   4.911  0.5884  0.1662  0.4466
 4050SOL    HW123786   1.643   4.610   4.999 -0.8065  0.1705  0.0359
 4050SOL    HW223787   1.637   4.567   4.854  0.1944  1.3791 -0.8237
 4051SOL     OW23788   1.630   3.372  15.128  0.4458  0.0897 -0.3801
 4051SOL    HW123789   1.694   3.443  15.124 -0.4951  0.8422 -1.8485
 4051SOL    HW223790   1.630   3.353  15.222 -0.5567 -0.5689 -0.5109
 4052SOL     OW23791   2.246   0.136   9.768 -0.2401 -0.3403  0.3683
 4052SOL    HW123792   2.276   0.045   9.767  2.5393  0.5964 -2.2512
 4052SOL    HW223793   2.259   0.152   9.861 -0.2596  0.5169  0.2257
 4053SOL     OW23794   2.427   2.780   4.663 -0.3204  0.8334  0.3443
 4053SOL    HW123795   2.507   2.829   4.683 -0.1966  1.1466 -0.9209
 4053SOL    HW223796   2.373   2.857   4.644 -2.3131  0.1084  3.0277
 4054SOL     OW23797   3.285   4.490   6.904 -0.3751 -0.3317 -0.1546
 4054SOL    HW123798   3.244   4.491   6.991  1.6218  1.2698  0.7532
 4054SOL    HW223799   3.305   4.577   6.869 -1.1355 -0.0220  0.1900
 4055SOL     OW23800   0.060   3.030   6.492 -0.4328  0.3320  0.1636
 4055SOL    HW123801   0.084   3.091   6.423  1.6867 -0.7984 -0.0967
 4055SOL    HW223802   0.057   3.093   6.565  0.5787  3.1856 -2.2693
 4056SOL     OW23803   4.604   2.289   4.199  0.0120  0.3103  0.2217
 4056SOL    HW123804   4.596   2.324   4.110  0.5802  1.0048  0.4422
 4056SOL    HW223805   4.699   2.301   4.210  0.0605  1.6512 -1.6216
 4057SOL     OW23806   1.362   1.833   1.727 -0.3226 -0.1549  0.6646
 4057SOL    HW123807   1.417   1.796   1.796 -1.1150  1.9835  2.4551
 4057SOL    HW223808   1.288   1.773   1.730 -1.4369  1.1935  0.0559
 4058SOL     OW23809   2.773   0.809   1.843 -0.4571  0.3828  0.1550
 4058SOL    HW123810   2.828   0.875   1.886  0.7734  0.1409 -1.0469
 4058SOL    HW223811   2.803   0.800   1.753 -0.0632  0.2416  0.2991
 4059SOL     OW23812   2.284   2.275   0.005  0.6620  0.2550  0.0188
 4059SOL    HW123813   2.228   2.292  17.678  1.3957  0.4660 -0.4719
 4059SOL    HW223814   2.229   2.313   0.073 -1.4309  1.0585 -2.1324
 4060SOL     OW23815   1.106   1.119   7.140 -0.6047  0.3981  0.3565
 4060SOL    HW123816   1.201   1.127   7.129  0.0514 -1.0693  4.8458
 4060SOL    HW223817   1.106   1.026   7.116  0.7583  0.4835 -0.0227
 4061SOL     OW23818   1.184   0.806   2.388  0.6206 -0.3145  0.2740
 4061SOL    HW123819   1.137   0.890   2.389  0.0099 -0.6473 -0.3522
 4061SOL    HW223820   1.115   0.753   2.425 -2.0200  2.7565 -0.2288
 4062SOL     OW23821   4.448   0.793   3.926  0.2737  0.1298 -0.1203
 4062SOL    HW123822   4.526   0.761   3.882  1.5059  0.1514  2.0218
 4062SOL    HW223823   4.492   0.834   4.001  0.0644 -0.7832  0.5061
 4063SOL     OW23824   1.015   0.128   2.324  0.2313  0.2937  0.6140
 4063SOL    HW123825   1.032   0.061   2.257 -0.9784  1.9056 -1.3153
 4063SOL    HW223826   0.920   0.117   2.324  0.0526  1.9059  0.4464
 4064SOL     OW23827   0.765   3.710   5.866 -0.6522  0.2072  0.3631
 4064SOL    HW123828   0.731   3.752   5.788  1.8829  0.3550 -0.6451
 4064SOL    HW223829   0.814   3.785   5.900 -1.2115 -0.2356  2.1951
 4065SOL     OW23830   2.360   0.095  16.532  0.1532  0.6662  0.2544
 4065SOL    HW123831   2.317   0.055  16.608  2.1530 -1.0569  0.5222
 4065SOL    HW223832   2.450   0.115  16.558  0.3663 -0.3333  0.2963
 4066SOL     OW23833   1.282   3.049   4.040 -0.7415 -0.0829  0.1765
 4066SOL    HW123834   1.238   3.012   4.116  0.2741 -1.2664  0.1902
 4066SOL    HW223835   1.238   3.134   4.050 -1.6729 -0.7468  1.6581
 4067SOL     OW23836   1.539   3.521   5.586 -0.3195 -0.4389 -0.1307
 4067SOL    HW123837   1.449   3.550   5.578  0.1038  1.1519  0.9171
 4067SOL    HW223838   1.533   3.436   5.541 -1.0268  0.3141 -1.4655
 4068SOL     OW23839   1.910   3.068   8.104  0.1824 -0.0233 -0.1013
 4068SOL    HW123840   1.950   2.982   8.114 -0.9893 -0.3852  1.5821
 4068SOL    HW223841   1.858   3.080   8.184 -0.0646 -0.9217 -0.1241
 4069SOL     OW23842   3.007   4.100   6.976 -0.3831 -0.6662 -0.1934
 4069SOL    HW123843   3.016   4.151   6.896 -0.4286 -3.1015 -1.7648
 4069SOL    HW223844   2.998   4.169   7.041 -2.6556  1.1383 -2.4033
 4070SOL     OW23845   2.105   2.469   0.883  0.2193 -0.1803 -0.1005
 4070SOL    HW123846   2.124   2.535   0.817 -0.4513 -1.4914 -1.5869
 4070SOL    HW223847   2.046   2.407   0.839  1.8375 -2.0566  0.3917
 4071SOL     OW23848   2.617   4.463   3.831  0.1844  0.3328 -0.9879
 4071SOL    HW123849   2.544   4.403   3.846  0.5733 -0.2883 -1.5719
 4071SOL    HW223850   2.631   4.503   3.917  0.0835 -1.0153 -0.3392
 4072SOL     OW23851   1.709   2.689  10.928 -0.3980  0.3872 -0.1306
 4072SOL    HW123852   1.688   2.627  10.998  1.1086  0.6821  0.5822
 4072SOL    HW223853   1.784   2.637  10.898 -0.1779  1.5078 -1.5422
 4073SOL     OW23854   3.617   2.249   5.669 -0.6230  0.4083  0.3230
 4073SOL    HW123855   3.634   2.306   5.593  0.3332  1.6020  1.4224
 4073SOL    HW223856   3.695   2.254   5.724 -0.8174  2.7972  0.3969
 4074SOL     OW23857   3.469   3.969  17.247  0.0581  0.2906  0.0289
 4074SOL    HW123858   3.397   3.915  17.280  0.3490 -0.5510 -0.7105
 4074SOL    HW223859   3.510   3.919  17.176 -1.8493 -2.6976  1.0159
 4075SOL     OW23860   2.968   2.502   7.226  0.4794 -1.2923 -0.1127
 4075SOL    HW123861   2.881   2.507   7.267  0.3841 -0.3993 -0.4244
 4075SOL    HW223862   2.945   2.490   7.134 -2.0147 -0.2137  0.3784
 4076SOL     OW23863   1.001   2.816   1.263  0.3855 -0.5705  0.4224
 4076SOL    HW123864   1.038   2.728   1.265 -1.6408 -1.4315  0.1476
 4076SOL    HW223865   0.928   2.814   1.325  0.8215  1.4185  1.0241
 4077SOL     OW23866   1.915   0.084   0.998  0.0350 -0.5699  0.2583
 4077SOL    HW123867   1.897   0.046   1.084  1.4801  0.5009  1.0259
 4077SOL    HW223868   1.848   0.047   0.940 -0.8719  1.1733  0.2062
 4078SOL     OW23869   3.606   3.540   3.104 -0.6667 -0.7591 -0.3458
 4078SOL    HW123870   3.621   3.456   3.147  0.6041  0.3391  1.3567
 4078SOL    HW223871   3.596   3.511   3.013  0.5924 -1.5939 -0.2116
 4079SOL     OW23872   0.566   2.801   7.368 -0.5985  0.8314 -0.1778
 4079SOL    HW123873   0.568   2.879   7.423  1.4266  0.1870  0.6888
 4079SOL    HW223874   0.471   2.795   7.363 -0.5000 -0.9322 -0.1936
 4080SOL     OW23875   2.108   4.168   4.343  0.4343  0.1063  0.3325
 4080SOL    HW123876   2.051   4.168   4.266 -0.5028 -2.8145  1.0297
 4080SOL    HW223877   2.044   4.158   4.413  2.1867 -1.2429  1.7552
 4081SOL     OW23878   2.625   1.930   5.210 -0.1913  0.2779  0.1029
 4081SOL    HW123879   2.708   1.924   5.163 -0.3677 -0.2483 -0.1358
 4081SOL    HW223880   2.644   1.885   5.293  1.6001  1.0628  0.1152
 4082SOL     OW23881   0.743   0.426   9.154 -0.0295 -0.2999  0.5635
 4082SOL    HW123882   0.788   0.342   9.139 -0.3622 -0.6470  1.4943
 4082SOL    HW223883   0.761   0.475   9.074 -0.8013  1.5012  1.4936
 4083SOL     OW23884   3.057   0.012   6.331 -0.4589  0.5001  0.4909
 4083SOL    HW123885   3.063   0.098   6.289 -0.0546  0.3554  0.2504
 4083SOL    HW223886   3.137   0.018   6.385 -1.9785 -0.0163  2.8130
 4084SOL     OW23887   1.788   0.807   4.592 -0.0134 -0.0419  0.1886
 4084SOL    HW123888   1.797   0.853   4.675 -0.9570  2.1178 -0.9114
 4084SOL    HW223889   1.696   0.825   4.577 -0.0907 -1.7176 -1.3677
 4085SOL     OW23890   3.002   3.399   3.593 -0.5560  0.6764 -0.2774
 4085SOL    HW123891   3.051   3.323   3.622  0.0902  0.6254 -1.4920
 4085SOL    HW223892   3.001   3.388   3.498 -3.4533 -2.7885  0.1479
 4086SOL     OW23893   2.708   1.813   5.455  0.0168  0.1901 -0.1929
 4086SOL    HW123894   2.661   1.790   5.535  0.0935 -1.0631 -0.5057
 4086SOL    HW223895   2.729   1.724   5.427 -1.7503 -0.4448  0.5207
 4087SOL     OW23896   0.811   2.662   5.678 -0.0181 -0.1616  0.2850
 4087SOL    HW123897   0.717   2.653   5.691  0.4065 -3.7630  0.6965
 4087SOL    HW223898   0.836   2.583   5.727 -1.5594 -0.7340  0.1314
 4088SOL     OW23899   0.350   2.554  10.124 -0.1932 -0.5449 -0.3330
 4088SOL    HW123900   0.290   2.517  10.059 -0.8996  0.1402 -0.0630
 4088SOL    HW223901   0.421   2.490  10.126  2.1202  1.8978 -3.0054
 4089SOL     OW23902   3.022   3.145   8.151 -0.5281  0.3286  0.2502
 4089SOL    HW123903   3.025   3.221   8.210  1.4661  0.0999  0.4250
 4089SOL    HW223904   3.099   3.165   8.098  0.9415 -0.6187  2.0182
 4090SOL     OW23905   2.426   3.600   7.020  0.4334  0.0211  0.4823
 4090SOL    HW123906   2.467   3.677   7.061  0.9388 -0.4027  0.7762
 4090SOL    HW223907   2.338   3.608   7.057  0.5478  0.9365  0.5617
 4091SOL     OW23908   2.141   3.202   0.995  0.1573 -1.6457 -0.2007
 4091SOL    HW123909   2.205   3.144   0.953 -0.2175 -0.2704 -2.6655
 4091SOL    HW223910   2.194   3.257   1.052 -1.2846  0.8400 -1.2939
 4092SOL     OW23911   3.805   4.629   1.588  0.4873  0.6300 -0.2620
 4092SOL    HW123912   3.862   4.701   1.559  0.6383  0.8586  0.5794
 4092SOL    HW223913   3.728   4.677   1.618  0.9863  2.0175 -1.2024
 4093SOL     OW23914   0.926   0.632  11.167 -0.0104 -0.2017  0.0013
 4093SOL    HW123915   1.022   0.626  11.167  0.1362  2.2644 -0.2467
 4093SOL    HW223916   0.921   0.718  11.208  0.1097  0.6994 -1.8810
 4094SOL     OW23917   0.435   0.843   6.462 -0.2728 -0.5665  0.0704
 4094SOL    HW123918   0.371   0.851   6.533  0.4945  1.6675  0.4977
 4094SOL    HW223919   0.517   0.879   6.496 -0.4347  0.9012 -1.1043
 4095SOL     OW23920   3.882   2.402  15.619  0.5078 -0.3128 -0.0886
 4095SOL    HW123921   3.929   2.483  15.597  0.4057  0.1098  1.3045
 4095SOL    HW223922   3.839   2.397  15.533  2.1771 -0.2078 -0.9325
 4096SOL     OW23923   3.490   1.916   1.850  0.1346  0.3742 -0.2043
 4096SOL    HW123924   3.541   1.886   1.775 -0.0115 -0.2719 -0.0481
 4096SOL    HW223925   3.456   2.000   1.820 -0.2587  1.3063  2.9012
 4097SOL     OW23926   2.554   3.774  11.869  0.2646  0.0244  0.6343
 4097SOL    HW123927   2.508   3.748  11.949  0.5392 -2.2726  0.0411
 4097SOL    HW223928   2.610   3.697  11.857  0.6133 -0.1006  3.0448
 4098SOL     OW23929   3.363   2.154   6.533 -0.2815 -0.8293  0.4202
 4098SOL    HW123930   3.279   2.199   6.533  0.0478 -0.2194  0.7348
 4098SOL    HW223931   3.420   2.218   6.574 -2.5717  0.6219  1.3718
 4099SOL     OW23932   1.448   0.056   1.694 -0.2124  0.8256 -0.1209
 4099SOL    HW123933   1.421   4.712   1.735  0.1573 -0.1446 -1.8066
 4099SOL    HW223934   1.405   0.047   1.609 -1.3132 -0.6237  0.5949
 4100SOL     OW23935   2.047   4.213   8.170  0.1217  0.0813 -0.7118
 4100SOL    HW123936   2.004   4.297   8.153 -0.9099 -0.2148  0.4273
 4100SOL    HW223937   2.048   4.190   8.077 -0.9786 -0.8152 -0.4959
 4101SOL     OW23938   1.271   2.807  16.233  0.6596 -0.5915  0.1834
 4101SOL    HW123939   1.295   2.721  16.200 -0.5650 -0.0147 -2.2436
 4101SOL    HW223940   1.320   2.809  16.315 -1.3921  0.0055  1.4149
 4102SOL     OW23941   1.848   3.440   2.254 -0.1837  0.3892  0.6433
 4102SOL    HW123942   1.884   3.460   2.167 -0.0220 -0.0103  0.6191
 4102SOL    HW223943   1.826   3.349   2.238  2.3322  0.5728 -3.7176
 4103SOL     OW23944   1.218   3.109   2.562 -0.3280  0.4427 -0.3075
 4103SOL    HW123945   1.175   3.164   2.497  1.1299  0.9008 -0.8728
 4103SOL    HW223946   1.311   3.124   2.549 -0.5327  0.8094 -1.3460
 4104SOL     OW23947   1.741   1.115   5.821 -0.0037  0.0030  0.0811
 4104SOL    HW123948   1.648   1.135   5.822  0.2903  1.4007  0.2022
 4104SOL    HW223949   1.757   1.101   5.914  2.5351 -1.0157 -0.5182
 4105SOL     OW23950   1.734   3.481  14.822 -0.3177  0.1401 -0.4533
 4105SOL    HW123951   1.640   3.478  14.806 -0.4544  1.1530  0.2055
 4105SOL    HW223952   1.741   3.404  14.878  3.9185  0.2291 -0.8429
 4106SOL     OW23953   3.485   4.683   9.390  0.0974  0.3250 -0.2297
 4106SOL    HW123954   3.414   0.009   9.378 -1.7765 -1.2237  2.6151
 4106SOL    HW223955   3.559   0.002   9.366 -0.1303  0.7927  0.1752
 4107SOL     OW23956   3.042   3.395   4.991  0.4922 -0.2279  0.6844
 4107SOL    HW123957   3.138   3.402   4.993  0.5999 -0.6248 -2.5066
 4107SOL    HW223958   3.027   3.489   4.980  0.0797 -0.3787 -0.0238
 4108SOL     OW23959   0.319   4.349  10.855  0.5103 -1.0026  0.0375
 4108SOL    HW123960   0.330   4.354  10.950 -0.2157  0.1219  0.0557
 4108SOL    HW223961   0.298   4.440  10.836 -0.3236 -1.3317 -0.6040
 4109SOL     OW23962   1.532   3.150   2.141 -0.1072  0.4568  0.7256
 4109SOL    HW123963   1.471   3.181   2.074 -2.5594 -0.7767  2.3825
 4109SOL    HW223964   1.512   3.057   2.148 -0.4451  0.7135  2.9571
 4110SOL     OW23965   0.257   2.783   1.715 -0.0600  0.5666  0.3948
 4110SOL    HW123966   0.162   2.775   1.714 -0.0504  0.3141  2.4009
 4110SOL    HW223967   0.255   2.860   1.772  0.6426  0.3211  0.7527
 4111SOL     OW23968   0.416   2.376   4.280  0.0224  0.3639 -0.0931
 4111SOL    HW123969   0.436   2.306   4.217  0.6016  1.9242 -1.6486
 4111SOL    HW223970   0.387   2.437   4.212 -0.4734  0.2453  0.0120
 4112SOL     OW23971   3.399   4.186   5.274  0.4101 -0.1089 -0.7845
 4112SOL    HW123972   3.439   4.187   5.188  0.2050  0.5791 -0.8737
 4112SOL    HW223973   3.475   4.147   5.318 -0.4153  0.1633  0.9147
 4113SOL     OW23974   1.369   4.473   4.423  0.3838  0.7824  0.1328
 4113SOL    HW123975   1.320   4.546   4.460  0.2862  0.4398  0.6810
 4113SOL    HW223976   1.435   4.508   4.363  0.1130 -0.1085 -0.7015
 4114SOL     OW23977   0.340   0.227   9.656  0.1154 -0.2474 -0.7774
 4114SOL    HW123978   0.381   0.246   9.571  1.4504  2.2999  0.4418
 4114SOL    HW223979   0.412   0.262   9.709  1.0788 -1.1242 -1.5099
 4115SOL     OW23980   4.634   4.448   7.468 -0.2153 -0.3452  0.0418
 4115SOL    HW123981   4.678   4.510   7.526 -1.7878  1.0248 -0.2207
 4115SOL    HW223982   4.553   4.491   7.442 -0.1518  0.3804  1.0528
 4116SOL     OW23983   3.380   0.600   7.562 -0.0176  0.3530  0.2988
 4116SOL    HW123984   3.409   0.688   7.536 -0.5541 -0.4888 -3.1342
 4116SOL    HW223985   3.378   0.552   7.479 -1.4554 -0.3208  0.7235
 4117SOL     OW23986   4.484   3.382  13.888 -0.3099  0.2183 -0.1793
 4117SOL    HW123987   4.467   3.464  13.934  1.4942  0.0922  0.6908
 4117SOL    HW223988   4.572   3.403  13.858  0.2393 -1.8924 -0.0240
 4118SOL     OW23989   4.236   0.358  14.626 -0.0637  0.2198  0.1215
 4118SOL    HW123990   4.274   0.334  14.711  0.5230 -0.2385 -0.2678
 4118SOL    HW223991   4.208   0.447  14.643 -1.5803 -0.4702  1.2146
 4119SOL     OW23992   1.119   3.727  14.775  0.0690 -0.8735  0.0907
 4119SOL    HW123993   1.099   3.730  14.869 -1.1405  2.7825 -0.2595
 4119SOL    HW223994   1.054   3.662  14.747 -1.3988  0.1761  1.0538
 4120SOL     OW23995   0.654   4.688   4.663 -0.0132  0.7048 -0.4186
 4120SOL    HW123996   0.746   4.663   4.658 -0.9440 -2.4749 -1.4957
 4120SOL    HW223997   0.651   0.046   4.660 -0.4938  0.8156  3.2167
 4121SOL     OW23998   0.200   3.767   8.993 -0.2453  0.4661 -0.1865
 4121SOL    HW123999   0.145   3.828   9.042 -2.2782 -0.7305 -0.9293
 4121SOL    HW224000   0.218   3.695   9.054 -4.1548  0.0777  0.5196
 4122SOL     OW24001   0.061   0.185   4.522  0.4305  0.1159  0.2735
 4122SOL    HW124002   4.736   0.214   4.589 -1.4422 -1.2420 -0.9022
 4122SOL    HW224003   0.055   0.265   4.469  0.6171 -0.1332 -0.1183
 4123SOL     OW24004   2.929   4.012   4.911  0.0097 -0.1968 -0.1707
 4123SOL    HW124005   2.925   3.972   4.998 -1.1390  1.8632  0.7455
 4123SOL    HW224006   2.863   3.955   4.871 -0.8278  1.1125 -0.6600
 4124SOL     OW24007   3.300   3.046   9.678 -0.5383 -0.0073  0.4327
 4124SOL    HW124008   3.246   2.977   9.717 -1.4985 -0.3317 -1.4423
 4124SOL    HW224009   3.390   3.014   9.678 -0.9325 -1.1051  1.2386
 4125SOL     OW24010   4.725   2.975   7.613 -0.3495 -0.2314  0.5622
 4125SOL    HW124011   0.080   2.956   7.625 -0.0938 -0.5656 -1.7758
 4125SOL    HW224012   4.716   3.067   7.638 -0.5711 -0.2502  0.5504
 4126SOL     OW24013   4.533   2.085   8.954  0.3703 -0.2528 -0.5092
 4126SOL    HW124014   4.546   2.033   9.033 -0.0161 -0.3846 -0.5345
 4126SOL    HW224015   4.448   2.126   8.964  0.5107  0.2483 -1.3700
 4127SOL     OW24016   3.808   0.464   8.924  0.0837  0.4125 -0.4170
 4127SOL    HW124017   3.878   0.529   8.921  1.1455 -0.7819 -1.4144
 4127SOL    HW224018   3.859   0.390   8.958 -0.5758  0.3587  0.4567
 4128SOL     OW24019   1.278   3.648   3.656  0.3999 -0.0624  0.4805
 4128SOL    HW124020   1.303   3.638   3.564 -1.6203 -1.1908  0.0630
 4128SOL    HW224021   1.339   3.585   3.695 -1.1162 -0.5954  1.9743
 4129SOL     OW24022   2.594   0.118   2.185  0.1547  0.0429  0.2700
 4129SOL    HW124023   2.551   0.154   2.108  0.6779  0.6795  0.2723
 4129SOL    HW224024   2.589   0.024   2.171 -0.3802  0.2239 -0.6821
 4130SOL     OW24025   0.258   3.760  17.056 -0.4040  0.2700  0.1449
 4130SOL    HW124026   0.321   3.755  17.127 -0.0178 -0.0496 -0.2167
 4130SOL    HW224027   0.290   3.685  17.005  0.9958  0.8372  0.2057
 4131SOL     OW24028   4.641   2.164  10.799 -0.5514 -0.0355  0.4384
 4131SOL    HW124029   4.674   2.236  10.744 -1.6699 -0.5309 -0.8590
 4131SOL    HW224030   4.617   2.215  10.877 -1.0587  0.4617 -0.0399
 4132SOL     OW24031   2.239   3.080   1.955 -0.0698 -0.0988 -0.0538
 4132SOL    HW124032   2.230   3.115   2.044 -1.6749 -1.3083  0.2637
 4132SOL    HW224033   2.172   3.131   1.909  0.3123  1.8636  1.5855
 4133SOL     OW24034   3.516   0.957   3.014  0.6749 -0.0260 -0.7356
 4133SOL    HW124035   3.487   0.909   3.092 -1.4244  0.9447 -0.9124
 4133SOL    HW224036   3.607   0.928   3.005  0.4499 -0.4933 -1.5176
 4134SOL     OW24037   1.998   3.356  16.494 -0.4466  0.2342  0.7126
 4134SOL    HW124038   2.084   3.329  16.526  0.8568  1.0026 -2.1223
 4134SOL    HW224039   2.011   3.342  16.401  1.0074  3.1892  0.4615
 4135SOL     OW24040   4.620   3.125   8.283  0.3895  0.0881  0.0314
 4135SOL    HW124041   4.620   3.219   8.299  1.9470 -0.1355  1.2248
 4135SOL    HW224042   4.544   3.091   8.330  0.0481  1.4401  0.4608
 4136SOL     OW24043   4.493   2.223  15.252  0.6928  1.0051  0.1311
 4136SOL    HW124044   4.450   2.296  15.297  0.3391  0.7684  0.1742
 4136SOL    HW224045   4.522   2.186  15.336 -1.9158  1.2558  1.1533
 4137SOL     OW24046   2.492   2.656   0.558 -0.1287 -0.1245  0.0848
 4137SOL    HW124047   2.575   2.608   0.559 -0.9755 -1.6098 -1.1499
 4137SOL    HW224048   2.433   2.596   0.513  0.7374 -0.6561 -0.3484
 4138SOL     OW24049   3.096   0.268   6.204  0.4885  0.1298 -0.3386
 4138SOL    HW124050   3.180   0.300   6.171  1.3364 -2.0427 -0.3443
 4138SOL    HW224051   3.055   0.343   6.246  1.0583 -0.6918  1.6964
 4139SOL     OW24052   1.244   0.209  11.590 -0.2312 -0.3322 -0.0218
 4139SOL    HW124053   1.235   0.237  11.681 -3.2904 -1.8976  0.1770
 4139SOL    HW224054   1.157   0.171  11.575 -0.9183  0.8883  0.9068
 4140SOL     OW24055   1.232   3.289   1.487 -0.2148 -0.1775  0.2842
 4140SOL    HW124056   1.202   3.342   1.413 -2.6430 -2.0072 -0.0445
 4140SOL    HW224057   1.168   3.218   1.491  0.0058 -0.2487  2.6854
 4141SOL     OW24058   1.216   1.872   9.445 -0.2017  0.3157  0.1454
 4141SOL    HW124059   1.156   1.936   9.483 -0.8032 -0.3740  0.3432
 4141SOL    HW224060   1.279   1.926   9.396  3.1596 -2.4599  1.3670
 4142SOL     OW24061   2.469   1.180  10.787  0.1917 -0.1398  0.8345
 4142SOL    HW124062   2.412   1.125  10.841  1.3814  2.5903  4.9054
 4142SOL    HW224063   2.431   1.262  10.818  0.9167 -0.1858  1.8775
 4143SOL     OW24064   2.977   3.238   8.785  0.0518 -0.6340 -0.3992
 4143SOL    HW124065   2.988   3.332   8.802  1.8703 -0.8484 -0.3915
 4143SOL    HW224066   2.890   3.237   8.746 -0.9038 -1.2702  1.7980
 4144SOL     OW24067   0.259   0.657   5.377 -0.2100  0.1305  0.7366
 4144SOL    HW124068   0.267   0.582   5.436 -0.9257  0.3636  1.1409
 4144SOL    HW224069   0.248   0.732   5.436 -0.9754  1.3277 -0.9064
 4145SOL     OW24070   1.147   0.517   3.882  0.2429  1.0457 -0.0965
 4145SOL    HW124071   1.077   0.522   3.948  2.0157 -0.6748  1.9025
 4145SOL    HW224072   1.099   0.524   3.799 -3.6573 -0.0617  2.0411
 4146SOL     OW24073   3.675   4.422   8.786 -0.1162  0.5202  0.3991
 4146SOL    HW124074   3.682   4.516   8.805  0.4780  0.1734  1.9542
 4146SOL    HW224075   3.745   4.409   8.723  0.0268  1.4773  0.3564
 4147SOL     OW24076   3.330   3.541   9.846 -0.3448 -0.3305  0.0887
 4147SOL    HW124077   3.296   3.544   9.935 -2.2156  2.5632 -0.7150
 4147SOL    HW224078   3.267   3.597   9.801 -1.0358  0.0612  1.5829
 4148SOL     OW24079   0.291   2.438   2.624 -0.5559 -1.0757 -0.3491
 4148SOL    HW124080   0.324   2.408   2.709 -3.2806 -1.2344  0.6561
 4148SOL    HW224081   0.297   2.350   2.586 -2.6726 -1.1583 -0.5058
 4149SOL     OW24082   1.152   3.884   2.442  0.2892 -0.6900  0.0762
 4149SOL    HW124083   1.078   3.941   2.420  0.7230  0.7354  2.3156
 4149SOL    HW224084   1.228   3.932   2.409 -0.5480 -1.9909 -3.8115
 4150SOL     OW24085   2.463   0.974  16.890  0.3062  0.1839  0.0574
 4150SOL    HW124086   2.538   0.942  16.839 -0.3291 -1.2868  0.0658
 4150SOL    HW224087   2.405   0.899  16.889 -0.8365  1.0740 -0.2369
 4151SOL     OW24088   2.876   1.366   2.277 -0.2528  0.2966 -0.3711
 4151SOL    HW124089   2.789   1.397   2.254  0.0209 -0.4026 -2.3062
 4151SOL    HW224090   2.908   1.436   2.334  0.6116 -1.3288  1.1638
 4152SOL     OW24091   1.876   0.435   7.124 -0.1882  0.3054  0.1443
 4152SOL    HW124092   1.892   0.528   7.107  0.1592  0.4820  1.4248
 4152SOL    HW224093   1.809   0.446   7.191 -0.9472 -3.6699  0.0600
 4153SOL     OW24094   2.630   3.710   4.215  0.1102  0.5512  0.7191
 4153SOL    HW124095   2.623   3.661   4.297 -0.5720  1.7120  1.3609
 4153SOL    HW224096   2.716   3.752   4.224  1.3197 -1.3210 -2.0174
 4154SOL     OW24097   4.546   2.972   6.766  0.2890  0.6858  0.5917
 4154SOL    HW124098   4.525   2.974   6.859 -1.0740  0.4876  0.2940
 4154SOL    HW224099   4.626   2.919   6.771 -0.6111 -0.6096  1.4621
 4155SOL     OW24100   3.708   2.715  12.828 -0.3489 -0.0825 -0.6068
 4155SOL    HW124101   3.736   2.805  12.843 -0.4404 -0.1615  0.0326
 4155SOL    HW224102   3.776   2.681  12.770  1.4486  0.3313  1.3001
 4156SOL     OW24103   0.120   2.814   2.598 -0.6640  0.5146  0.0181
 4156SOL    HW124104   0.096   2.893   2.550 -1.1323 -0.6970 -1.7186
 4156SOL    HW224105   0.050   2.756   2.570  0.5410 -0.6030 -0.6553
 4157SOL     OW24106   0.535   0.844   7.529  0.1250 -0.0403 -0.2317
 4157SOL    HW124107   0.439   0.847   7.536  0.2487  1.2894  0.9156
 4157SOL    HW224108   0.564   0.928   7.565  2.6721 -1.0686  0.1387
 4158SOL     OW24109   2.593   3.764   7.701 -0.1770  0.3268 -0.1420
 4158SOL    HW124110   2.504   3.732   7.687 -1.1152  2.9357 -0.1879
 4158SOL    HW224111   2.612   3.750   7.794 -0.8353  0.5875  0.0324
 4159SOL     OW24112   0.620   0.823   3.839 -0.4662  0.5199  0.0888
 4159SOL    HW124113   0.534   0.838   3.879 -0.7952  1.0150 -0.7958
 4159SOL    HW224114   0.603   0.872   3.758 -1.1393  0.9345  0.4723
 4160SOL     OW24115   1.973   0.398  15.936  0.3991  0.4455  0.1987
 4160SOL    HW124116   1.900   0.380  15.995 -0.0632 -1.2576 -0.9066
 4160SOL    HW224117   2.048   0.357  15.977 -1.7545 -1.7505  1.9387
 4161SOL     OW24118   2.467   0.860   9.738 -0.0445  0.5841 -0.3209
 4161SOL    HW124119   2.424   0.942   9.715 -1.3012 -0.1512 -0.5887
 4161SOL    HW224120   2.387   0.808   9.742  0.0278  0.5131  0.1465
 4162SOL     OW24121   0.948   2.585   2.961 -0.2005 -0.4533  0.4664
 4162SOL    HW124122   1.017   2.651   2.971  0.5322 -0.7880 -2.2498
 4162SOL    HW224123   0.967   2.534   3.039 -0.2490  0.7334  1.2457
 4163SOL     OW24124   1.468   0.814   1.256  0.4660  0.4307  0.3150
 4163SOL    HW124125   1.407   0.836   1.186  0.5867 -0.5777 -0.1179
 4163SOL    HW224126   1.455   0.874   1.329 -0.9170  2.0423 -1.2752
 4164SOL     OW24127   1.551   2.308   8.731 -0.2415  0.7616 -0.0451
 4164SOL    HW124128   1.581   2.347   8.649 -0.3225  0.2626 -0.3130
 4164SOL    HW224129   1.459   2.332   8.737 -0.8851 -1.7442  0.1328
 4165SOL     OW24130   3.485   3.956   6.418 -0.2158  0.1316 -0.3260
 4165SOL    HW124131   3.437   3.987   6.341 -1.9537 -0.0321  0.6952
 4165SOL    HW224132   3.441   3.999   6.490 -1.0501 -0.1292 -0.6874
 4166SOL     OW24133   0.232   0.820   4.464 -0.8004 -0.3371 -0.4680
 4166SOL    HW124134   0.237   0.914   4.484  1.6156 -0.5121 -0.2597
 4166SOL    HW224135   0.287   0.806   4.387  1.1929 -1.9250  1.2373
 4167SOL     OW24136   2.907   4.102   6.282 -0.3690 -0.4115  0.7528
 4167SOL    HW124137   2.870   4.161   6.348  2.2233  2.4970 -0.3900
 4167SOL    HW224138   2.969   4.058   6.341  1.4986 -0.5220 -1.2803
 4168SOL     OW24139   2.283   0.627   4.236 -0.0976  0.8252  0.3346
 4168SOL    HW124140   2.314   0.716   4.216 -1.7479  1.4850  0.7160
 4168SOL    HW224141   2.334   0.581   4.169  0.0013  0.3082  0.7638
 4169SOL     OW24142   1.358   4.672   8.827  0.5406 -0.2122  0.4031
 4169SOL    HW124143   1.322   4.724   8.755 -1.6197 -0.3407  1.4143
 4169SOL    HW224144   1.440   4.720   8.841  0.7610 -0.8679  1.3442
 4170SOL     OW24145   0.958   4.594   2.674 -0.1521 -0.4782 -0.4209
 4170SOL    HW124146   0.919   4.560   2.594 -0.1624  1.6193 -1.2893
 4170SOL    HW224147   0.946   4.518   2.731  2.4279  1.4246  2.6126
 4171SOL     OW24148   3.467   0.375   2.331 -0.4327 -0.3482 -0.2650
 4171SOL    HW124149   3.453   0.402   2.240  0.5421  0.5095 -0.1628
 4171SOL    HW224150   3.448   0.462   2.367  0.9888  0.0058 -0.3683
 4172SOL     OW24151   4.400   1.038   7.852  0.7591 -0.4766  0.4350
 4172SOL    HW124152   4.404   1.131   7.827  1.7731 -0.6604 -0.0848
 4172SOL    HW224153   4.459   1.045   7.927  1.3839  0.1235 -0.1153
 4173SOL     OW24154   4.437   0.812   7.023  0.1945  0.3906  0.5034
 4173SOL    HW124155   4.470   0.893   6.985  2.6078 -1.7761 -2.0037
 4173SOL    HW224156   4.479   0.745   6.970  2.3832  0.2212  2.4545
 4174SOL     OW24157   4.020   1.585  15.946 -0.0131 -0.3639  0.3899
 4174SOL    HW124158   3.946   1.643  15.963  0.6325  0.2592  1.0626
 4174SOL    HW224159   4.065   1.642  15.884 -1.4658  2.4111  1.9298
 4175SOL     OW24160   3.991   0.228   3.552  0.8022 -0.1148  0.7081
 4175SOL    HW124161   4.018   0.192   3.636  1.2604  0.5626  0.8489
 4175SOL    HW224162   4.061   0.186   3.502  0.6830 -1.9949  2.1168
 4176SOL     OW24163   0.902   0.794   1.328 -0.2086 -0.4601 -0.1878
 4176SOL    HW124164   0.810   0.789   1.301 -0.6988 -1.1078  1.6094
 4176SOL    HW224165   0.952   0.802   1.247 -0.2666  0.1966 -0.1627
 4177SOL     OW24166   2.145   3.119   5.156 -0.2793 -0.2563 -0.6290
 4177SOL    HW124167   2.065   3.095   5.203 -0.5945  1.5968 -0.2192
 4177SOL    HW224168   2.125   3.136   5.063 -1.3224 -0.4918 -0.4464
 4178SOL     OW24169   1.242   1.697   6.400 -0.1854  0.1776 -0.2975
 4178SOL    HW124170   1.322   1.656   6.433  0.4188  0.5787 -1.2614
 4178SOL    HW224171   1.180   1.631   6.430  1.7322 -0.9775  1.1199
 4179SOL     OW24172   2.820   1.121  11.773  0.1212 -0.1960 -0.0366
 4179SOL    HW124173   2.833   1.028  11.753  0.1752 -0.1411 -0.2517
 4179SOL    HW224174   2.762   1.112  11.849 -2.9082  0.0129 -2.3448
 4180SOL     OW24175   3.452   3.605   8.276 -0.2502  0.0782 -0.3972
 4180SOL    HW124176   3.504   3.555   8.339 -1.3181 -0.1419  0.3013
 4180SOL    HW224177   3.458   3.694   8.309 -2.8714 -0.1718  0.6957
 4181SOL     OW24178   0.102   1.313   7.662 -0.1061  0.1387  0.8775
 4181SOL    HW124179   0.188   1.288   7.629 -1.1251 -1.0543 -0.8723
 4181SOL    HW224180   0.074   1.222   7.673 -1.8059  0.9785  3.5305
 4182SOL     OW24181   0.267   3.842  15.075  0.7310 -0.3542 -0.1810
 4182SOL    HW124182   0.219   3.921  15.049 -1.1582 -1.6683 -0.6692
 4182SOL    HW224183   0.192   3.782  15.074 -0.4677  1.1518  0.3480
 4183SOL     OW24184   4.609   4.496   5.322 -0.0937 -0.0622  0.0724
 4183SOL    HW124185   4.567   4.571   5.281 -1.4602 -0.3252  1.0008
 4183SOL    HW224186   4.583   4.419   5.272  0.0222 -0.1657  0.1696
 4184SOL     OW24187   0.968   2.634   2.400  0.1882 -0.1125 -0.1652
 4184SOL    HW124188   0.957   2.729   2.396 -0.9837 -0.3023 -1.5493
 4184SOL    HW224189   0.975   2.629   2.495  1.8295 -0.1415 -0.2752
 4185SOL     OW24190   0.696   4.061   4.960 -0.3615  0.0984 -0.7393
 4185SOL    HW124191   0.662   4.127   5.019 -1.2149 -1.2142  0.2283
 4185SOL    HW224192   0.704   4.091   4.869  1.4581  2.7015  0.2878
 4186SOL     OW24193   1.396   0.365   2.368  0.3379 -0.1874 -0.6316
 4186SOL    HW124194   1.323   0.308   2.343 -0.8946  1.3089 -0.3868
 4186SOL    HW224195   1.397   0.439   2.308  1.4979  0.9808  0.8358
 4187SOL     OW24196   3.986   4.344  13.321  0.7842  0.4447  0.0681
 4187SOL    HW124197   3.912   4.405  13.316  1.2715  0.8783 -1.7901
 4187SOL    HW224198   3.948   4.277  13.263 -2.8422  1.2161  1.5457
 4188SOL     OW24199   0.856   3.529  11.936  0.5082 -0.1469  0.4091
 4188SOL    HW124200   0.874   3.441  11.903  2.3871 -0.2339  1.6387
 4188SOL    HW224201   0.924   3.581  11.894 -0.5939  0.6608 -0.3933
 4189SOL     OW24202   3.542   1.489  17.344  1.3249  0.4946  0.2441
 4189SOL    HW124203   3.631   1.466  17.319  1.5047  1.0970  0.3121
 4189SOL    HW224204   3.495   1.457  17.267  1.1102 -1.1356  1.0671
 4190SOL     OW24205   0.821   3.107  12.739  0.1148 -0.0346 -0.2916
 4190SOL    HW124206   0.801   3.015  12.724 -0.7129  0.4252 -2.0150
 4190SOL    HW224207   0.769   3.151  12.672  1.0594  0.1264 -0.9203
 4191SOL     OW24208   2.344   1.223   7.642  0.0943  0.3550 -0.3659
 4191SOL    HW124209   2.434   1.233   7.613 -0.2441 -0.1485 -1.6236
 4191SOL    HW224210   2.295   1.225   7.559  2.5661  1.5295 -1.7780
 4192SOL     OW24211   3.903   1.181  15.610 -0.0337 -0.6359  0.1408
 4192SOL    HW124212   3.971   1.227  15.659 -0.2528 -0.8949  0.6930
 4192SOL    HW224213   3.950   1.098  15.600  0.0756 -0.6673  0.9132
 4193SOL     OW24214   0.152   4.700  16.953 -0.1060 -0.0274  0.1937
 4193SOL    HW124215   0.162   4.605  16.950 -1.1499 -0.1105 -1.2328
 4193SOL    HW224216   0.070   4.704  16.903  0.0025  1.3729  0.1262
 4194SOL     OW24217   0.005   0.029   7.355 -0.4221  0.1582  0.5651
 4194SOL    HW124218   4.669   4.716   7.320 -0.5133 -0.8081  2.1412
 4194SOL    HW224219   0.027   4.711   7.430 -0.6165  2.1055  2.0453
 4195SOL     OW24220   1.393   4.685   8.480  0.0830  0.0832  0.2413
 4195SOL    HW124221   1.389   4.734   8.398  2.0235  0.8595  0.6214
 4195SOL    HW224222   1.342   0.006   8.536 -0.1962  0.7578 -0.7152
 4196SOL     OW24223   4.473   2.382   7.168  0.0583  0.1170 -0.0223
 4196SOL    HW124224   4.544   2.366   7.107 -0.1556  0.0976 -0.2685
 4196SOL    HW224225   4.404   2.317   7.155  0.1006  0.1032 -0.1808
 4197SOL     OW24226   1.791   1.394   8.596  0.6733 -0.2441 -0.3951
 4197SOL    HW124227   1.742   1.469   8.564 -1.5222 -0.8867  1.3896
 4197SOL    HW224228   1.830   1.366   8.513  0.1355  0.0280 -0.7338
 4198SOL     OW24229   3.161   1.577  13.914  0.2961 -0.0051  0.2312
 4198SOL    HW124230   3.245   1.535  13.933  0.1635  0.1100  1.0754
 4198SOL    HW224231   3.163   1.645  13.981  0.6437  2.5384 -2.3565
 4199SOL     OW24232   0.821   2.788   0.207  0.0762 -0.0390  0.5907
 4199SOL    HW124233   0.903   2.836   0.196 -0.2785  0.8500  1.7673
 4199SOL    HW224234   0.844   2.708   0.160 -2.3489 -0.5459  0.2630
 4200SOL     OW24235   0.812   1.641   4.051 -0.5132 -0.0343 -0.1638
 4200SOL    HW124236   0.854   1.556   4.034 -0.2397 -0.1158  0.9345
 4200SOL    HW224237   0.883   1.681   4.101 -2.8707  3.6891  0.1874
 4201SOL     OW24238   0.703   2.601   4.281  0.1135 -0.0590  0.4533
 4201SOL    HW124239   0.736   2.643   4.202  0.8706 -1.5787 -0.0477
 4201SOL    HW224240   0.781   2.581   4.333 -1.9522  0.7256  3.8906
 4202SOL     OW24241   3.194   3.583   1.931 -0.0077  0.3476 -0.2475
 4202SOL    HW124242   3.238   3.641   1.993  3.1352  0.4607 -2.5852
 4202SOL    HW224243   3.152   3.656   1.886 -0.2420 -0.2104 -0.9408
 4203SOL     OW24244   4.335   3.329   7.184 -0.4828  0.6902  0.5097
 4203SOL    HW124245   4.302   3.411   7.222 -2.2077  0.3375 -0.2350
 4203SOL    HW224246   4.417   3.357   7.144 -0.4631 -0.7714 -0.4492
 4204SOL     OW24247   1.110   1.927   6.444 -0.6104 -0.1636  0.5046
 4204SOL    HW124248   1.035   1.900   6.497 -2.1249 -0.2232 -1.6803
 4204SOL    HW224249   1.147   1.839   6.440  2.4173  1.3185 -3.4660
 4205SOL     OW24250   1.605   2.833   4.957 -0.3455  0.1869 -0.0275
 4205SOL    HW124251   1.603   2.917   5.001  0.2962 -0.1404  0.6166
 4205SOL    HW224252   1.647   2.789   5.031 -0.3968 -1.1251 -0.7715
 4206SOL     OW24253   3.495   3.320   7.910  0.2825  0.1368  0.1597
 4206SOL    HW124254   3.542   3.312   7.827  1.5869 -2.2268  1.1278
 4206SOL    HW224255   3.501   3.414   7.928  0.1032  0.8841 -3.6065
 4207SOL     OW24256   0.002   2.543   6.960  0.3340 -0.0809 -0.3099
 4207SOL    HW124257   4.687   2.467   6.985  0.0475 -0.5334 -2.2689
 4207SOL    HW224258   0.056   2.514   6.887  0.0012 -0.8217 -0.2564
 4208SOL     OW24259   2.778   1.025   3.654 -0.5368  0.3745  0.1931
 4208SOL    HW124260   2.735   0.980   3.581 -1.4659  0.7064  0.5325
 4208SOL    HW224261   2.797   0.956   3.719 -0.4372  0.3711  0.1605
 4209SOL     OW24262   1.260   0.738   0.897  0.1686 -0.5575  0.1135
 4209SOL    HW124263   1.350   0.765   0.881  0.2993 -0.4895  0.9604
 4209SOL    HW224264   1.264   0.685   0.977 -0.0594  0.6230  0.9108
 4210SOL     OW24265   3.117   0.620   4.057 -0.1223  0.6606  0.0365
 4210SOL    HW124266   3.131   0.693   4.118 -3.1048  0.2332  1.2394
 4210SOL    HW224267   3.081   0.552   4.114 -0.9278  0.6471 -0.5003
 4211SOL     OW24268   1.318   0.675   7.019 -0.1034 -0.5818 -0.3817
 4211SOL    HW124269   1.390   0.632   6.973 -0.6559 -2.3817  0.4453
 4211SOL    HW224270   1.252   0.665   6.950 -1.8464 -2.1409  1.5512
 4212SOL     OW24271   0.765   3.514   1.913 -0.3274 -0.4774 -0.2722
 4212SOL    HW124272   0.682   3.472   1.890 -1.6758  2.0064  0.1186
 4212SOL    HW224273   0.748   3.556   1.997 -1.5046 -2.9726  0.7226
 4213SOL     OW24274   2.708   3.545   8.677  0.1470 -0.1203 -0.3657
 4213SOL    HW124275   2.739   3.635   8.688 -0.2792  0.1100 -1.0399
 4213SOL    HW224276   2.738   3.512   8.762 -1.3301  0.2337  0.2906
 4214SOL     OW24277   3.606   4.707  14.992  0.1922  0.2163 -0.2060
 4214SOL    HW124278   3.553   4.628  15.008 -0.9686  1.2104  0.8967
 4214SOL    HW224279   3.615   4.702  14.897 -3.7887  2.1680 -0.6747
 4215SOL     OW24280   0.106   1.572   4.042 -0.0490  0.1643 -0.5244
 4215SOL    HW124281   0.032   1.628   4.019  0.9303  1.4576 -0.5323
 4215SOL    HW224282   0.181   1.604   3.992  0.4628  0.9202  0.7046
 4216SOL     OW24283   2.783   0.526  16.933  0.4354 -0.3430  0.2801
 4216SOL    HW124284   2.771   0.456  16.996  5.9414 -1.7292 -0.2481
 4216SOL    HW224285   2.843   0.585  16.979  0.9189 -0.2097 -0.5129
 4217SOL     OW24286   0.418   3.332   2.501  0.2517  0.1502  0.1821
 4217SOL    HW124287   0.402   3.426   2.508 -1.0814 -0.1386  0.9973
 4217SOL    HW224288   0.513   3.335   2.508  0.3103 -1.2323 -0.1069
 4218SOL     OW24289   0.516   0.136  12.324  0.2265  0.4133 -0.2496
 4218SOL    HW124290   0.563   0.145  12.407  0.8949  0.1791 -0.6077
 4218SOL    HW224291   0.479   0.224  12.320  0.5438  0.5869  0.5429
 4219SOL     OW24292   0.103   1.214   6.614 -0.2920  0.2815 -0.8404
 4219SOL    HW124293   0.123   1.173   6.530 -1.4182 -1.2616 -0.3432
 4219SOL    HW224294   0.172   1.173   6.665 -0.1276  0.6332 -0.7754
 4220SOL     OW24295   3.148   2.135  12.259  1.0622  0.7348 -0.3379
 4220SOL    HW124296   3.097   2.069  12.212  0.8916 -0.7314  1.9313
 4220SOL    HW224297   3.081   2.173  12.316  0.6773 -0.1326 -0.2037
 4221SOL     OW24298   0.030   0.779   9.623 -0.4233 -0.0085  0.2587
 4221SOL    HW124299   0.035   0.795   9.717  1.6353  1.0897 -0.0447
 4221SOL    HW224300   4.705   0.706   9.617  0.2837 -0.7164  1.6686
 4222SOL     OW24301   1.802   1.355   0.090 -0.1972 -0.4796  0.0934
 4222SOL    HW124302   1.866   1.332   0.023 -0.0941 -1.5311  0.5479
 4222SOL    HW224303   1.726   1.302   0.066  1.4071 -1.3143 -3.0175
 4223SOL     OW24304   4.576   0.255  13.041 -0.8381 -0.1624 -0.0576
 4223SOL    HW124305   4.506   0.255  12.976 -0.1835  1.4842 -0.7458
 4223SOL    HW224306   4.528   0.215  13.114  0.1917 -0.7609  0.2966
 4224SOL     OW24307   2.998   3.695  10.240  0.1853 -0.4707 -0.1794
 4224SOL    HW124308   3.082   3.657  10.267  0.5909  0.2107 -0.4864
 4224SOL    HW224309   2.979   3.748  10.317 -0.8001 -0.8319 -0.1757
 4225SOL     OW24310   1.389   1.885  13.804  0.3585 -0.0943 -0.9044
 4225SOL    HW124311   1.413   1.977  13.796 -1.9398  0.4685 -1.4534
 4225SOL    HW224312   1.399   1.856  13.894 -0.4799  1.4794 -0.3105
 4226SOL     OW24313   1.884   3.142   8.509  0.1045  0.0820 -0.3943
 4226SOL    HW124314   1.966   3.163   8.463  1.6104  2.2208  3.3117
 4226SOL    HW224315   1.916   3.070   8.563 -1.8199 -0.8500 -0.4836
 4227SOL     OW24316   0.014   3.254   2.051 -0.0694  0.2428  0.6920
 4227SOL    HW124317   0.003   3.197   1.975 -1.6414  0.0579  1.0567
 4227SOL    HW224318   0.098   3.295   2.030 -1.3541  1.0093 -2.8882
 4228SOL     OW24319   1.766   4.417  15.231 -0.5564 -0.5260  0.2180
 4228SOL    HW124320   1.700   4.395  15.297 -1.1036 -0.7540 -0.4027
 4228SOL    HW224321   1.747   4.507  15.202 -2.9388 -1.1126 -0.0879
 4229SOL     OW24322   0.628   1.101  16.600 -0.6259 -0.6537  0.2745
 4229SOL    HW124323   0.691   1.169  16.575 -0.9000 -1.2498 -2.0281
 4229SOL    HW224324   0.679   1.028  16.634 -0.3848 -0.6830 -0.1461
 4230SOL     OW24325   3.749   1.405  16.090  0.4359 -0.2718 -0.1770
 4230SOL    HW124326   3.689   1.416  16.016  0.1252  0.0087  0.1198
 4230SOL    HW224327   3.806   1.480  16.072  0.1153 -0.1720 -0.7851
 4231SOL     OW24328   3.677   1.415   3.324 -0.2846  0.4224  0.3568
 4231SOL    HW124329   3.753   1.391   3.375 -0.6724  0.5982  1.0179
 4231SOL    HW224330   3.704   1.414   3.232  2.2099  1.8089  1.0752
 4232SOL     OW24331   0.011   1.635  15.785  0.1801 -0.2676 -0.4051
 4232SOL    HW124332   0.013   1.557  15.840 -0.1233 -0.5197 -0.7514
 4232SOL    HW224333   4.724   1.596  15.701  1.7706  0.0800 -1.0270
 4233SOL     OW24334   3.692   4.490  10.070  0.0740 -0.0515 -0.3481
 4233SOL    HW124335   3.743   4.570  10.082 -0.7296  0.3093  0.6203
 4233SOL    HW224336   3.608   4.532  10.090  0.0474 -0.1794 -0.1885
 4234SOL     OW24337   0.444   3.090   3.610  0.2651 -0.3421 -0.6402
 4234SOL    HW124338   0.534   3.065   3.589 -0.8308 -3.0575 -2.1907
 4234SOL    HW224339   0.416   3.118   3.523  4.5870  0.4592 -1.7298
 4235SOL     OW24340   3.831   2.422   4.096  0.5344  0.3257 -0.1630
 4235SOL    HW124341   3.819   2.488   4.164 -0.4723 -0.6556  0.6034
 4235SOL    HW224342   3.917   2.384   4.113 -0.0566 -1.2066 -0.6267
 4236SOL     OW24343   4.073   3.213   9.014 -0.3409  0.3429 -0.0656
 4236SOL    HW124344   4.045   3.218   9.106  1.2078  3.2739  0.2349
 4236SOL    HW224345   4.149   3.270   9.018  0.4943 -0.8504  1.1599
 4237SOL     OW24346   1.166   3.858  10.269  0.0595  0.2704 -0.5131
 4237SOL    HW124347   1.244   3.805  10.281  2.0897  3.4318  0.3593
 4237SOL    HW224348   1.144   3.837  10.178 -2.6636  0.1816  0.1552
 4238SOL     OW24349   0.919   3.185   7.078  0.0246  0.0034  0.6234
 4238SOL    HW124350   0.899   3.106   7.127  1.2170  0.0102  1.1285
 4238SOL    HW224351   1.010   3.201   7.105  0.7751 -1.8834 -0.7429
 4239SOL     OW24352   1.648   2.066   5.957 -0.3364  0.1239  0.0658
 4239SOL    HW124353   1.699   2.141   5.928 -0.1792 -0.6650 -1.6601
 4239SOL    HW224354   1.592   2.095   6.029  1.4680  0.1023  1.4772
 4240SOL     OW24355   4.502   2.843  12.211 -0.3546  0.3747 -0.6883
 4240SOL    HW124356   4.546   2.867  12.293 -0.4687  1.0897 -0.8344
 4240SOL    HW224357   4.513   2.752  12.184 -0.3190 -0.2879  1.5597
 4241SOL     OW24358   3.298   1.577   1.921  0.2973 -0.0570 -0.5678
 4241SOL    HW124359   3.378   1.539   1.956 -0.8337 -0.5728  1.4811
 4241SOL    HW224360   3.309   1.587   1.826 -0.1452 -1.2421 -0.7427
 4242SOL     OW24361   0.113   4.717   8.398 -0.3096 -0.1603  0.0559
 4242SOL    HW124362   0.201   4.695   8.366 -0.5309  0.5892 -1.0780
 4242SOL    HW224363   0.146   0.022   8.477  0.2430 -0.9430  0.2421
 4243SOL     OW24364   0.658   2.630   7.632  0.0751  0.6034  0.6149
 4243SOL    HW124365   0.585   2.568   7.643  0.2792 -0.0749 -1.6497
 4243SOL    HW224366   0.606   2.707   7.656  0.5966  0.7396  1.2832
 4244SOL     OW24367   1.575   1.778   6.889 -0.2386 -0.3241  0.0290
 4244SOL    HW124368   1.485   1.806   6.874  0.7461  3.0968  0.3882
 4244SOL    HW224369   1.625   1.859   6.881 -0.4211 -0.2010  0.1186
 4245SOL     OW24370   0.049   0.983   3.583 -0.1241 -0.0219  0.2722
 4245SOL    HW124371   0.106   0.919   3.626  2.9318  1.4319 -1.5992
 4245SOL    HW224372   0.042   0.940   3.498 -1.3556  1.0989 -0.1870
 4246SOL     OW24373   0.278   0.110   7.365 -0.1965  0.2253  0.4689
 4246SOL    HW124374   0.187   0.083   7.350 -0.1739 -0.2286  1.1364
 4246SOL    HW224375   0.321   0.037   7.321  3.1409  2.0184  0.7923
 4247SOL     OW24376   0.662   1.473   3.216  0.0500  0.3177  0.2323
 4247SOL    HW124377   0.721   1.402   3.190 -0.1857  1.4819 -3.5017
 4247SOL    HW224378   0.587   1.432   3.259  0.5904 -0.6034  0.3038
 4248SOL     OW24379   1.400   0.944  10.420 -0.5163 -0.6464 -0.5029
 4248SOL    HW124380   1.373   0.853  10.406  1.3144 -1.6389  2.2744
 4248SOL    HW224381   1.406   0.944  10.516  1.3068 -0.7884 -0.6254
 4249SOL     OW24382   1.361   2.964   7.317  0.4830 -0.1254 -0.7783
 4249SOL    HW124383   1.289   2.902   7.321  1.2139 -0.7742  2.1944
 4249SOL    HW224384   1.350   2.997   7.406  0.7863 -0.9722 -0.4257
 4250SOL     OW24385   3.940   1.008   5.636  0.1410 -0.0315  0.1546
 4250SOL    HW124386   3.879   1.000   5.710 -1.1341  0.0581 -0.8976
 4250SOL    HW224387   4.021   0.972   5.672  0.1897  2.6367  2.7360
 4251SOL     OW24388   0.203   0.800   6.275 -0.3295 -0.5444  0.3083
 4251SOL    HW124389   0.187   0.893   6.292 -3.1982 -0.9803  0.1348
 4251SOL    HW224390   0.265   0.771   6.342  1.0343 -1.4527 -1.3694
 4252SOL     OW24391   4.611   0.234  11.900 -0.1930 -0.5592  0.6702
 4252SOL    HW124392   4.693   0.276  11.872 -0.1329 -0.6587  0.6963
 4252SOL    HW224393   4.637   0.143  11.891 -0.3971 -0.5130 -0.4714
 4253SOL     OW24394   3.032   3.252  14.580  0.1489 -0.4096  0.4238
 4253SOL    HW124395   3.093   3.214  14.643  0.6565 -3.4084 -1.8569
 4253SOL    HW224396   3.087   3.243  14.502  1.8777  0.8900  1.5121
 4254SOL     OW24397   3.756   2.737   9.516 -0.1433  0.5653  0.1475
 4254SOL    HW124398   3.707   2.808   9.475 -2.0235 -0.4127  0.6958
 4254SOL    HW224399   3.711   2.660   9.480 -1.2498  0.9241  0.7684
 4255SOL     OW24400   3.992   2.339   1.658  0.0223 -0.7306  0.2656
 4255SOL    HW124401   4.078   2.330   1.619 -1.6733 -1.9815 -3.1563
 4255SOL    HW224402   3.970   2.246   1.670 -1.0699 -0.4771  0.2968
 4256SOL     OW24403   2.915   3.274   5.650 -0.0653 -0.5874  0.5277
 4256SOL    HW124404   2.996   3.315   5.619 -0.4200 -0.8311 -0.7246
 4256SOL    HW224405   2.881   3.350   5.697  0.9826  0.5216 -0.4869
 4257SOL     OW24406   3.257   1.291   9.764  0.1774 -0.2158  0.2977
 4257SOL    HW124407   3.214   1.238   9.831  1.0294 -2.0131 -0.5732
 4257SOL    HW224408   3.179   1.332   9.727  1.5759  0.5469 -1.8203
 4258SOL     OW24409   0.119   1.658   8.498  0.3843 -0.2317 -0.3858
 4258SOL    HW124410   0.196   1.711   8.515 -0.1737 -0.4932  3.0057
 4258SOL    HW224411   0.125   1.613   8.582 -1.3916 -1.5643 -0.9770
 4259SOL     OW24412   1.880   4.456   5.384 -0.0623  0.5614  0.2769
 4259SOL    HW124413   1.955   4.403   5.356 -0.3217  0.1348  0.3860
 4259SOL    HW224414   1.877   4.453   5.479  0.0254 -3.7619  0.1348
 4260SOL     OW24415   3.865   2.633   6.999 -0.3729  0.1784 -0.3768
 4260SOL    HW124416   3.945   2.594   6.961  0.5435 -1.5210  3.3051
 4260SOL    HW224417   3.855   2.587   7.082  0.8736 -0.8209 -0.7710
 4261SOL     OW24418   0.468   4.079  17.407  0.2353  0.0643 -0.1599
 4261SOL    HW124419   0.470   4.100  17.314  0.1554  0.1807 -0.1360
 4261SOL    HW224420   0.386   4.118  17.437  0.6332  0.2885  0.6437
 4262SOL     OW24421   1.246   1.325   5.236 -0.4175 -0.2246  0.2736
 4262SOL    HW124422   1.318   1.342   5.297 -1.2657  1.3291  0.8370
 4262SOL    HW224423   1.289   1.300   5.155 -0.0373  1.3701 -0.0130
 4263SOL     OW24424   2.109   0.009   7.741  0.3181 -0.4224 -0.5891
 4263SOL    HW124425   2.088   0.079   7.803  0.3188 -1.2044  0.2999
 4263SOL    HW224426   2.116   4.677   7.807  0.0959 -0.6282 -0.7825
 4264SOL     OW24427   2.104   0.258   7.336 -0.4289 -0.1636 -0.0782
 4264SOL    HW124428   2.198   0.245   7.351 -0.1650  0.3097 -1.2517
 4264SOL    HW224429   2.101   0.276   7.242 -0.5950 -0.1818 -0.0759
 4265SOL     OW24430   3.881   0.217   7.642 -0.5019  0.1418 -0.1583
 4265SOL    HW124431   3.917   0.240   7.727  1.2154 -1.1213 -0.5224
 4265SOL    HW224432   3.881   0.123   7.659 -0.7253  0.2067  0.1936
 4266SOL     OW24433   1.736   1.805   5.964 -0.4572  0.0878 -0.0330
 4266SOL    HW124434   1.746   1.791   6.058 -1.8712 -2.1801 -0.2227
 4266SOL    HW224435   1.716   1.898   5.963  3.0880  0.8541  0.8209
 4267SOL     OW24436   1.116   1.147   2.360  0.4245  0.5718 -0.5634
 4267SOL    HW124437   1.033   1.133   2.313 -0.4255  0.8537  0.8534
 4267SOL    HW224438   1.171   1.135   2.283 -0.9307 -0.1307 -1.4316
 4268SOL     OW24439   1.479   3.533   1.872 -0.7035 -0.6137 -0.1162
 4268SOL    HW124440   1.574   3.527   1.882 -0.1646  2.0234 -3.4105
 4268SOL    HW224441   1.462   3.536   1.966 -0.9585 -0.9156 -0.1540
 4269SOL     OW24442   0.899   2.423   6.992  0.4053  0.4125 -0.1468
 4269SOL    HW124443   0.981   2.383   7.018 -0.4516 -0.7120  0.8032
 4269SOL    HW224444   0.906   2.432   6.897 -0.4449 -1.0836 -0.3574
 4270SOL     OW24445   1.562   1.008   2.766  0.1241 -0.0528 -0.1657
 4270SOL    HW124446   1.556   0.951   2.843  1.3115 -1.2744 -0.9752
 4270SOL    HW224447   1.469   1.022   2.749  0.1263  0.2494  0.0813
 4271SOL     OW24448   3.197   3.247   2.751  0.7143  0.2813 -0.4855
 4271SOL    HW124449   3.263   3.298   2.798  0.0575  0.3817  0.3425
 4271SOL    HW224450   3.266   3.204   2.700 -0.6672  0.6505 -2.6444
 4272SOL     OW24451   4.481   3.577  16.969  0.0067 -0.0529 -0.0722
 4272SOL    HW124452   4.461   3.609  17.057 -1.3971 -0.7564 -0.1435
 4272SOL    HW224453   4.389   3.580  16.943  0.5693  0.6729 -1.9764
 4273SOL     OW24454   4.627   2.993   4.050  0.1527  0.3749 -0.2863
 4273SOL    HW124455   4.682   3.064   4.016  1.2229 -0.5252 -0.4035
 4273SOL    HW224456   4.661   2.997   4.139 -1.2165 -0.1825  0.2569
 4274SOL     OW24457   4.653   1.408   8.229  0.4954 -0.1427  0.2733
 4274SOL    HW124458   4.736   1.409   8.181  0.4190  1.3557  0.1740
 4274SOL    HW224459   4.587   1.408   8.161  1.9542 -3.8092 -1.1795
 4275SOL     OW24460   0.636   3.817   5.643  0.3065  0.1184 -0.1640
 4275SOL    HW124461   0.542   3.804   5.632  0.2963 -0.1864  0.2871
 4275SOL    HW224462   0.661   3.779   5.559  0.0449 -0.8402  0.1923
 4276SOL     OW24463   3.956   3.503   9.266  0.5385  0.3112 -0.4732
 4276SOL    HW124464   3.882   3.454   9.231 -0.9510  2.5201 -0.3795
 4276SOL    HW224465   4.012   3.496   9.188  1.5533 -2.6789  0.5104
 4277SOL     OW24466   2.001   0.413   3.953 -0.3177  0.1329 -0.0260
 4277SOL    HW124467   2.056   0.402   4.031  0.2805 -0.5073 -0.5405
 4277SOL    HW224468   1.923   0.363   3.975 -0.0691  0.2371  1.1200
 4278SOL     OW24469   1.036   4.022   6.768  0.2360 -0.3124  0.2033
 4278SOL    HW124470   0.987   4.080   6.710  0.4581  0.4650  0.7894
 4278SOL    HW224471   0.986   3.942   6.753 -1.0039  0.5177 -0.0577
 4279SOL     OW24472   3.980   1.879   8.367  0.3367  0.4594 -0.0340
 4279SOL    HW124473   3.893   1.859   8.334  0.2981  0.0527  0.3088
 4279SOL    HW224474   3.965   1.862   8.460 -1.1216  0.0379 -0.3468
 4280SOL     OW24475   2.775   3.992   7.938  0.4543  0.3056  0.1922
 4280SOL    HW124476   2.786   3.902   7.969  1.0770  1.2619  2.6942
 4280SOL    HW224477   2.864   4.015   7.911 -1.2766  2.9955 -3.3675
 4281SOL     OW24478   0.630   0.459  12.218  0.5192 -0.0044 -0.2708
 4281SOL    HW124479   0.578   0.519  12.271  0.4300 -0.5316  0.2320
 4281SOL    HW224480   0.612   0.491  12.129  2.2863  0.5702 -0.4373
 4282SOL     OW24481   3.314   3.679   7.633 -0.4334 -0.2785 -1.0323
 4282SOL    HW124482   3.225   3.675   7.596 -0.4512  4.0773 -1.4302
 4282SOL    HW224483   3.295   3.685   7.726  0.3515  0.6930 -0.9322
 4283SOL     OW24484   3.281   3.182   5.369 -0.4652 -0.0420  0.8613
 4283SOL    HW124485   3.303   3.255   5.427 -0.9745  1.0650 -0.3377
 4283SOL    HW224486   3.210   3.229   5.324 -1.5351 -1.6009  0.9351
 4284SOL     OW24487   3.033   2.652   8.748 -0.2367  0.6369  0.0217
 4284SOL    HW124488   3.073   2.712   8.812  1.5415 -1.5394  0.9394
 4284SOL    HW224489   3.089   2.676   8.674 -1.1017 -0.6064 -1.0275
 4285SOL     OW24490   1.283   4.531   2.270 -0.6439 -0.2972  0.1863
 4285SOL    HW124491   1.227   4.567   2.201 -1.5676 -1.1122  0.5151
 4285SOL    HW224492   1.238   4.532   2.354  0.8472  1.2329  0.9559
 4286SOL     OW24493   3.836   2.169  14.812  0.4341 -0.3794  0.2407
 4286SOL    HW124494   3.822   2.263  14.827 -2.1341 -0.3635 -2.3047
 4286SOL    HW224495   3.893   2.168  14.735 -0.8046  2.5057 -0.7333
 4287SOL     OW24496   3.947   2.669   4.524  0.0133  0.4362 -0.4414
 4287SOL    HW124497   4.012   2.735   4.499 -1.0335  1.1468 -1.2491
 4287SOL    HW224498   3.902   2.676   4.440 -1.9891 -0.7494  0.5344
 4288SOL     OW24499   4.501   4.015   8.506 -0.7865  0.7619  0.4357
 4288SOL    HW124500   4.473   3.935   8.551  2.0507 -0.1287  0.6327
 4288SOL    HW224501   4.485   4.079   8.575 -1.8991  0.3352  0.5675
 4289SOL     OW24502   3.412   0.705   9.804  0.0599 -0.2384  0.5394
 4289SOL    HW124503   3.410   0.800   9.797  0.8796 -0.3355 -0.9673
 4289SOL    HW224504   3.476   0.690   9.874 -0.7717 -1.6353  1.0137
 4290SOL     OW24505   4.717   3.684   3.478 -0.5830  0.0219  0.1886
 4290SOL    HW124506   0.071   3.669   3.453  0.3642  2.0919  2.4295
 4290SOL    HW224507   4.712   3.658   3.570 -2.6097 -0.5235 -0.0704
 4291SOL     OW24508   0.406   2.855   6.342 -0.0079 -0.0355  0.7092
 4291SOL    HW124509   0.477   2.795   6.367  0.4790  0.3295  0.1796
 4291SOL    HW224510   0.421   2.862   6.248  1.5546 -1.1805  0.8717
 4292SOL     OW24511   0.825   4.439  13.796  0.2302 -0.6711  0.1572
 4292SOL    HW124512   0.782   4.478  13.720 -2.8387 -0.8669  1.7858
 4292SOL    HW224513   0.824   4.345  13.783  0.2060 -0.2593 -2.9095
 4293SOL     OW24514   4.090   0.449  11.753  0.0475  0.0419 -0.1358
 4293SOL    HW124515   4.121   0.535  11.727  0.4842 -0.3887 -1.0470
 4293SOL    HW224516   4.134   0.440  11.838 -2.1268  0.7543  1.0589
 4294SOL     OW24517   3.367   1.805   2.062  0.1009  0.0534 -0.1666
 4294SOL    HW124518   3.351   1.739   1.994 -3.4022 -0.7297  1.3825
 4294SOL    HW224519   3.417   1.869   2.011  0.0618 -0.0245 -0.3056
 4295SOL     OW24520   2.603   2.228   3.964 -0.6546  0.0636  0.3316
 4295SOL    HW124521   2.620   2.224   4.058  1.2709 -0.8901 -0.0559
 4295SOL    HW224522   2.596   2.134   3.950 -1.0472  0.0654  0.5066
 4296SOL     OW24523   3.674   3.919   3.515  0.6380 -0.2497 -0.2184
 4296SOL    HW124524   3.691   3.864   3.438  3.8609 -0.7420  0.8361
 4296SOL    HW224525   3.591   3.962   3.494  0.1778 -1.9683 -1.9998
 4297SOL     OW24526   4.399   1.321   8.568 -0.3646  0.1022 -0.6635
 4297SOL    HW124527   4.370   1.342   8.657  1.9832 -2.3561  0.6912
 4297SOL    HW224528   4.373   1.398   8.517  0.2423 -0.9495 -2.5839
 4298SOL     OW24529   4.262   3.410   8.990  0.0573 -0.0158 -0.2454
 4298SOL    HW124530   4.212   3.491   9.002  0.9878  0.6362 -0.7890
 4298SOL    HW224531   4.344   3.437   9.032 -1.1148  1.7595  0.9081
 4299SOL     OW24532   3.963   1.194   9.070  0.1186 -0.3227 -0.5179
 4299SOL    HW124533   3.940   1.256   9.139 -0.3972 -0.1262 -0.8710
 4299SOL    HW224534   4.058   1.187   9.084 -0.0410 -2.0467 -0.2866
 4300SOL     OW24535   0.872   2.380   5.424  0.1385 -0.5064 -1.0133
 4300SOL    HW124536   0.818   2.323   5.479 -0.9592  0.8440 -0.6914
 4300SOL    HW224537   0.953   2.390   5.474 -0.4888  1.1605 -0.3266
 4301SOL     OW24538   1.928   4.566  17.024 -0.6230  0.1351 -0.3430
 4301SOL    HW124539   1.976   4.483  17.016 -2.1611 -0.7676 -0.1795
 4301SOL    HW224540   1.879   4.544  17.103 -1.4412  0.5865 -0.7317
 4302SOL     OW24541   2.980   3.984   7.285 -0.1968 -0.0439 -0.3225
 4302SOL    HW124542   2.950   4.071   7.309  3.4082  1.6298 -1.8200
 4302SOL    HW224543   3.058   3.977   7.339 -1.0156  1.2860  1.0242
 4303SOL     OW24544   2.688   0.224   7.073  0.9226 -0.6802 -0.7320
 4303SOL    HW124545   2.623   0.286   7.041  0.4446  0.3143  2.1178
 4303SOL    HW224546   2.719   0.175   6.997 -0.5754 -1.3649 -0.8900
 4304SOL     OW24547   0.563   1.360   3.989 -0.5720  0.1137 -0.0061
 4304SOL    HW124548   0.624   1.316   4.048  0.5323  2.8187  0.8928
 4304SOL    HW224549   0.487   1.369   4.047 -0.8605  1.8937 -0.6673
 4305SOL     OW24550   4.684   3.060   3.200  0.1398  0.0527 -0.2649
 4305SOL    HW124551   4.717   3.013   3.123  0.0028  0.4331 -0.5573
 4305SOL    HW224552   4.713   3.017   3.280  1.7627  1.9473  0.1585
 4306SOL     OW24553   0.203   4.601   2.344  0.0805 -0.3747  0.1146
 4306SOL    HW124554   0.282   4.581   2.395 -0.1022 -1.1660  0.0933
 4306SOL    HW224555   0.146   4.541   2.393 -0.8180  0.3294 -0.0761
 4307SOL     OW24556   1.583   4.096   4.433  0.0253  0.4225  0.1902
 4307SOL    HW124557   1.579   4.005   4.462 -0.5952  0.9626  1.7647
 4307SOL    HW224558   1.624   4.137   4.509 -0.5655 -1.5010  1.5380
 4308SOL     OW24559   2.190   1.312   9.357 -0.7755 -0.2102 -0.3676
 4308SOL    HW124560   2.150   1.399   9.350  0.1524  0.2629  0.3160
 4308SOL    HW224561   2.152   1.268   9.434 -0.5331 -0.9880 -0.6946
 4309SOL     OW24562   0.341   0.840   2.170 -0.4207 -0.8351 -0.0562
 4309SOL    HW124563   0.332   0.936   2.166  2.0261 -0.6554 -1.1561
 4309SOL    HW224564   0.330   0.821   2.263 -1.8661 -1.4336 -0.3451
 4310SOL     OW24565   1.443   2.568  10.117  0.6419 -0.2105  0.2273
 4310SOL    HW124566   1.464   2.660  10.135 -0.0822 -0.2258  1.1708
 4310SOL    HW224567   1.401   2.542  10.200  0.2833  2.0453  0.7503
 4311SOL     OW24568   4.449   2.738   2.052 -0.2471 -0.7330 -0.2102
 4311SOL    HW124569   4.384   2.681   2.093  0.5515 -0.4438  1.4683
 4311SOL    HW224570   4.510   2.670   2.022  2.7589  0.5830  2.8656
 4312SOL     OW24571   1.195   1.601   5.973 -0.3242  0.2964  0.0141
 4312SOL    HW124572   1.244   1.673   6.013  0.2090  1.0296 -1.9637
 4312SOL    HW224573   1.265   1.556   5.926  3.0220  3.9583  1.4915
 4313SOL     OW24574   2.018   2.647   3.308 -0.3995 -0.3279  0.2150
 4313SOL    HW124575   1.985   2.557   3.302 -1.6864 -0.0225  2.5450
 4313SOL    HW224576   2.020   2.653   3.404  1.9685 -0.9900  0.2154
 4314SOL     OW24577   0.702   3.049  15.438  1.0331  0.1083 -0.4760
 4314SOL    HW124578   0.774   3.014  15.386 -0.9076 -1.4790 -2.0843
 4314SOL    HW224579   0.644   2.976  15.416  0.4203  0.0015  1.4923
 4315SOL     OW24580   0.580   1.895  15.325  0.4884  0.4959  0.2579
 4315SOL    HW124581   0.578   1.805  15.295 -2.2504  0.0346  1.8109
 4315SOL    HW224582   0.669   1.928  15.313  1.3426 -1.7790  0.4196
 4316SOL     OW24583   3.186   0.177   2.157  0.1521 -0.0693 -0.2940
 4316SOL    HW124584   3.099   0.139   2.174  0.1456 -0.0194 -0.2144
 4316SOL    HW224585   3.168   0.214   2.071  0.5904 -1.7131 -1.0960
 4317SOL     OW24586   1.311   2.445   8.738 -0.3529 -0.2996 -0.1982
 4317SOL    HW124587   1.317   2.507   8.665 -2.4268  0.4048  0.2286
 4317SOL    HW224588   1.298   2.495   8.819  1.8860  0.2965 -0.2062
 4318SOL     OW24589   1.831   1.981   3.552 -0.1793 -0.1039 -0.6017
 4318SOL    HW124590   1.815   2.059   3.604 -0.3011  1.1238 -2.4907
 4318SOL    HW224591   1.895   1.940   3.611  0.4084 -0.7477 -1.6826
 4319SOL     OW24592   3.169   4.620  13.136 -0.1187  0.2460 -0.8327
 4319SOL    HW124593   3.194   4.652  13.222  0.6956 -1.4187 -0.4520
 4319SOL    HW224594   3.222   4.676  13.080  1.3347  0.0876  0.3945
 4320SOL     OW24595   0.508   2.308   8.829 -0.2188  0.7737 -0.9229
 4320SOL    HW124596   0.468   2.341   8.749 -2.4816  1.4586  0.4837
 4320SOL    HW224597   0.557   2.234   8.793  0.4626  0.1373  1.2705
 4321SOL     OW24598   3.660   3.734  16.810 -0.2898  0.6582  0.6017
 4321SOL    HW124599   3.601   3.758  16.738 -0.4201 -4.0521 -0.8419
 4321SOL    HW224600   3.738   3.767  16.766  0.3828 -0.3360  1.0617
 4322SOL     OW24601   3.221   1.376   8.530  0.9291 -0.5194  0.1089
 4322SOL    HW124602   3.228   1.444   8.463 -1.9472 -0.6882 -0.3570
 4322SOL    HW224603   3.264   1.302   8.488 -1.0326 -1.1540 -0.7930
 4323SOL     OW24604   3.935   4.685   4.169 -0.2769 -0.7658  0.1279
 4323SOL    HW124605   3.854   4.722   4.202  0.4908  1.5917 -0.6402
 4323SOL    HW224606   3.988   0.023   4.143 -2.0944  0.8738  1.1737
 4324SOL     OW24607   0.961   1.867   7.115 -0.1350  0.0367 -0.3711
 4324SOL    HW124608   0.911   1.935   7.161  0.3610 -1.5768  2.5580
 4324SOL    HW224609   1.038   1.868   7.173 -1.3901 -1.4160  1.3310
 4325SOL     OW24610   4.060   3.819   4.015 -0.0415  0.0639 -0.1039
 4325SOL    HW124611   4.138   3.874   4.004  0.0629 -0.5143 -2.3366
 4325SOL    HW224612   4.034   3.862   4.096 -1.9496 -0.4468 -0.4439
 4326SOL     OW24613   2.635   0.424  14.518 -0.8955 -0.0968  0.3988
 4326SOL    HW124614   2.649   0.453  14.428 -0.4915  0.0478  0.5089
 4326SOL    HW224615   2.639   0.506  14.569  1.2862 -1.0709  1.7684
 4327SOL     OW24616   4.201   2.303   8.225  0.1248 -0.1259  0.2781
 4327SOL    HW124617   4.228   2.299   8.133 -2.0593  0.3272 -0.3752
 4327SOL    HW224618   4.192   2.211   8.246 -1.3868 -0.0609 -0.1117
 4328SOL     OW24619   2.576   2.924  12.423  0.0324 -0.1880 -0.1239
 4328SOL    HW124620   2.562   2.978  12.346 -3.5320 -0.5126  0.2971
 4328SOL    HW224621   2.663   2.953  12.449  0.5247 -1.1074 -0.7318
 4329SOL     OW24622   4.335   3.481   9.388  0.0629  0.5316 -0.6966
 4329SOL    HW124623   4.249   3.492   9.428  0.8479  0.9259  0.9106
 4329SOL    HW224624   4.352   3.566   9.346  3.1394 -1.3045 -3.1019
 4330SOL     OW24625   2.276   4.517   1.354  0.4329 -0.0770 -0.3093
 4330SOL    HW124626   2.277   4.509   1.258 -1.1271 -2.1344 -0.1362
 4330SOL    HW224627   2.371   4.524   1.370  0.2050  1.1249  0.5017
 4331SOL     OW24628   3.313   2.149   9.176 -0.5190  0.2674  0.2334
 4331SOL    HW124629   3.317   2.172   9.083 -0.0543  2.1441  0.7183
 4331SOL    HW224630   3.338   2.057   9.189 -1.0110  0.1941  0.6621
 4332SOL     OW24631   0.661   2.921  11.242  0.4146 -0.0908  0.4768
 4332SOL    HW124632   0.623   2.951  11.159 -1.7382 -1.5942  0.9130
 4332SOL    HW224633   0.586   2.873  11.275  0.3640  1.1580  2.1254
 4333SOL     OW24634   1.538   1.261  12.340  0.1811  0.5419  0.0553
 4333SOL    HW124635   1.490   1.212  12.274 -1.8598  0.9447  1.2590
 4333SOL    HW224636   1.539   1.192  12.406 -0.2882  0.7293  0.2537
 4334SOL     OW24637   1.447   1.724   8.368  0.0282  0.3036  0.0744
 4334SOL    HW124638   1.382   1.721   8.299 -1.2316  0.3908  1.2641
 4334SOL    HW224639   1.456   1.817   8.390  0.8880  0.1509  0.4041
 4335SOL     OW24640   3.325   0.381   6.092  0.2268 -0.1516  0.6415
 4335SOL    HW124641   3.379   0.341   6.160 -0.4880 -0.1233  1.2199
 4335SOL    HW224642   3.325   0.473   6.119  1.5570 -0.2331  0.9346
 4336SOL     OW24643   0.424   1.499   1.190 -0.5346  0.1752  0.2785
 4336SOL    HW124644   0.336   1.482   1.157 -0.3568  0.9788 -0.5817
 4336SOL    HW224645   0.423   1.589   1.221  0.1421  0.0540  0.6523
 4337SOL     OW24646   3.077   1.779   6.154 -0.5039  0.1814  0.1966
 4337SOL    HW124647   3.035   1.863   6.172  0.8593  1.3176 -1.8362
 4337SOL    HW224648   3.124   1.798   6.072  1.3210 -0.4589  1.1057
 4338SOL     OW24649   3.378   1.046   2.462  0.1639 -0.0365 -0.1469
 4338SOL    HW124650   3.330   0.971   2.496  0.5313  0.5651  1.6981
 4338SOL    HW224651   3.466   1.010   2.463  0.2213  0.1478  0.9489
 4339SOL     OW24652   0.162   4.346   0.950 -0.5636  0.5070  0.0908
 4339SOL    HW124653   0.076   4.364   0.911 -0.9652 -0.1105  0.7016
 4339SOL    HW224654   0.139   4.376   1.038 -0.9042 -0.4403  0.3206
 4340SOL     OW24655   2.264   0.868  14.468  0.4117  0.6993  0.0499
 4340SOL    HW124656   2.170   0.884  14.479  0.6153  0.8244  1.6104
 4340SOL    HW224657   2.266   0.779  14.433  0.7137  0.8506 -0.3237
 4341SOL     OW24658   1.908   4.600   8.385  0.4969  0.3949 -0.5012
 4341SOL    HW124659   1.922   4.688   8.421 -1.1314  0.1283  0.7641
 4341SOL    HW224660   1.854   4.564   8.455  1.7589 -0.1304  0.2011
 4342SOL     OW24661   1.460   4.005  15.190  0.7208  0.6062 -0.0808
 4342SOL    HW124662   1.458   4.088  15.141  0.4645  1.0167  0.6279
 4342SOL    HW224663   1.465   4.037  15.280  0.1532 -0.4957  0.3372
 4343SOL     OW24664   1.505   3.034   3.639  0.0000  0.3574  0.2419
 4343SOL    HW124665   1.462   3.093   3.577 -2.1401 -1.0166  0.4293
 4343SOL    HW224666   1.437   3.017   3.704  0.9423 -2.6180  0.4301
 4344SOL     OW24667   3.548   0.377  10.145  0.3330  0.0341  0.5811
 4344SOL    HW124668   3.568   0.288  10.117 -1.4084  0.7609 -3.0412
 4344SOL    HW224669   3.626   0.395  10.197  0.3777 -0.2866  0.6221
 4345SOL     OW24670   1.981   1.293  17.654  0.3632 -0.2974  0.7901
 4345SOL    HW124671   1.966   1.250  17.569  2.0990 -1.3269  1.0170
 4345SOL    HW224672   2.073   1.312  17.640  0.2519 -0.1433  0.2437
 4346SOL     OW24673   1.439   1.777  12.262 -0.4428 -0.3760  0.6263
 4346SOL    HW124674   1.361   1.791  12.315 -0.8135  2.5850 -0.6502
 4346SOL    HW224675   1.496   1.722  12.315  0.7625  1.1818  0.9507
 4347SOL     OW24676   0.339   0.389   1.902 -0.4900 -0.0599 -0.0865
 4347SOL    HW124677   0.413   0.448   1.886 -1.9000  1.8869  0.4403
 4347SOL    HW224678   0.294   0.393   1.817 -2.1545 -1.6446  0.7323
 4348SOL     OW24679   4.293   3.050   1.801  1.5646 -0.6703 -0.3870
 4348SOL    HW124680   4.351   3.045   1.877  1.2618  0.6218 -0.0634
 4348SOL    HW224681   4.315   2.966   1.761  0.0811 -0.3696 -1.8360
 4349SOL     OW24682   3.490   3.643   8.755  0.0739 -0.0883  0.1040
 4349SOL    HW124683   3.553   3.580   8.790 -1.7619 -1.7268  0.4767
 4349SOL    HW224684   3.548   3.720   8.752 -0.9252  0.5777 -1.9584
 4350SOL     OW24685   0.872   2.199   7.935 -0.1376 -0.0025 -0.0517
 4350SOL    HW124686   0.870   2.224   7.842 -1.1392 -1.9805 -0.5613
 4350SOL    HW224687   0.836   2.280   7.971 -0.2714  0.5595 -1.4417
 4351SOL     OW24688   3.595   0.197   9.234 -0.2840 -0.0166  0.0191
 4351SOL    HW124689   3.596   0.229   9.144 -2.6933 -1.5528 -0.5304
 4351SOL    HW224690   3.581   0.278   9.284 -1.1436  0.3560 -0.8180
 4352SOL     OW24691   1.827   4.179   2.572 -0.6393 -0.4100  1.1716
 4352SOL    HW124692   1.808   4.258   2.521  3.5672 -0.0484  0.1973
 4352SOL    HW224693   1.776   4.116   2.520  0.1465 -0.4966  0.5111
 4353SOL     OW24694   2.636   1.978   1.994  0.2422  0.0283 -0.2290
 4353SOL    HW124695   2.597   1.964   1.908  1.6983  2.1118 -1.2546
 4353SOL    HW224696   2.600   1.907   2.047  0.8055  0.5858  0.9199
 4354SOL     OW24697   3.862   0.692   9.141  0.1652 -0.1821 -0.7827
 4354SOL    HW124698   3.769   0.675   9.122  0.2091 -0.2087 -0.9764
 4354SOL    HW224699   3.879   0.699   9.047  2.4074 -0.5951 -0.3979
 4355SOL     OW24700   3.569   0.088   3.202  0.3138 -0.3486 -0.0068
 4355SOL    HW124701   3.502   0.111   3.266 -0.9790 -0.7182 -1.2367
 4355SOL    HW224702   3.650   0.080   3.252  0.3821  0.0912 -0.0440
 4356SOL     OW24703   3.829   0.977   4.688  0.1940 -0.0647  0.2190
 4356SOL    HW124704   3.741   0.981   4.727  0.1437  1.8170 -0.0623
 4356SOL    HW224705   3.834   0.887   4.658 -0.5819  0.1830 -0.6859
 4357SOL     OW24706   0.664   4.552   8.887 -0.5202 -0.6352 -0.1447
 4357SOL    HW124707   0.640   4.556   8.795 -2.7877 -2.3348  0.3749
 4357SOL    HW224708   0.752   4.517   8.871  0.5178  2.0024 -0.0726
 4358SOL     OW24709   0.836   0.787   8.579 -0.4930 -0.0780  0.7065
 4358SOL    HW124710   0.750   0.767   8.541  0.2261  1.4234 -1.7531
 4358SOL    HW224711   0.819   0.828   8.664 -1.1646  0.5391  0.2832
 4359SOL     OW24712   4.393   2.807   3.502 -0.6118  0.1011  0.6438
 4359SOL    HW124713   4.425   2.736   3.446 -2.2313  0.8395 -1.2427
 4359SOL    HW224714   4.303   2.785   3.526 -0.2063 -0.7966  1.3549
 4360SOL     OW24715   2.870   3.680   3.530 -0.0888  0.2034  0.6658
 4360SOL    HW124716   2.927   3.681   3.453 -0.5065  2.1448  0.3909
 4360SOL    HW224717   2.923   3.647   3.603  2.3201 -1.3709 -1.7637
 4361SOL     OW24718   4.212   1.402   9.995 -0.1799  0.3761  0.9329
 4361SOL    HW124719   4.141   1.451   9.953  0.2389 -0.0709 -0.2878
 4361SOL    HW224720   4.267   1.384   9.919 -0.5635 -0.8689  0.9520
 4362SOL     OW24721   2.352   0.699   6.243 -0.1035  0.3418 -0.1870
 4362SOL    HW124722   2.315   0.611   6.236  1.8359 -0.4425 -0.5314
 4362SOL    HW224723   2.441   0.689   6.211 -0.3906 -0.4090 -0.7782
 4363SOL     OW24724   1.723   4.190   3.433 -0.0342  0.3978  0.4745
 4363SOL    HW124725   1.799   4.132   3.426 -0.9044 -0.6750 -0.0281
 4363SOL    HW224726   1.761   4.262   3.384 -0.7730 -0.1092 -0.8338
 4364SOL     OW24727   3.170   3.461  10.870  0.3630  0.1539  0.3355
 4364SOL    HW124728   3.170   3.365  10.875  0.1668  0.1894  0.9549
 4364SOL    HW224729   3.146   3.478  10.960  2.4073  1.7357  0.5783
 4365SOL     OW24730   3.129   2.081   4.246  0.0562  0.4404 -0.0279
 4365SOL    HW124731   3.104   1.989   4.257  0.0591  0.4780  0.3014
 4365SOL    HW224732   3.054   2.128   4.211  0.2879  1.2179  0.5282
 4366SOL     OW24733   3.000   2.887  10.957  0.1694  0.0581 -0.6637
 4366SOL    HW124734   3.007   2.847  11.043  0.5872  2.3391  0.3818
 4366SOL    HW224735   3.088   2.908  10.926  0.7525 -1.3435  0.0851
 4367SOL     OW24736   1.286   1.366  10.310  0.1624  0.6890 -0.7122
 4367SOL    HW124737   1.214   1.303  10.311  1.2190 -0.4775  1.1026
 4367SOL    HW224738   1.270   1.402  10.397  2.4786 -0.5790  0.2250
 4368SOL     OW24739   1.044   4.016   7.595 -0.4832  0.0723 -0.1833
 4368SOL    HW124740   0.994   3.934   7.600 -1.1003  0.5374  1.3140
 4368SOL    HW224741   1.125   3.979   7.558 -1.4581 -0.3916 -1.8440
 4369SOL     OW24742   4.206   1.390   3.446 -0.2351 -0.3453  0.3185
 4369SOL    HW124743   4.272   1.431   3.502  1.5822  0.0736 -2.1103
 4369SOL    HW224744   4.176   1.463   3.391 -0.3192 -0.9824 -0.4795
 4370SOL     OW24745   2.617   1.780   0.323  0.1453  0.2828  0.1147
 4370SOL    HW124746   2.590   1.746   0.409  1.7108 -0.2149  0.3987
 4370SOL    HW224747   2.530   1.774   0.282  0.2908  0.3821 -0.2080
 4371SOL     OW24748   1.987   1.708   2.501 -0.5040  0.9587 -0.0559
 4371SOL    HW124749   1.977   1.760   2.580  0.0609  1.2768 -0.1979
 4371SOL    HW224750   2.049   1.647   2.541 -0.7600  0.2318 -0.7544
 4372SOL     OW24751   3.145   0.752   3.322  0.1435  0.0880  0.4530
 4372SOL    HW124752   3.144   0.768   3.227 -0.7583  1.8457  0.7720
 4372SOL    HW224753   3.186   0.665   3.327  0.3090  0.0959 -0.7501
 4373SOL     OW24754   4.582   1.433  10.155  0.0235  0.3874  0.4679
 4373SOL    HW124755   4.628   1.432  10.239  0.2975  1.0091  0.3260
 4373SOL    HW224756   4.653   1.474  10.106 -0.3765  0.9560  0.3637
 4374SOL     OW24757   1.643   0.809  13.802 -0.2092 -0.5890 -0.2026
 4374SOL    HW124758   1.725   0.759  13.806  0.2575  0.0696 -1.6134
 4374SOL    HW224759   1.649   0.830  13.709 -0.5885  0.4603  0.0057
 4375SOL     OW24760   0.627   2.504   3.707 -0.0103 -0.5783 -0.3629
 4375SOL    HW124761   0.619   2.480   3.800  0.3470  2.1690  0.3863
 4375SOL    HW224762   0.677   2.424   3.686  0.5242 -0.8571  1.9455
 4376SOL     OW24763   4.336   0.493   1.473 -0.0915 -0.1450  0.3567
 4376SOL    HW124764   4.251   0.532   1.493 -0.5943  0.3854 -2.8096
 4376SOL    HW224765   4.316   0.457   1.386 -2.3459  2.1738 -0.0855
 4377SOL     OW24766   1.444   3.917   5.285  0.1712  0.3641 -0.7422
 4377SOL    HW124767   1.363   3.952   5.247 -0.2561 -0.6927 -0.8246
 4377SOL    HW224768   1.514   3.943   5.225  0.7878  0.5934  0.0850
 4378SOL     OW24769   2.508   0.933   6.615  0.3124 -0.1864  0.2811
 4378SOL    HW124770   2.504   1.016   6.663  2.5836 -0.4520  0.9682
 4378SOL    HW224771   2.600   0.906   6.619  0.7318  1.3734  1.1947
 4379SOL     OW24772   3.988   1.186  10.070 -0.0204 -0.4324  0.0147
 4379SOL    HW124773   4.057   1.206  10.007 -0.9194  0.8159 -0.5748
 4379SOL    HW224774   3.945   1.115  10.020 -0.3136  0.4027 -0.9158
 4380SOL     OW24775   0.581   2.372   5.154 -0.2048 -0.2129  0.2937
 4380SOL    HW124776   0.665   2.410   5.131 -0.3829  1.1070  1.8107
 4380SOL    HW224777   0.564   2.410   5.240  1.7751  0.4612  0.3772
 4381SOL     OW24778   2.128   3.941   5.236 -0.1161 -0.2812  0.9883
 4381SOL    HW124779   2.054   3.925   5.176 -0.2602 -1.2637  1.4441
 4381SOL    HW224780   2.166   4.005   5.175 -0.5990 -1.2906 -0.3811
 4382SOL     OW24781   3.841   4.276   4.123 -0.1675  0.0624 -0.0780
 4382SOL    HW124782   3.772   4.209   4.123  0.5451 -0.6691  0.1781
 4382SOL    HW224783   3.909   4.250   4.186 -0.2180  1.7099  0.6578
 4383SOL     OW24784   2.404   3.380   3.986 -0.0390 -0.3655 -0.1991
 4383SOL    HW124785   2.332   3.340   3.938  0.8823 -1.0696 -1.0091
 4383SOL    HW224786   2.433   3.442   3.918  1.1341  0.3182  0.9284
 4384SOL     OW24787   1.879   3.064   7.268 -0.5750 -0.5266  0.4082
 4384SOL    HW124788   1.908   3.155   7.266  1.3680 -1.1382  0.6880
 4384SOL    HW224789   1.851   3.065   7.359  0.5316 -0.3875  0.7515
 4385SOL     OW24790   0.710   4.347   5.975 -0.3088  0.6848 -0.1998
 4385SOL    HW124791   0.780   4.307   5.923  0.2018  2.1761 -0.6488
 4385SOL    HW224792   0.731   4.328   6.066 -0.3576 -0.5969 -0.4561
 4386SOL     OW24793   2.160   3.526  16.977 -0.5719  0.6677  0.3825
 4386SOL    HW124794   2.099   3.548  17.048 -0.8802 -0.8401  0.5943
 4386SOL    HW224795   2.098   3.542  16.906 -0.5924  0.8236  0.4350
 4387SOL     OW24796   0.416   0.999  13.754 -0.4091  0.2975 -0.1679
 4387SOL    HW124797   0.374   0.964  13.675  1.1769 -0.2764 -0.7621
 4387SOL    HW224798   0.480   1.057  13.713 -0.3467 -0.7234 -1.5188
 4388SOL     OW24799   0.869   1.406   4.491 -0.4442 -0.1885 -0.1371
 4388SOL    HW124800   0.938   1.383   4.553 -0.0403  1.5177  0.0554
 4388SOL    HW224801   0.922   1.462   4.434  0.6972 -0.2904  0.8144
 4389SOL     OW24802   0.403   1.541   6.629 -0.3489 -1.4867 -0.0006
 4389SOL    HW124803   0.489   1.582   6.625 -0.8508 -0.6309 -2.2080
 4389SOL    HW224804   0.433   1.456   6.660  1.6254 -0.2165  1.5988
 4390SOL     OW24805   3.413   3.480   5.826  0.2578 -0.1005 -0.7480
 4390SOL    HW124806   3.333   3.532   5.827 -0.8640 -1.8135 -1.6957
 4390SOL    HW224807   3.469   3.548   5.864  0.4596 -0.9712  0.5035
 4391SOL     OW24808   0.794   2.142   9.100 -0.7122 -0.0765  0.4172
 4391SOL    HW124809   0.804   2.067   9.160 -1.2390 -0.0563  0.5329
 4391SOL    HW224810   0.700   2.156   9.110 -0.5778  0.6241  0.6838
 4392SOL     OW24811   4.594   3.025   4.965  0.0205 -0.0049  0.0241
 4392SOL    HW124812   4.585   3.097   5.028  1.6171 -0.8775  1.2382
 4392SOL    HW224813   4.527   2.973   5.009  0.6150  1.3256  2.5710
 4393SOL     OW24814   3.259   1.296   2.528  0.1345  0.3238  0.6158
 4393SOL    HW124815   3.217   1.288   2.443 -0.1486  0.3305  0.7561
 4393SOL    HW224816   3.268   1.203   2.548  0.1503  0.1292 -0.3054
 4394SOL     OW24817   3.540   4.310   1.220  0.0273  0.4103  0.8468
 4394SOL    HW124818   3.512   4.225   1.255  1.1390 -0.0259  0.6468
 4394SOL    HW224819   3.515   4.367   1.293  0.1273 -0.6884  1.7384
 4395SOL     OW24820   1.972   1.281   5.752 -0.6181  0.1807  0.6599
 4395SOL    HW124821   1.986   1.340   5.827 -0.7422  0.8583  0.1517
 4395SOL    HW224822   1.907   1.220   5.787  0.8674 -2.2598 -0.8768
 4396SOL     OW24823   2.404   2.012   1.791 -0.0967 -0.1806 -0.1402
 4396SOL    HW124824   2.345   1.937   1.796 -1.1036  0.6366  0.4825
 4396SOL    HW224825   2.428   2.025   1.699 -0.8451 -1.3214 -0.4883
 4397SOL     OW24826   3.617   1.107   6.905  0.1554 -0.6600 -0.0808
 4397SOL    HW124827   3.682   1.084   6.838  2.2943  1.1494  1.3787
 4397SOL    HW224828   3.621   1.202   6.904  0.0860 -0.6534  0.4506
 4398SOL     OW24829   1.511   2.296   3.599  0.0705  0.3629 -0.1607
 4398SOL    HW124830   1.575   2.245   3.648 -0.3759  0.8143  0.8865
 4398SOL    HW224831   1.565   2.346   3.538 -1.5139  1.1794 -0.8985
 4399SOL     OW24832   0.081   3.761   3.150 -0.2092 -0.6596  0.0522
 4399SOL    HW124833   0.173   3.788   3.138 -0.1639 -1.1924 -0.8314
 4399SOL    HW224834   0.063   3.822   3.221  3.6526  0.9762 -0.3318
 4400SOL     OW24835   2.392   3.844   5.302  0.3552 -0.1298 -0.3904
 4400SOL    HW124836   2.401   3.848   5.397 -0.3134 -1.7717 -0.2526
 4400SOL    HW224837   2.299   3.866   5.291 -0.1988 -1.2884  1.8170
 4401SOL     OW24838   2.312   0.756   5.082 -0.5094  0.5358  0.3277
 4401SOL    HW124839   2.249   0.699   5.126 -1.4231  0.1722 -1.4729
 4401SOL    HW224840   2.382   0.763   5.147 -0.4584 -2.0618  0.5476
 4402SOL     OW24841   2.592   1.957   3.901 -0.2366  0.6514  0.4532
 4402SOL    HW124842   2.670   1.925   3.856 -0.3313  2.0406 -0.6993
 4402SOL    HW224843   2.589   1.892   3.971 -0.7361  0.3740  0.1704
 4403SOL     OW24844   2.396   3.198  12.334  0.0286 -0.0760 -0.5971
 4403SOL    HW124845   2.352   3.118  12.304  0.0138 -0.3070  0.0293
 4403SOL    HW224846   2.484   3.178  12.301 -0.5721  0.7835 -2.7102
 4404SOL     OW24847   0.054   0.975  12.434 -0.8965  0.1470  0.2233
 4404SOL    HW124848   0.065   0.963  12.340  1.1414  0.1505  0.4670
 4404SOL    HW224849   0.071   0.888  12.469 -1.8218 -1.2075 -2.7019
 4405SOL     OW24850   4.365   4.401   8.875 -0.3590  0.4126  0.2723
 4405SOL    HW124851   4.332   4.484   8.843 -1.2117 -0.4856 -1.1517
 4405SOL    HW224852   4.413   4.432   8.952  1.6431 -0.1507 -0.7454
 4406SOL     OW24853   1.166   0.789   8.937  0.7905  0.9147  0.1840
 4406SOL    HW124854   1.141   0.774   8.846 -1.5179  0.2798  0.9229
 4406SOL    HW224855   1.167   0.884   8.943 -0.2489  0.8070  2.3373
 4407SOL     OW24856   3.118   1.845  17.685  0.2410 -0.5477  0.0377
 4407SOL    HW124857   3.027   1.835  17.658  0.1209  1.8742 -0.4729
 4407SOL    HW224858   3.141   1.760  17.721  0.3798 -1.5666 -2.4650
 4408SOL     OW24859   2.771   3.615  10.145 -0.3077 -0.4093  0.0000
 4408SOL    HW124860   2.771   3.627  10.050 -1.0267 -1.8939 -0.1900
 4408SOL    HW224861   2.856   3.655  10.164 -1.3090  0.4187  2.6641
 4409SOL     OW24862   1.565   0.465   7.385 -0.0922 -0.3342  0.6471
 4409SOL    HW124863   1.660   0.474   7.385 -0.1320  0.1210 -0.1205
 4409SOL    HW224864   1.553   0.430   7.297 -1.3942  2.3616 -0.2640
 4410SOL     OW24865   2.064   3.726   3.687 -0.1533 -0.3714 -0.1338
 4410SOL    HW124866   1.992   3.692   3.634 -0.9560  1.0535  0.0119
 4410SOL    HW224867   2.136   3.695   3.633 -0.1336  1.6646 -1.2998
 4411SOL     OW24868   2.787   2.903   3.589 -0.0186  0.2576 -0.6724
 4411SOL    HW124869   2.761   2.972   3.529  0.7033  1.4415  0.3610
 4411SOL    HW224870   2.763   2.824   3.541 -0.8509  0.5038 -0.6578
 4412SOL     OW24871   1.910   3.147   7.841 -0.0141 -0.0180  0.1092
 4412SOL    HW124872   2.005   3.148   7.834  0.0278  0.6227  0.7032
 4412SOL    HW224873   1.894   3.125   7.932  1.1120  0.4473  0.4124
 4413SOL     OW24874   1.011   2.490   8.103  0.2776  0.9265 -0.3121
 4413SOL    HW124875   1.057   2.429   8.046 -2.0275 -3.8711  3.0264
 4413SOL    HW224876   0.925   2.485   8.060  0.3371  0.1195 -0.3295
 4414SOL     OW24877   3.093   1.888  15.270  0.1005 -0.4238  0.5062
 4414SOL    HW124878   3.187   1.883  15.283  0.2693 -2.5867 -1.6374
 4414SOL    HW224879   3.083   1.802  15.229  2.6394 -1.3044  1.7797
 4415SOL     OW24880   4.081   3.138   1.165  1.0960 -0.5391  0.2639
 4415SOL    HW124881   4.122   3.206   1.112  0.2652  1.5365  2.2455
 4415SOL    HW224882   3.990   3.140   1.134  1.3250  1.3143 -0.2692
 4416SOL     OW24883   0.228   1.763   2.808  0.0259 -0.3846 -0.3393
 4416SOL    HW124884   0.314   1.780   2.769 -0.3375  1.5217 -0.3203
 4416SOL    HW224885   0.170   1.814   2.752  1.9042  0.7345 -1.2641
 4417SOL     OW24886   3.411   4.105   7.004  0.4649 -0.6876 -0.1729
 4417SOL    HW124887   3.408   4.166   6.931 -1.7268 -1.9118 -1.1136
 4417SOL    HW224888   3.438   4.018   6.974 -0.2026 -0.5082 -1.2910
 4418SOL     OW24889   4.235   3.213  10.718 -0.2616 -0.1293  0.4002
 4418SOL    HW124890   4.265   3.123  10.734  1.1081  0.3295  0.4452
 4418SOL    HW224891   4.169   3.205  10.650  1.4585  2.8260 -1.6279
 4419SOL     OW24892   4.382   1.462   6.995  0.3266 -0.4001 -0.0248
 4419SOL    HW124893   4.405   1.514   7.072  1.0761  0.1068 -0.5927
 4419SOL    HW224894   4.309   1.521   6.974  1.0142  0.8339  1.0783
 4420SOL     OW24895   1.699   2.736   6.614  0.4094  0.7760  0.1189
 4420SOL    HW124896   1.723   2.804   6.677  1.3877 -1.4367  2.1136
 4420SOL    HW224897   1.614   2.755   6.575 -0.2619  0.1230  1.2985
 4421SOL     OW24898   1.095   1.596   8.273  0.7033 -0.2074 -0.4585
 4421SOL    HW124899   1.170   1.564   8.224  0.7982  1.5282 -1.4245
 4421SOL    HW224900   1.133   1.677   8.305 -0.0313  0.3908 -1.1208
 4422SOL     OW24901   4.130   4.570   5.474  0.1890 -0.2206 -0.1494
 4422SOL    HW124902   4.198   4.524   5.523 -0.8902 -1.3250  0.3204
 4422SOL    HW224903   4.054   4.517   5.499 -3.0598  3.9299 -1.3052
 4423SOL     OW24904   1.318   1.020   0.014 -0.1699  0.1838 -0.1674
 4423SOL    HW124905   1.276   0.934   0.014  0.4540 -0.1237 -0.2021
 4423SOL    HW224906   1.398   1.010   0.066  0.8291  2.0547 -1.3314
 4424SOL     OW24907   3.121   2.844   8.949  0.2003 -0.0080 -0.7574
 4424SOL    HW124908   3.107   2.818   9.040  0.6946  2.5399  0.0441
 4424SOL    HW224909   3.041   2.893   8.929  0.2320  0.1372 -0.5250
 4425SOL     OW24910   1.715   1.384  14.196  0.2507 -0.3344 -0.3299
 4425SOL    HW124911   1.682   1.427  14.118  1.4057 -0.5435 -0.9324
 4425SOL    HW224912   1.688   1.454  14.255  0.4593  0.0368 -0.6848
 4426SOL     OW24913   3.623   1.718   7.139 -0.2933 -0.4592  0.1306
 4426SOL    HW124914   3.697   1.659   7.148  0.4480  0.4822  0.2286
 4426SOL    HW224915   3.656   1.803   7.109  0.5345 -0.7532  0.2149
 4427SOL     OW24916   1.116   2.911   1.817 -0.1290 -0.0123 -0.3866
 4427SOL    HW124917   1.185   2.875   1.762  1.2783  0.5044  1.0598
 4427SOL    HW224918   1.046   2.940   1.758 -3.7483  1.1673  4.5222
 4428SOL     OW24919   0.827   3.522  15.290 -0.0399 -0.3510 -0.0374
 4428SOL    HW124920   0.820   3.616  15.277  0.5190 -0.1161  1.2952
 4428SOL    HW224921   0.741   3.495  15.258 -0.1935 -1.7512  1.5082
 4429SOL     OW24922   4.348   2.008   1.720  0.3897 -0.6065  0.1912
 4429SOL    HW124923   4.411   1.937   1.732 -0.7759 -2.2337 -3.1127
 4429SOL    HW224924   4.334   2.032   1.811  2.2036  0.8162  0.0962
 4430SOL     OW24925   2.544   4.005   0.296  0.0522 -0.3491 -0.3047
 4430SOL    HW124926   2.593   4.087   0.291  0.2925 -0.4591  0.2626
 4430SOL    HW224927   2.472   4.018   0.234 -0.2573 -1.4624 -0.1753
 4431SOL     OW24928   0.126   1.707   9.323  0.0596 -0.6368  0.5823
 4431SOL    HW124929   0.209   1.712   9.275 -0.4355  0.6551 -0.1224
 4431SOL    HW224930   0.082   1.649   9.260 -0.7740  1.9646 -1.2294
 4432SOL     OW24931   0.472   2.716   8.514  0.1490  0.5452  0.8330
 4432SOL    HW124932   0.386   2.719   8.557 -0.4266  1.3278 -0.3672
 4432SOL    HW224933   0.531   2.735   8.587  1.7745  2.7485 -1.0732
 4433SOL     OW24934   1.686   4.532   5.212  0.8294  0.3267 -0.2608
 4433SOL    HW124935   1.679   4.611   5.264  0.8401  1.0947 -1.4120
 4433SOL    HW224936   1.756   4.488   5.260  1.0215  1.8569  0.8459
 4434SOL     OW24937   3.213   0.261   8.433 -0.1129  0.4102 -0.0095
 4434SOL    HW124938   3.258   0.301   8.507  1.0063 -4.1506  1.7402
 4434SOL    HW224939   3.287   0.245   8.373 -3.1119 -2.4213 -2.9429
 4435SOL     OW24940   1.955   2.925   8.640 -0.5003 -0.4311 -0.4315
 4435SOL    HW124941   2.050   2.913   8.638 -0.1713  2.3198 -0.6410
 4435SOL    HW224942   1.939   2.940   8.733  0.8281 -0.1731 -0.2464
 4436SOL     OW24943   3.161   3.824  13.736  0.6016 -0.4122  0.1244
 4436SOL    HW124944   3.091   3.791  13.792 -0.4540  0.3109 -0.7595
 4436SOL    HW224945   3.168   3.765  13.661 -0.1508  0.9885 -1.0514
 4437SOL     OW24946   0.448   2.288   2.806 -0.0748 -0.1885  0.0860
 4437SOL    HW124947   0.488   2.243   2.881 -1.3479  0.0064  0.8907
 4437SOL    HW224948   0.531   2.295   2.759 -0.3480  1.5745 -0.1214
 4438SOL     OW24949   2.687   2.799   3.219  0.4688  0.5101  0.2834
 4438SOL    HW124950   2.704   2.875   3.163 -0.4203  0.8567  0.4863
 4438SOL    HW224951   2.592   2.795   3.226  0.3963  0.5157 -0.6935
 4439SOL     OW24952   4.239   3.693   6.980 -0.4308  0.2291  0.8082
 4439SOL    HW124953   4.235   3.648   7.064 -1.6511  1.7637  1.5663
 4439SOL    HW224954   4.185   3.637   6.925 -0.8565  1.6627 -0.2441
 4440SOL     OW24955   2.666   4.120   7.188  0.2574  0.5895  0.0588
 4440SOL    HW124956   2.703   4.183   7.250  1.8789 -0.6657  0.3839
 4440SOL    HW224957   2.651   4.187   7.121 -0.0726  1.8621  1.3992
 4441SOL     OW24958   3.209   0.741  10.506  0.0630  0.7165  0.2632
 4441SOL    HW124959   3.193   0.779  10.419 -0.3181  0.8505  0.3956
 4441SOL    HW224960   3.130   0.776  10.547  0.0671 -0.0202  0.8886
 4442SOL     OW24961   3.324   3.752  10.194 -0.3432 -0.3976 -0.1580
 4442SOL    HW124962   3.334   3.828  10.137 -0.3309  0.5627  1.1040
 4442SOL    HW224963   3.280   3.793  10.269  1.2815 -0.4311  0.8129
 4443SOL     OW24964   4.017   4.198  16.324 -0.4569  0.1213  0.0615
 4443SOL    HW124965   4.088   4.245  16.368  0.2001 -1.9087  1.1837
 4443SOL    HW224966   3.999   4.275  16.270  1.1850 -0.0178 -0.6746
 4444SOL     OW24967   2.700   4.553   8.744 -0.3166  0.5019  0.1131
 4444SOL    HW124968   2.649   4.549   8.825  0.4601  2.3944  0.7128
 4444SOL    HW224969   2.690   4.648   8.738 -1.6727  0.4608  1.6872
 4445SOL     OW24970   1.815   4.403   2.401  0.0838  1.3626 -0.1537
 4445SOL    HW124971   1.741   4.441   2.353 -0.2474  0.9332  0.0066
 4445SOL    HW224972   1.881   4.414   2.333 -1.2766 -1.3221 -1.9486
 4446SOL     OW24973   2.742   3.973   2.576 -0.2742 -0.1442  0.1312
 4446SOL    HW124974   2.784   4.041   2.629  0.1951  0.0887 -0.5422
 4446SOL    HW224975   2.818   3.929   2.538  1.5870  1.7488  1.6784
 4447SOL     OW24976   2.693   0.751   4.502 -1.0064  0.4374  0.5834
 4447SOL    HW124977   2.599   0.749   4.521 -1.3538  2.1507 -0.9703
 4447SOL    HW224978   2.705   0.846   4.502  0.4726  0.2362  1.4915
 4448SOL     OW24979   3.815   1.624   3.965  0.0371 -0.6031 -0.3343
 4448SOL    HW124980   3.873   1.596   3.895  1.0294  3.3368 -1.1018
 4448SOL    HW224981   3.864   1.680   4.024 -1.0821  0.3242 -0.2704
 4449SOL     OW24982   3.974   4.455   6.232 -0.2793 -0.3154  0.0370
 4449SOL    HW124983   4.025   4.382   6.268 -0.2377  1.4880  3.6231
 4449SOL    HW224984   3.899   4.446   6.291  0.7479 -0.4504  1.3373
 4450SOL     OW24985   0.837   4.316  16.240  0.3245 -0.4953  0.6849
 4450SOL    HW124986   0.929   4.336  16.259 -0.6274  0.4157  4.2212
 4450SOL    HW224987   0.808   4.267  16.317 -1.5251  1.0830  0.9816
 4451SOL     OW24988   0.778   2.277   3.318  0.3513 -1.1334  0.2649
 4451SOL    HW124989   0.704   2.260   3.377  0.1517 -1.1961 -0.0023
 4451SOL    HW224990   0.800   2.369   3.332 -0.1475 -0.9642 -0.0488
 4452SOL     OW24991   2.195   1.122   0.257  0.1852 -0.1570 -0.4895
 4452SOL    HW124992   2.134   1.052   0.233  0.0528 -0.6474  1.2395
 4452SOL    HW224993   2.256   1.101   0.186  2.2727  0.4076  1.1675
 4453SOL     OW24994   1.879   1.140   4.132  0.2155  0.6940  0.4776
 4453SOL    HW124995   1.897   1.088   4.053 -3.5310  0.9305 -0.5428
 4453SOL    HW224996   1.800   1.107   4.177  0.1978  1.6809  1.1583
 4454SOL     OW24997   0.508   2.335   7.826 -0.1686 -0.6438 -0.5149
 4454SOL    HW124998   0.438   2.376   7.776  0.9092 -2.1919 -3.2580
 4454SOL    HW224999   0.500   2.241   7.808 -1.3874 -0.6805  0.1849
 4455SOL     OW25000   3.773   1.414   2.552 -0.2955 -0.3452 -0.1496
 4455SOL    HW125001   3.751   1.494   2.601  2.5313 -1.7906  3.4877
 4455SOL    HW225002   3.686   1.378   2.540  0.4358 -1.8647 -0.8778
 4456SOL     OW25003   1.052   2.715   9.609 -0.1713  0.1865  0.0319
 4456SOL    HW125004   1.091   2.801   9.594 -0.4892  0.5160  1.1282
 4456SOL    HW225005   0.959   2.737   9.606 -0.6474 -1.9658 -1.6628
 4457SOL     OW25006   3.047   1.948   0.767  0.3618  0.4087  0.0955
 4457SOL    HW125007   2.979   1.910   0.711 -0.0380  0.9835  0.1935
 4457SOL    HW225008   3.071   2.031   0.727  1.3186  0.4504  0.7678
 4458SOL     OW25009   1.072   0.327   2.697  0.0745  1.1236 -0.1553
 4458SOL    HW125010   1.129   0.266   2.743 -1.4584 -1.7670 -2.1236
 4458SOL    HW225011   1.010   0.269   2.653  2.2295 -1.8016  0.7328
 4459SOL     OW25012   2.549   0.417   1.631 -0.4962  0.5065  0.4295
 4459SOL    HW125013   2.485   0.477   1.668 -0.9581  1.8947 -2.6001
 4459SOL    HW225014   2.494   0.338   1.630  2.5220 -1.6041  0.6186
 4460SOL     OW25015   1.551   2.865   2.269 -0.2129  0.1298 -0.1690
 4460SOL    HW125016   1.580   2.818   2.347 -1.4979 -0.2722  0.0725
 4460SOL    HW225017   1.465   2.826   2.258  0.8530 -1.9402 -1.0352
 4461SOL     OW25018   3.914   0.999   7.086  0.5868  0.6670 -0.3008
 4461SOL    HW125019   3.843   1.046   7.130  0.8428  1.0127 -0.2560
 4461SOL    HW225020   3.981   0.987   7.154 -1.2738 -0.7391  1.2991
 4462SOL     OW25021   3.209   4.027   3.212 -0.0967 -0.5143  0.5657
 4462SOL    HW125022   3.255   4.111   3.202 -0.7632 -0.3890 -1.4758
 4462SOL    HW225023   3.123   4.050   3.249 -0.8059 -1.2178 -0.6346
 4463SOL     OW25024   4.668   3.346   1.190  0.0652  0.1084  0.4527
 4463SOL    HW125025   4.670   3.251   1.189  0.6354  0.1193  0.7334
 4463SOL    HW225026   4.621   3.371   1.110 -0.4185 -0.4215  0.5729
 4464SOL     OW25027   0.938   2.822  14.594  0.3129 -0.3657  0.1891
 4464SOL    HW125028   0.972   2.734  14.605  0.8589 -0.2371 -0.5655
 4464SOL    HW225029   1.012   2.881  14.608 -0.0124 -0.0190  0.4906
 4465SOL     OW25030   3.796   2.765  11.967 -0.2434  0.0252  0.0000
 4465SOL    HW125031   3.890   2.774  11.980 -0.3613  0.9884  0.1645
 4465SOL    HW225032   3.771   2.854  11.943 -2.0832 -0.6897 -0.7570
 4466SOL     OW25033   2.165   4.634   4.796  0.0778 -0.4064  1.1008
 4466SOL    HW125034   2.195   4.720   4.823  0.5404 -0.2624  0.1261
 4466SOL    HW225035   2.100   4.619   4.865 -2.3435 -0.6863 -1.2262
 4467SOL     OW25036   0.890   4.512   4.556 -0.8151 -0.0233 -0.0336
 4467SOL    HW125037   0.911   4.519   4.463  0.7399  0.0823  0.3228
 4467SOL    HW225038   0.938   4.589   4.586  1.2916 -1.1385 -0.5156
 4468SOL     OW25039   3.789   2.763   5.354  0.0364  0.2807  0.3048
 4468SOL    HW125040   3.863   2.731   5.405 -0.3454 -0.2252  0.5469
 4468SOL    HW225041   3.733   2.811   5.415  1.8221  1.1875  1.2185
 4469SOL     OW25042   2.593   0.940   8.951 -0.2793  0.2811  0.2918
 4469SOL    HW125043   2.508   0.903   8.926  0.7108 -0.5905 -1.7431
 4469SOL    HW225044   2.653   0.902   8.887 -0.9882  0.9497 -0.7870
 4470SOL     OW25045   4.623   2.650   8.602  0.2756 -0.5421 -0.2687
 4470SOL    HW125046   4.540   2.604   8.613 -0.1098  0.7053  1.9585
 4470SOL    HW225047   4.665   2.619   8.682 -1.6124  2.9907  2.0320
 4471SOL     OW25048   3.489   3.870   6.851  0.5340  0.4963  0.0242
 4471SOL    HW125049   3.479   3.779   6.825  0.8324  0.6241 -0.5349
 4471SOL    HW225050   3.559   3.872   6.916  1.2231 -2.9280 -0.6403
 4472SOL     OW25051   2.989   0.934   9.745  0.0573 -0.1063 -0.3178
 4472SOL    HW125052   2.963   1.014   9.791  1.7476 -0.4362  1.2132
 4472SOL    HW225053   2.900   0.899   9.741  0.5510 -1.5757  1.8122
 4473SOL     OW25054   2.003   3.189   1.851 -0.4906 -0.3837 -0.3428
 4473SOL    HW125055   2.032   3.151   1.768 -0.5279  3.7395 -2.2196
 4473SOL    HW225056   1.950   3.117   1.884  0.3189 -1.1530 -0.7294
 4474SOL     OW25057   3.669   2.993   5.606 -0.1846  0.0420  0.4554
 4474SOL    HW125058   3.692   3.008   5.698  0.9874  4.1930 -0.5487
 4474SOL    HW225059   3.592   2.939   5.624 -0.2362 -0.1238 -0.2388
 4475SOL     OW25060   0.704   3.217   7.963 -0.1298  0.3233 -0.1608
 4475SOL    HW125061   0.663   3.196   8.047  0.7754  1.5814  0.6042
 4475SOL    HW225062   0.795   3.208   7.993 -0.1331  0.0222 -0.2458
 4476SOL     OW25063   3.381   3.222  13.729  0.3900 -0.2164  0.1221
 4476SOL    HW125064   3.345   3.138  13.700  1.8930 -2.0268  3.5511
 4476SOL    HW225065   3.356   3.222  13.821  2.1367  0.6702  0.5920
 4477SOL     OW25066   1.237   0.280   9.445 -0.0052 -0.3190 -0.1658
 4477SOL    HW125067   1.266   0.293   9.535  0.3618  0.0641 -0.3427
 4477SOL    HW225068   1.230   0.363   9.399  1.1843  0.3344  0.8239
 4478SOL     OW25069   0.651   3.247   6.307  0.3606 -0.0375 -0.3399
 4478SOL    HW125070   0.579   3.215   6.362  0.0712  1.2198  0.0075
 4478SOL    HW225071   0.715   3.267   6.375 -2.1093  0.3505  1.8622
 4479SOL     OW25072   3.338   0.771   4.734 -0.4246 -0.5177  0.0548
 4479SOL    HW125073   3.298   0.698   4.687  0.4978 -0.9496 -0.0477
 4479SOL    HW225074   3.327   0.837   4.666  0.2731  0.8288  1.2448
 4480SOL     OW25075   2.413   2.851  13.964  0.1951 -0.0549 -0.1220
 4480SOL    HW125076   2.345   2.830  13.900 -0.4334 -3.1156  1.5543
 4480SOL    HW225077   2.358   2.857  14.042  0.5147 -0.5360  0.1414
 4481SOL     OW25078   0.060   0.050  14.018  0.0604 -0.6046 -0.6793
 4481SOL    HW125079   0.024   0.078  13.934  1.7917  1.3876 -0.7645
 4481SOL    HW225080   4.716   0.043  14.067  1.1794  0.7207  1.3698
 4482SOL     OW25081   0.196   0.786  13.360  0.1233  0.2011 -0.4294
 4482SOL    HW125082   0.126   0.724  13.385  0.0719  0.1244 -0.7601
 4482SOL    HW225083   0.265   0.741  13.311  0.9793  0.8570  0.1852
 4483SOL     OW25084   0.456   1.881  14.884 -0.1040  0.3121  0.3025
 4483SOL    HW125085   0.419   1.959  14.842  3.9945  1.5700 -0.9950
 4483SOL    HW225086   0.447   1.811  14.819  1.3382  0.5191 -0.1167
 4484SOL     OW25087   2.559   1.171   4.938  0.3704 -0.4889  0.0953
 4484SOL    HW125088   2.594   1.208   5.019  0.6846 -0.4479 -0.0562
 4484SOL    HW225089   2.582   1.078   4.946 -2.2133 -1.0926  0.5269
 4485SOL     OW25090   2.460   0.816   5.877  0.9198  0.6294 -0.4434
 4485SOL    HW125091   2.509   0.868   5.814  0.3443  0.2897 -1.1663
 4485SOL    HW225092   2.377   0.829   5.831  0.7708 -2.3100 -1.0280
 4486SOL     OW25093   2.425   0.029   5.954 -0.1142  0.3055 -0.5289
 4486SOL    HW125094   2.447   0.111   5.910 -2.2591  0.9875 -0.3452
 4486SOL    HW225095   2.335   0.051   5.979  0.0185  2.0821 -1.5875
 4487SOL     OW25096   0.769   2.751   4.035 -0.5838  0.1555 -0.1250
 4487SOL    HW125097   0.856   2.772   4.001 -0.8315 -1.3829 -1.7680
 4487SOL    HW225098   0.715   2.762   3.957  0.1783 -0.3382 -0.7325
 4488SOL     OW25099   0.458   3.219  10.567 -0.2289  0.1008 -0.2221
 4488SOL    HW125100   0.438   3.313  10.569  2.5453  0.7048 -0.8913
 4488SOL    HW225101   0.447   3.207  10.472 -1.8974 -0.8431  0.0897
 4489SOL     OW25102   2.066   0.932  16.963 -0.3974  0.2622  0.6638
 4489SOL    HW125103   2.063   1.012  16.911  2.1572 -1.4787 -2.1533
 4489SOL    HW225104   2.153   0.896  16.947 -0.5881 -0.1203  0.4854
 4490SOL     OW25105   3.822   1.111   4.396 -0.7706 -0.6495 -0.2454
 4490SOL    HW125106   3.885   1.097   4.325 -2.3692 -1.5051 -1.4723
 4490SOL    HW225107   3.878   1.076   4.466  0.6163 -0.4336 -1.2358
 4491SOL     OW25108   1.327   1.744   7.123  0.3330  0.4343 -0.9880
 4491SOL    HW125109   1.292   1.822   7.167 -1.8256  0.1001 -2.1133
 4491SOL    HW225110   1.362   1.787   7.046 -0.5242  1.7489 -0.6542
 4492SOL     OW25111   1.161   0.372   1.973 -0.1112 -0.3709 -0.0763
 4492SOL    HW125112   1.167   0.354   2.067  0.9181 -0.9006 -0.2375
 4492SOL    HW225113   1.153   0.467   1.975 -0.6579 -0.4121 -0.1466
 4493SOL     OW25114   0.039   0.286   3.095 -0.0917 -0.0994 -0.8084
 4493SOL    HW125115   0.034   0.378   3.120 -1.1810 -0.7397  1.4012
 4493SOL    HW225116   4.700   0.292   3.037 -2.3299 -2.0251  1.9167
 4494SOL     OW25117   2.511   4.636   1.778 -1.0322 -0.0948 -0.0109
 4494SOL    HW125118   2.430   4.688   1.779 -0.3060  1.0705 -1.0757
 4494SOL    HW225119   2.470   4.551   1.765 -2.1011  0.4491 -0.1866
 4495SOL     OW25120   0.226   3.089   1.368  0.5943 -0.0263  0.3474
 4495SOL    HW125121   0.304   3.074   1.313  0.6347  0.1223  0.3635
 4495SOL    HW225122   0.271   3.141   1.435 -0.6703  0.1713  1.0335
 4496SOL     OW25123   3.835   1.865   9.746  0.0638  0.3715  0.2776
 4496SOL    HW125124   3.833   1.775   9.779 -1.2121 -0.6992 -2.7074
 4496SOL    HW225125   3.745   1.887   9.722  0.9979  1.4459 -2.2121
 4497SOL     OW25126   4.060   1.048   3.085  0.2753 -1.1205  0.2520
 4497SOL    HW125127   4.101   0.962   3.083  0.9831 -0.7732 -0.6399
 4497SOL    HW225128   4.105   1.088   3.010  1.2560 -0.8507  0.9764
 4498SOL     OW25129   3.616   0.438   3.993 -0.1695 -0.7738  0.7507
 4498SOL    HW125130   3.580   0.365   4.045  1.5710 -1.1966  1.3736
 4498SOL    HW225131   3.576   0.517   4.028  0.8633  0.1984 -0.2959
 4499SOL     OW25132   3.481   0.283   6.275  0.0292 -0.0716 -0.2208
 4499SOL    HW125133   3.456   0.337   6.350 -2.5455 -0.9832 -0.4188
 4499SOL    HW225134   3.553   0.235   6.315  0.4494 -0.2435 -1.1876
 4500SOL     OW25135   4.710   0.206  15.703 -0.0910  0.0063  1.2860
 4500SOL    HW125136   4.633   0.229  15.754 -1.0995  0.3158 -0.3894
 4500SOL    HW225137   0.007   0.295  15.692  0.7922 -0.6640 -1.2869
 4501SOL     OW25138   3.139   1.405   1.151 -0.1282  0.0988 -0.0825
 4501SOL    HW125139   3.068   1.469   1.160 -0.7884 -0.7915  0.9258
 4501SOL    HW225140   3.186   1.457   1.085 -1.6993  2.2527  0.4865
 4502SOL     OW25141   0.314   1.451  10.295 -0.6169  0.3210 -0.0409
 4502SOL    HW125142   0.386   1.423  10.351 -1.9899 -2.0690  0.5336
 4502SOL    HW225143   0.273   1.368  10.273  1.9901 -0.4764 -1.8992
 4503SOL     OW25144   2.833   2.424   7.614 -0.1932 -0.3411 -0.4262
 4503SOL    HW125145   2.792   2.351   7.567 -1.1590 -0.1150  0.0689
 4503SOL    HW225146   2.780   2.500   7.590  2.1107  1.3882 -0.0194
 4504SOL     OW25147   0.794   2.775   9.036 -0.6573  0.1981 -0.2295
 4504SOL    HW125148   0.756   2.811   9.116  1.5019 -0.5739  1.1229
 4504SOL    HW225149   0.862   2.731   9.086 -0.0488  0.6710 -0.6442
 4505SOL     OW25150   2.034   2.781   2.076  0.6838  0.1125 -0.2039
 4505SOL    HW125151   1.960   2.733   2.113 -0.6041  1.8923 -0.4983
 4505SOL    HW225152   2.087   2.710   2.039  1.4074  0.1208  0.8130
 4506SOL     OW25153   0.393   4.481   0.861  0.2059  0.5303 -0.0333
 4506SOL    HW125154   0.355   4.555   0.908 -1.0531  0.1651 -0.4903
 4506SOL    HW225155   0.313   4.432   0.844 -0.3921  1.0743  1.2161
 4507SOL     OW25156   3.746   2.319   7.129  0.1854  0.1045 -0.3261
 4507SOL    HW125157   3.721   2.386   7.193 -0.9513  0.3828 -1.0650
 4507SOL    HW225158   3.822   2.275   7.169  1.9788  0.6517 -3.1378
 4508SOL     OW25159   3.790   3.690   8.201  0.0485  0.1595  0.1482
 4508SOL    HW125160   3.819   3.780   8.189  0.1101  0.4975  2.7406
 4508SOL    HW225161   3.764   3.699   8.293  0.4771 -0.1415  0.2987
 4509SOL     OW25162   3.945   1.404  14.632  0.5384  0.1298 -0.2408
 4509SOL    HW125163   4.022   1.402  14.575  1.6637 -1.8967  1.3370
 4509SOL    HW225164   3.884   1.354  14.578  0.2508  1.6664 -1.3369
 4510SOL     OW25165   2.162   1.755   5.073 -0.3018 -0.3045 -0.3095
 4510SOL    HW125166   2.253   1.763   5.044 -0.3924  2.8425  0.2444
 4510SOL    HW225167   2.117   1.839   5.060 -1.1589 -0.6802  0.2344
 4511SOL     OW25168   0.053   3.238   7.321 -0.0968 -0.6398 -0.3579
 4511SOL    HW125169   0.057   3.303   7.251  1.0448  1.1534  1.3966
 4511SOL    HW225170   0.141   3.247   7.359 -0.2986 -1.4654  0.3096
 4512SOL     OW25171   0.950   1.504   6.061 -0.0493  0.1708  0.2137
 4512SOL    HW125172   1.033   1.548   6.079 -0.6359  1.6533 -0.7077
 4512SOL    HW225173   0.981   1.444   5.993 -0.3560  0.2808 -0.0215
 4513SOL     OW25174   3.987   0.097   2.991  1.0037  0.4413  0.3091
 4513SOL    HW125175   4.040   0.157   3.044  0.3627  1.1421  0.1725
 4513SOL    HW225176   3.979   0.023   3.051  0.3646 -0.1140 -0.4745
 4514SOL     OW25177   0.122   2.214   4.397 -0.6270 -0.3564 -0.3513
 4514SOL    HW125178   0.040   2.185   4.438 -0.8496 -1.0456 -1.2930
 4514SOL    HW225179   0.166   2.258   4.469  0.0730  1.7362 -2.0795
 4515SOL     OW25180   0.475   0.690   5.861 -0.6601  0.1706 -0.1074
 4515SOL    HW125181   0.560   0.734   5.864 -0.0562 -0.8341 -2.5693
 4515SOL    HW225182   0.475   0.638   5.941 -1.3514  0.8208  0.3196
 4516SOL     OW25183   3.328   1.709  15.031  0.4013 -0.3486 -0.0851
 4516SOL    HW125184   3.256   1.678  15.086  0.6292 -1.0647 -0.2005
 4516SOL    HW225185   3.365   1.627  15.000  0.0432 -0.6778  0.3762
 4517SOL     OW25186   0.446   3.032   0.325  0.4813  0.6304  0.3189
 4517SOL    HW125187   0.524   3.049   0.380 -0.5466 -0.9648  2.2895
 4517SOL    HW225188   0.445   3.115   0.277 -0.2568  0.5817  0.2637
 4518SOL     OW25189   4.212   3.716   6.494 -0.0691 -0.5441  0.0153
 4518SOL    HW125190   4.131   3.767   6.501 -0.1911 -0.7632  0.2350
 4518SOL    HW225191   4.194   3.663   6.572  0.6433 -2.3087 -1.0231
 4519SOL     OW25192   1.364   4.090   5.792 -0.4831  0.6913  0.6529
 4519SOL    HW125193   1.340   4.034   5.865  1.0426 -0.5630  0.2019
 4519SOL    HW225194   1.429   4.031   5.753 -2.7214 -1.6550  0.4631
 4520SOL     OW25195   1.849   4.441   4.391  0.3710  0.0294  0.4604
 4520SOL    HW125196   1.909   4.395   4.450  1.0908  0.2919 -0.0580
 4520SOL    HW225197   1.803   4.501   4.449  0.4746  0.7474 -0.1971
 4521SOL     OW25198   1.527   3.121   6.059 -0.6417  0.3460  0.1036
 4521SOL    HW125199   1.460   3.161   6.115  0.9375  1.5590  1.1406
 4521SOL    HW225200   1.474   3.098   5.982  1.4867 -0.5165 -1.0883
 4522SOL     OW25201   0.560   3.319   5.262  0.2647  0.3006 -0.9334
 4522SOL    HW125202   0.555   3.394   5.321 -2.4774 -0.1740 -0.5391
 4522SOL    HW225203   0.620   3.262   5.310  0.7389  0.1635 -1.6945
 4523SOL     OW25204   0.759   2.974  10.257 -0.0957  0.3213 -0.2219
 4523SOL    HW125205   0.843   3.009  10.286 -0.3462 -1.1127  2.1609
 4523SOL    HW225206   0.724   2.951  10.343 -2.9005 -0.1029 -1.4554
 4524SOL     OW25207   1.694   4.341   3.940 -0.0615 -0.0061 -0.4877
 4524SOL    HW125208   1.656   4.424   3.914  0.1626  0.3452  0.3060
 4524SOL    HW225209   1.678   4.340   4.035  1.2820  0.7345 -0.2565
 4525SOL     OW25210   1.251   3.937   3.739  0.0155  0.1552 -0.2700
 4525SOL    HW125211   1.235   3.844   3.723  0.4933  0.2171 -1.0992
 4525SOL    HW225212   1.267   3.961   3.647  1.9938 -2.0640 -0.4890
 4526SOL     OW25213   2.130   0.494   6.583  0.3925  0.3219  0.1485
 4526SOL    HW125214   2.116   0.582   6.618 -2.5179 -0.5124  1.1130
 4526SOL    HW225215   2.040   0.465   6.566  0.3656 -0.0561  0.9520
 4527SOL     OW25216   2.911   2.547   6.658  0.1452 -0.3722  0.1350
 4527SOL    HW125217   2.829   2.518   6.698  0.0723 -2.1547 -1.2641
 4527SOL    HW225218   2.917   2.629   6.707 -1.0971  0.6660 -1.4529
 4528SOL     OW25219   2.143   2.145   5.794  0.2822  0.6526  0.2475
 4528SOL    HW125220   2.099   2.060   5.793  1.4377  0.1026 -2.0008
 4528SOL    HW225221   2.075   2.199   5.752 -0.3307 -0.8257 -0.6389
 4529SOL     OW25222   3.184   4.608   2.773  0.2730 -0.4751 -0.3043
 4529SOL    HW125223   3.201   4.514   2.762 -1.6336 -0.7839 -0.5577
 4529SOL    HW225224   3.211   4.651   2.692 -0.9842  0.5221 -0.1868
 4530SOL     OW25225   4.642   1.372   8.494 -0.2953  0.6809 -0.6120
 4530SOL    HW125226   4.628   1.365   8.400  0.6384  1.9722 -0.8465
 4530SOL    HW225227   4.563   1.341   8.538  1.4327 -1.3322  1.0750
 4531SOL     OW25228   0.483   3.047  11.032  0.1378  0.4453 -0.1729
 4531SOL    HW125229   0.518   3.055  10.944  1.6968 -2.6618  0.1842
 4531SOL    HW225230   0.458   3.135  11.061 -0.5880 -0.5172  2.2064
 4532SOL     OW25231   2.136   1.395   0.175 -0.5054 -0.1779 -0.4409
 4532SOL    HW125232   2.043   1.371   0.172 -0.3663 -0.9311  1.6546
 4532SOL    HW225233   2.162   1.320   0.229  1.6102 -2.2800 -4.3615
 4533SOL     OW25234   0.475   3.607   5.380  0.1283 -0.0685  0.1066
 4533SOL    HW125235   0.435   3.659   5.450 -0.6089  0.7036 -0.8980
 4533SOL    HW225236   0.547   3.663   5.352  0.2746 -0.6964 -0.7579
 4534SOL     OW25237   2.083   0.047   3.890 -0.1620 -0.3070 -0.8153
 4534SOL    HW125238   2.112   4.695   3.907  1.1079  0.1750 -0.4925
 4534SOL    HW225239   2.168   0.089   3.877 -0.7201  0.6202 -1.4881
 4535SOL     OW25240   1.340   2.135  14.083 -0.1327 -0.3956  0.4279
 4535SOL    HW125241   1.299   2.048  14.076  1.7702 -1.1685 -1.1267
 4535SOL    HW225242   1.432   2.115  14.101  0.7910  1.5189 -2.2599
 4536SOL     OW25243   2.160   4.563   2.733 -0.4513 -0.2750  0.2534
 4536SOL    HW125244   2.122   4.476   2.743 -1.6640  0.1555 -0.5497
 4536SOL    HW225245   2.117   4.580   2.649 -1.6150  1.8866  1.2844
 4537SOL     OW25246   2.311   0.333  14.510  0.3445 -0.1888 -0.2300
 4537SOL    HW125247   2.373   0.305  14.578 -0.1927 -2.4812 -0.7008
 4537SOL    HW225248   2.340   0.274  14.441 -1.1621 -1.0439 -0.1156
 4538SOL     OW25249   0.313   3.778  13.233 -0.8540 -0.0619 -0.4233
 4538SOL    HW125250   0.367   3.704  13.205 -2.7926 -2.4690  2.1675
 4538SOL    HW225251   0.240   3.738  13.279  0.2794 -1.3895  0.2280
 4539SOL     OW25252   0.919   2.495   3.833 -0.0818  0.4821 -0.7195
 4539SOL    HW125253   1.013   2.499   3.850  0.0249  0.4932 -1.3083
 4539SOL    HW225254   0.890   2.579   3.870 -0.3294  0.7697 -1.5679
 4540SOL     OW25255   0.311   1.852   8.487 -0.0469  0.4842 -0.0658
 4540SOL    HW125256   0.291   1.826   8.397 -2.5676  0.0518  0.6215
 4540SOL    HW225257   0.266   1.936   8.487  0.8183  0.9428  0.2154
 4541SOL     OW25258   0.100   2.752   9.975  0.2546  0.0730 -0.0665
 4541SOL    HW125259   0.041   2.802   9.918 -0.8222 -1.1985 -0.0456
 4541SOL    HW225260   0.184   2.773   9.934  0.6525 -1.3175  0.0400
 4542SOL     OW25261   4.672   1.233   8.863  0.2949 -0.3913  0.2023
 4542SOL    HW125262   4.655   1.250   8.771  1.3447 -0.7654 -0.0493
 4542SOL    HW225263   4.660   1.324   8.890  1.3734 -0.2070  0.0616
 4543SOL     OW25264   4.275   4.243   6.925 -0.0790  1.0610  0.5802
 4543SOL    HW125265   4.275   4.274   7.015 -1.7054  1.9683  0.2635
 4543SOL    HW225266   4.227   4.162   6.938  1.4457  0.2389  1.1007
 4544SOL     OW25267   1.246   4.134   7.897 -0.5304  0.2573 -0.4324
 4544SOL    HW125268   1.252   4.122   7.992  1.1495  0.5296 -0.5010
 4544SOL    HW225269   1.284   4.221   7.882 -1.8528  0.7338 -0.9749
 4545SOL     OW25270   0.768   1.038   8.160 -0.0731 -0.0964  0.8407
 4545SOL    HW125271   0.704   1.087   8.212 -2.3031 -1.3634 -0.7317
 4545SOL    HW225272   0.852   1.076   8.186 -1.0637  2.8743 -0.3898
 4546SOL     OW25273   0.753   0.595  15.503  0.6887 -0.0238 -0.2924
 4546SOL    HW125274   0.705   0.519  15.537  2.9275 -0.5355  1.7603
 4546SOL    HW225275   0.787   0.553  15.424 -1.2514 -0.1363 -1.0686
 4547SOL     OW25276   3.037   0.168  11.261 -0.0110 -0.4962  0.4945
 4547SOL    HW125277   2.962   0.180  11.319 -1.5173 -1.3428 -1.2813
 4547SOL    HW225278   3.105   0.197  11.321 -0.5354  3.5899 -0.8901
 4548SOL     OW25279   3.006   1.082   9.308 -0.2948 -0.9144 -0.2238
 4548SOL    HW125280   3.028   1.024   9.381 -2.0240 -0.0861  0.9654
 4548SOL    HW225281   2.940   1.139   9.348  0.6141 -0.0036  0.0020
 4549SOL     OW25282   4.611   3.420   9.542  0.2802 -0.0779  0.0784
 4549SOL    HW125283   4.573   3.424   9.630 -1.6355 -0.2695 -0.7542
 4549SOL    HW225284   4.529   3.407   9.495  1.7084 -0.0920 -2.3907
 4550SOL     OW25285   2.102   2.361   6.942  0.1558 -0.6444 -0.3655
 4550SOL    HW125286   2.006   2.366   6.939  0.0280 -2.2875  1.1981
 4550SOL    HW225287   2.124   2.273   6.971  0.3117 -0.1484  1.0402
 4551SOL     OW25288   3.119   4.052   8.420 -0.0509  0.3299  0.2489
 4551SOL    HW125289   3.137   4.138   8.458 -0.1224 -0.0790  1.2172
 4551SOL    HW225290   3.102   4.000   8.498 -1.2863  0.0879 -0.1831
 4552SOL     OW25291   2.369   4.452   6.974  0.4901  0.2169 -0.5165
 4552SOL    HW125292   2.330   4.372   7.009 -0.4069 -0.2642 -2.6648
 4552SOL    HW225293   2.462   4.430   6.979  0.8731  1.7638 -0.7339
 4553SOL     OW25294   2.100   4.231   5.440  0.5751  0.3269 -0.4092
 4553SOL    HW125295   2.194   4.212   5.438  0.2300 -1.2615 -1.6507
 4553SOL    HW225296   2.064   4.156   5.393 -2.1343  0.1399  1.9074
 4554SOL     OW25297   1.325   2.017  10.861 -0.8357  0.4364  0.1772
 4554SOL    HW125298   1.392   1.996  10.925  1.6511 -1.0004 -2.8744
 4554SOL    HW225299   1.249   2.046  10.911 -0.5122 -0.1108  0.9835
 4555SOL     OW25300   0.821   0.941  16.707 -0.8384 -0.0804 -0.1546
 4555SOL    HW125301   0.823   0.935  16.803 -0.6821  0.0871 -0.1482
 4555SOL    HW225302   0.894   0.887  16.676  0.1487  2.1378 -1.6620
 4556SOL     OW25303   1.150   2.739   5.692 -0.0687  0.5496  0.1882
 4556SOL    HW125304   1.088   2.766   5.759 -1.4349 -1.9488 -0.0734
 4556SOL    HW225305   1.126   2.647   5.700 -0.3583  0.4602 -1.7067
 4557SOL     OW25306   2.327   0.555   8.038 -0.1073 -0.1098 -0.7180
 4557SOL    HW125307   2.402   0.499   8.058 -1.7385 -2.7985 -2.1110
 4557SOL    HW225308   2.372   0.640   8.041  0.5342 -0.3494 -2.8838
 4558SOL     OW25309   4.497   0.754   1.158  0.2638  0.6701 -0.3445
 4558SOL    HW125310   4.474   0.842   1.130 -0.7632  0.3577 -0.4690
 4558SOL    HW225311   4.495   0.704   1.076 -0.9129 -0.0429  0.1284
 4559SOL     OW25312   3.558   4.236  13.428 -0.5766 -0.3260 -0.5564
 4559SOL    HW125313   3.558   4.154  13.477 -0.8666  0.7712  1.2771
 4559SOL    HW225314   3.463   4.235  13.417 -0.6637  0.6513  0.1569
 4560SOL     OW25315   1.832   0.361  14.564 -0.2200  0.1763  0.2265
 4560SOL    HW125316   1.828   0.425  14.635  0.4537  1.1891 -0.6314
 4560SOL    HW225317   1.916   0.320  14.587 -0.1316 -0.0423 -0.4666
 4561SOL     OW25318   3.414   4.735   5.550 -0.1814 -0.0599 -0.8239
 4561SOL    HW125319   3.351   0.066   5.528  1.0190  1.4056  0.3013
 4561SOL    HW225320   3.460   0.004   5.466  1.1289  0.9516 -0.0368
 4562SOL     OW25321   0.378   3.639   2.894  0.1283 -0.3770 -0.1389
 4562SOL    HW125322   0.401   3.609   2.982  0.2759  3.5282  1.1277
 4562SOL    HW225323   0.392   3.563   2.837 -0.4174 -0.3920 -0.2493
 4563SOL     OW25324   2.976   1.307   7.847  0.0180  0.3208  0.2440
 4563SOL    HW125325   3.044   1.337   7.786 -2.6843  3.8265 -1.0406
 4563SOL    HW225326   3.030   1.289   7.924 -0.4789 -1.8252  0.0788
 4564SOL     OW25327   1.948   0.640   6.758  0.4819 -0.0488  0.4224
 4564SOL    HW125328   1.881   0.575   6.738  0.1464  0.2753  0.4832
 4564SOL    HW225329   1.931   0.650   6.851  0.9261  2.1928  0.2694
 4565SOL     OW25330   1.042   4.442  15.905 -0.0449 -0.0656  0.2995
 4565SOL    HW125331   1.109   4.411  15.966  1.4893 -1.8280 -2.2904
 4565SOL    HW225332   0.960   4.430  15.952 -0.8636 -1.2980 -1.4140
 4566SOL     OW25333   2.609   2.070   6.809  0.0425  0.4352 -0.7247
 4566SOL    HW125334   2.606   1.982   6.772  1.1436  0.0552  0.0988
 4566SOL    HW225335   2.588   2.055   6.901  0.3806 -0.3188 -0.7710
 4567SOL     OW25336   2.986   2.758   3.239  0.0128  0.3818  0.1094
 4567SOL    HW125337   2.894   2.771   3.263  0.5670  0.2801  2.2935
 4567SOL    HW225338   2.992   2.691   3.172 -2.5573  2.5863 -2.3439
 4568SOL     OW25339   2.476   4.432   8.628 -0.1577  0.4699  0.4445
 4568SOL    HW125340   2.481   4.374   8.553  2.1100  0.3585  0.6776
 4568SOL    HW225341   2.563   4.471   8.639 -0.7578  1.8597  0.2311
 4569SOL     OW25342   2.924   3.683   5.884  0.0187  0.3734 -0.2514
 4569SOL    HW125343   2.854   3.648   5.829  1.6371  0.6758 -2.4703
 4569SOL    HW225344   2.887   3.721   5.964 -0.3589 -1.7169  0.5742
 4570SOL     OW25345   2.084   1.883   0.134  0.2395 -0.2903  0.4343
 4570SOL    HW125346   2.099   1.847   0.046 -0.1683  2.3271 -0.7135
 4570SOL    HW225347   2.046   1.806   0.175 -2.3966  0.5642 -0.4291
 4571SOL     OW25348   3.278   4.218  13.411  0.2192  0.4548  0.3443
 4571SOL    HW125349   3.234   4.302  13.422  0.5538  0.9979 -2.4177
 4571SOL    HW225350   3.218   4.164  13.462  0.2094  0.1757  0.0381
 4572SOL     OW25351   2.340   1.783   9.229  0.0819  0.0734  0.6996
 4572SOL    HW125352   2.386   1.716   9.178 -0.2996  1.6736 -1.6912
 4572SOL    HW225353   2.279   1.737   9.288 -1.3832  0.8595 -0.2006
 4573SOL     OW25354   3.501   0.842   2.217  0.0149 -0.0644 -0.5093
 4573SOL    HW125355   3.533   0.858   2.306 -2.0911 -2.5233  0.7000
 4573SOL    HW225356   3.537   0.755   2.198  1.1575  0.1221  0.7650
 4574SOL     OW25357   0.514   0.192   9.262  0.1897  0.0975 -0.0144
 4574SOL    HW125358   0.573   0.150   9.200  0.1693  0.8004 -0.5157
 4574SOL    HW225359   0.554   0.154   9.340 -3.0006 -2.3330  0.4481
 4575SOL     OW25360   3.360   0.928   5.431 -0.0688  0.2018  0.4186
 4575SOL    HW125361   3.446   0.891   5.450  1.3074  2.0233 -2.2414
 4575SOL    HW225362   3.380   1.005   5.376 -0.7263  0.7658  0.9779
 4576SOL     OW25363   0.147   4.471   3.210  0.0189  0.2388 -0.2266
 4576SOL    HW125364   0.064   4.517   3.225  1.6152  3.0490  0.0021
 4576SOL    HW225365   0.149   4.423   3.292 -0.8403 -1.2746 -1.0721
 4577SOL     OW25366   1.966   0.763   2.849  0.3906  0.5489 -0.2472
 4577SOL    HW125367   2.024   0.689   2.862 -2.2763 -1.6941 -1.0204
 4577SOL    HW225368   2.026   0.828   2.813  0.7692 -0.2338 -1.0035
 4578SOL     OW25369   1.447   2.057   0.385 -0.2922 -0.1223 -0.1125
 4578SOL    HW125370   1.441   2.143   0.343 -1.6023  0.4654  1.2878
 4578SOL    HW225371   1.487   2.074   0.470  2.8520  0.3342 -1.6845
 4579SOL     OW25372   3.669   0.381   5.707  0.4045 -0.1562  0.3054
 4579SOL    HW125373   3.604   0.315   5.731 -1.4141  1.4060 -0.4140
 4579SOL    HW225374   3.623   0.428   5.638 -0.1889 -0.9664  0.1417
 4580SOL     OW25375   4.128   3.126   7.539  0.0921 -0.3629  0.4976
 4580SOL    HW125376   4.150   3.070   7.613 -1.8632 -0.4057  1.0534
 4580SOL    HW225377   4.212   3.173   7.536  0.1504 -0.4515  0.7769
 4581SOL     OW25378   3.648   4.140   1.941  0.6085 -0.0356 -0.0281
 4581SOL    HW125379   3.726   4.091   1.914 -0.7615 -1.6937 -0.9070
 4581SOL    HW225380   3.590   4.073   1.977 -0.6383 -0.3089 -2.5432
 4582SOL     OW25381   4.356   4.388   7.747 -0.4261 -0.1258  0.6705
 4582SOL    HW125382   4.320   4.310   7.706  1.4745  0.1117 -1.4661
 4582SOL    HW225383   4.399   4.350   7.824  0.0688 -1.1640 -0.1181
 4583SOL     OW25384   2.512   0.865   4.909  0.2249  0.0065  0.2383
 4583SOL    HW125385   2.450   0.806   4.952  1.5426 -1.9811 -0.6202
 4583SOL    HW225386   2.591   0.812   4.910  0.4610  0.4059  2.8652
 4584SOL     OW25387   3.906   0.051   2.155  0.7530  0.0188  0.0943
 4584SOL    HW125388   3.831   0.104   2.130 -0.5878 -0.3462  3.3270
 4584SOL    HW225389   3.861   4.734   2.219 -0.0719  0.8769  0.2424
 4585SOL     OW25390   4.450   0.346  12.423  0.2905 -0.1433 -0.3456
 4585SOL    HW125391   4.515   0.390  12.369  2.2948 -2.2245  0.3701
 4585SOL    HW225392   4.507   0.301  12.485 -0.2897  0.5493  0.6781
 4586SOL     OW25393   0.842   3.571   8.047  0.3764 -0.1938  0.3773
 4586SOL    HW125394   0.879   3.586   7.960  2.6971 -1.4929  1.1360
 4586SOL    HW225395   0.841   3.663   8.072  2.4182 -0.2517  0.7018
 4587SOL     OW25396   4.514   0.887  17.046 -0.7460 -0.1229 -0.1157
 4587SOL    HW125397   4.473   0.962  17.003 -2.4100 -0.8867  0.1728
 4587SOL    HW225398   4.433   0.840  17.062 -2.6834  2.0174 -3.5971
 4588SOL     OW25399   4.212   2.267  15.458 -0.5299  0.7660 -0.5128
 4588SOL    HW125400   4.297   2.310  15.456 -0.3678  0.5314  1.0327
 4588SOL    HW225401   4.228   2.176  15.485 -0.2631 -0.0949 -3.6174
 4589SOL     OW25402   2.140   2.597   1.168  0.0038  0.4798  0.5180
 4589SOL    HW125403   2.166   2.622   1.079 -0.9383 -0.7882 -0.1184
 4589SOL    HW225404   2.142   2.680   1.216  0.2901 -1.0197  3.0410
 4590SOL     OW25405   1.499   2.050   7.739  0.1149 -0.5470  0.0319
 4590SOL    HW125406   1.436   2.073   7.808  0.5939  0.6875  0.0533
 4590SOL    HW225407   1.579   2.096   7.765 -0.8050  1.0291  0.0815
 4591SOL     OW25408   1.940   0.197   6.304  0.7090  0.7353  0.0125
 4591SOL    HW125409   1.948   0.132   6.375 -0.3662  0.8421  0.2225
 4591SOL    HW225410   1.943   0.283   6.347  3.2780 -0.0086  1.3718
 4592SOL     OW25411   2.672   4.587   7.333 -0.4300  0.1901  0.3489
 4592SOL    HW125412   2.583   4.553   7.341 -0.5156  0.0684 -1.1437
 4592SOL    HW225413   2.653   4.680   7.321 -1.4202 -0.3892 -2.4388
 4593SOL     OW25414   3.463   4.198   9.153  0.0126  1.0320  0.2859
 4593SOL    HW125415   3.539   4.252   9.175  1.8681 -2.0482  1.5141
 4593SOL    HW225416   3.429   4.242   9.075  1.3200 -1.6333 -1.8079
 4594SOL     OW25417   4.583   3.640   4.410 -0.5557 -0.0891 -0.1689
 4594SOL    HW125418   4.653   3.649   4.474 -0.6907  0.8797 -0.1636
 4594SOL    HW225419   4.513   3.681   4.460 -1.2059 -0.3740 -0.8427
 4595SOL     OW25420   2.609   0.009  14.600 -0.1037  0.0674  0.0175
 4595SOL    HW125421   2.567   4.668  14.565 -0.2815  0.9242 -1.7249
 4595SOL    HW225422   2.614   0.058  14.517  2.8062  0.1976  0.3009
 4596SOL     OW25423   1.734   0.544   8.678 -0.3001  0.1202 -0.0463
 4596SOL    HW125424   1.683   0.567   8.600 -1.4662  0.1137  0.7021
 4596SOL    HW225425   1.701   0.611   8.739 -0.6444 -0.6843  0.6522
 4597SOL     OW25426   4.314   3.859  12.159  0.6426 -0.1972 -0.3049
 4597SOL    HW125427   4.220   3.845  12.154  0.4325  1.1286 -0.1152
 4597SOL    HW225428   4.327   3.950  12.186  1.6246 -0.2536 -0.5893
 4598SOL     OW25429   0.670   0.358   4.426  0.0912 -0.2447  0.2436
 4598SOL    HW125430   0.715   0.438   4.454  2.1743 -1.9917  1.9281
 4598SOL    HW225431   0.690   0.361   4.333 -3.1007  2.2351 -0.3716
 4599SOL     OW25432   0.759   1.210   6.009  0.5044 -0.6434 -0.3530
 4599SOL    HW125433   0.798   1.271   5.946  0.0278  1.1345  1.0894
 4599SOL    HW225434   0.837   1.180   6.055  1.0586  1.8880  0.3636
 4600SOL     OW25435   4.358   0.235   6.072 -1.1009  0.2259 -0.2167
 4600SOL    HW125436   4.313   0.182   6.007  0.6330 -3.5319  1.6933
 4600SOL    HW225437   4.439   0.186   6.071 -1.8542 -1.0366  1.1658
 4601SOL     OW25438   0.062   2.269   8.278 -0.5591 -0.2748  0.3223
 4601SOL    HW125439   4.708   2.276   8.305 -0.7125  0.8960 -0.4962
 4601SOL    HW225440   0.080   2.337   8.214  1.7097 -1.4451 -0.2965
 4602SOL     OW25441   1.844   1.832  16.850 -0.1231 -0.2580  0.2106
 4602SOL    HW125442   1.753   1.834  16.820 -0.3507 -2.7200  0.7195
 4602SOL    HW225443   1.840   1.915  16.897 -1.1439 -0.3187  0.2292
 4603SOL     OW25444   3.054   2.362   5.041  0.3310 -0.3900 -0.3260
 4603SOL    HW125445   3.006   2.430   4.993  1.1553 -1.1982 -2.3109
 4603SOL    HW225446   3.142   2.396   5.055  0.5344 -1.2402  0.4787
 4604SOL     OW25447   1.812   0.730   1.533 -0.2345  0.0848 -0.2930
 4604SOL    HW125448   1.764   0.813   1.532  0.8424  0.7076  0.2943
 4604SOL    HW225449   1.777   0.682   1.458 -1.6542 -0.5096  0.7586
 4605SOL     OW25450   2.672   1.661   7.286 -0.5517  0.3279 -0.1156
 4605SOL    HW125451   2.733   1.708   7.343  0.2245 -1.1601  0.2943
 4605SOL    HW225452   2.633   1.726   7.228  0.9167 -0.8550 -2.4207
 4606SOL     OW25453   1.264   0.572   9.363  0.4362  0.1834 -0.7032
 4606SOL    HW125454   1.302   0.526   9.288  0.7914 -0.5500 -0.0728
 4606SOL    HW225455   1.176   0.586   9.327  1.2882  0.0192 -2.8209
 4607SOL     OW25456   0.431   3.189   4.277 -0.2821 -0.0194 -0.5861
 4607SOL    HW125457   0.507   3.247   4.269 -0.7719  0.3231 -2.9223
 4607SOL    HW225458   0.431   3.166   4.370  0.9106  0.1973 -0.5328
 4608SOL     OW25459   4.625   2.107   4.553 -0.0920 -0.1761  0.3479
 4608SOL    HW125460   4.666   2.060   4.625 -0.6374  1.3731  1.6616
 4608SOL    HW225461   4.586   2.036   4.502 -0.1585  1.1976 -1.5375
 4609SOL     OW25462   1.114   0.896   6.190 -0.1575  0.5515 -0.1332
 4609SOL    HW125463   1.063   0.879   6.111  0.1985 -2.1066  0.2202
 4609SOL    HW225464   1.086   0.985   6.210 -1.5669  0.2050 -0.5749
 4610SOL     OW25465   1.090   0.551   7.896  0.6743 -0.1336 -0.0135
 4610SOL    HW125466   1.147   0.583   7.965 -0.3890 -0.3008  0.9361
 4610SOL    HW225467   1.153   0.499   7.846  1.3636  0.5589  0.1435
 4611SOL     OW25468   0.926   4.260   7.513  0.0327  0.1865 -0.0132
 4611SOL    HW125469   0.934   4.236   7.421  0.3261  0.7787 -0.1421
 4611SOL    HW225470   0.962   4.180   7.551  0.1847  0.1806 -0.1716
 4612SOL     OW25471   2.216   2.840   3.886 -0.1152 -0.5915 -0.3276
 4612SOL    HW125472   2.193   2.863   3.796  1.1419  0.3859 -0.3999
 4612SOL    HW225473   2.254   2.922   3.917 -0.3239  0.5815 -3.1745
 4613SOL     OW25474   3.425   0.106   7.468 -0.0916 -0.0611  0.0470
 4613SOL    HW125475   3.468   0.158   7.535  0.9577  0.4386 -0.9958
 4613SOL    HW225476   3.498   0.062   7.423 -0.1284 -0.2964  0.2182
 4614SOL     OW25477   3.618   1.929   2.238  0.1149  0.9311 -0.0612
 4614SOL    HW125478   3.671   1.861   2.278  0.8560  1.2108 -0.5564
 4614SOL    HW225479   3.666   2.011   2.232  1.2850  0.1182 -1.8410
 4615SOL     OW25480   4.693   3.799   5.693 -0.0389  0.0478  0.4282
 4615SOL    HW125481   4.630   3.735   5.724  0.2432 -0.9754 -1.1135
 4615SOL    HW225482   4.726   3.752   5.617  1.9615  1.0460  0.6619
 4616SOL     OW25483   4.302   2.829   7.317  0.7891  0.2101 -0.2443
 4616SOL    HW125484   4.298   2.913   7.271  0.1495  0.4202  0.1826
 4616SOL    HW225485   4.386   2.830   7.364  0.2391 -0.0280  0.7565
 4617SOL     OW25486   3.274   3.555   2.452 -0.3321  0.0930 -0.1622
 4617SOL    HW125487   3.333   3.482   2.465 -0.3496  0.0202 -0.4791
 4617SOL    HW225488   3.194   3.502   2.445  1.1907 -2.2987  0.9078
 4618SOL     OW25489   0.513   4.223   5.091 -0.8103 -0.7034 -0.4162
 4618SOL    HW125490   0.448   4.218   5.161  1.9649  1.6323  2.3648
 4618SOL    HW225491   0.449   4.202   5.023 -0.6288  0.8848 -1.0808
 4619SOL     OW25492   3.206   1.031   8.814 -0.4567 -0.3315 -0.6340
 4619SOL    HW125493   3.246   1.118   8.820  0.0003 -0.3950 -2.7400
 4619SOL    HW225494   3.278   0.972   8.835  1.5868  2.6565  0.8793
 4620SOL     OW25495   0.121   3.618   2.164 -0.2602  0.1663  0.5974
 4620SOL    HW125496   0.089   3.566   2.238 -1.5762  1.0661  0.6701
 4620SOL    HW225497   0.145   3.698   2.212  2.5163  1.0625 -2.3187
 4621SOL     OW25498   3.998   0.802   3.538  0.2329 -0.3220 -0.4101
 4621SOL    HW125499   3.942   0.749   3.594  0.9603  0.3906  0.9692
 4621SOL    HW225500   4.011   0.883   3.587 -2.0244  0.7344 -1.5843
 4622SOL     OW25501   4.467   2.852   6.263 -0.2584  0.4801  0.1001
 4622SOL    HW125502   4.476   2.900   6.345  1.4412 -0.5034  0.4749
 4622SOL    HW225503   4.546   2.869   6.212  0.9732 -0.3027  1.7607
 4623SOL     OW25504   0.212   4.553  10.554 -0.0710  0.0300  0.8442
 4623SOL    HW125505   0.118   4.570  10.564 -0.7651 -1.6820 -3.0039
 4623SOL    HW225506   0.216   4.559  10.459  0.3261  3.3154  1.0689
 4624SOL     OW25507   0.776   1.484  16.931  0.4660  0.4077 -0.4588
 4624SOL    HW125508   0.696   1.498  16.981  1.0197  1.0455  0.2460
 4624SOL    HW225509   0.804   1.572  16.904  0.6218 -0.3405 -2.7396
 4625SOL     OW25510   0.988   0.806   6.780 -0.4277 -0.4264 -0.3078
 4625SOL    HW125511   0.995   0.737   6.846  0.5948  0.4964  0.5676
 4625SOL    HW225512   0.983   0.886   6.833  1.4402  0.8630 -2.0613
 4626SOL     OW25513   0.554   0.862   8.467 -0.1747 -0.4381 -0.2892
 4626SOL    HW125514   0.493   0.931   8.493  1.2383  1.7235 -2.7811
 4626SOL    HW225515   0.609   0.914   8.408 -0.2391 -0.1507 -0.0970
 4627SOL     OW25516   2.051   3.242   3.558  1.0245  0.8891  0.3299
 4627SOL    HW125517   2.018   3.217   3.471 -1.9789  1.4625  1.3191
 4627SOL    HW225518   1.990   3.311   3.583  0.0252  0.4455 -0.8664
 4628SOL     OW25519   0.473   2.999   8.798  0.2655  0.3576 -0.0789
 4628SOL    HW125520   0.481   3.074   8.857 -0.2123  0.4566 -0.1454
 4628SOL    HW225521   0.413   2.942   8.846 -1.9588 -0.8936 -4.3517
 4629SOL     OW25522   4.042   2.268   0.089 -0.0578 -0.0246  0.0174
 4629SOL    HW125523   4.073   2.179   0.071  0.4985  0.1857 -0.0667
 4629SOL    HW225524   3.955   2.247   0.123 -0.2834 -0.2662 -0.7147
 4630SOL     OW25525   3.373   2.915   5.936 -0.2979 -0.0722  0.1615
 4630SOL    HW125526   3.325   2.839   5.969 -0.8782 -0.8215 -2.3897
 4630SOL    HW225527   3.304   2.979   5.955 -3.1627 -2.9695 -0.2759
 4631SOL     OW25528   3.233   0.655   5.460  0.6617 -0.1799 -0.1707
 4631SOL    HW125529   3.245   0.741   5.421 -2.1203 -0.8064 -2.4768
 4631SOL    HW225530   3.278   0.589   5.407 -0.9045 -1.9294  0.6652
 4632SOL     OW25531   4.540   3.340   6.931 -0.4133 -0.0747  0.0106
 4632SOL    HW125532   4.560   3.249   6.907  2.4145  0.2575  1.1679
 4632SOL    HW225533   4.480   3.368   6.861  0.2555 -0.2184 -0.6181
 4633SOL     OW25534   2.674   2.642   7.626 -0.1331  0.4850  0.6709
 4633SOL    HW125535   2.678   2.725   7.578  5.1680 -0.6073 -0.7431
 4633SOL    HW225536   2.583   2.642   7.655  0.1033  1.0910  1.4266
 4634SOL     OW25537   3.451   0.598   5.137 -0.4005  0.2587  0.0805
 4634SOL    HW125538   3.374   0.621   5.085 -1.4900 -1.6810  0.8297
 4634SOL    HW225539   3.520   0.625   5.076  0.3897 -0.9687  0.4232
 4635SOL     OW25540   0.431   0.729   1.536  0.0635  0.5392 -0.1533
 4635SOL    HW125541   0.488   0.652   1.531  0.8087  0.9006  3.1658
 4635SOL    HW225542   0.347   0.684   1.522  0.1513  0.0452  0.9467
 4636SOL     OW25543   3.320   1.297   2.864 -0.0943 -0.5328  0.4092
 4636SOL    HW125544   3.318   1.223   2.803 -0.5313  1.4213 -1.9655
 4636SOL    HW225545   3.400   1.289   2.916  0.5684 -2.9261 -0.9905
 4637SOL     OW25546   1.375   0.919   9.195  0.2468 -0.3025  0.1583
 4637SOL    HW125547   1.468   0.921   9.172  0.0234  0.6373 -0.6358
 4637SOL    HW225548   1.361   0.826   9.176  1.3292 -0.6699  1.1407
 4638SOL     OW25549   2.216   0.499   9.862 -0.0151 -0.5575  0.0892
 4638SOL    HW125550   2.212   0.550   9.943 -1.3189  0.6901 -0.7847
 4638SOL    HW225551   2.184   0.419   9.905 -1.0786 -0.4797 -0.5665
 4639SOL     OW25552   1.820   2.020   6.567 -0.8466  0.4250 -0.5239
 4639SOL    HW125553   1.880   2.077   6.616 -0.1007 -1.6275  0.9640
 4639SOL    HW225554   1.818   2.065   6.483  1.2172 -1.4014 -1.5246
 4640SOL     OW25555   4.639   2.675   2.450 -0.4328 -0.1995  0.6810
 4640SOL    HW125556   4.604   2.739   2.387 -1.0339 -2.7732 -1.6178
 4640SOL    HW225557   4.712   2.631   2.408 -1.1467 -2.2806  1.6491
 4641SOL     OW25558   4.212   0.606   3.818 -0.2642 -0.3920  0.2787
 4641SOL    HW125559   4.266   0.669   3.866 -2.2610  1.4495  0.0880
 4641SOL    HW225560   4.266   0.600   3.738 -1.4301  1.6995 -0.6468
 4642SOL     OW25561   2.991   2.576  17.222 -0.6720 -0.2184 -0.3339
 4642SOL    HW125562   3.011   2.508  17.286 -1.0835 -1.6893 -1.7688
 4642SOL    HW225563   3.069   2.631  17.228  0.3228 -1.5555 -1.0322
 4643SOL     OW25564   0.813   4.363   1.005  0.6071  0.9237 -0.7678
 4643SOL    HW125565   0.762   4.353   0.924  0.9521 -0.7265 -0.7754
 4643SOL    HW225566   0.851   4.276   1.013  0.1165  0.9056  1.3110
 4644SOL     OW25567   3.246   1.992  11.722  0.1641  0.4633  0.3573
 4644SOL    HW125568   3.224   2.068  11.776  0.9395  0.4760  0.6519
 4644SOL    HW225569   3.260   1.926  11.790  1.1220  1.3337  1.0086
 4645SOL     OW25570   2.316   2.365   4.093  0.3763 -0.8456  0.0589
 4645SOL    HW125571   2.379   2.423   4.051 -0.8562  0.0794 -0.4971
 4645SOL    HW225572   2.281   2.419   4.164  0.5577 -1.8552  0.9233
 4646SOL     OW25573   3.119   4.244   8.066  0.3131  0.4398  0.2322
 4646SOL    HW125574   3.209   4.235   8.035 -0.1047  1.0226 -1.1416
 4646SOL    HW225575   3.069   4.211   7.992  0.2249  1.2182 -0.0487
 4647SOL     OW25576   0.232   2.008  14.467  0.1082 -0.2286 -0.8186
 4647SOL    HW125577   0.167   1.941  14.485 -1.8661  1.6909 -0.8012
 4647SOL    HW225578   0.187   2.085  14.502 -1.3228 -2.1094  1.5014
 4648SOL     OW25579   3.934   4.051   6.435  0.0116 -0.3573 -0.0173
 4648SOL    HW125580   3.878   3.976   6.457 -2.2425  1.7681  1.5595
 4648SOL    HW225581   4.010   4.032   6.490 -0.1891 -1.1947 -0.0277
 4649SOL     OW25582   1.168   2.206   8.695 -0.3351  0.0332  0.4179
 4649SOL    HW125583   1.132   2.195   8.783 -0.6087  0.6023  0.3735
 4649SOL    HW225584   1.217   2.287   8.707 -2.5903  1.3861  0.5171
 4650SOL     OW25585   3.822   2.264   5.873 -0.3356 -0.2761  0.4946
 4650SOL    HW125586   3.895   2.206   5.893 -0.8602  0.1377  3.5925
 4650SOL    HW225587   3.804   2.303   5.958 -0.5740  1.9788 -0.5736
 4651SOL     OW25588   4.229   0.194  17.438 -0.0174 -0.3362  0.6157
 4651SOL    HW125589   4.232   0.217  17.531 -0.0796  0.8588  0.3223
 4651SOL    HW225590   4.180   0.112  17.443 -1.5893  0.6163  0.9999
 4652SOL     OW25591   1.589   3.165  16.650 -0.1621 -0.6219  0.1944
 4652SOL    HW125592   1.548   3.085  16.683 -0.5509 -0.7280 -0.5567
 4652SOL    HW225593   1.512   3.220  16.636 -1.2156 -1.8487  1.1640
 4653SOL     OW25594   3.620   2.321  14.604 -0.1804 -0.6077  0.6837
 4653SOL    HW125595   3.526   2.302  14.604 -0.4606  0.7538 -0.6855
 4653SOL    HW225596   3.621   2.412  14.634 -0.5962 -1.2467  2.6330
 4654SOL     OW25597   2.785   1.879   1.095  0.2707 -0.4235 -0.1315
 4654SOL    HW125598   2.800   1.918   1.182 -2.5566 -0.2472  0.2696
 4654SOL    HW225599   2.871   1.859   1.058  1.0079  2.7808 -0.1728
 4655SOL     OW25600   3.293   3.353   6.363  0.3381  0.5676  0.1044
 4655SOL    HW125601   3.246   3.414   6.421 -2.8109 -0.5501 -1.3124
 4655SOL    HW225602   3.336   3.294   6.425  1.8237  0.1440 -1.3469
 4656SOL     OW25603   2.210   4.046   0.963  0.4314  0.0091 -0.4218
 4656SOL    HW125604   2.280   4.047   1.028 -0.3404  1.2796  0.3951
 4656SOL    HW225605   2.137   4.033   1.023 -1.0972  0.5311 -2.1676
 4657SOL     OW25606   4.708   3.348   6.626  0.1060 -0.4447  0.1514
 4657SOL    HW125607   4.718   3.440   6.601 -0.0631  0.2237  2.5607
 4657SOL    HW225608   4.621   3.321   6.595  0.4053 -1.9026  0.5567
 4658SOL     OW25609   1.592   0.376  16.202  0.1566  0.3622  0.0801
 4658SOL    HW125610   1.670   0.371  16.146 -1.6779 -1.5978 -2.2966
 4658SOL    HW225611   1.605   0.305  16.264  0.0951 -1.4077 -1.9526
 4659SOL     OW25612   4.495   2.449   7.585  0.0893  0.1349 -0.0752
 4659SOL    HW125613   4.524   2.481   7.500 -2.9336 -0.1794 -1.2184
 4659SOL    HW225614   4.453   2.363   7.577 -0.5809  0.4640 -0.0056
 4660SOL     OW25615   4.455   1.276   4.446  0.0748  0.3512  0.1292
 4660SOL    HW125616   4.497   1.350   4.490 -1.4023  1.2841 -0.0368
 4660SOL    HW225617   4.379   1.258   4.501 -1.3735 -0.9121 -2.2912
 4661SOL     OW25618   4.412   1.867   6.427 -0.5099 -0.0053  0.0375
 4661SOL    HW125619   4.488   1.883   6.371 -0.6112 -0.2567 -0.1749
 4661SOL    HW225620   4.350   1.915   6.372 -1.3002 -0.6555  0.3624
 4662SOL     OW25621   2.060   4.142   7.910  0.1658 -0.3480  0.2396
 4662SOL    HW125622   2.124   4.178   7.849  1.5526 -2.1022  0.6596
 4662SOL    HW225623   2.067   4.047   7.897 -0.4032 -0.5672  1.4933
 4663SOL     OW25624   2.427   3.439  12.190  0.6355  0.2230 -0.3680
 4663SOL    HW125625   2.399   3.377  12.257 -0.0794  2.0333  1.0058
 4663SOL    HW225626   2.454   3.518  12.237  0.1218 -0.3936  0.9624
 4664SOL     OW25627   4.004   0.260  11.592 -0.0169  0.1951 -0.5777
 4664SOL    HW125628   4.082   0.211  11.616  0.1252 -0.1479 -1.7317
 4664SOL    HW225629   4.010   0.334  11.652  1.3582 -1.5195  1.3916
 4665SOL     OW25630   3.444   4.475   7.554  0.2551  0.4265 -0.0732
 4665SOL    HW125631   3.401   4.524   7.624 -0.5158 -2.1004  1.1975
 4665SOL    HW225632   3.383   4.401   7.551  1.6655 -0.7648  1.3591
 4666SOL     OW25633   3.847   3.193  13.068 -0.1954  0.1769 -0.4697
 4666SOL    HW125634   3.764   3.163  13.105  0.5184 -3.5289 -1.8328
 4666SOL    HW225635   3.910   3.144  13.122  0.4176  2.6155  1.0228
 4667SOL     OW25636   3.869   0.192   2.639  0.3519 -0.4529 -0.2384
 4667SOL    HW125637   3.947   0.213   2.587  0.1909 -0.5114 -0.5040
 4667SOL    HW225638   3.802   0.214   2.574 -0.5142 -0.0670  0.7892
 4668SOL     OW25639   1.442   0.994   1.450  0.3148 -0.1948  0.3639
 4668SOL    HW125640   1.423   1.084   1.476  0.1941 -0.6848  1.9337
 4668SOL    HW225641   1.537   0.989   1.456  0.1516 -0.5751  2.4080
 4669SOL     OW25642   3.669   4.623   6.198  0.0095  0.9497 -0.2054
 4669SOL    HW125643   3.643   4.660   6.113  1.9600 -0.2579 -1.3396
 4669SOL    HW225644   3.604   4.554   6.206 -0.2718  1.1842 -0.4603
 4670SOL     OW25645   4.720   2.975   5.379 -0.3820 -0.2688  0.7004
 4670SOL    HW125646   4.726   3.042   5.312 -0.9531  1.2092  2.1307
 4670SOL    HW225647   4.643   3.011   5.423 -1.7257  0.4976 -2.2506
 4671SOL     OW25648   0.595   0.082   6.903 -0.4483 -0.4188  0.3722
 4671SOL    HW125649   0.630   0.170   6.891  2.1679 -1.9538 -3.0653
 4671SOL    HW225650   0.552   0.061   6.820  1.6074 -0.4407 -0.6791
 4672SOL     OW25651   2.429   3.776   2.820  0.3661  0.4616 -0.3927
 4672SOL    HW125652   2.498   3.714   2.843 -1.6489 -2.5269 -2.3553
 4672SOL    HW225653   2.344   3.733   2.811  1.0419 -1.2170  1.1811
 4673SOL     OW25654   0.909   2.408   8.346  0.0909 -0.0768 -0.2100
 4673SOL    HW125655   0.953   2.434   8.265  1.3522  1.4812  0.9773
 4673SOL    HW225656   0.922   2.313   8.348  1.4961  0.1527  1.2288
 4674SOL     OW25657   0.520   1.166   4.377 -0.2580 -0.1942 -0.2973
 4674SOL    HW125658   0.580   1.122   4.437 -1.6691  0.2916  1.4609
 4674SOL    HW225659   0.523   1.098   4.309  2.2027 -0.3520 -0.0420
 4675SOL     OW25660   4.186   0.436   9.997  0.0037 -0.1933 -0.0976
 4675SOL    HW125661   4.246   0.509   9.990  0.3475 -0.7669 -3.0454
 4675SOL    HW225662   4.231   0.391  10.069  1.0327  1.0243  0.0073
 4676SOL     OW25663   1.170   2.275   2.195  0.2146 -0.1211  0.5478
 4676SOL    HW125664   1.260   2.259   2.166  0.5963  2.5662  0.2336
 4676SOL    HW225665   1.167   2.368   2.218 -2.8976  0.1720 -1.1316
 4677SOL     OW25666   1.577   0.607   1.046 -0.1030  0.0296 -0.2098
 4677SOL    HW125667   1.590   0.683   0.990  0.4114 -0.5643 -0.8933
 4677SOL    HW225668   1.486   0.610   1.074 -0.3872 -0.7674 -1.0375
 4678SOL     OW25669   3.738   3.953   5.010  0.0168 -0.0477 -0.3755
 4678SOL    HW125670   3.826   3.924   5.032 -0.2948 -0.4027  0.4133
 4678SOL    HW225671   3.685   3.895   5.064  0.5217 -1.1284 -1.0358
 4679SOL     OW25672   3.258   3.365   3.431  0.2955  0.0770  0.2128
 4679SOL    HW125673   3.190   3.304   3.402  2.1779 -1.2735 -1.3586
 4679SOL    HW225674   3.324   3.304   3.466  1.5521  2.2735  1.6400
 4680SOL     OW25675   1.793   3.907  16.317 -0.1827 -0.0006  0.3950
 4680SOL    HW125676   1.858   3.905  16.387  0.4821 -1.9691 -0.2761
 4680SOL    HW225677   1.772   4.001  16.313 -1.6022 -0.2379  2.0188
 4681SOL     OW25678   0.665   2.948   7.822 -0.8573  0.4421  0.1315
 4681SOL    HW125679   0.661   2.921   7.914  1.4081 -0.5925 -0.0882
 4681SOL    HW225680   0.662   3.043   7.834 -0.9787  0.6269 -1.3695
 4682SOL     OW25681   3.760   3.562   5.161  0.6723  0.0167  0.0991
 4682SOL    HW125682   3.844   3.534   5.125  0.0818  0.1183 -1.3369
 4682SOL    HW225683   3.757   3.514   5.244 -0.8067  0.4550  0.2939
 4683SOL     OW25684   1.789   0.830  15.547 -0.0284 -0.3243 -0.3697
 4683SOL    HW125685   1.725   0.897  15.525 -1.5610 -1.5080  0.4757
 4683SOL    HW225686   1.870   0.863  15.510 -0.5850 -0.3252 -1.6005
 4684SOL     OW25687   1.596   1.180  17.711  0.0507  0.1239 -0.2874
 4684SOL    HW125688   1.545   1.153   0.037  2.2517 -0.9664  0.8141
 4684SOL    HW225689   1.620   1.092  17.683  0.7538 -0.2280  1.4063
 4685SOL     OW25690   4.095   3.065  13.127 -0.2925  0.5951  0.2186
 4685SOL    HW125691   4.131   2.990  13.175  0.8320 -2.1013 -4.8457
 4685SOL    HW225692   4.171   3.123  13.131  0.5190 -0.3017 -2.3088
 4686SOL     OW25693   2.590   4.047   8.516  0.9794  0.1760  0.3826
 4686SOL    HW125694   2.574   3.981   8.449 -0.3075  0.4203  0.4479
 4686SOL    HW225695   2.559   4.127   8.475  0.0541 -1.2985 -1.8148
 4687SOL     OW25696   2.031   0.968   6.016  0.2103 -0.5583  0.2031
 4687SOL    HW125697   2.085   0.961   6.095 -1.9233  0.6020  1.7620
 4687SOL    HW225698   1.945   0.986   6.053  0.6348 -2.7599  2.2910
 4688SOL     OW25699   2.931   3.151   7.788 -1.1589  0.2731  0.6258
 4688SOL    HW125700   2.886   3.144   7.704 -4.4063  2.8185  2.1502
 4688SOL    HW225701   2.890   3.079   7.837  1.0683 -2.9907 -2.3443
 4689SOL     OW25702   4.006   3.345  12.889 -0.2093 -0.4795 -0.1280
 4689SOL    HW125703   4.072   3.287  12.851 -0.0471 -0.8682  0.7505
 4689SOL    HW225704   3.956   3.279  12.937 -0.1480  0.3251  1.0228
 4690SOL     OW25705   2.591   1.786   3.619  0.2401 -0.2880  0.0697
 4690SOL    HW125706   2.631   1.726   3.682  0.4019 -1.7469 -1.4124
 4690SOL    HW225707   2.513   1.731   3.613  0.7407 -1.0871  0.9221
 4691SOL     OW25708   4.217   2.016  15.542  0.2184 -0.3222 -0.3804
 4691SOL    HW125709   4.194   1.923  15.534  0.9059 -0.2359 -3.2807
 4691SOL    HW225710   4.140   2.050  15.586 -0.9530 -1.3099 -1.6716
 4692SOL     OW25711   2.778   1.108   9.899  0.3442 -0.1593  0.0002
 4692SOL    HW125712   2.692   1.084   9.933 -0.4986  2.1479 -0.5350
 4692SOL    HW225713   2.756   1.115   9.807 -0.4309 -2.4959  0.0052
 4693SOL     OW25714   2.860   4.604  17.094 -0.3305  0.0279 -0.0731
 4693SOL    HW125715   2.935   4.647  17.135  0.6168 -2.2498  0.5732
 4693SOL    HW225716   2.872   4.628  17.003 -0.5062  4.2393  1.0061
 4694SOL     OW25717   1.253   3.951   2.913 -0.1685 -0.1617 -0.4477
 4694SOL    HW125718   1.220   4.023   2.860  0.0716  1.1557  1.1761
 4694SOL    HW225719   1.306   3.912   2.844 -3.0927 -1.0750 -2.1622
 4695SOL     OW25720   0.216   3.520   8.347 -0.0495 -0.0525  0.2749
 4695SOL    HW125721   0.141   3.495   8.293 -1.4477  2.3089  1.1078
 4695SOL    HW225722   0.278   3.545   8.279 -0.3212 -0.2477 -0.0465
 4696SOL     OW25723   4.715   3.236   5.190  0.2065 -0.1866  0.2451
 4696SOL    HW125724   4.665   3.289   5.128 -0.6491 -0.8714  0.3500
 4696SOL    HW225725   4.712   3.274   5.278 -2.6035  2.0994 -0.8443
 4697SOL     OW25726   4.164   2.325   3.163  0.1898 -0.2154 -0.0397
 4697SOL    HW125727   4.080   2.368   3.178 -0.2391 -1.1465  0.2505
 4697SOL    HW225728   4.172   2.324   3.068 -0.8752 -0.7204 -0.1271
 4698SOL     OW25729   4.026   2.834   6.888  0.1312  0.5653  0.0418
 4698SOL    HW125730   4.101   2.819   6.945  1.1997 -1.0626 -1.8012
 4698SOL    HW225731   3.955   2.783   6.929  0.2561 -1.2985 -2.0453
 4699SOL     OW25732   1.269   4.657   7.767  0.4746 -0.7543 -0.1026
 4699SOL    HW125733   1.281   4.563   7.777  0.2820 -0.6338  1.2352
 4699SOL    HW225734   1.186   4.671   7.812  0.5749 -1.8782  0.4304
 4700SOL     OW25735   2.589   4.582   5.849 -0.1447  0.2284 -0.0322
 4700SOL    HW125736   2.540   4.642   5.905  0.6785  0.8430  0.0437
 4700SOL    HW225737   2.629   4.653   5.798 -0.6934  0.9527  0.5414
 4701SOL     OW25738   3.733   2.578   7.587  0.5763  0.1079  0.4327
 4701SOL    HW125739   3.658   2.526   7.559  1.1275  0.8517 -2.4350
 4701SOL    HW225740   3.683   2.636   7.644 -0.1455  1.1297 -1.2088
 4702SOL     OW25741   1.676   1.096   4.532 -0.1810 -0.5443 -0.3786
 4702SOL    HW125742   1.648   1.148   4.457 -1.2855 -1.4010 -0.5575
 4702SOL    HW225743   1.707   1.025   4.476  2.7914  2.3944 -2.4649
 4703SOL     OW25744   0.112   1.034   8.768  0.6288  0.0715  0.1627
 4703SOL    HW125745   0.056   1.063   8.840 -0.2972  0.5075 -0.7320
 4703SOL    HW225746   0.111   1.116   8.718  1.0341 -1.2764 -2.0521
 4704SOL     OW25747   3.096   2.291   5.909 -0.1428  0.3887  0.4814
 4704SOL    HW125748   3.164   2.340   5.864  0.7014  0.5900  1.9595
 4704SOL    HW225749   3.082   2.219   5.848 -1.3716  0.8580  0.2111
 4705SOL     OW25750   1.735   1.259   6.701 -0.1946  0.0276 -0.1965
 4705SOL    HW125751   1.692   1.341   6.679 -2.2903 -1.4265 -1.5421
 4705SOL    HW225752   1.818   1.263   6.653 -2.1711  1.8860 -3.4401
 4706SOL     OW25753   4.626   1.932   2.956  0.4064 -0.3996  0.1250
 4706SOL    HW125754   4.567   1.929   3.031 -1.0439 -0.4361 -1.0115
 4706SOL    HW225755   4.576   1.876   2.896 -1.2084  0.6550  0.5084
 4707SOL     OW25756   2.616   3.286   7.583 -0.3984  0.1778 -0.3072
 4707SOL    HW125757   2.545   3.255   7.527 -2.2279 -1.2306  2.7459
 4707SOL    HW225758   2.574   3.341   7.649 -1.1763 -0.0769 -0.6001
 4708SOL     OW25759   0.253   4.435   7.844  0.4518  0.2090 -0.0532
 4708SOL    HW125760   0.326   4.374   7.855 -0.5557 -1.5758 -3.2898
 4708SOL    HW225761   0.267   4.493   7.919  0.3303 -1.7342  1.4890
 4709SOL     OW25762   1.024   0.404   4.923 -0.4366  0.0096 -0.1181
 4709SOL    HW125763   0.950   0.393   4.982  0.4979 -1.7283  0.7272
 4709SOL    HW225764   1.038   0.499   4.928 -0.8757  0.0765 -0.1636
 4710SOL     OW25765   4.096   2.947   9.772  0.4576  0.4463  0.5356
 4710SOL    HW125766   4.008   2.950   9.735  0.8615 -1.8215 -0.5609
 4710SOL    HW225767   4.102   2.853   9.760 -2.7786  0.0358  1.9649
 4711SOL     OW25768   4.178   0.065   2.595  0.6823  0.2344  0.2935
 4711SOL    HW125769   4.129   0.121   2.535  0.8335 -0.3279 -0.3529
 4711SOL    HW225770   4.179   4.721   2.545  0.7870 -0.1005  0.8347
 4712SOL     OW25771   2.302   2.663  11.891 -0.3656 -0.5128 -0.2188
 4712SOL    HW125772   2.268   2.722  11.959 -1.8135 -0.2830 -1.1337
 4712SOL    HW225773   2.292   2.584  11.945  0.5393  0.1833  0.9766
 4713SOL     OW25774   1.350   2.839   1.621  0.1953 -0.0211 -0.6638
 4713SOL    HW125775   1.383   2.923   1.587 -2.9731  1.7807  0.7251
 4713SOL    HW225776   1.364   2.799   1.535 -0.7891 -1.4812 -0.1490
 4714SOL     OW25777   1.374   0.476   9.129 -0.0354 -0.1602 -0.3580
 4714SOL    HW125778   1.374   0.381   9.141  1.6406  0.1664  2.2424
 4714SOL    HW225779   1.469   0.488   9.129  0.0448 -0.7384 -3.8542
 4715SOL     OW25780   4.222   2.450   1.899  0.2639  0.4214 -0.0370
 4715SOL    HW125781   4.167   2.526   1.880 -0.3396  0.6921  2.9034
 4715SOL    HW225782   4.156   2.395   1.941 -0.8315  2.0651  0.3624
 4716SOL     OW25783   1.362   2.849   2.607  0.4183 -0.2973 -0.0896
 4716SOL    HW125784   1.294   2.799   2.652  1.3062  0.4062  2.0289
 4716SOL    HW225785   1.414   2.869   2.684 -1.7727 -1.4892  1.7305
 4717SOL     OW25786   3.557   3.166  17.418 -0.6472  0.0541  0.1612
 4717SOL    HW125787   3.602   3.084  17.398  1.4347  1.3790 -0.5404
 4717SOL    HW225788   3.633   3.223  17.409  0.4374 -1.6496 -1.2061
 4718SOL     OW25789   3.403   0.185   4.432 -0.0682 -0.8373 -0.1229
 4718SOL    HW125790   3.474   0.151   4.379 -0.9474  0.2730 -2.0352
 4718SOL    HW225791   3.327   0.161   4.378 -0.7371 -0.1704  0.5023
 4719SOL     OW25792   3.794   3.304   1.185  0.1140  0.0533 -0.1487
 4719SOL    HW125793   3.863   3.368   1.168  0.0220  0.2771  0.3510
 4719SOL    HW225794   3.783   3.319   1.278  1.4258  0.5991 -0.0832
 4720SOL     OW25795   1.696   2.632  11.942  0.0807 -0.2587 -0.1193
 4720SOL    HW125796   1.697   2.536  11.946 -0.6814 -0.2720 -0.3115
 4720SOL    HW225797   1.750   2.649  12.019 -2.8363  1.0567  1.6179
 4721SOL     OW25798   2.128   0.128   9.475 -0.3603 -0.2001 -0.2308
 4721SOL    HW125799   2.056   0.167   9.425 -0.6944 -1.4718 -0.7274
 4721SOL    HW225800   2.151   0.193   9.542 -0.2514  0.7499 -1.1886
 4722SOL     OW25801   1.251   3.086   6.561  0.2390 -0.2033  0.2077
 4722SOL    HW125802   1.218   3.176   6.561 -0.4310 -0.4409  2.1819
 4722SOL    HW225803   1.342   3.095   6.534 -0.5941  1.9109 -1.8547
 4723SOL     OW25804   1.657   4.560  10.408 -0.3435 -0.0793  0.0369
 4723SOL    HW125805   1.664   4.610  10.489  0.4902  0.2530 -0.2481
 4723SOL    HW225806   1.713   4.610  10.349 -0.5543 -1.0985 -1.0570
 4724SOL     OW25807   2.383   3.497   6.778 -0.2410  0.3832 -0.8834
 4724SOL    HW125808   2.302   3.465   6.817  0.9235 -1.3227  0.1483
 4724SOL    HW225809   2.430   3.525   6.856 -0.0282  0.7786 -1.1530
 4725SOL     OW25810   1.641   2.152  13.744 -0.0280 -0.3783  0.2238
 4725SOL    HW125811   1.683   2.220  13.691  1.6068 -1.0541  0.6877
 4725SOL    HW225812   1.712   2.122  13.800 -0.2380 -0.3519  0.5050
 4726SOL     OW25813   2.726   0.549   4.094 -0.7256  0.0511 -0.0652
 4726SOL    HW125814   2.816   0.578   4.105 -0.6279 -1.0211  1.9024
 4726SOL    HW225815   2.683   0.610   4.154  0.0525  1.4060 -0.8834
 4727SOL     OW25816   1.963   2.506   8.110  0.4700 -0.5253 -0.2784
 4727SOL    HW125817   2.032   2.572   8.115  0.9468 -1.0949  0.5820
 4727SOL    HW225818   2.007   2.426   8.138  0.1693  0.3438  2.6828
 4728SOL     OW25819   1.589   4.600   3.899 -0.2245 -0.4756  0.1046
 4728SOL    HW125820   1.546   4.626   3.980 -0.7869 -0.1658 -0.2880
 4728SOL    HW225821   1.530   4.651   3.843 -1.4496  2.2853  3.9367
 4729SOL     OW25822   2.897   1.755   4.222  1.0398 -0.6089 -0.2567
 4729SOL    HW125823   2.955   1.685   4.193 -0.6541 -1.0995 -2.4944
 4729SOL    HW225824   2.815   1.732   4.178 -0.7433  0.2089  2.6368
 4730SOL     OW25825   2.395   2.374   3.570  0.2178 -0.6596  0.9359
 4730SOL    HW125826   2.455   2.360   3.497 -1.3661 -2.7077  0.0057
 4730SOL    HW225827   2.405   2.466   3.594  1.2089 -1.1023  2.1737
 4731SOL     OW25828   2.393   3.042   3.988  0.3594 -0.5985  0.2147
 4731SOL    HW125829   2.466   3.071   3.934 -0.6004  0.2013 -0.6545
 4731SOL    HW225830   2.378   3.113   4.051  2.9409 -0.1227  0.2881
 4732SOL     OW25831   4.134   4.329   5.043  0.4076 -0.2045 -0.4202
 4732SOL    HW125832   4.140   4.282   5.126 -1.4876  1.2289  0.5264
 4732SOL    HW225833   4.159   4.420   5.058 -0.1494 -0.3276  1.2224
 4733SOL     OW25834   0.360   3.046   5.280  0.0209  0.2159 -0.5575
 4733SOL    HW125835   0.302   3.035   5.205 -2.5175  1.4914  1.2237
 4733SOL    HW225836   0.427   3.107   5.248 -0.6708 -0.1569 -2.7011
 4734SOL     OW25837   0.299   1.162   6.904 -0.2048 -0.4307 -0.1846
 4734SOL    HW125838   0.236   1.224   6.941  0.4665  1.4299 -2.1666
 4734SOL    HW225839   0.237   1.089   6.905  1.3599 -1.7461  0.9749
 4735SOL     OW25840   1.800   4.046  10.195 -0.1506 -0.1470 -0.0699
 4735SOL    HW125841   1.837   4.005  10.273  0.9132  0.8671 -0.0318
 4735SOL    HW225842   1.808   4.138  10.221 -1.3780 -0.0354 -0.0805
 4736SOL     OW25843   1.588   2.809   5.800  0.6279  0.0046 -0.4665
 4736SOL    HW125844   1.542   2.877   5.750  0.9372  0.9269  0.4816
 4736SOL    HW225845   1.665   2.851   5.838  0.4132  0.9497 -1.0728
 4737SOL     OW25846   4.176   1.255   4.056 -0.5268 -0.5154  0.3558
 4737SOL    HW125847   4.140   1.250   3.968 -2.2004 -1.1179  1.0802
 4737SOL    HW225848   4.091   1.263   4.099 -0.4101  1.9844  0.1345
 4738SOL     OW25849   2.954   1.246   4.632 -0.0638  0.0216 -0.2035
 4738SOL    HW125850   2.924   1.239   4.723 -1.2039  1.9136 -0.4303
 4738SOL    HW225851   2.875   1.221   4.583 -0.6424 -0.5695  1.0261
 4739SOL     OW25852   2.348   0.793   4.556 -0.1038 -0.2068 -0.1547
 4739SOL    HW125853   2.326   0.870   4.607  0.7170  0.4888 -0.8594
 4739SOL    HW225854   2.264   0.771   4.514  0.5929 -1.1456 -1.0479
 4740SOL     OW25855   4.309   4.681  12.955 -0.0272 -0.3680 -0.1610
 4740SOL    HW125856   4.356   4.712  12.878  2.7680  1.9520  2.5012
 4740SOL    HW225857   4.312   0.018  13.014 -0.1503 -1.0064  0.6580
 4741SOL     OW25858   0.346   1.059   8.516 -0.0590  0.1630 -0.0125
 4741SOL    HW125859   0.252   1.038   8.515 -0.0862  0.2942 -0.2401
 4741SOL    HW225860   0.344   1.154   8.502  2.4355  0.3713  1.2105
 4742SOL     OW25861   0.540   0.904   5.195 -0.4568 -0.0151 -0.8688
 4742SOL    HW125862   0.633   0.921   5.177 -0.5589 -0.3574 -1.6971
 4742SOL    HW225863   0.511   0.885   5.106 -0.4781  2.7526 -1.4504
 4743SOL     OW25864   0.214   3.349   4.207 -0.1115  0.1166 -0.1250
 4743SOL    HW125865   0.267   3.425   4.231 -0.7859  0.0598  1.5434
 4743SOL    HW225866   0.284   3.284   4.209  0.5637  0.8688  0.8176
 4744SOL     OW25867   4.409   0.585  10.060  0.0214  0.5438 -0.1430
 4744SOL    HW125868   4.385   0.605  10.150  1.4169  2.7698 -0.2633
 4744SOL    HW225869   4.426   0.672  10.024  1.8201  0.5818  0.8385
 4745SOL     OW25870   2.359   3.107  14.840  0.5843  0.2081  0.1600
 4745SOL    HW125871   2.277   3.156  14.838  0.1800 -0.4893 -0.0012
 4745SOL    HW225872   2.384   3.109  14.748  0.4703 -0.0890  0.1224
 4746SOL     OW25873   1.548   3.634  16.897  0.5524 -0.0117  0.1261
 4746SOL    HW125874   1.518   3.557  16.946  0.0468 -0.6963 -1.2647
 4746SOL    HW225875   1.589   3.672  16.975  0.8068 -2.2872  1.1182
 4747SOL     OW25876   1.036   4.481   8.325  0.0958 -0.2050  0.6108
 4747SOL    HW125877   0.948   4.486   8.361 -0.0721  0.3346  0.1206
 4747SOL    HW225878   1.026   4.426   8.248  0.3400  1.0404 -0.3145
 4748SOL     OW25879   1.986   3.359   5.379 -0.1252 -0.4351  1.1660
 4748SOL    HW125880   2.067   3.405   5.403  1.0906 -2.5458  1.1346
 4748SOL    HW225881   1.919   3.427   5.376  0.3117 -0.0770 -0.6291
 4749SOL     OW25882   2.301   1.753   3.358  0.0350 -0.4542 -0.1180
 4749SOL    HW125883   2.303   1.790   3.446 -0.9743 -0.8814  0.0834
 4749SOL    HW225884   2.209   1.733   3.344  0.3975 -0.3062 -2.7192
 4750SOL     OW25885   1.543   1.547   6.119  0.3101 -0.1678  0.2235
 4750SOL    HW125886   1.506   1.634   6.105  0.3621 -0.4808 -1.8099
 4750SOL    HW225887   1.498   1.499   6.050  0.5775 -0.9170  0.5685
 4751SOL     OW25888   3.427   0.425   0.774 -0.7928  0.1414 -0.0623
 4751SOL    HW125889   3.510   0.386   0.745 -0.2883  1.5532 -0.4987
 4751SOL    HW225890   3.443   0.432   0.868  1.8866 -1.3103 -0.3835
 4752SOL     OW25891   2.789   2.470   6.978 -0.0689  0.8146 -0.4603
 4752SOL    HW125892   2.722   2.503   6.918 -1.5008  1.5547  1.5601
 4752SOL    HW225893   2.810   2.383   6.942 -2.1788  0.1130  0.0144
 4753SOL     OW25894   2.135   0.804   1.987  0.5319  0.0714  0.1221
 4753SOL    HW125895   2.088   0.885   2.009 -0.1287 -0.0691 -0.7834
 4753SOL    HW225896   2.207   0.841   1.936 -0.3556  0.7346 -0.6604
 4754SOL     OW25897   2.122   2.175   3.405  0.5249  0.2057 -0.7567
 4754SOL    HW125898   2.041   2.225   3.409  0.9913  0.8279  0.7830
 4754SOL    HW225899   2.159   2.217   3.327  2.4361  0.9402  0.5567
 4755SOL     OW25900   3.358   2.209   6.143  0.1816 -0.2045 -0.0115
 4755SOL    HW125901   3.332   2.266   6.071 -2.4198 -0.2143  0.8982
 4755SOL    HW225902   3.368   2.273   6.213 -2.7720 -1.6568  1.7349
 4756SOL     OW25903   2.390   1.053   3.538 -0.3628  0.4052 -0.1723
 4756SOL    HW125904   2.455   1.121   3.556 -1.4747  0.9757  1.6983
 4756SOL    HW225905   2.441   0.987   3.584 -2.2072  0.4175  1.9028
 4757SOL     OW25906   3.827   1.654   6.183  0.5376 -0.0975  0.0320
 4757SOL    HW125907   3.809   1.646   6.277  1.7034 -0.4074  0.2284
 4757SOL    HW225908   3.744   1.679   6.142  1.6245 -2.4212 -3.5636
 4758SOL     OW25909   0.965   2.317   4.504  0.1292  0.2524 -0.3280
 4758SOL    HW125910   0.927   2.405   4.501  1.5536  0.8602 -0.5725
 4758SOL    HW225911   0.900   2.271   4.557  0.0621  1.7965  0.9259
 4759SOL     OW25912   1.793   0.297   1.600 -0.3528  0.4304 -0.1112
 4759SOL    HW125913   1.844   0.247   1.663 -0.4675  0.9055  0.3685
 4759SOL    HW225914   1.808   0.388   1.628  1.7702 -0.0264  0.1873
 4760SOL     OW25915   0.292   4.139   5.915  0.2241 -0.3042 -0.1492
 4760SOL    HW125916   0.252   4.221   5.886  0.2527  0.1768  1.1390
 4760SOL    HW225917   0.251   4.130   6.002 -0.7980 -1.4701 -0.7501
 4761SOL     OW25918   2.698   1.448  16.385 -0.0714  0.1441  0.0449
 4761SOL    HW125919   2.727   1.494  16.306  1.3449 -0.1613  0.3764
 4761SOL    HW225920   2.759   1.489  16.447 -1.6859  1.7232  0.5895
 4762SOL     OW25921   0.514   4.182  14.899 -0.8668  0.3812  0.1957
 4762SOL    HW125922   0.551   4.114  14.843  2.4968  3.1287 -0.8825
 4762SOL    HW225923   0.552   4.169  14.986  1.4856 -1.2196 -1.0728
 4763SOL     OW25924   1.341   0.953   4.203 -0.0974 -0.0887 -0.3347
 4763SOL    HW125925   1.372   0.885   4.264  2.1588  0.9105 -0.3889
 4763SOL    HW225926   1.302   0.898   4.135  1.6589  0.1224 -1.4930
 4764SOL     OW25927   3.283   2.914  12.890  0.0043  0.1868 -0.3563
 4764SOL    HW125928   3.204   2.871  12.857 -0.5594 -2.0591  4.0373
 4764SOL    HW225929   3.353   2.883  12.832  1.3022  0.2244  1.2200
 4765SOL     OW25930   2.748   0.672   9.952 -0.6235 -0.3365  0.0976
 4765SOL    HW125931   2.742   0.703   9.861 -1.9697 -0.1458  0.2532
 4765SOL    HW225932   2.765   0.580   9.934  0.6631  0.3061 -2.0652
 4766SOL     OW25933   3.130   4.485  13.506  0.1505  0.4856 -0.3322
 4766SOL    HW125934   3.123   4.579  13.485 -0.6401  0.7173  0.9754
 4766SOL    HW225935   3.071   4.448  13.440  0.6224 -0.3155 -0.3024
 4767SOL     OW25936   4.055   1.968  15.154 -0.8137  0.2817  0.2759
 4767SOL    HW125937   4.143   1.987  15.186  0.1677  0.8496 -2.8266
 4767SOL    HW225938   4.076   1.897  15.094 -2.4823 -1.6785  1.9822
 4768SOL     OW25939   2.438   1.528   6.227  0.1315 -0.1443 -0.0048
 4768SOL    HW125940   2.481   1.612   6.212 -1.8681  0.6484 -1.3608
 4768SOL    HW225941   2.400   1.541   6.314  0.1882  0.4878 -0.0773
 4769SOL     OW25942   0.931   3.448   5.679 -0.2079 -0.3362 -0.2698
 4769SOL    HW125943   0.929   3.376   5.742 -0.1184 -1.0168 -1.0419
 4769SOL    HW225944   1.004   3.503   5.707  0.5481 -0.2142 -2.4904
 4770SOL     OW25945   3.000   0.145   7.795 -0.4881 -0.3686  0.1069
 4770SOL    HW125946   2.929   0.113   7.851  0.3158 -1.8120  0.2987
 4770SOL    HW225947   3.063   0.158   7.865 -0.9452  0.4203  0.3675
 4771SOL     OW25948   3.188   0.829   2.072  0.1653 -0.0920  0.1116
 4771SOL    HW125949   3.246   0.785   2.134 -0.4928 -0.4172  0.5094
 4771SOL    HW225950   3.112   0.770   2.073  0.2840 -0.2162  1.5504
 4772SOL     OW25951   0.894   3.163   6.792 -0.5981 -0.2102  0.3532
 4772SOL    HW125952   0.974   3.116   6.814  0.3460  0.3273 -1.9096
 4772SOL    HW225953   0.883   3.196   6.881 -2.7355 -0.1337  0.0477
 4773SOL     OW25954   0.760   0.804   5.072  0.3848  1.0301  0.0408
 4773SOL    HW125955   0.808   0.856   5.007 -1.5559 -0.2088 -2.4049
 4773SOL    HW225956   0.717   0.736   5.020 -1.0256  2.1015 -0.1997
 4774SOL     OW25957   2.350   3.960  10.165  0.4995 -0.1151 -0.2864
 4774SOL    HW125958   2.408   4.031  10.138  2.2113 -1.7251 -0.8229
 4774SOL    HW225959   2.418   3.893  10.167  2.1601  1.6095  1.7277
 4775SOL     OW25960   2.748   2.220   7.397 -0.3615 -0.6396 -0.0391
 4775SOL    HW125961   2.826   2.176   7.431  0.1942  0.5557  0.2587
 4775SOL    HW225962   2.698   2.152   7.354  0.1205 -0.3245 -1.1139
 4776SOL     OW25963   2.921   3.312  14.027 -0.2776  0.4092 -0.1176
 4776SOL    HW125964   2.914   3.390  14.083 -0.6993 -0.8680  1.5935
 4776SOL    HW225965   2.831   3.292  14.001 -0.0175 -1.0576  0.1278
 4777SOL     OW25966   0.134   3.917   4.729  0.3865  0.0098  0.3118
 4777SOL    HW125967   0.158   3.951   4.642 -1.1783 -1.1687 -0.5892
 4777SOL    HW225968   0.127   3.823   4.715 -1.9520  0.4015 -1.1799
 4778SOL     OW25969   0.385   1.396   4.779 -1.2342 -0.1135 -0.0842
 4778SOL    HW125970   0.481   1.399   4.778 -1.1658 -1.7383  1.2528
 4778SOL    HW225971   0.364   1.306   4.804 -0.1788 -0.9623 -2.2472
 4779SOL     OW25972   3.014   4.186   4.659 -0.1467 -0.2545  0.5617
 4779SOL    HW125973   2.946   4.139   4.611  2.6447 -0.6090 -3.0726
 4779SOL    HW225974   3.072   4.225   4.593  0.0332  0.2918  1.0424
 4780SOL     OW25975   4.360   4.187   0.018  0.0111  0.0142  0.2053
 4780SOL    HW125976   4.375   4.135   0.097 -0.0950  0.7429  0.7082
 4780SOL    HW225977   4.441   4.236   0.005  0.4033 -0.5151  0.6208
 4781SOL     OW25978   1.477   0.647   2.694 -0.1032  0.0617 -0.1575
 4781SOL    HW125979   1.434   0.562   2.681  0.6894 -0.2715 -0.6073
 4781SOL    HW225980   1.568   0.621   2.702 -0.5255 -1.7919 -1.4039
 4782SOL     OW25981   3.087   2.713   7.784  0.4986  0.0280  0.4420
 4782SOL    HW125982   3.054   2.663   7.709 -2.8433  1.0289  1.2658
 4782SOL    HW225983   3.026   2.787   7.787 -0.1852 -0.5022 -0.5498
 4783SOL     OW25984   4.455   4.019   3.026  0.5383  0.0642 -0.7258
 4783SOL    HW125985   4.490   4.062   3.104 -0.6310  0.3509 -0.3565
 4783SOL    HW225986   4.450   3.927   3.052 -0.4418  0.4943  0.6356
 4784SOL     OW25987   3.894   3.438   7.037  0.0030 -0.2369 -0.0969
 4784SOL    HW125988   3.872   3.347   7.055 -1.2051  0.0008 -0.3715
 4784SOL    HW225989   3.986   3.441   7.065 -0.0992 -0.3541  0.2516
 4785SOL     OW25990   0.819   3.799  15.232  0.4999  0.2707 -0.2452
 4785SOL    HW125991   0.802   3.841  15.316 -1.4708 -0.1045 -0.4451
 4785SOL    HW225992   0.732   3.813  15.195 -0.1964  3.3198  2.6253
 4786SOL     OW25993   3.092   2.471   3.297 -0.2180  0.5220 -0.0861
 4786SOL    HW125994   3.047   2.451   3.215 -2.6321  0.3949  1.2760
 4786SOL    HW225995   3.182   2.446   3.276  0.6403  1.9809  1.9230
 4787SOL     OW25996   3.022   1.295   1.604 -0.0859 -0.0579  0.4877
 4787SOL    HW125997   2.934   1.268   1.629  0.0367 -0.1574  0.8019
 4787SOL    HW225998   3.024   1.275   1.510 -3.3736 -0.9894  0.6347
 4788SOL     OW25999   0.626   0.411   2.454 -0.1016  0.0891 -0.5105
 4788SOL    HW126000   0.539   0.369   2.462  0.6314 -1.4443 -0.5028
 4788SOL    HW226001   0.603   0.503   2.445 -0.1691  0.2367  1.1814
 4789SOL     OW26002   3.597   1.443  12.932  0.2612  0.3480 -0.5243
 4789SOL    HW126003   3.555   1.437  13.018  2.6232 -0.3247  0.5833
 4789SOL    HW226004   3.683   1.479  12.956  1.2089 -1.0023 -1.9415
 4790SOL     OW26005   2.966   4.062   8.960 -0.2736 -0.4509 -0.7605
 4790SOL    HW126006   2.922   4.111   9.029  0.5320  1.8334 -1.8719
 4790SOL    HW226007   2.893   4.070   8.898  0.8053 -0.8259 -2.0880
 4791SOL     OW26008   0.283   1.111   3.135  0.4598  0.5255 -0.0574
 4791SOL    HW126009   0.202   1.100   3.086 -0.0604  2.4096  0.3668
 4791SOL    HW226010   0.270   1.195   3.179 -1.8793 -0.0396  0.3275
 4792SOL     OW26011   4.444   2.972   8.650  0.0930 -0.9292 -0.0899
 4792SOL    HW126012   4.510   2.904   8.643 -0.2914 -1.1255 -1.9978
 4792SOL    HW226013   4.404   2.952   8.734  1.3412  0.3461  0.8137
 4793SOL     OW26014   0.398   2.440   7.460  0.4350  0.4232  0.7928
 4793SOL    HW126015   0.329   2.377   7.440 -0.1131  1.0082  0.8564
 4793SOL    HW226016   0.348   2.522   7.465  0.5845  0.5698 -0.0837
 4794SOL     OW26017   3.837   2.015  15.843 -0.0115  0.1743 -0.3922
 4794SOL    HW126018   3.788   2.097  15.841 -0.7741 -0.2323  2.3473
 4794SOL    HW226019   3.763   1.964  15.876 -0.3517  0.7310 -0.2944
 4795SOL     OW26020   0.826   1.575   8.254 -0.6723 -0.1150  0.0180
 4795SOL    HW126021   0.919   1.579   8.275 -0.7727  0.2108  0.3931
 4795SOL    HW226022   0.792   1.652   8.299 -1.4124  0.8584 -2.2205
 4796SOL     OW26023   1.481   0.867   2.977 -0.1239 -0.6360  0.4210
 4796SOL    HW126024   1.420   0.890   3.047 -0.8659 -1.4043  0.0286
 4796SOL    HW226025   1.527   0.787   3.005 -0.6281 -0.1793  2.5415
 4797SOL     OW26026   4.512   0.907  12.665 -0.2798  0.1073  0.1143
 4797SOL    HW126027   4.548   0.958  12.738  1.4123 -0.7808 -0.0936
 4797SOL    HW226028   4.434   0.960  12.648 -0.4884  0.1463  1.1951
 4798SOL     OW26029   3.041   4.636   9.929 -0.1099  0.3752 -0.2398
 4798SOL    HW126030   2.959   4.679   9.953  0.7777  1.6651  0.4743
 4798SOL    HW226031   3.038   4.550   9.971 -1.1385  0.3276 -0.3957
 4799SOL     OW26032   1.806   2.972   5.833  0.4468  0.0908  0.5725
 4799SOL    HW126033   1.789   3.063   5.809 -0.0110  0.3062  1.7229
 4799SOL    HW226034   1.894   2.993   5.863  0.9815 -0.5573 -0.5488
 4800SOL     OW26035   3.917   3.914   7.814 -0.2560 -0.4778 -0.2329
 4800SOL    HW126036   3.822   3.905   7.802 -0.4530 -0.0110  0.9347
 4800SOL    HW226037   3.925   3.947   7.904 -1.3138 -0.2528 -0.2183
 4801SOL     OW26038   2.898   3.963  10.099  0.7513  0.0680 -0.4000
 4801SOL    HW126039   2.927   4.001  10.182  1.3118  1.6389 -1.2915
 4801SOL    HW226040   2.866   3.875  10.116  0.8528  0.3356  1.1974
 4802SOL     OW26041   1.089   0.230   3.524 -0.0256 -0.0592 -0.5636
 4802SOL    HW126042   1.034   0.257   3.598 -1.0080  0.3962 -1.4503
 4802SOL    HW226043   1.058   0.282   3.449  1.7048  0.2114 -1.0889
 4803SOL     OW26044   1.599   1.073  10.109  0.7497 -0.0854  0.2518
 4803SOL    HW126045   1.606   1.142  10.042 -2.4436  1.6564  1.6987
 4803SOL    HW226046   1.597   0.996  10.052 -0.5164 -0.8939  1.4044
 4804SOL     OW26047   0.795   3.497   6.659  0.1044  0.1241 -0.7176
 4804SOL    HW126048   0.808   3.592   6.670  0.7006 -0.3879  3.0503
 4804SOL    HW226049   0.815   3.466   6.747  1.3953 -0.4239 -1.2073
 4805SOL     OW26050   3.029   3.422   2.386 -0.5400 -0.5259  0.9296
 4805SOL    HW126051   3.055   3.365   2.314 -2.1256 -1.1363  0.8288
 4805SOL    HW226052   2.966   3.474   2.336  0.2451  0.1387  0.6292
 4806SOL     OW26053   1.823   2.308   3.120  0.5084  0.1221  0.1154
 4806SOL    HW126054   1.815   2.291   3.214 -0.9980  2.5816  0.4275
 4806SOL    HW226055   1.912   2.342   3.109 -0.1113  1.4848 -0.6525
 4807SOL     OW26056   3.200   3.771   1.067 -0.0257 -0.1046 -0.1307
 4807SOL    HW126057   3.260   3.722   1.123 -0.2643  0.6740  0.8142
 4807SOL    HW226058   3.198   3.857   1.110  0.6629  0.3806 -1.0560
 4808SOL     OW26059   0.145   1.319   4.286  0.2320 -0.5031 -0.3339
 4808SOL    HW126060   0.162   1.330   4.379 -0.5776 -3.3969  0.1338
 4808SOL    HW226061   0.078   1.385   4.265  0.8038  0.1595 -0.0769
 4809SOL     OW26062   4.712   3.296   6.208  0.3623  0.1725 -0.0942
 4809SOL    HW126063   4.627   3.262   6.238  0.0589  0.1007 -1.0131
 4809SOL    HW226064   4.701   3.391   6.211  3.2141  0.5456 -1.2387
 4810SOL     OW26065   2.791   3.836   8.812 -0.2258 -0.2399  0.2402
 4810SOL    HW126066   2.745   3.919   8.826  0.4409  0.2346 -0.3609
 4810SOL    HW226067   2.784   3.786   8.893 -0.8601  1.0926  1.0055
 4811SOL     OW26068   1.494   2.660  12.254  0.0725  0.3703 -0.2039
 4811SOL    HW126069   1.405   2.656  12.219 -0.0626 -0.9275  0.2622
 4811SOL    HW226070   1.503   2.584  12.312  3.5079  0.8306 -0.1470
 4812SOL     OW26071   0.991   0.433   3.370 -0.5084  0.0819  0.2280
 4812SOL    HW126072   0.932   0.500   3.338 -0.4972 -0.1155 -0.2019
 4812SOL    HW226073   1.008   0.381   3.292  0.5948  1.7627 -0.6555
 4813SOL     OW26074   1.779   3.687  14.643  0.2039  1.0893  0.1358
 4813SOL    HW126075   1.737   3.617  14.692  1.1417  1.4321  1.4261
 4813SOL    HW226076   1.827   3.634  14.579 -1.0723 -2.2457  1.9415
 4814SOL     OW26077   2.956   2.360   9.738  0.0908 -0.3401  0.8712
 4814SOL    HW126078   2.949   2.434   9.677 -0.5744 -0.4474  0.8113
 4814SOL    HW226079   2.866   2.328   9.743 -0.0036 -0.4195 -1.3552
 4815SOL     OW26080   2.371   0.356  12.167  0.3002  0.4406 -0.3730
 4815SOL    HW126081   2.368   0.310  12.083  0.7691  0.8470 -0.6082
 4815SOL    HW226082   2.422   0.433  12.143  1.9850 -0.4707  0.3436
 4816SOL     OW26083   2.710   3.113   3.426 -0.8034  0.1332 -0.2184
 4816SOL    HW126084   2.735   3.134   3.336  2.4563 -2.0051  0.1544
 4816SOL    HW226085   2.685   3.199   3.458  1.0314  0.4866  0.2670
 4817SOL     OW26086   0.194   1.581   9.058  0.0005 -0.3813  0.0828
 4817SOL    HW126087   0.266   1.520   9.041 -1.6781 -2.5715  0.8634
 4817SOL    HW226088   0.199   1.649   8.990  1.3009  0.9980  1.5562
 4818SOL     OW26089   3.350   4.516  11.566 -0.3369 -0.1015 -0.7502
 4818SOL    HW126090   3.358   4.512  11.661  2.7669 -2.7471 -1.1484
 4818SOL    HW226091   3.398   4.599  11.560 -1.9136  0.7807 -1.4041
 4819SOL     OW26092   1.848   0.617  16.635 -0.7540  1.0335  0.0946
 4819SOL    HW126093   1.794   0.561  16.692 -1.9544  2.1295  0.0458
 4819SOL    HW226094   1.786   0.689  16.623 -1.2238  0.1391 -2.7736
 4820SOL     OW26095   1.017   0.418   7.136  0.0972 -0.1255  0.1457
 4820SOL    HW126096   1.061   0.388   7.216 -1.1563 -1.9312  0.1596
 4820SOL    HW226097   0.947   0.465   7.180  0.2811 -0.5351  0.8933
 4821SOL     OW26098   3.333   4.735   6.444 -0.6642  0.0071  0.0681
 4821SOL    HW126099   3.349   4.663   6.384  0.2845  1.9159 -1.9696
 4821SOL    HW226100   3.404   4.724   6.507 -0.2567  0.6053 -0.2799
 4822SOL     OW26101   2.635   4.715  12.905 -0.1423  0.5467 -0.6966
 4822SOL    HW126102   2.721   4.673  12.902 -0.6995 -0.5976 -0.5421
 4822SOL    HW226103   2.597   4.666  12.978  0.5947  0.1831 -0.5653
 4823SOL     OW26104   3.753   3.362  10.618  0.1205  0.4942  0.3114
 4823SOL    HW126105   3.775   3.450  10.588 -1.6198  1.4193  1.7608
 4823SOL    HW226106   3.663   3.368  10.649 -0.6770  0.1632 -1.9969
 4824SOL     OW26107   2.420   0.461  11.250 -0.5089  0.0609  0.1973
 4824SOL    HW126108   2.434   0.481  11.342 -1.6205  0.8473  0.2020
 4824SOL    HW226109   2.387   0.371  11.248  0.9794 -0.5140  1.8845
 4825SOL     OW26110   0.930   3.068   0.652  0.0801 -0.0447 -0.0764
 4825SOL    HW126111   0.872   3.007   0.606 -0.6726  0.4679  0.1917
 4825SOL    HW226112   0.861   3.096   0.713 -0.8671  0.3672 -1.3257
 4826SOL     OW26113   3.664   3.034   4.659  0.9185  0.1439  0.2755
 4826SOL    HW126114   3.624   2.951   4.633 -3.0212  2.4978 -1.3002
 4826SOL    HW226115   3.741   3.027   4.602  1.0032 -1.6038  0.5948
 4827SOL     OW26116   0.721   3.932   4.539 -0.1353 -0.2014 -0.1370
 4827SOL    HW126117   0.654   3.923   4.607  1.7767 -1.5497  1.5707
 4827SOL    HW226118   0.783   3.861   4.554  0.3918 -0.4412 -3.5925
 4828SOL     OW26119   0.233   0.129   2.307  0.1952  0.2750 -0.4019
 4828SOL    HW126120   0.218   0.038   2.284  1.6587 -0.0427 -0.0703
 4828SOL    HW226121   0.245   0.161   2.218  0.6666 -2.1560 -1.2070
 4829SOL     OW26122   2.700   3.697   1.725  0.2641 -0.8293 -0.1992
 4829SOL    HW126123   2.732   3.675   1.812 -1.2068  0.6505  0.7156
 4829SOL    HW226124   2.747   3.636   1.668  0.9695 -1.2395  0.8370
 4830SOL     OW26125   3.345   1.347  13.412 -0.0688  0.0625  0.0194
 4830SOL    HW126126   3.414   1.323  13.473  0.7088  0.4075 -0.7147
 4830SOL    HW226127   3.309   1.432  13.438  1.9534 -0.1575  3.5110
 4831SOL     OW26128   0.580   2.795   0.099  0.1185  0.8025 -0.1883
 4831SOL    HW126129   0.571   2.701   0.118 -1.4503  0.7606 -1.2017
 4831SOL    HW226130   0.672   2.804   0.123  0.2460 -1.4453  0.2215
 4832SOL     OW26131   0.253   3.438  14.504 -0.5194 -0.7594  0.3084
 4832SOL    HW126132   0.264   3.532  14.519 -1.9214 -0.8019  1.6679
 4832SOL    HW226133   0.286   3.389  14.580  0.6332 -0.2256  0.1503
 4833SOL     OW26134   0.908   3.533   5.194  0.6085 -0.8058 -0.1790
 4833SOL    HW126135   1.000   3.553   5.175  0.1122  1.0185 -0.6760
 4833SOL    HW226136   0.927   3.483   5.273  0.8646  0.1644  0.3751
 4834SOL     OW26137   3.097   2.311   7.652  0.1946  0.3194  0.1589
 4834SOL    HW126138   3.161   2.338   7.586 -0.6798 -1.3405 -1.3656
 4834SOL    HW226139   3.025   2.370   7.629  1.1274  1.0774 -0.7878
 4835SOL     OW26140   2.735   0.362   1.985 -0.7272  0.0587 -0.0855
 4835SOL    HW126141   2.770   0.303   1.918  0.4143  0.8267 -0.1746
 4835SOL    HW226142   2.643   0.341   1.972 -0.0945 -0.6419 -3.2534
 4836SOL     OW26143   2.326   0.017   2.478  0.6195 -0.2801  0.2755
 4836SOL    HW126144   2.332   0.069   2.557 -0.8565 -1.4997  1.1872
 4836SOL    HW226145   2.237   4.726   2.498  0.4679 -0.4364 -0.6031
 4837SOL     OW26146   0.817   4.587   3.148  0.4094 -0.1991 -0.1200
 4837SOL    HW126147   0.809   4.591   3.052  0.6143  1.7288 -0.0552
 4837SOL    HW226148   0.760   4.511   3.159  1.8715 -1.4915 -1.5732
 4838SOL     OW26149   1.232   0.503   5.441  0.2328  0.1843 -0.7675
 4838SOL    HW126150   1.238   0.407   5.446  1.2593  0.3584  1.1933
 4838SOL    HW226151   1.244   0.518   5.347  1.7117 -2.5698 -1.0156
 4839SOL     OW26152   1.687   0.691  15.752 -0.2047 -0.1150  0.1929
 4839SOL    HW126153   1.738   0.614  15.728  1.0609  0.8741 -0.2867
 4839SOL    HW226154   1.681   0.742  15.671  0.1249 -0.6704 -0.1817
 4840SOL     OW26155   1.056   4.257  10.961 -0.1047 -0.4526  0.3869
 4840SOL    HW126156   1.005   4.332  10.991 -0.0158  0.3154 -1.3960
 4840SOL    HW226157   1.110   4.292  10.890 -2.1514 -0.9234 -1.4106
 4841SOL     OW26158   3.484   1.992  12.078  0.3922 -0.0363 -0.0395
 4841SOL    HW126159   3.444   2.078  12.089  1.2051  0.2562  0.7131
 4841SOL    HW226160   3.461   1.955  12.163 -0.6481  1.2702  0.2272
 4842SOL     OW26161   2.193   0.988   4.352  0.3766 -0.2675 -0.1300
 4842SOL    HW126162   2.209   1.024   4.439 -1.9920  3.3439 -1.1870
 4842SOL    HW226163   2.099   1.003   4.346  0.8464  2.5810 -0.7511
 4843SOL     OW26164   3.980   3.109   7.317 -0.5243  0.9542  0.4447
 4843SOL    HW126165   4.037   3.115   7.394 -3.0296  3.2170  2.1157
 4843SOL    HW226166   3.904   3.069   7.361  0.8717 -1.2234  0.8877
 4844SOL     OW26167   3.403   1.668   9.040 -1.0724 -0.0194 -0.5201
 4844SOL    HW126168   3.481   1.653   8.986  1.2645  0.3437  2.7900
 4844SOL    HW226169   3.340   1.604   9.008 -0.6885  0.5061 -2.3311
 4845SOL     OW26170   1.039   1.126   8.778  0.7203 -1.0753  0.2089
 4845SOL    HW126171   1.032   1.153   8.870 -1.7366  1.6985 -0.8130
 4845SOL    HW226172   0.981   1.050   8.773  1.7323 -1.9164  0.9866
 4846SOL     OW26173   3.700   3.033  11.927 -0.2844  0.3659  0.1552
 4846SOL    HW126174   3.676   3.001  11.840  1.3847  0.4170 -0.3265
 4846SOL    HW226175   3.772   3.088  11.896  0.8636 -1.3430 -0.2346
 4847SOL     OW26176   1.809   0.079   4.765 -0.4960 -0.0131 -0.1121
 4847SOL    HW126177   1.757   0.026   4.826 -0.6696  2.3806  1.8018
 4847SOL    HW226178   1.862   0.130   4.825 -0.3634  0.4610 -0.6317
 4848SOL     OW26179   2.972   0.905   7.288  0.2535 -0.2018 -0.9221
 4848SOL    HW126180   3.056   0.912   7.335 -1.7814 -1.7523  2.9358
 4848SOL    HW226181   2.953   0.998   7.278 -0.1337 -0.1918 -0.0761
 4849SOL     OW26182   4.024   1.619   4.729 -0.3545  0.5859 -0.6392
 4849SOL    HW126183   3.972   1.632   4.808  0.4092  1.9816 -0.3667
 4849SOL    HW226184   3.993   1.691   4.674 -0.5561 -0.1266 -1.4666
 4850SOL     OW26185   1.319   1.989   0.686  0.1520 -0.0321  0.1083
 4850SOL    HW126186   1.319   2.083   0.669  0.2235  0.2042  1.3842
 4850SOL    HW226187   1.409   1.959   0.690 -0.3515 -1.4106  1.4685
 4851SOL     OW26188   2.668   0.295   4.132  0.1116  0.3089 -0.0060
 4851SOL    HW126189   2.689   0.388   4.131 -0.0176  0.3444  0.7290
 4851SOL    HW226190   2.725   0.268   4.059  0.4142 -1.7960  1.0215
 4852SOL     OW26191   4.648   4.647  13.680  0.4214 -0.1178  0.6607
 4852SOL    HW126192   4.694   4.565  13.666  1.0692  0.2755  0.5142
 4852SOL    HW226193   4.562   4.626  13.642  0.9288  0.4560 -0.8232
 4853SOL     OW26194   1.993   0.112   8.463 -0.0912  0.2772  0.3970
 4853SOL    HW126195   1.947   0.177   8.517  0.9370  1.0393  0.3561
 4853SOL    HW226196   2.014   0.164   8.386  0.0339 -1.6303 -0.8365
 4854SOL     OW26197   0.826   4.239   8.503  0.0742 -0.1275  0.5139
 4854SOL    HW126198   0.918   4.261   8.516 -0.6534  3.4886 -0.4089
 4854SOL    HW226199   0.784   4.317   8.540 -2.5037 -0.2404 -2.2070
 4855SOL     OW26200   2.511   4.473   7.692 -0.8500 -0.3296 -0.2353
 4855SOL    HW126201   2.523   4.523   7.773 -1.2315 -0.7324  0.0710
 4855SOL    HW226202   2.427   4.506   7.659 -1.8839 -1.8274  0.9039
 4856SOL     OW26203   4.335   2.997   8.064  0.0578  0.4309 -0.6405
 4856SOL    HW126204   4.409   2.964   8.115 -1.2004  1.2217  1.6499
 4856SOL    HW226205   4.268   2.930   8.076  0.4398  0.6047  2.2937
 4857SOL     OW26206   0.212   1.688   3.233  0.8064 -0.0363  0.0133
 4857SOL    HW126207   0.171   1.738   3.163  1.7640 -1.9092 -1.8878
 4857SOL    HW226208   0.294   1.684   3.183  0.1421 -1.7036 -0.9621
 4858SOL     OW26209   1.310   1.996   7.561  0.1364 -0.1712 -0.0988
 4858SOL    HW126210   1.323   1.901   7.566 -0.9477 -0.3729 -1.1516
 4858SOL    HW226211   1.372   2.015   7.631 -0.3491  0.6713  0.0939
 4859SOL     OW26212   1.482   1.433   4.637 -0.1905 -0.0505  0.4059
 4859SOL    HW126213   1.547   1.502   4.647 -1.3018  0.6201  2.9661
 4859SOL    HW226214   1.407   1.493   4.640  0.2688  0.6032 -0.9604
 4860SOL     OW26215   0.647   1.650   3.453 -0.6738 -0.0509 -1.0100
 4860SOL    HW126216   0.660   1.597   3.374 -0.8901 -0.9343 -0.4574
 4860SOL    HW226217   0.707   1.719   3.426  1.4862 -1.5323 -0.0001
 4861SOL     OW26218   3.287   3.709  13.478 -0.3608 -0.6651 -0.2483
 4861SOL    HW126219   3.273   3.660  13.559  0.2833  2.0001  1.4774
 4861SOL    HW226220   3.278   3.645  13.408  1.0448 -0.1547 -0.9127
 4862SOL     OW26221   2.639   4.429   4.319 -0.2172  0.0703 -0.2517
 4862SOL    HW126222   2.655   4.513   4.363  1.7179 -1.1570  1.3912
 4862SOL    HW226223   2.544   4.428   4.320 -0.1927 -1.9501  0.7230
 4863SOL     OW26224   1.750   1.764  12.352 -0.1238 -0.2731  0.4706
 4863SOL    HW126225   1.843   1.753  12.332  0.6160  0.8236  3.3497
 4863SOL    HW226226   1.724   1.680  12.390  2.4917 -0.6556  1.4325
 4864SOL     OW26227   0.013   0.716   5.242 -0.2669 -0.6381  0.0725
 4864SOL    HW126228   0.004   0.680   5.154 -0.2949 -0.2482 -0.0845
 4864SOL    HW226229   0.104   0.701   5.267  0.3059  0.0644 -1.5584
 4865SOL     OW26230   0.981   1.024   3.272  0.8993 -0.2969 -0.1072
 4865SOL    HW126231   1.034   0.979   3.339  0.2711  0.5119  0.9218
 4865SOL    HW226232   0.924   1.080   3.324  1.0339  0.0504 -0.3349
 4866SOL     OW26233   1.775   0.077   2.479 -0.8014  0.0366  0.0276
 4866SOL    HW126234   1.775   0.157   2.427  2.4773 -1.5948 -2.5014
 4866SOL    HW226235   1.682   0.071   2.501 -0.5982  1.3753  1.2660
 4867SOL     OW26236   4.310   2.115   7.785 -0.1598 -0.3182 -0.0321
 4867SOL    HW126237   4.358   2.042   7.824 -0.0775 -0.0116  0.4550
 4867SOL    HW226238   4.336   2.113   7.693 -1.1128  1.7125 -0.3446
 4868SOL     OW26239   2.592   2.381   8.554  0.3014 -0.2545 -0.0428
 4868SOL    HW126240   2.660   2.447   8.566 -0.4203  0.5318 -0.2897
 4868SOL    HW226241   2.641   2.299   8.543 -1.1371 -1.2125  0.5438
 4869SOL     OW26242   2.743   0.791   9.662  0.3209  0.2107  0.7589
 4869SOL    HW126243   2.649   0.808   9.661  0.2973  0.0847  0.8624
 4869SOL    HW226244   2.748   0.703   9.625 -1.7872  0.6948 -0.6828
 4870SOL     OW26245   4.307   2.708   6.445  0.0645 -0.3478 -0.2344
 4870SOL    HW126246   4.360   2.745   6.374  0.7158 -2.6072 -0.9287
 4870SOL    HW226247   4.227   2.760   6.436 -0.4438 -1.1145 -0.0265
 4871SOL     OW26248   0.037   2.530   1.024  0.1827  0.6155  0.0413
 4871SOL    HW126249   0.047   2.574   1.109 -0.9260  1.0643 -0.0705
 4871SOL    HW226250   4.707   2.583   0.983 -0.6202  0.5174  1.2133
 4872SOL     OW26251   3.141   1.421   3.193 -0.2453  0.0827  0.8325
 4872SOL    HW126252   3.091   1.495   3.228 -0.3437  0.7297 -0.6819
 4872SOL    HW226253   3.137   1.371   3.274 -0.5726  0.8588  1.2951
 4873SOL     OW26254   0.228   3.370   0.256 -0.7113  0.5419 -0.0600
 4873SOL    HW126255   0.214   3.422   0.177  1.4300 -2.2164 -2.2448
 4873SOL    HW226256   0.322   3.381   0.273 -0.9940  1.2374  1.0692
 4874SOL     OW26257   3.599   3.775   5.200  0.8397 -0.7455 -0.1157
 4874SOL    HW126258   3.664   3.707   5.184  0.6265 -1.0680  0.3673
 4874SOL    HW226259   3.577   3.757   5.291 -0.2640 -0.9288 -0.4151
 4875SOL     OW26260   1.817   0.728  14.820 -0.4380  0.3064  0.3512
 4875SOL    HW126261   1.865   0.750  14.900  0.6775 -0.8457  0.0038
 4875SOL    HW226262   1.830   0.808  14.770  1.8106  1.0827  2.1802
 4876SOL     OW26263   1.680   0.032  14.091  0.0749  0.3715 -0.2321
 4876SOL    HW126264   1.773   0.054  14.087  0.1469  0.5860  2.6703
 4876SOL    HW226265   1.648   0.049  14.002  1.4970 -0.6886 -0.9500
 4877SOL     OW26266   3.472   0.462   3.599 -0.1753 -0.2014 -0.3594
 4877SOL    HW126267   3.430   0.494   3.679 -2.7016 -1.0517 -1.3471
 4877SOL    HW226268   3.444   0.371   3.594  0.4793 -0.4320  0.1810
 4878SOL     OW26269   1.962   0.887  13.253 -0.4004  0.0844  0.4335
 4878SOL    HW126270   1.959   0.980  13.274 -2.3964  0.8780 -3.3512
 4878SOL    HW226271   1.923   0.850  13.332  0.4275 -1.5567  0.0876
 4879SOL     OW26272   2.570   3.615   6.067  0.6925  0.1753 -0.7471
 4879SOL    HW126273   2.607   3.561   6.136 -0.0654  1.4627  0.6498
 4879SOL    HW226274   2.636   3.685   6.067  0.3998  0.4364  3.3686
 4880SOL     OW26275   2.957   1.520   2.741  0.1808 -0.8457  0.1880
 4880SOL    HW126276   2.910   1.591   2.786  1.3958 -0.6724  1.1660
 4880SOL    HW226277   2.993   1.471   2.815  0.9740  1.1389  1.1111
 4881SOL     OW26278   1.521   4.082  11.922 -0.2648 -0.1141  0.0192
 4881SOL    HW126279   1.602   4.050  11.883  0.4970  1.6543  0.1278
 4881SOL    HW226280   1.537   4.065  12.015  1.2007 -3.8016 -0.9057
 4882SOL     OW26281   2.283   0.666   7.023 -0.0148  0.1414  0.0766
 4882SOL    HW126282   2.323   0.617   6.951 -1.2986  0.5299 -0.8952
 4882SOL    HW226283   2.271   0.748   6.975  0.2973 -0.0098 -0.2607
 4883SOL     OW26284   1.937   2.882   2.334  0.6374 -0.4986 -0.2884
 4883SOL    HW126285   1.911   2.791   2.321 -1.5059  0.1880 -0.8860
 4883SOL    HW226286   2.031   2.877   2.348  0.3861  1.4348  2.2161
 4884SOL     OW26287   1.776   1.536   6.293  0.4867  0.6290 -0.1890
 4884SOL    HW126288   1.706   1.518   6.230  1.0132  1.9337 -1.1349
 4884SOL    HW226289   1.744   1.621   6.322  0.4358  0.4054  0.4106
 4885SOL     OW26290   0.355   3.535  11.327  0.1067  0.4130 -0.0563
 4885SOL    HW126291   0.432   3.556  11.381  0.7282  0.6363 -1.0429
 4885SOL    HW226292   0.373   3.587  11.249 -2.0561  2.9465  1.1347
 4886SOL     OW26293   0.294   3.500   9.684 -0.0488 -0.1107  0.4606
 4886SOL    HW126294   0.207   3.460   9.685  1.1734 -2.7917 -0.8102
 4886SOL    HW226295   0.334   3.454   9.757 -0.6864  0.5017  1.1961
 4887SOL     OW26296   1.892   0.176   1.824  0.2550  0.3828 -0.0402
 4887SOL    HW126297   1.821   0.124   1.861  0.9488 -1.7962 -1.8037
 4887SOL    HW226298   1.928   0.215   1.904 -1.2072 -1.8759  1.7118
 4888SOL     OW26299   1.950   1.079   7.423 -0.0895  0.4494 -0.0530
 4888SOL    HW126300   1.890   1.085   7.497 -0.6613 -2.5231 -0.2914
 4888SOL    HW226301   1.905   1.020   7.363  2.4991 -1.4764 -0.0810
 4889SOL     OW26302   1.389   1.761   5.461  0.0899 -0.7723 -0.2119
 4889SOL    HW126303   1.447   1.691   5.433  1.5362 -0.3620  1.7501
 4889SOL    HW226304   1.314   1.707   5.485 -0.0912 -0.1929  0.5345
 4890SOL     OW26305   3.909   0.169  16.835  0.4464 -0.1011  0.1194
 4890SOL    HW126306   3.885   0.078  16.856 -2.6512  0.7054  0.1016
 4890SOL    HW226307   3.941   0.208  16.916 -2.1923  0.5752  0.8400
 4891SOL     OW26308   2.842   0.356  14.684 -0.8492  0.0359 -0.5170
 4891SOL    HW126309   2.793   0.391  14.609 -2.2521 -1.3946 -0.2617
 4891SOL    HW226310   2.915   0.328  14.628  2.1759  0.1208  3.4030
 4892SOL     OW26311   3.989   0.206  14.658  0.0437  0.3317  0.1015
 4892SOL    HW126312   4.071   0.241  14.693 -0.4373  0.9615  0.5957
 4892SOL    HW226313   3.928   0.274  14.688  1.6707  2.0162 -0.3551
 4893SOL     OW26314   1.419   0.488  11.319  0.1527  0.1911  0.0987
 4893SOL    HW126315   1.404   0.394  11.332  1.2610 -0.1066 -0.7822
 4893SOL    HW226316   1.369   0.515  11.396  0.0278 -2.1917  0.8522
 4894SOL     OW26317   1.049   1.313  17.309  0.2032  0.7352  0.5192
 4894SOL    HW126318   1.000   1.234  17.289  2.1774 -0.5141  0.5677
 4894SOL    HW226319   1.023   1.362  17.231 -2.9228 -2.4464 -0.3849
 4895SOL     OW26320   1.173   3.723   4.049  0.1199 -0.2933  0.2615
 4895SOL    HW126321   1.177   3.810   4.089 -1.9634  0.1256 -0.4353
 4895SOL    HW226322   1.244   3.739   3.988  0.5561 -2.1837  0.2628
 4896SOL     OW26323   3.299   2.127   7.303  0.5485 -0.4721 -0.0461
 4896SOL    HW126324   3.270   2.210   7.266 -1.4271 -1.7438 -1.3300
 4896SOL    HW226325   3.391   2.151   7.316  0.7231 -0.7509 -0.7745
 4897SOL     OW26326   4.140   0.745   4.930 -0.2025  0.4842 -0.0227
 4897SOL    HW126327   4.122   0.818   4.989 -0.6967  0.3551 -0.0160
 4897SOL    HW226328   4.056   0.742   4.884 -1.6695 -3.4953  2.8973
 4898SOL     OW26329   4.392   1.055   8.460 -0.0120  0.1676  0.2935
 4898SOL    HW126330   4.459   1.022   8.520  0.7201  1.5957  0.2785
 4898SOL    HW226331   4.400   1.147   8.484 -0.6483  0.3882 -0.3413
 4899SOL     OW26332   3.852   3.178   7.092 -0.3975 -0.1874 -0.4044
 4899SOL    HW126333   3.914   3.167   7.164 -2.3685 -1.4604  1.0908
 4899SOL    HW226334   3.815   3.090   7.091  1.2378 -0.9038  1.1901
 4900SOL     OW26335   0.315   3.209   2.715  0.3408 -0.5579 -0.4691
 4900SOL    HW126336   0.386   3.145   2.711  0.7971 -0.1776  1.6916
 4900SOL    HW226337   0.328   3.250   2.629  0.8965  1.2794  0.4964
 4901SOL     OW26338   4.613   3.026  16.905 -0.0824 -0.2349  0.0038
 4901SOL    HW126339   4.600   2.956  16.841 -1.9026  0.2758 -0.1998
 4901SOL    HW226340   4.523   3.059  16.912 -0.7135 -1.6581 -1.3858
 4902SOL     OW26341   2.644   0.257   7.560 -0.5601 -0.5568 -0.1446
 4902SOL    HW126342   2.732   0.267   7.597 -0.3242 -0.1966 -0.7910
 4902SOL    HW226343   2.658   0.318   7.487  2.4828 -1.7576 -0.5684
 4903SOL     OW26344   4.195   1.378   2.791 -0.1805 -0.6569 -0.0242
 4903SOL    HW126345   4.099   1.378   2.791 -0.1736 -0.6828  0.7421
 4903SOL    HW226346   4.220   1.297   2.835  2.5041 -0.2864 -0.8634
 4904SOL     OW26347   1.408   1.215   7.670 -0.1538 -0.2166 -0.1237
 4904SOL    HW126348   1.404   1.263   7.587  0.7432  1.3567  0.7314
 4904SOL    HW226349   1.426   1.130   7.631  0.8352  0.3896 -1.0085
 4905SOL     OW26350   3.922   2.669  12.248  0.0273 -0.0975 -0.4207
 4905SOL    HW126351   4.013   2.697  12.253  1.4891 -4.5195 -1.7070
 4905SOL    HW226352   3.879   2.752  12.227  0.4876  0.1991 -0.1757
 4906SOL     OW26353   1.356   0.349  10.797  0.1826 -0.4100  0.0461
 4906SOL    HW126354   1.289   0.392  10.744  0.6101 -0.0470 -0.2004
 4906SOL    HW226355   1.324   0.352  10.887 -4.4944 -2.0942 -1.5718
 4907SOL     OW26356   0.100   2.569   6.092  0.5882 -0.4524  0.3584
 4907SOL    HW126357   0.165   2.594   6.026 -0.3606  0.1355 -0.3637
 4907SOL    HW226358   0.020   2.606   6.056  0.2469 -0.7401  0.8246
 4908SOL     OW26359   1.701   0.643   2.948 -0.0548  0.1857  0.1133
 4908SOL    HW126360   1.771   0.659   3.011 -1.1667  0.8323  1.1704
 4908SOL    HW226361   1.650   0.579   2.997 -0.2915 -0.5233 -1.0417
 4909SOL     OW26362   2.571   2.781   2.863  0.0963  0.1332 -0.1755
 4909SOL    HW126363   2.532   2.799   2.777  0.3137  2.3199  0.1822
 4909SOL    HW226364   2.615   2.697   2.850 -2.5655 -1.6226  2.2247
 4910SOL     OW26365   3.199   1.498  10.874 -0.5042 -0.2807  0.0243
 4910SOL    HW126366   3.231   1.515  10.963  0.6440 -0.7633 -0.3009
 4910SOL    HW226367   3.119   1.550  10.880 -1.4319 -1.3957 -3.0808
 4911SOL     OW26368   2.623   0.931   7.755  0.1927 -0.0103  0.9280
 4911SOL    HW126369   2.664   0.974   7.680 -0.1145  0.9120  1.2901
 4911SOL    HW226370   2.677   0.853   7.748  1.8149  1.1355  0.8451
 4912SOL     OW26371   4.056   2.009   7.526  0.1884  0.5473 -0.2299
 4912SOL    HW126372   4.049   2.052   7.441 -3.3511  3.3420  1.5059
 4912SOL    HW226373   4.139   1.965   7.506 -0.8978 -0.8712 -1.6588
 4913SOL     OW26374   2.625   4.550   9.767 -0.2487  0.3835  0.2262
 4913SOL    HW126375   2.549   4.599   9.736 -1.3407  1.3152  4.4021
 4913SOL    HW226376   2.690   4.620   9.762  0.6265 -0.4300  0.0915
 4914SOL     OW26377   0.591   0.555  11.986 -0.6709 -0.2530 -0.4924
 4914SOL    HW126378   0.519   0.549  11.924 -1.0972  1.6278 -0.1657
 4914SOL    HW226379   0.663   0.528  11.930  0.7894  0.8561  0.8557
 4915SOL     OW26380   3.752   3.097   4.926 -0.2751 -0.1019  0.1397
 4915SOL    HW126381   3.794   3.012   4.913  1.6325  0.9469 -0.5304
 4915SOL    HW226382   3.708   3.113   4.843  0.1294 -0.0155 -0.0577
 4916SOL     OW26383   2.964   4.439   5.889 -0.0389 -0.0519 -0.7381
 4916SOL    HW126384   2.996   4.501   5.954 -0.8777 -1.9196  1.4552
 4916SOL    HW226385   2.877   4.418   5.924 -0.3663  1.5770 -0.6002
 4917SOL     OW26386   2.189   0.610   9.487 -0.1369  0.3243 -0.1037
 4917SOL    HW126387   2.253   0.542   9.467 -0.3863 -0.6526  2.4496
 4917SOL    HW226388   2.172   0.624   9.394  0.5989  2.0123  0.0246
 4918SOL     OW26389   1.781   1.381   1.033 -0.1620 -0.2807 -0.2848
 4918SOL    HW126390   1.865   1.335   1.041 -0.9467 -1.7892 -0.7541
 4918SOL    HW226391   1.796   1.446   0.964  0.8165  0.0286  0.2166
 4919SOL     OW26392   3.431   2.845   5.675  0.3709  0.6266 -0.5063
 4919SOL    HW126393   3.453   2.754   5.695  0.8530  0.6851 -0.7825
 4919SOL    HW226394   3.394   2.873   5.759  1.8195 -0.2966  0.4353
 4920SOL     OW26395   2.352   1.508   7.791 -0.3836  0.1957 -0.1492
 4920SOL    HW126396   2.278   1.536   7.844 -0.1041  1.3892 -0.3790
 4920SOL    HW226397   2.332   1.415   7.782  0.0429  0.2148 -1.2464
 4921SOL     OW26398   2.795   0.783   2.645  0.0043 -0.1014 -0.2297
 4921SOL    HW126399   2.847   0.733   2.708 -0.9129 -1.1642 -0.3142
 4921SOL    HW226400   2.714   0.733   2.637 -0.4548  0.4156  1.2377
 4922SOL     OW26401   2.319   4.138   9.896 -0.4910  0.1098  0.6300
 4922SOL    HW126402   2.283   4.183   9.820 -1.4783 -0.4973  0.7356
 4922SOL    HW226403   2.386   4.201   9.925  1.4540 -1.3736 -0.7145
 4923SOL     OW26404   2.256   2.986  17.271  0.0794  0.4099 -0.1586
 4923SOL    HW126405   2.264   2.923  17.201 -0.2395 -0.1330  0.2920
 4923SOL    HW226406   2.346   3.016  17.276  0.0974  0.5257 -1.3290
 4924SOL     OW26407   2.830   1.346   9.502  0.3163 -0.5614 -0.1383
 4924SOL    HW126408   2.920   1.374   9.487  0.5172 -0.3261  1.5139
 4924SOL    HW226409   2.785   1.430   9.507 -0.4193 -0.8690 -1.6572
 4925SOL     OW26410   4.728   3.979   2.252 -0.3032  0.7336  0.0370
 4925SOL    HW126411   0.041   4.031   2.314 -0.5416  0.6326  0.3212
 4925SOL    HW226412   4.685   3.916   2.310  3.2198 -0.7076  1.0560
 4926SOL     OW26413   1.896   2.400   3.920  0.2049  0.1454 -0.5072
 4926SOL    HW126414   1.919   2.409   4.012  1.1901  0.3599 -0.7786
 4926SOL    HW226415   1.984   2.389   3.884  0.1917 -1.5237 -0.0595
 4927SOL     OW26416   2.701   1.911   3.415  0.0693 -0.0614 -0.7351
 4927SOL    HW126417   2.663   1.877   3.496  0.2214  1.2369 -0.1286
 4927SOL    HW226418   2.658   1.993   3.393 -3.2596 -0.8126  3.0196
 4928SOL     OW26419   4.177   2.129   2.167 -0.1616  0.5628  0.1431
 4928SOL    HW126420   4.206   2.210   2.210  0.6586  0.3987 -0.1045
 4928SOL    HW226421   4.123   2.163   2.096  0.5383 -1.4454 -1.3524
 4929SOL     OW26422   3.526   1.233   3.029  0.1793 -0.0101 -0.0779
 4929SOL    HW126423   3.613   1.273   3.035  0.0090 -0.2236  3.8465
 4929SOL    HW226424   3.532   1.139   3.048 -0.9376 -0.3650 -1.4528
 4930SOL     OW26425   2.431   4.350   3.536  0.5333  0.3628  0.6213
 4930SOL    HW126426   2.461   4.437   3.562 -0.1459  0.2944  1.6490
 4930SOL    HW226427   2.394   4.317   3.617  1.6042  0.5446  1.1799
 4931SOL     OW26428   2.260   4.431   4.647 -0.0310  0.4268  0.1445
 4931SOL    HW126429   2.234   4.508   4.697 -1.0928  0.4374 -0.4277
 4931SOL    HW226430   2.311   4.471   4.577 -0.0148 -0.6456 -0.4614
 4932SOL     OW26431   1.382   2.911   5.649 -0.0271  0.0538 -0.2797
 4932SOL    HW126432   1.344   2.989   5.690  3.0425  0.7440  1.2158
 4932SOL    HW226433   1.315   2.845   5.664 -0.3888  0.2589 -0.9705
 4933SOL     OW26434   2.911   0.399   7.234 -0.0658  0.9021  1.0168
 4933SOL    HW126435   2.932   0.355   7.152  1.3309  1.7311  0.9220
 4933SOL    HW226436   2.910   0.491   7.207  1.0292  0.3984 -0.7440
 4934SOL     OW26437   2.190   0.373   3.755  0.4282 -0.3852  0.1854
 4934SOL    HW126438   2.139   0.297   3.725 -0.5874  0.1194  0.6319
 4934SOL    HW226439   2.132   0.416   3.818  0.6690 -0.3441  0.3781
 4935SOL     OW26440   0.264   1.606  17.107 -0.0275 -0.1653 -0.1125
 4935SOL    HW126441   0.175   1.608  17.070 -1.2395 -1.2574  2.7920
 4935SOL    HW226442   0.313   1.557  17.041 -0.2325 -0.4574 -0.0517
 4936SOL     OW26443   2.284   4.256   2.137  0.1428  0.6840  0.0940
 4936SOL    HW126444   2.340   4.266   2.060  0.3129  0.4419  0.1849
 4936SOL    HW226445   2.292   4.161   2.144 -1.8242  0.4849 -0.3583
 4937SOL     OW26446   4.032   4.393   7.035  0.2456 -0.6260  0.4692
 4937SOL    HW126447   3.941   4.370   7.053 -0.1890  0.6859 -0.0245
 4937SOL    HW226448   4.077   4.347   7.105 -1.3526 -2.1596  0.4945
 4938SOL     OW26449   2.550   4.411  15.405  0.0449 -0.1264  0.1592
 4938SOL    HW126450   2.519   4.500  15.386  2.8821  1.1547  1.5827
 4938SOL    HW226451   2.612   4.393  15.334  1.0595  0.5170  0.8798
 4939SOL     OW26452   3.593   0.555  14.779 -0.0747  0.5712  0.0987
 4939SOL    HW126453   3.607   0.598  14.863 -2.0555  0.8252  0.2981
 4939SOL    HW226454   3.627   0.614  14.712 -1.2079  1.0293 -0.0682
 4940SOL     OW26455   3.629   3.623   6.572 -0.1236 -0.0505 -0.0516
 4940SOL    HW126456   3.620   3.528   6.577  2.5718 -0.2413  0.8337
 4940SOL    HW226457   3.665   3.621   6.483  0.2571 -0.8328  0.1216
 4941SOL     OW26458   2.894   2.241  12.652  0.1670 -0.7553 -0.4057
 4941SOL    HW126459   2.830   2.198  12.595  1.5862 -0.0529 -2.5434
 4941SOL    HW226460   2.833   2.289  12.708  0.6407 -0.3375 -0.2534
 4942SOL     OW26461   3.348   3.365   0.528 -0.0726  0.2959 -0.0764
 4942SOL    HW126462   3.425   3.322   0.564  0.0612  2.5381  2.2780
 4942SOL    HW226463   3.309   3.277   0.519  1.3353 -0.1614 -1.6659
 4943SOL     OW26464   0.696   2.778  13.454 -0.2844  0.4167  0.1271
 4943SOL    HW126465   0.697   2.695  13.502  3.0893 -0.1069 -0.8675
 4943SOL    HW226466   0.668   2.838  13.523  1.3332  0.7657  0.4640
 4944SOL     OW26467   0.456   0.446   6.679  0.1148 -0.2000  0.1792
 4944SOL    HW126468   0.393   0.518   6.692  0.0122  0.3835 -3.3697
 4944SOL    HW226469   0.401   0.368   6.681 -0.7125  0.4074  1.0011
 4945SOL     OW26470   4.225   0.118   4.334 -0.6129 -0.6944 -0.2274
 4945SOL    HW126471   4.317   0.145   4.326 -0.3142 -1.2869  1.2151
 4945SOL    HW226472   4.202   0.150   4.247 -1.6693  0.1919  0.3757
 4946SOL     OW26473   2.735   3.287   4.530 -0.5319 -0.4623 -0.1666
 4946SOL    HW126474   2.660   3.299   4.473 -0.6385  2.2535  0.5828
 4946SOL    HW226475   2.707   3.316   4.616  0.2097 -0.3784  0.0485
 4947SOL     OW26476   2.256   2.589  12.648 -0.4293 -0.0858 -0.1837
 4947SOL    HW126477   2.331   2.534  12.625  0.1012  0.1394  0.9931
 4947SOL    HW226478   2.292   2.622  12.731  2.0730 -2.1544 -0.4686
 4948SOL     OW26479   2.153   1.504   1.751 -0.3035  0.2313 -0.1674
 4948SOL    HW126480   2.233   1.452   1.742 -0.2936 -0.4346  3.8255
 4948SOL    HW226481   2.135   1.501   1.657  0.0081 -2.5105 -0.1413
 4949SOL     OW26482   1.339   2.689  13.961  0.5668 -0.4437 -0.8167
 4949SOL    HW126483   1.344   2.714  14.054 -2.1540  2.5109 -1.4617
 4949SOL    HW226484   1.285   2.758  13.924  2.6399  2.9195  2.4142
 4950SOL     OW26485   3.271   4.432   4.546  0.0078  0.7537 -0.0030
 4950SOL    HW126486   3.326   4.374   4.598  1.9606  1.5046 -1.2422
 4950SOL    HW226487   3.207   4.366   4.518  1.5582 -0.8190  0.2015
 4951SOL     OW26488   1.845   2.054  10.254  0.2099  0.5262 -0.0521
 4951SOL    HW126489   1.879   1.965  10.244 -0.6949  0.1716  0.0719
 4951SOL    HW226490   1.752   2.038  10.269  0.1795  1.5481  0.9173
 4952SOL     OW26491   1.575   1.967   3.255  0.5441  0.3146 -0.1907
 4952SOL    HW126492   1.548   2.048   3.211  1.6436  1.1896  0.7085
 4952SOL    HW226493   1.555   1.903   3.187  0.3426  1.4417 -1.1920
 4953SOL     OW26494   2.988   3.841   7.034 -0.2226 -0.1623 -0.1913
 4953SOL    HW126495   2.970   3.863   7.125 -1.0091  0.4566 -0.4901
 4953SOL    HW226496   3.001   3.927   6.994 -0.3073  0.0567  0.2500
 4954SOL     OW26497   4.532   3.240   9.241 -0.8881 -0.2874 -0.0849
 4954SOL    HW126498   4.618   3.237   9.201 -0.8148 -0.1821  0.0654
 4954SOL    HW226499   4.486   3.200   9.167 -1.3767  1.1813 -0.5625
 4955SOL     OW26500   2.104   1.196   8.910 -0.1532  0.2088  0.3378
 4955SOL    HW126501   2.011   1.203   8.886  0.0400  2.0629  0.1415
 4955SOL    HW226502   2.141   1.153   8.834  2.8585  2.1121  0.7307
 4956SOL     OW26503   0.959   1.855   3.108 -0.1983  0.4188 -0.8672
 4956SOL    HW126504   0.974   1.779   3.050 -0.5282 -0.4945  0.2498
 4956SOL    HW226505   0.899   1.910   3.058 -0.0692  0.1446 -1.3248
 4957SOL     OW26506   3.011   0.033   5.750 -0.1285 -0.2662  0.3507
 4957SOL    HW126507   3.010   4.680   5.779  0.6548 -0.2513  0.4202
 4957SOL    HW226508   3.089   0.068   5.793 -0.0486 -0.7997  0.6418
 4958SOL     OW26509   4.173   3.144  10.455 -0.3462 -0.4568 -0.0734
 4958SOL    HW126510   4.200   3.081  10.389  0.2109 -1.7082  1.3450
 4958SOL    HW226511   4.086   3.163  10.419 -0.8108  0.2247  1.4093
 4959SOL     OW26512   0.708   3.570  11.688  1.1094  0.1124 -0.1582
 4959SOL    HW126513   0.706   3.592  11.782 -2.4913  1.1522 -0.4611
 4959SOL    HW226514   0.746   3.483  11.691  2.8044  0.8106 -1.9610
 4960SOL     OW26515   4.436   2.128   7.517 -0.3967 -0.0343  0.5661
 4960SOL    HW126516   4.525   2.157   7.502 -1.2387  2.5244  0.5268
 4960SOL    HW226517   4.410   2.121   7.425 -0.1681 -1.5872  0.6205
 4961SOL     OW26518   1.929   3.259   5.656 -0.1812  0.2464 -0.1386
 4961SOL    HW126519   1.930   3.354   5.647 -1.1565  0.0146 -2.5876
 4961SOL    HW226520   1.876   3.254   5.736 -0.3773 -0.8025 -0.3353
 4962SOL     OW26521   0.231   0.039   2.575  0.2984  0.5824 -0.1800
 4962SOL    HW126522   0.286   4.699   2.571  0.5469  0.8224 -1.2584
 4962SOL    HW226523   0.232   0.074   2.486 -1.2571 -2.8146 -1.5104
 4963SOL     OW26524   2.215   2.307   5.542  0.1723 -0.3027 -0.4393
 4963SOL    HW126525   2.162   2.339   5.469 -0.1773  3.0918  1.3280
 4963SOL    HW226526   2.170   2.356   5.610  1.3415 -1.9635  1.5288
 4964SOL     OW26527   4.038   1.032   3.688  0.4219 -0.3871  0.2960
 4964SOL    HW126528   4.024   1.048   3.781  0.0980  0.4465  0.1121
 4964SOL    HW226529   4.134   1.038   3.687  0.3404  0.2904 -2.6544
 4965SOL     OW26530   1.938   1.494   5.937  0.1948  0.1592  0.4665
 4965SOL    HW126531   1.844   1.506   5.944  0.2955  1.7522 -1.2395
 4965SOL    HW226532   1.969   1.508   6.027  0.3654  0.6747  0.3249
 4966SOL     OW26533   4.359   4.195  13.365 -0.6902  0.1238  0.1204
 4966SOL    HW126534   4.298   4.152  13.306 -0.5929  0.6681 -0.3715
 4966SOL    HW226535   4.432   4.212  13.306  0.2475  0.3150  1.3343
 4967SOL     OW26536   2.768   4.155  17.147 -0.1358  0.5207  0.0054
 4967SOL    HW126537   2.745   4.087  17.210  0.9942 -0.1911 -0.3608
 4967SOL    HW226538   2.862   4.144  17.134 -0.0788 -0.3796  1.1935
 4968SOL     OW26539   3.209   0.351  11.417 -0.0191 -0.3067 -0.0001
 4968SOL    HW126540   3.259   0.391  11.488 -0.6495  2.5373 -1.1523
 4968SOL    HW226541   3.208   0.417  11.347 -0.3917  0.6409  0.8968
 4969SOL     OW26542   2.215   2.723  14.661  0.7142  0.2454 -0.8554
 4969SOL    HW126543   2.120   2.719  14.651  0.7058 -0.5911 -0.4781
 4969SOL    HW226544   2.226   2.711  14.755  0.4413 -2.4288 -1.1536
 4970SOL     OW26545   0.818   1.313   2.639 -0.2705 -0.5064  0.3766
 4970SOL    HW126546   0.836   1.385   2.578 -1.9283 -0.7935 -0.4588
 4970SOL    HW226547   0.829   1.365   2.719  2.2156 -3.0250  1.6712
 4971SOL     OW26548   2.279   2.894  14.213  0.6835  0.1878  0.1017
 4971SOL    HW126549   2.308   2.983  14.195  2.7931  0.0100  2.6522
 4971SOL    HW226550   2.291   2.882  14.307 -0.8219  1.3302  0.4452
 4972SOL     OW26551   0.801   1.785   2.575  0.2089 -0.5187  0.3836
 4972SOL    HW126552   0.854   1.816   2.649  2.1169 -1.5279 -0.5719
 4972SOL    HW226553   0.834   1.696   2.565 -1.0826 -0.8816 -0.5522
 4973SOL     OW26554   0.577   3.736   2.616  0.5548 -0.1019 -0.4012
 4973SOL    HW126555   0.630   3.687   2.678 -0.8253  0.9645  1.6268
 4973SOL    HW226556   0.517   3.671   2.579 -0.3674 -0.7247  2.2107
 4974SOL     OW26557   4.539   4.569   0.719  0.0855  0.3744  0.3386
 4974SOL    HW126558   4.495   4.543   0.800  0.2631  2.1498  0.9991
 4974SOL    HW226559   4.620   4.593   0.763  1.7098 -3.0666 -0.7660
 4975SOL     OW26560   3.759   1.012  11.357  0.4103  0.0954  0.0830
 4975SOL    HW126561   3.847   1.050  11.362 -0.3972  1.7046  1.9383
 4975SOL    HW226562   3.771   0.937  11.299  1.2092 -1.1559  1.8634
 4976SOL     OW26563   3.449   2.917   9.202  0.0817  0.4626 -0.2239
 4976SOL    HW126564   3.387   2.933   9.274 -1.4397  1.6409 -1.7801
 4976SOL    HW226565   3.423   2.827   9.184  0.2906  0.7823 -2.1030
 4977SOL     OW26566   4.438   0.846   2.842  0.4065 -0.6693  0.4689
 4977SOL    HW126567   4.382   0.770   2.858 -1.5512  0.7136  0.1780
 4977SOL    HW226568   4.515   0.832   2.897  1.0673 -0.1697 -0.3394
 4978SOL     OW26569   0.139   4.594   5.405 -0.3709 -0.0350 -0.5041
 4978SOL    HW126570   0.086   4.576   5.327  1.7939 -2.5543 -1.4141
 4978SOL    HW226571   0.220   4.602   5.354  0.2878 -1.5528  0.2978
 4979SOL     OW26572   3.694   3.616   6.965  0.2133  0.2723 -0.4929
 4979SOL    HW126573   3.683   3.651   7.053 -0.6780  0.1009 -0.5368
 4979SOL    HW226574   3.773   3.562   6.971  0.0553  0.0772 -0.1600
 4980SOL     OW26575   0.740   0.169  15.435 -0.1934  0.0722 -0.2775
 4980SOL    HW126576   0.774   0.233  15.372 -0.2240  0.5498  0.1956
 4980SOL    HW226577   0.656   0.210  15.455 -0.4418 -1.4676  1.8005
 4981SOL     OW26578   3.283   4.712  15.502 -0.7743  0.0101  0.3632
 4981SOL    HW126579   3.378   4.697  15.499 -1.0373 -1.8206  1.0725
 4981SOL    HW226580   3.252   4.635  15.454 -1.4963  0.7690 -0.3894
 4982SOL     OW26581   1.142   2.766   8.129  0.3840  0.0740 -0.0246
 4982SOL    HW126582   1.203   2.744   8.200 -0.5827  0.2931  0.8656
 4982SOL    HW226583   1.132   2.675   8.100  1.2738 -0.4474  1.3400
 4983SOL     OW26584   3.621   1.757   8.873 -1.1269  0.1335 -0.1671
 4983SOL    HW126585   3.585   1.741   8.785 -0.7851  1.5873 -0.5773
 4983SOL    HW226586   3.649   1.848   8.862 -1.2572  0.2291  0.2836
 4984SOL     OW26587   3.710   1.686   5.402 -0.1681  0.0659 -0.5172
 4984SOL    HW126588   3.801   1.673   5.432  0.0324 -1.0691 -1.5858
 4984SOL    HW226589   3.665   1.634   5.469  0.7930  0.3336  0.3399
 4985SOL     OW26590   3.944   2.142   1.360  0.3298  0.0586 -1.1487
 4985SOL    HW126591   3.871   2.123   1.419  1.8693  1.1822  1.0919
 4985SOL    HW226592   3.964   2.235   1.374  1.3963 -0.2476 -0.6272
 4986SOL     OW26593   4.730   4.096   3.948  0.3068 -0.2404  0.5811
 4986SOL    HW126594   4.723   4.088   4.043  0.3674  1.4699  0.7310
 4986SOL    HW226595   4.726   4.002   3.932  2.4226 -0.0414 -1.1181
 4987SOL     OW26596   3.551   3.376  10.079  0.1781 -0.0343  0.5900
 4987SOL    HW126597   3.581   3.354  10.167  1.3541  0.1118  0.2150
 4987SOL    HW226598   3.469   3.421  10.101 -0.6087 -0.0782 -2.3731
 4988SOL     OW26599   4.648   1.418   5.737  0.7044 -0.4314 -0.3236
 4988SOL    HW126600   4.598   1.342   5.707  1.3655 -0.7022 -0.7339
 4988SOL    HW226601   4.584   1.488   5.727  2.2799  1.1257  0.6282
 4989SOL     OW26602   3.606   4.617  13.602  0.0849 -0.7738 -0.5132
 4989SOL    HW126603   3.528   4.663  13.632 -0.9304 -2.8421 -0.0035
 4989SOL    HW226604   3.608   4.624  13.506  3.1102  0.4732 -0.3712
 4990SOL     OW26605   4.642   2.608   4.304  0.2606 -0.5868 -0.2347
 4990SOL    HW126606   4.676   2.637   4.219 -1.8128  1.2927 -0.4158
 4990SOL    HW226607   4.714   2.552   4.332  0.7145 -0.0111 -0.2503
 4991SOL     OW26608   3.672   3.152   5.851  0.0695 -0.2653  0.7110
 4991SOL    HW126609   3.712   3.184   5.932 -1.9303 -2.1326  2.4449
 4991SOL    HW226610   3.583   3.184   5.864  0.3735  0.8569 -0.0000
 4992SOL     OW26611   3.598   0.869   4.776 -0.3402 -0.2055 -0.5357
 4992SOL    HW126612   3.511   0.830   4.764 -0.7417  0.8636 -1.0613
 4992SOL    HW226613   3.615   0.843   4.867 -1.1606  2.5702  0.3997
 4993SOL     OW26614   1.668   2.377   4.119  0.3977 -0.0934 -0.1297
 4993SOL    HW126615   1.656   2.294   4.072  1.4016 -1.4998  2.1264
 4993SOL    HW226616   1.763   2.391   4.112  0.2605  1.5682  1.5478
 4994SOL     OW26617   2.777   0.280   8.191  0.1841  0.4046  0.2094
 4994SOL    HW126618   2.777   0.370   8.226  2.4328  0.6047 -0.3441
 4994SOL    HW226619   2.825   0.232   8.258 -1.6574  2.2795  2.8706
 4995SOL     OW26620   3.464   2.128   2.571 -0.5285 -0.2511 -0.2580
 4995SOL    HW126621   3.440   2.102   2.660 -0.4865 -0.3573 -0.2773
 4995SOL    HW226622   3.521   2.200   2.597 -0.2493 -0.4797 -0.2401
 4996SOL     OW26623   4.531   0.004  17.210 -0.2929  0.1715  0.2879
 4996SOL    HW126624   4.510   0.093  17.237 -2.4588 -0.0694 -0.5679
 4996SOL    HW226625   4.579   0.023  17.129  1.0960 -0.1965  1.0177
 4997SOL     OW26626   2.212   3.518  11.527  1.1437 -0.1671  0.5435
 4997SOL    HW126627   2.162   3.500  11.607 -1.7247 -1.1101 -1.4617
 4997SOL    HW226628   2.199   3.612  11.512 -1.9525 -0.2430  2.5846
 4998SOL     OW26629   0.903   3.902   8.002 -0.0508  0.0366  0.1690
 4998SOL    HW126630   0.831   3.964   8.012  0.0712  0.5349 -2.0421
 4998SOL    HW226631   0.951   3.931   7.925  0.4344  0.2314  0.5450
 4999SOL     OW26632   2.930   2.614   3.693  0.0810  0.1923  0.4731
 4999SOL    HW126633   2.866   2.585   3.758  0.1523 -0.9382  0.0346
 4999SOL    HW226634   2.876   2.600   3.615  0.2985  0.9329  0.1893
 5000SOL     OW26635   4.378   3.190   7.861 -0.5575 -0.6536  0.0526
 5000SOL    HW126636   4.390   3.102   7.897 -0.5493 -0.1534  1.2861
 5000SOL    HW226637   4.301   3.222   7.907 -0.5260 -1.5594  0.7509
 5001SOL     OW26638   0.561   3.524   6.246  0.5313 -0.1943  0.8034
 5001SOL    HW126639   0.538   3.521   6.338  0.1682  0.9951  0.7524
 5001SOL    HW226640   0.545   3.431   6.226  0.3212  0.7609 -3.5795
 5002SOL     OW26641   1.377   3.500   2.130  0.4017  0.3839 -0.3598
 5002SOL    HW126642   1.381   3.551   2.211  0.6690 -0.3717  0.1073
 5002SOL    HW226643   1.311   3.436   2.159 -0.7645  0.5083 -2.7575
 5003SOL     OW26644   4.548   0.802   8.101 -0.0118  0.3277 -0.0848
 5003SOL    HW126645   4.572   0.894   8.089  1.4456  0.1604  1.6435
 5003SOL    HW226646   4.496   0.798   8.181 -1.9843 -0.3815 -1.4193
 5004SOL     OW26647   1.463   1.373   0.657 -0.0641 -0.5146 -0.2883
 5004SOL    HW126648   1.478   1.377   0.751 -0.2412  0.2839 -0.2975
 5004SOL    HW226649   1.441   1.463   0.634 -1.8144 -0.6933  0.7308
 5005SOL     OW26650   3.930   0.703   7.271  0.0886 -0.7207  0.3191
 5005SOL    HW126651   3.862   0.653   7.316  1.9706 -3.2248  0.3650
 5005SOL    HW226652   3.978   0.632   7.228  1.0721  0.5008 -0.5934
 5006SOL     OW26653   3.830   3.885   7.290 -0.6239  0.4855 -0.1573
 5006SOL    HW126654   3.752   3.939   7.278 -0.8655 -0.1009 -1.3340
 5006SOL    HW226655   3.884   3.925   7.221  0.9618 -1.9308 -0.3277
 5007SOL     OW26656   0.089   1.514   5.221  0.0211  0.1182 -0.1198
 5007SOL    HW126657   0.052   1.463   5.293  1.7221 -1.7359 -0.5317
 5007SOL    HW226658   0.062   1.602   5.246  0.4497  0.3040 -0.2946
 5008SOL     OW26659   2.188   4.002   9.594 -0.1825 -0.1171  0.3209
 5008SOL    HW126660   2.192   4.076   9.655 -0.9756  0.4602 -0.3271
 5008SOL    HW226661   2.103   4.007   9.551 -0.9772  0.7106  1.9624
 5009SOL     OW26662   0.639   1.378   1.718  0.9227 -0.0902  0.3627
 5009SOL    HW126663   0.646   1.298   1.770  0.6919 -0.2159  0.1954
 5009SOL    HW226664   0.730   1.406   1.708  1.8699 -2.9191  1.1318
 5010SOL     OW26665   3.131   0.892   6.616 -0.0057 -0.1128  0.6561
 5010SOL    HW126666   3.142   0.968   6.673  1.6145 -0.8458  1.3459
 5010SOL    HW226667   3.202   0.899   6.553  0.5525  1.5601  1.4824
 5011SOL     OW26668   2.044   4.117   2.288  0.3110 -0.1060 -0.5328
 5011SOL    HW126669   2.057   4.161   2.372 -1.1590 -2.3933  0.8890
 5011SOL    HW226670   2.041   4.195   2.233  1.9225  0.1553 -0.2609
 5012SOL     OW26671   3.510   3.168   7.035 -0.7116 -0.2249 -0.1941
 5012SOL    HW126672   3.465   3.131   7.111  0.6807  0.1330  0.8078
 5012SOL    HW226673   3.586   3.110   7.025  1.0977  2.1628 -0.0134
 5013SOL     OW26674   1.613   2.608   2.409  0.6398 -0.1757  1.0086
 5013SOL    HW126675   1.560   2.544   2.361 -0.7066 -0.0316  2.3095
 5013SOL    HW226676   1.560   2.608   2.489  0.2163 -0.9363  0.7307
 5014SOL     OW26677   4.428   3.028   6.993 -0.3089  0.4805  0.3212
 5014SOL    HW126678   4.355   3.088   7.011 -0.6020  0.2375 -0.0618
 5014SOL    HW226679   4.470   3.019   7.079  0.0550  0.7799  0.1755
 5015SOL     OW26680   4.339   1.999   6.004 -0.1772 -0.1853 -0.3569
 5015SOL    HW126681   4.409   1.998   6.069  2.0362  0.8146 -2.6985
 5015SOL    HW226682   4.270   2.047   6.049 -0.6718 -0.4491 -0.8225
 5016SOL     OW26683   2.099   2.966   2.927  0.3318 -0.1311 -0.0417
 5016SOL    HW126684   2.043   2.914   2.985  3.6727 -3.4449  0.1467
 5016SOL    HW226685   2.074   2.953   2.836 -0.1588  0.5774 -0.0116
 5017SOL     OW26686   4.187   3.498   7.668 -0.9051  0.0733 -0.8599
 5017SOL    HW126687   4.274   3.496   7.630 -0.7475  3.1666 -0.6587
 5017SOL    HW226688   4.144   3.455   7.595 -2.8202 -0.7619  0.7554
 5018SOL     OW26689   3.622   0.912   5.603 -0.6061 -0.4001  0.3890
 5018SOL    HW126690   3.614   0.879   5.692  1.7923 -0.8320  0.4429
 5018SOL    HW226691   3.700   0.868   5.569 -0.9819 -1.2971  0.6834
 5019SOL     OW26692   4.345   1.416  10.526 -0.5760  0.3074  0.7289
 5019SOL    HW126693   4.266   1.468  10.528  0.8881  2.6025 -1.5451
 5019SOL    HW226694   4.317   1.339  10.576  0.0467  0.5129  1.3960
 5020SOL     OW26695   4.312   2.949   5.891  0.0341 -0.1505 -0.4445
 5020SOL    HW126696   4.257   2.912   5.960 -0.1522  1.3859  0.2237
 5020SOL    HW226697   4.332   3.026   5.944  0.7560  0.5937 -1.8179
 5021SOL     OW26698   3.552   0.274   1.659  0.0335 -0.1969  1.0060
 5021SOL    HW126699   3.530   0.182   1.647 -0.2302  0.0086 -0.1773
 5021SOL    HW226700   3.582   0.292   1.569 -1.1597  0.5497  0.7663
 5022SOL     OW26701   1.462   2.303  12.238  0.0756 -0.4919 -0.4350
 5022SOL    HW126702   1.457   2.212  12.209 -2.1160 -0.5807  0.1824
 5022SOL    HW226703   1.376   2.346  12.231 -0.4446 -1.2540  1.4843
 5023SOL     OW26704   0.570   2.808   1.763  0.0328 -0.1701  0.1505
 5023SOL    HW126705   0.487   2.783   1.804  1.0628 -0.3142  2.1259
 5023SOL    HW226706   0.614   2.724   1.776 -1.6395 -0.9200  0.9400
 5024SOL     OW26707   2.406   2.366   1.343  0.0756 -0.3734  0.0862
 5024SOL    HW126708   2.349   2.325   1.408  0.4533  2.5033  2.2172
 5024SOL    HW226709   2.403   2.454   1.379 -1.1980  0.0494 -1.0580
 5025SOL     OW26710   3.384   2.789   2.352 -0.2255 -0.1276  0.2115
 5025SOL    HW126711   3.295   2.805   2.322 -0.3660 -2.7680 -0.7828
 5025SOL    HW226712   3.421   2.784   2.264  2.0904 -2.9668  1.3163
 5026SOL     OW26713   3.331   3.699   9.372  0.2695  0.0992  0.0910
 5026SOL    HW126714   3.336   3.784   9.416 -2.7650 -0.0054  0.5935
 5026SOL    HW226715   3.282   3.705   9.290  0.0992 -2.1240  0.0294
 5027SOL     OW26716   0.230   3.215   4.808  0.3133 -0.3189  0.0161
 5027SOL    HW126717   0.136   3.199   4.795  0.1225  1.5629 -0.8901
 5027SOL    HW226718   0.249   3.191   4.899  1.5144 -2.4467 -0.8057
 5028SOL     OW26719   3.006   4.336   7.110  0.1513  0.4932  0.3806
 5028SOL    HW126720   2.922   4.378   7.132 -1.3797 -2.5886  0.3762
 5028SOL    HW226721   3.065   4.411   7.104  0.1163  0.4964  0.0833
 5029SOL     OW26722   3.817   0.494   6.494  0.0005 -0.0173 -0.1875
 5029SOL    HW126723   3.807   0.581   6.533 -2.9423  0.2864 -1.6318
 5029SOL    HW226724   3.878   0.512   6.422  0.3169 -2.4095 -0.5128
 5030SOL     OW26725   4.312   4.283   6.655 -0.1746 -0.3702 -0.3901
 5030SOL    HW126726   4.291   4.298   6.747  1.0794  2.1502 -0.5242
 5030SOL    HW226727   4.348   4.194   6.654  0.2065 -0.2064 -1.0035
 5031SOL     OW26728   3.072   1.749   3.633  0.2428 -0.6189 -0.5872
 5031SOL    HW126729   3.081   1.692   3.556  0.2588 -0.8719 -0.3976
 5031SOL    HW226730   3.163   1.742   3.661  0.0964 -2.2542 -0.5302
 5032SOL     OW26731   0.717   2.367   4.698 -0.2905  0.2669  0.0344
 5032SOL    HW126732   0.751   2.437   4.753  0.4715  1.7843 -2.3577
 5032SOL    HW226733   0.678   2.422   4.630 -0.9895 -2.0111 -1.4233
 5033SOL     OW26734   2.011   3.977   1.181 -0.1105 -0.3445 -0.0878
 5033SOL    HW126735   1.964   3.931   1.251  0.6769  0.3266  0.8918
 5033SOL    HW226736   1.948   3.956   1.112  1.1922  0.0793 -1.4018
 5034SOL     OW26737   1.738   3.349   7.715 -0.0333  0.2648 -0.0929
 5034SOL    HW126738   1.806   3.362   7.648  0.1647  1.0977  0.2720
 5034SOL    HW226739   1.767   3.262   7.744  3.0129  1.4494  0.3701
 5035SOL     OW26740   1.097   0.858   7.082 -0.1907  0.3380  0.0596
 5035SOL    HW126741   1.166   0.807   7.040 -1.5514 -0.4984 -1.1426
 5035SOL    HW226742   1.091   0.827   7.172  0.3976 -0.8829 -0.3315
 5036SOL     OW26743   2.729   1.259  13.829 -0.2346  0.6483  0.4035
 5036SOL    HW126744   2.672   1.278  13.755 -0.0692 -0.5542 -0.0389
 5036SOL    HW226745   2.778   1.341  13.836  1.4214 -0.1865 -1.4767
 5037SOL     OW26746   4.711   4.409   0.345 -0.0048  0.6470 -0.4370
 5037SOL    HW126747   0.040   4.366   0.398 -1.5751 -0.0552  0.9583
 5037SOL    HW226748   0.012   4.393   0.259  0.4489  2.3437 -0.5532
 5038SOL     OW26749   2.128   4.464  11.051 -0.1251  0.2126  0.1721
 5038SOL    HW126750   2.120   4.388  11.109  0.8886  1.2924  1.7383
 5038SOL    HW226751   2.060   4.458  10.984 -1.1122 -0.4837  1.2216
 5039SOL     OW26752   3.729   2.960  17.373  0.6825  0.1414  0.2933
 5039SOL    HW126753   3.726   2.902  17.297  3.8309  1.2900 -0.7257
 5039SOL    HW226754   3.703   2.897  17.439  0.4072 -2.3501 -2.2113
 5040SOL     OW26755   1.203   2.259   8.402 -0.3228 -0.6354 -0.4936
 5040SOL    HW126756   1.174   2.253   8.493  2.4244 -2.7841  0.2522
 5040SOL    HW226757   1.141   2.204   8.354 -2.2028 -1.2610  2.6189
 5041SOL     OW26758   0.518   0.620  12.406  0.1106  0.1377 -0.3284
 5041SOL    HW126759   0.570   0.699  12.388 -0.2316  0.2273 -0.9349
 5041SOL    HW226760   0.432   0.661  12.397  0.1579  0.1807 -0.6074
 5042SOL     OW26761   2.822   4.555   5.502 -0.4717 -0.1927  0.6306
 5042SOL    HW126762   2.851   4.640   5.469  1.4148 -0.3318  1.9197
 5042SOL    HW226763   2.901   4.515   5.539 -0.3044 -0.1357  0.3353
 5043SOL     OW26764   3.988   4.066   7.105 -0.9140 -0.0438 -0.1371
 5043SOL    HW126765   4.047   4.114   7.164  0.2236 -1.8316  0.1757
 5043SOL    HW226766   3.917   4.125   7.081 -0.0353  1.5767  1.2325
 5044SOL     OW26767   0.536   0.588   5.358  0.5782 -0.2511  0.4609
 5044SOL    HW126768   0.456   0.638   5.342 -0.2680 -1.8501 -0.3875
 5044SOL    HW226769   0.518   0.503   5.318 -0.6220 -0.2331  0.9514
 5045SOL     OW26770   1.416   0.723   4.792  0.2694  0.0330  0.5396
 5045SOL    HW126771   1.463   0.761   4.718 -1.4858 -1.6133 -1.4371
 5045SOL    HW226772   1.395   0.804   4.839 -3.3143 -0.7753  0.3419
 5046SOL     OW26773   2.307   1.584   6.912 -0.5643 -0.3198 -0.0984
 5046SOL    HW126774   2.349   1.580   6.998 -0.5269 -4.0749 -0.2776
 5046SOL    HW226775   2.233   1.528   6.936 -0.7074 -0.4048 -0.7555
 5047SOL     OW26776   1.923   2.348   2.766  0.1833 -0.2204  0.1412
 5047SOL    HW126777   2.004   2.339   2.817  0.8529 -1.5124 -1.1422
 5047SOL    HW226778   1.909   2.255   2.745 -0.8857  0.2633 -1.2400
 5048SOL     OW26779   1.035   0.559   2.874  0.0886  0.3377 -0.1787
 5048SOL    HW126780   1.103   0.619   2.843  2.3705 -3.2040 -2.0255
 5048SOL    HW226781   1.030   0.493   2.805  0.4013  0.0248  0.0991
 5049SOL     OW26782   0.610   2.814  16.818 -0.3064 -0.0997 -0.5997
 5049SOL    HW126783   0.585   2.758  16.745  1.9170  1.6720 -2.7092
 5049SOL    HW226784   0.629   2.892  16.765 -1.4468  0.4088 -0.2758
 5050SOL     OW26785   1.125   0.415   8.255  0.2916  0.0669 -0.5125
 5050SOL    HW126786   1.216   0.429   8.282  0.2254  0.8679 -0.7024
 5050SOL    HW226787   1.135   0.360   8.177 -2.4075  0.7783 -1.3881
 5051SOL     OW26788   2.246   4.710   1.087 -0.1770  0.0130  0.2119
 5051SOL    HW126789   2.239   4.616   1.072 -0.3717  0.1060 -0.2835
 5051SOL    HW226790   2.177   4.710   1.153 -1.1794 -1.2731 -0.8137
 5052SOL     OW26791   2.783   0.981   4.994 -0.3992  0.0640  0.4556
 5052SOL    HW126792   2.777   0.886   4.991  1.5085  0.0576 -2.9262
 5052SOL    HW226793   2.784   1.001   5.088 -0.0227  2.5142 -0.0609
 5053SOL     OW26794   2.482   1.295   8.606  0.3579 -0.7558 -0.0807
 5053SOL    HW126795   2.464   1.329   8.518  0.4524 -1.5324 -0.4041
 5053SOL    HW226796   2.576   1.292   8.593  0.5854 -0.9039  1.6219
 5054SOL     OW26797   3.603   1.600  17.590  0.2205 -0.3845 -0.3314
 5054SOL    HW126798   3.608   1.686  17.549  1.0132 -0.3006 -0.0479
 5054SOL    HW226799   3.572   1.550  17.515  0.6087  0.4666 -1.0519
 5055SOL     OW26800   3.086   0.231  16.613 -0.2745 -0.3525 -0.0407
 5055SOL    HW126801   3.027   0.225  16.688  1.0469 -2.1252  0.8691
 5055SOL    HW226802   3.027   0.218  16.538 -0.0083  1.3692 -0.5488
 5056SOL     OW26803   0.149   2.841   1.007 -0.2079 -0.0953 -0.5330
 5056SOL    HW126804   0.112   2.802   1.087  0.8577 -0.2651 -0.1102
 5056SOL    HW226805   0.242   2.827   1.025 -0.3453  0.6633  0.8251
 5057SOL     OW26806   4.017   2.484   5.041 -0.3512 -0.9416 -0.0095
 5057SOL    HW126807   4.031   2.425   4.967 -2.3231  1.3964 -2.2863
 5057SOL    HW226808   3.984   2.567   5.006  1.2952 -0.0908  0.4841
 5058SOL     OW26809   1.871   1.040   5.573  0.2119 -0.5380  0.2013
 5058SOL    HW126810   1.820   1.060   5.651  2.2971  1.3091  1.1022
 5058SOL    HW226811   1.941   1.104   5.564 -1.6520  1.6168  1.0829
 5059SOL     OW26812   3.975   3.637   3.807 -0.4851 -0.2559  0.3671
 5059SOL    HW126813   4.027   3.694   3.864 -0.2785  0.0091 -0.0883
 5059SOL    HW226814   3.904   3.631   3.870 -0.4549 -1.6954  0.2840
 5060SOL     OW26815   3.040   2.436   9.120 -0.5680 -0.4525 -0.1475
 5060SOL    HW126816   2.975   2.368   9.103 -0.6004 -0.0614 -1.6531
 5060SOL    HW226817   3.068   2.442   9.028  0.4337 -2.3669  0.0203
 5061SOL     OW26818   2.576   3.350   2.475 -0.5087 -0.0953  0.6432
 5061SOL    HW126819   2.489   3.384   2.498 -0.9600 -0.4914 -0.5085
 5061SOL    HW226820   2.621   3.358   2.559  0.5545  0.3588  0.0202
 5062SOL     OW26821   2.503   1.116   2.945  0.0508 -0.7534  0.5329
 5062SOL    HW126822   2.553   1.075   2.875 -2.0141  0.4518 -1.6299
 5062SOL    HW226823   2.482   1.042   3.002 -1.6698 -0.9923 -0.4197
 5063SOL     OW26824   1.485   2.237  15.275 -0.2028 -0.0263  0.0683
 5063SOL    HW126825   1.519   2.265  15.360  0.2714  0.0504 -0.1466
 5063SOL    HW226826   1.418   2.300  15.248 -2.1532 -2.9750 -1.8854
 5064SOL     OW26827   1.128   3.994   5.668  0.4031 -0.2646 -0.3584
 5064SOL    HW126828   1.221   3.989   5.688  0.5623  0.4661 -0.9246
 5064SOL    HW226829   1.131   4.041   5.585  0.8670 -0.2381 -0.3227
 5065SOL     OW26830   4.476   3.453   6.020  0.1081 -0.3121 -0.0100
 5065SOL    HW126831   4.512   3.482   5.936 -0.6197 -1.7105 -0.8002
 5065SOL    HW226832   4.545   3.476   6.083 -0.3971  1.4264 -0.1114
 5066SOL     OW26833   3.314   3.197   8.362  0.6322  0.1850 -0.0810
 5066SOL    HW126834   3.262   3.269   8.396  0.5918 -0.3450  0.9878
 5066SOL    HW226835   3.365   3.234   8.289 -0.4244 -1.2279 -1.5364
 5067SOL     OW26836   2.549   2.293  15.774  0.2591  0.1537  0.2914
 5067SOL    HW126837   2.597   2.375  15.761  1.0695 -0.3985 -0.2549
 5067SOL    HW226838   2.514   2.272  15.687 -2.3632 -0.0093  1.3933
 5068SOL     OW26839   3.402   2.172   8.075  0.4939 -0.0495 -0.0257
 5068SOL    HW126840   3.345   2.207   8.007  0.1310  0.7742  0.7131
 5068SOL    HW226841   3.357   2.203   8.153 -1.0052 -0.9835 -0.5249
 5069SOL     OW26842   4.521   4.027  15.829  0.8151  0.5212 -0.5801
 5069SOL    HW126843   4.541   4.101  15.772  3.1682  0.5814  0.3171
 5069SOL    HW226844   4.610   3.994  15.845  0.7780 -0.1769 -1.8360
 5070SOL     OW26845   4.161   0.163   5.819  0.0707 -0.1712  0.2051
 5070SOL    HW126846   4.187   0.214   5.743  3.2789  0.6765  1.8498
 5070SOL    HW226847   4.153   0.071   5.792  0.5521 -0.1115 -0.1455
 5071SOL     OW26848   3.915   3.080  11.183  0.1458  0.1455  0.2175
 5071SOL    HW126849   3.878   3.159  11.223 -0.1490  0.2808 -0.3296
 5071SOL    HW226850   3.984   3.122  11.132  0.0778  0.6363  0.5267
 5072SOL     OW26851   4.718   0.591  13.415 -0.2978  0.6533  0.0530
 5072SOL    HW126852   0.029   0.532  13.357  1.3708  2.4482 -0.4062
 5072SOL    HW226853   4.722   0.549  13.500 -2.1936  0.5752  0.1098
 5073SOL     OW26854   1.380   1.619   0.610  0.1245  0.3763 -0.4339
 5073SOL    HW126855   1.354   1.587   0.524 -0.9510 -1.3262  0.5391
 5073SOL    HW226856   1.298   1.650   0.649 -1.2496 -1.1060 -2.1213
 5074SOL     OW26857   0.696   4.214   6.968 -0.7730  0.0051  0.0687
 5074SOL    HW126858   0.774   4.267   6.950 -0.3222 -0.7583 -0.2877
 5074SOL    HW226859   0.691   4.212   7.063 -0.2801  0.0135  0.0964
 5075SOL     OW26860   2.015   2.150   4.279  0.1184 -0.3720  0.0872
 5075SOL    HW126861   1.966   2.226   4.247  2.7642  0.3857 -2.1082
 5075SOL    HW226862   1.959   2.078   4.250  1.4932 -2.5670  2.8450
 5076SOL     OW26863   1.891   1.700   1.385 -0.0354 -0.2359 -0.7506
 5076SOL    HW126864   1.821   1.686   1.321  1.6872 -0.7794 -2.5129
 5076SOL    HW226865   1.915   1.792   1.379  2.5571 -0.9476 -1.0674
 5077SOL     OW26866   0.955   0.028  15.563  0.8652 -0.1376 -0.0698
 5077SOL    HW126867   0.882   0.074  15.521  1.0813 -0.8085 -1.1754
 5077SOL    HW226868   0.964   0.076  15.646 -0.1166 -3.5648  2.0301
 5078SOL     OW26869   2.957   1.618   5.726 -0.4567 -0.2133 -0.2840
 5078SOL    HW126870   3.003   1.681   5.670 -1.7452  0.5257 -0.5170
 5078SOL    HW226871   3.030   1.578   5.772 -0.6586  0.6709  0.8301
 5079SOL     OW26872   0.541   3.658  11.475  0.5990  0.0179 -0.1992
 5079SOL    HW126873   0.614   3.611  11.516  0.6542 -0.4453 -0.8198
 5079SOL    HW226874   0.486   3.668  11.553  1.2240  1.5327  0.0358
 5080SOL     OW26875   3.602   2.100   7.776 -0.1393  0.1975  0.0110
 5080SOL    HW126876   3.613   2.165   7.846  1.6615 -0.1004  0.0150
 5080SOL    HW226877   3.684   2.120   7.731  0.3352  0.6606  1.0929
 5081SOL     OW26878   4.100   3.894   9.552 -0.0915 -0.0849 -0.6538
 5081SOL    HW126879   4.189   3.913   9.583 -0.4398 -0.2905  0.4661
 5081SOL    HW226880   4.075   3.978   9.514 -2.3170 -0.4819 -0.0479
 5082SOL     OW26881   2.280   0.555   7.430  0.2253  0.6134  0.2418
 5082SOL    HW126882   2.271   0.462   7.410 -0.7392  1.0970 -1.4959
 5082SOL    HW226883   2.359   0.550   7.484  0.9165  1.5035 -0.6783
 5083SOL     OW26884   1.813   3.746   7.290 -0.5202 -0.7015  0.0338
 5083SOL    HW126885   1.844   3.734   7.380  0.5280 -0.5227 -0.2965
 5083SOL    HW226886   1.755   3.671   7.280 -1.7335  0.3771 -0.9211
 5084SOL     OW26887   1.357   0.794   5.560 -0.2895 -0.1534  0.5224
 5084SOL    HW126888   1.450   0.787   5.537 -0.6116  1.8138 -1.3365
 5084SOL    HW226889   1.329   0.704   5.542  0.7224 -0.4404  0.3456
 5085SOL     OW26890   3.314   4.478   8.653  0.1946  0.8188 -0.4099
 5085SOL    HW126891   3.354   4.436   8.577  0.6170  0.5749 -0.0526
 5085SOL    HW226892   3.283   4.564   8.624 -2.9892 -0.7823 -1.8248
 5086SOL     OW26893   2.742   1.532   9.027  0.6939 -0.3946  0.2364
 5086SOL    HW126894   2.709   1.443   9.016  1.1012 -0.2544 -2.0438
 5086SOL    HW226895   2.828   1.523   9.070  0.5290  0.3529  0.7194
 5087SOL     OW26896   1.872   3.935   4.596  0.0584 -0.1917 -0.6679
 5087SOL    HW126897   1.781   3.907   4.582  0.4354 -0.2040 -3.1922
 5087SOL    HW226898   1.868   4.023   4.631  0.1368 -0.2777 -0.4460
 5088SOL     OW26899   2.465   4.294   8.386 -0.3070  0.4401  0.2220
 5088SOL    HW126900   2.552   4.333   8.395 -0.4731  1.4340 -2.3596
 5088SOL    HW226901   2.424   4.361   8.331 -1.0184  0.6812  1.0452
 5089SOL     OW26902   1.411   3.248   3.474  0.4447 -0.5094 -0.1247
 5089SOL    HW126903   1.411   3.304   3.396 -1.3683 -1.2504 -0.6646
 5089SOL    HW226904   1.461   3.304   3.533  1.7239 -0.9077 -0.8114
 5090SOL     OW26905   1.019   1.794   4.203  0.5783  0.4764 -0.8764
 5090SOL    HW126906   1.100   1.806   4.154  1.5092  0.0900  0.5791
 5090SOL    HW226907   1.002   1.879   4.245  0.0218 -0.1925  0.2429
 5091SOL     OW26908   0.051   0.398   4.332 -0.2059  0.0136 -0.0309
 5091SOL    HW126909   0.048   0.369   4.241  2.9265  0.9125 -0.4049
 5091SOL    HW226910   0.078   0.488   4.313  0.8879  0.1056  1.9662
 5092SOL     OW26911   1.212   3.571   7.880  0.1472 -0.3927  0.8629
 5092SOL    HW126912   1.164   3.620   7.946 -3.1145  0.3120 -2.0565
 5092SOL    HW226913   1.158   3.492   7.879 -1.1021  0.4599  2.1257
 5093SOL     OW26914   0.056   2.133   3.866 -0.1861  0.5971  0.2463
 5093SOL    HW126915   0.079   2.069   3.799 -1.5928  0.7414 -0.3671
 5093SOL    HW226916   0.139   2.139   3.914 -0.1352 -1.2222  0.4144
 5094SOL     OW26917   2.651   0.537   0.298  0.1055 -0.2122  0.2790
 5094SOL    HW126918   2.629   0.625   0.268  0.8635  0.1662  0.8197
 5094SOL    HW226919   2.694   0.503   0.219  0.4013  2.6845 -0.8323
 5095SOL     OW26920   3.830   2.295  13.148 -0.0249  0.1481  0.2241
 5095SOL    HW126921   3.804   2.213  13.190 -2.0075  1.5267  1.6759
 5095SOL    HW226922   3.794   2.356  13.212 -2.8616 -0.5704 -0.7152
 5096SOL     OW26923   1.809   1.365   6.949 -0.0707 -0.2803 -0.1033
 5096SOL    HW126924   1.804   1.347   6.855  1.4719 -4.3163  0.6259
 5096SOL    HW226925   1.730   1.419   6.957  0.0748 -0.0860  0.0247
 5097SOL     OW26926   3.385   0.853   8.939 -0.0461 -0.3469 -0.1977
 5097SOL    HW126927   3.376   0.769   8.984 -1.5843  1.2858  2.4847
 5097SOL    HW226928   3.446   0.897   8.998  1.9513 -1.1316 -1.6694
 5098SOL     OW26929   3.431   0.231  15.022  0.6104 -0.2604  0.0375
 5098SOL    HW126930   3.467   0.147  14.994  0.5321 -0.0426 -0.7212
 5098SOL    HW226931   3.515   0.265  15.053  0.6257  2.2332 -2.7522
 5099SOL     OW26932   0.184   2.617   4.469  0.6830 -0.2842  0.0692
 5099SOL    HW126933   0.191   2.693   4.527 -1.7641  0.5824 -0.7524
 5099SOL    HW226934   0.259   2.633   4.412  0.6430 -2.1866 -0.5223
 5100SOL     OW26935   2.510   3.966   2.266  0.1527 -0.1244  0.5019
 5100SOL    HW126936   2.487   3.875   2.284 -1.5902  0.4369  1.0937
 5100SOL    HW226937   2.448   3.988   2.196 -0.1045  0.5333  0.9376
 5101SOL     OW26938   3.180   0.486   9.794  0.7807 -0.4585 -0.2087
 5101SOL    HW126939   3.133   0.537   9.859  0.7310 -0.8474  0.0588
 5101SOL    HW226940   3.248   0.443   9.845 -0.3530 -1.4278  0.4829
 5102SOL     OW26941   2.476   3.622   6.422  0.0034  0.2841  0.3440
 5102SOL    HW126942   2.407   3.652   6.363 -0.3936 -2.8477 -0.8244
 5102SOL    HW226943   2.538   3.692   6.404  0.9424 -0.0895  2.1230
 5103SOL     OW26944   2.773   0.772   8.151  0.1579 -0.1772 -0.2699
 5103SOL    HW126945   2.804   0.819   8.073 -2.7596 -1.0536 -1.9784
 5103SOL    HW226946   2.815   0.811   8.228 -3.0413  0.5243  1.1291
 5104SOL     OW26947   0.309   3.120   2.012  0.1235 -0.3185 -0.1629
 5104SOL    HW126948   0.297   3.209   2.045 -2.5646 -1.4290  1.7907
 5104SOL    HW226949   0.386   3.090   2.060  0.3548 -1.7995 -1.4805
 5105SOL     OW26950   4.352   1.100   9.433 -0.2351 -0.0941  0.2512
 5105SOL    HW126951   4.307   1.118   9.350 -0.6008 -1.7418  0.0878
 5105SOL    HW226952   4.300   1.021   9.445  1.0068 -0.6846  1.6745
 5106SOL     OW26953   1.033   1.185  14.860  0.3837 -0.1083 -0.2702
 5106SOL    HW126954   0.984   1.216  14.936  0.9017  1.4901 -0.6042
 5106SOL    HW226955   0.964   1.145  14.808 -2.0452  2.7844  0.7617
 5107SOL     OW26956   3.589   1.017   0.291 -0.4390  0.5184  0.5764
 5107SOL    HW126957   3.560   1.100   0.253  0.3452  0.1938 -0.7331
 5107SOL    HW226958   3.618   1.056   0.373  0.4473 -0.3945  0.6909
 5108SOL     OW26959   3.701   4.097   2.791 -0.3249 -0.4489  1.1179
 5108SOL    HW126960   3.701   4.183   2.833 -2.7623  0.3964 -0.5883
 5108SOL    HW226961   3.716   4.106   2.697 -1.1918  0.4300  1.0613
 5109SOL     OW26962   0.946   4.261   5.000 -0.0129 -0.1848  0.2089
 5109SOL    HW126963   0.863   4.214   4.990  0.3268 -0.3483 -1.7575
 5109SOL    HW226964   1.001   4.214   4.938 -2.8752  0.9243 -3.1732
 5110SOL     OW26965   2.708   2.727  10.617 -0.2998 -0.0341  0.4124
 5110SOL    HW126966   2.772   2.785  10.658 -0.3213 -0.3704  0.9201
 5110SOL    HW226967   2.701   2.673  10.695  1.5742 -1.5607 -0.4700
 5111SOL     OW26968   1.419   3.412   2.948 -0.1916 -0.4749 -0.0371
 5111SOL    HW126969   1.372   3.409   2.864  2.1291 -0.0100 -1.3433
 5111SOL    HW226970   1.502   3.369   2.928  0.0078 -0.1573  0.1274
 5112SOL     OW26971   2.967   4.018   5.846  0.0259 -0.1160  0.0611
 5112SOL    HW126972   2.886   4.010   5.896 -0.3452  0.8230 -0.3645
 5112SOL    HW226973   2.939   4.051   5.760 -0.5505 -1.7717 -0.3949
 5113SOL     OW26974   3.840   0.551   2.665 -0.1248  0.0339  0.3623
 5113SOL    HW126975   3.907   0.506   2.717  0.9678 -0.3962 -1.4042
 5113SOL    HW226976   3.758   0.520   2.703 -0.4911  1.5197  0.7833
 5114SOL     OW26977   0.921   3.884   2.663  0.0936 -0.0574 -0.0569
 5114SOL    HW126978   0.895   3.793   2.670 -0.4506  0.2600  2.1890
 5114SOL    HW226979   1.003   3.864   2.618 -0.8736 -1.7284 -1.0643
 5115SOL     OW26980   4.100   3.973   4.269 -0.6575  0.0632  0.5824
 5115SOL    HW126981   4.134   3.923   4.343 -2.7886 -2.3185 -0.0532
 5115SOL    HW226982   4.034   4.031   4.309 -1.1287 -0.0219 -0.0637
 5116SOL     OW26983   3.665   1.832   5.927  0.0132  0.0439 -0.0178
 5116SOL    HW126984   3.608   1.759   5.902 -0.6024  1.4309 -2.6717
 5116SOL    HW226985   3.606   1.880   5.986 -1.1345 -2.6579  1.0157
 5117SOL     OW26986   0.355   2.816  11.053  0.0742  0.1296  0.1969
 5117SOL    HW126987   0.419   2.758  11.095  1.1886 -0.9849 -3.0535
 5117SOL    HW226988   0.399   2.901  11.047  1.1419 -0.3664  0.8886
 5118SOL     OW26989   1.030   4.535   3.931  0.0738  0.4282  0.0190
 5118SOL    HW126990   0.969   4.582   3.874 -0.4330  0.0301  0.2317
 5118SOL    HW226991   1.002   4.444   3.929  1.6342 -0.0971  2.7911
 5119SOL     OW26992   0.437   3.288   4.642 -0.0358  0.4148 -0.1084
 5119SOL    HW126993   0.365   3.253   4.695 -0.0221  2.6887  1.4567
 5119SOL    HW226994   0.382   3.335   4.580  0.1826  1.1330  0.2368
 5120SOL     OW26995   1.359   0.393   8.434  0.0437 -0.0878  0.3774
 5120SOL    HW126996   1.340   0.394   8.528 -0.3652  2.0758  0.2858
 5120SOL    HW226997   1.404   0.478   8.435  1.6008 -0.9099 -0.3323
 5121SOL     OW26998   2.866   3.574   2.839 -0.2697 -0.4130 -0.3381
 5121SOL    HW126999   2.861   3.536   2.927  0.7054 -0.4462 -0.3033
 5121SOL    HW227000   2.961   3.582   2.833 -0.3081 -1.4172 -2.0924
 5122SOL     OW27001   3.803   2.961   6.742  0.1672  0.1231  0.5890
 5122SOL    HW127002   3.715   2.927   6.757  0.1231 -0.7131 -1.6245
 5122SOL    HW227003   3.859   2.954   6.819 -0.2237  1.6606  1.0175
 5123SOL     OW27004   2.535   3.249   6.338 -0.1569 -0.3248  0.6925
 5123SOL    HW127005   2.500   3.292   6.417  0.5095  1.8203 -0.1656
 5123SOL    HW227006   2.521   3.157   6.360  0.6604 -0.4390  0.7380
 5124SOL     OW27007   0.878   1.796   6.557  0.7846 -0.2681 -0.5322
 5124SOL    HW127008   0.848   1.777   6.468 -0.2730  0.8218 -0.4025
 5124SOL    HW227009   0.805   1.852   6.584  0.8579 -0.0710 -0.7382
 5125SOL     OW27010   1.583   2.811   9.457 -0.1815  0.2845  0.1220
 5125SOL    HW127011   1.568   2.785   9.547 -0.0519  0.5389  0.2185
 5125SOL    HW227012   1.495   2.839   9.429 -0.3572 -0.5697 -0.1712
 5126SOL     OW27013   0.017   3.727   2.604  0.1196  0.6764  0.2930
 5126SOL    HW127014   4.733   3.681   2.686 -3.1238  0.3133 -0.7619
 5126SOL    HW227015   0.043   3.812   2.639  0.4806  0.1645  1.2729
 5127SOL     OW27016   2.813   0.483  15.726  0.0134  0.1684 -0.1232
 5127SOL    HW127017   2.859   0.404  15.699  1.7183  0.7201  1.1382
 5127SOL    HW227018   2.732   0.444  15.758 -1.7352  1.6764 -2.6503
 5128SOL     OW27019   4.660   1.067   7.148 -0.2770  0.0252 -0.0896
 5128SOL    HW127020   4.603   1.123   7.201 -1.4814 -2.2459  1.0295
 5128SOL    HW227021   4.613   1.044   7.068  1.2702  3.3378 -1.9167
 5129SOL     OW27022   3.410   1.257   4.410 -0.3060  0.1941  0.5034
 5129SOL    HW127023   3.494   1.266   4.456 -0.9149  0.7378  1.5269
 5129SOL    HW227024   3.350   1.269   4.484 -0.7435  1.3433 -0.0374
 5130SOL     OW27025   4.081   1.925  10.564 -0.0253  0.3047  0.8011
 5130SOL    HW127026   4.111   1.852  10.509 -1.4557  1.7145 -1.8698
 5130SOL    HW227027   4.155   1.919  10.624  1.4438  0.7115 -0.9764
 5131SOL     OW27028   4.206   0.616   3.536  0.0222 -0.2610 -0.1516
 5131SOL    HW127029   4.241   0.634   3.449  1.6198 -0.4200  0.4620
 5131SOL    HW227030   4.133   0.678   3.547  0.4976 -0.1734  2.6439
 5132SOL     OW27031   4.256   2.668   5.227  0.0529  0.9193  0.6758
 5132SOL    HW127032   4.214   2.607   5.288 -0.5682 -0.2978 -0.9997
 5132SOL    HW227033   4.295   2.603   5.169 -0.9632 -0.2883  1.3678
 5133SOL     OW27034   2.214   0.428   6.845 -0.0948 -0.2700 -0.2779
 5133SOL    HW127035   2.148   0.361   6.863 -1.5986  0.9336 -1.2210
 5133SOL    HW227036   2.167   0.469   6.772 -1.6981  1.7006  1.8706
 5134SOL     OW27037   0.004   4.543   6.494 -0.4257 -0.4282 -0.9544
 5134SOL    HW127038   0.008   4.503   6.581 -1.3266  1.5306  0.0033
 5134SOL    HW227039   4.649   4.569   6.494  0.3415  2.3310  1.0547
 5135SOL     OW27040   3.336   3.363   4.245 -0.1964  0.0824  0.7080
 5135SOL    HW127041   3.310   3.281   4.287  2.8371 -0.1217  2.1206
 5135SOL    HW227042   3.251   3.393   4.213  0.4379  1.0427 -0.0807
 5136SOL     OW27043   3.485   1.433   4.065 -0.0089  0.0993  0.3743
 5136SOL    HW127044   3.551   1.391   4.009  0.6148 -0.0416  1.2117
 5136SOL    HW227045   3.525   1.430   4.152 -1.7661  0.7034  1.1869
 5137SOL     OW27046   3.775   0.931   7.665 -1.0329 -0.1540  0.4300
 5137SOL    HW127047   3.732   1.014   7.688 -3.0253  0.0055 -3.8572
 5137SOL    HW227048   3.707   0.865   7.652  0.8776 -1.8744 -0.8457
 5138SOL     OW27049   4.712   0.426   1.083  0.2781 -0.0700  0.4503
 5138SOL    HW127050   0.018   0.510   1.069 -3.1996  1.5115 -0.9377
 5138SOL    HW227051   4.626   0.430   1.041  0.6328 -0.7028 -0.3507
 5139SOL     OW27052   0.190   1.983   6.682  0.0792  0.1356 -0.5124
 5139SOL    HW127053   0.120   2.012   6.741  0.4353 -0.6717  0.3092
 5139SOL    HW227054   0.150   1.923   6.618  0.7615  1.7284 -2.4276
 5140SOL     OW27055   3.354   0.442   5.336 -0.2917  1.0074 -0.1156
 5140SOL    HW127056   3.383   0.350   5.338  4.4842  2.5327 -0.0053
 5140SOL    HW227057   3.396   0.487   5.263  1.7278 -2.3325 -1.0178
 5141SOL     OW27058   2.159   4.580   2.190  0.2569 -0.1477  0.6718
 5141SOL    HW127059   2.245   4.564   2.228  0.2251 -1.9612 -0.0464
 5141SOL    HW227060   2.135   4.664   2.230  2.2787  1.2652 -1.0308
 5142SOL     OW27061   0.053   0.565  13.005 -0.4050 -0.1420 -0.4324
 5142SOL    HW127062   4.697   0.550  12.989 -0.8748 -1.0556  3.2582
 5142SOL    HW227063   0.063   0.513  13.085 -0.1898 -0.4994 -0.6880
 5143SOL     OW27064   4.654   3.786   8.181  0.3187  0.3595  0.7122
 5143SOL    HW127065   4.679   3.876   8.200  0.5443  0.6214 -0.8230
 5143SOL    HW227066   4.704   3.766   8.101  0.6051  0.5527  0.8425
 5144SOL     OW27067   2.933   2.611   5.462 -0.9265 -0.5482 -0.2228
 5144SOL    HW127068   2.868   2.654   5.518  1.0293  1.7776  0.2632
 5144SOL    HW227069   2.893   2.608   5.374 -2.4027  1.3159  0.3720
 5145SOL     OW27070   3.689   3.866  10.890 -0.2691 -0.8940  0.4703
 5145SOL    HW127071   3.620   3.932  10.886 -1.4287 -2.1855 -0.6559
 5145SOL    HW227072   3.699   3.867  10.985 -0.6171  2.7656  0.4907
 5146SOL     OW27073   1.736   0.312   3.621 -0.5120 -0.4784  0.3371
 5146SOL    HW127074   1.767   0.249   3.686  0.1692  0.3800  0.8453
 5146SOL    HW227075   1.749   0.400   3.657  1.6874  0.0951 -1.8318
 5147SOL     OW27076   0.838   1.865   5.805 -1.1120  0.1350  0.5128
 5147SOL    HW127077   0.891   1.794   5.841 -0.7711  0.0943 -0.0671
 5147SOL    HW227078   0.902   1.930   5.776 -0.2928 -1.1607 -0.5437
 5148SOL     OW27079   4.020   2.738  10.216 -0.0911  0.9364  0.0223
 5148SOL    HW127080   3.932   2.756  10.248 -0.4996  0.4120 -0.7726
 5148SOL    HW227081   4.010   2.727  10.121  1.1466 -2.7908  0.3093
 5149SOL     OW27082   3.264   4.240  16.163  0.1286 -0.0956  0.1465
 5149SOL    HW127083   3.205   4.286  16.104  2.0371  1.6164 -0.4414
 5149SOL    HW227084   3.303   4.186  16.094  2.0848  0.8436  0.5229
 5150SOL     OW27085   3.408   2.715  17.481  0.0181  0.7172  0.2054
 5150SOL    HW127086   3.324   2.676  17.506 -0.4525  1.5981  0.0049
 5150SOL    HW227087   3.390   2.729  17.388  1.8917 -2.6540 -0.6782
 5151SOL     OW27088   0.615   2.136  11.658  0.0538  0.1886  0.1925
 5151SOL    HW127089   0.574   2.171  11.737 -0.4433 -0.8180  0.3833
 5151SOL    HW227090   0.645   2.051  11.691  0.3610  0.8022  1.4682
 5152SOL     OW27091   1.866   1.192   4.779 -0.7604  0.1838  0.0225
 5152SOL    HW127092   1.857   1.155   4.692 -0.9843 -0.4065  0.2970
 5152SOL    HW227093   1.960   1.187   4.794 -0.7894 -2.8123 -0.8839
 5153SOL     OW27094   0.746   1.610   1.126  0.0947 -0.6067  0.0753
 5153SOL    HW127095   0.749   1.517   1.149  0.0613 -0.9788 -1.4895
 5153SOL    HW227096   0.833   1.627   1.090 -0.0131  1.1999  0.6372
 5154SOL     OW27097   3.038   2.451  16.299 -0.2448 -0.9286 -0.1448
 5154SOL    HW127098   2.960   2.476  16.348  0.4304 -0.8807  0.9054
 5154SOL    HW227099   3.018   2.363  16.267  2.1765 -1.0259 -1.3886
 5155SOL     OW27100   2.723   1.156   6.047  0.0632  0.2046 -0.1910
 5155SOL    HW127101   2.713   1.226   6.111 -1.8607 -0.3123  0.0750
 5155SOL    HW227102   2.633   1.124   6.050  0.4539 -0.5722  2.4075
 5156SOL     OW27103   1.013   0.026   4.113 -0.4232  0.4077  0.4780
 5156SOL    HW127104   0.920   0.008   4.121 -0.7687  2.3329  0.7322
 5156SOL    HW227105   1.038   4.708   4.039  0.3979  0.4521  0.7191
 5157SOL     OW27106   2.931   0.253   9.009  0.8188  0.3294 -0.1173
 5157SOL    HW127107   2.955   0.161   9.018 -1.8268 -0.3054  0.4545
 5157SOL    HW227108   3.018   0.290   9.026  1.1243 -1.0132  1.2989
 5158SOL     OW27109   0.413   0.375  12.484  0.0292 -0.5375  0.1022
 5158SOL    HW127110   0.443   0.450  12.433 -0.2702 -1.1557 -0.9840
 5158SOL    HW227111   0.422   0.396  12.577 -1.4289  0.3963  0.0452
 5159SOL     OW27112   4.530   0.642   6.845 -0.5398 -0.5663 -0.1883
 5159SOL    HW127113   4.509   0.648   6.752 -1.2007  0.5160  0.0365
 5159SOL    HW227114   4.584   0.563   6.845 -0.6233 -0.6169 -1.6170
 5160SOL     OW27115   4.097   0.135   4.045 -0.2910  0.4503  0.0049
 5160SOL    HW127116   4.142   0.139   3.960  1.4330 -0.6321  0.8812
 5160SOL    HW227117   4.110   0.226   4.073 -0.9017  0.6354 -0.3096
 5161SOL     OW27118   3.441   2.656   9.725 -0.6360  0.1525  0.0851
 5161SOL    HW127119   3.352   2.671   9.757 -0.5530 -2.4590  1.5393
 5161SOL    HW227120   3.424   2.595   9.653 -2.3171 -0.4007  0.9607
 5162SOL     OW27121   0.536   2.205   4.463  0.1090  0.1810  0.3310
 5162SOL    HW127122   0.467   2.237   4.404  0.7388  2.4817  0.8161
 5162SOL    HW227123   0.488   2.185   4.543  1.0158  0.5531  0.9648
 5163SOL     OW27124   0.273   1.561   6.381 -0.1207 -0.8223  0.0280
 5163SOL    HW127125   0.321   1.542   6.461  0.6981  0.4522 -0.1649
 5163SOL    HW227126   0.308   1.495   6.321  0.0146 -0.5584 -0.1838
 5164SOL     OW27127   1.709   1.747   2.452 -0.2214 -0.4102 -0.6006
 5164SOL    HW127128   1.805   1.751   2.445 -0.3522  1.2654 -1.5202
 5164SOL    HW227129   1.675   1.832   2.480  0.6680 -1.3466  3.3362
 5165SOL     OW27130   4.672   0.621  15.015  0.6671 -0.2163 -0.1978
 5165SOL    HW127131   4.644   0.712  15.009  0.9702 -0.2560 -2.1095
 5165SOL    HW227132   4.661   0.611  14.920  1.8984  2.2141 -0.6134
 5166SOL     OW27133   2.426   2.726  16.342 -0.3041 -0.2923 -0.5834
 5166SOL    HW127134   2.354   2.743  16.402 -1.5624 -0.9730 -1.9012
 5166SOL    HW227135   2.500   2.780  16.371 -1.6825  2.1873 -1.8111
 5167SOL     OW27136   3.571   4.369   5.620 -0.0996  0.2592 -0.2219
 5167SOL    HW127137   3.577   4.315   5.699 -2.0433  1.8386  1.0003
 5167SOL    HW227138   3.604   4.451   5.656 -0.7644  0.5393 -0.2586
 5168SOL     OW27139   0.313   3.904   3.835 -0.4239  0.0107  0.0057
 5168SOL    HW127140   0.306   3.993   3.870 -2.1730  0.1126 -0.6130
 5168SOL    HW227141   0.224   3.880   3.861  0.7496 -1.4118  2.6480
 5169SOL     OW27142   3.957   3.233   5.968 -0.3681 -0.0431  0.0688
 5169SOL    HW127143   4.005   3.306   6.007  0.6406 -0.4511 -0.4030
 5169SOL    HW227144   3.871   3.244   6.009  1.0579 -0.8361  3.2508
 5170SOL     OW27145   3.822   4.706   2.796 -0.1915  0.2374  0.1798
 5170SOL    HW127146   3.829   0.050   2.746 -0.2858  0.6758  0.8705
 5170SOL    HW227147   3.848   0.001   2.882 -2.3571  0.8514  0.6019
 5171SOL     OW27148   2.163   4.337   7.275 -0.5064  0.0947  0.1423
 5171SOL    HW127149   2.092   4.352   7.337 -1.1854  0.7814 -0.8076
 5171SOL    HW227150   2.112   4.301   7.202 -0.0540  1.3562 -0.7955
 5172SOL     OW27151   0.071   0.623   6.629 -0.0945 -0.2186  0.3797
 5172SOL    HW127152   0.099   0.533   6.612  2.3328  0.3124  1.4998
 5172SOL    HW227153   0.145   0.645   6.686 -2.0305 -0.8819  3.1473
 5173SOL     OW27154   1.345   2.105   3.979 -0.4250  0.2042 -0.5318
 5173SOL    HW127155   1.351   2.013   4.003 -0.2694  0.0482 -1.1468
 5173SOL    HW227156   1.312   2.096   3.889 -1.1527  0.6774 -0.3095
 5174SOL     OW27157   2.469   4.327   1.668  0.0036 -0.2423 -0.2157
 5174SOL    HW127158   2.377   4.315   1.642  0.8022 -0.7540 -2.8339
 5174SOL    HW227159   2.518   4.274   1.606 -0.1198  0.1350 -0.6329
 5175SOL     OW27160   4.040   1.996   0.002  0.2169  0.1732  0.0541
 5175SOL    HW127161   3.950   1.979  17.725  0.1097 -2.2358  2.0741
 5175SOL    HW227162   4.081   1.921  17.707  2.1836  0.8777  0.6686
 5176SOL     OW27163   2.014   1.639   0.275  0.1964  0.7575 -0.4370
 5176SOL    HW127164   2.055   1.555   0.256  1.8797  1.1081  1.6557
 5176SOL    HW227165   1.922   1.620   0.258  0.9848 -0.6432 -3.0743
 5177SOL     OW27166   4.483   0.729  10.916 -0.3058 -0.5964  0.2201
 5177SOL    HW127167   4.554   0.699  10.974  1.1551  0.2975 -1.1244
 5177SOL    HW227168   4.458   0.806  10.968  0.7834  1.6352 -2.5696
 5178SOL     OW27169   3.858   3.860  10.662  0.8541  0.2216 -0.2049
 5178SOL    HW127170   3.951   3.847  10.681  1.6589  1.1209 -3.4446
 5178SOL    HW227171   3.807   3.887  10.739 -1.3675 -0.8962 -1.2834
 5179SOL     OW27172   4.189   4.057  13.191 -0.2192  0.1393 -0.3426
 5179SOL    HW127173   4.204   4.053  13.096 -0.0490  2.0109 -0.3888
 5179SOL    HW227174   4.098   4.082  13.202 -0.2698 -1.1027  2.0341
 5180SOL     OW27175   3.631   4.110   4.159  0.3040  0.2529 -0.2731
 5180SOL    HW127176   3.619   4.045   4.228  0.9512  2.4992  1.9713
 5180SOL    HW227177   3.584   4.177   4.210 -0.2994  0.0921 -0.6256
 5181SOL     OW27178   1.106   2.081   8.030 -0.1192 -0.5136  0.4096
 5181SOL    HW127179   1.194   2.108   8.002 -0.7555  1.3080  0.1437
 5181SOL    HW227180   1.064   2.139   7.966  2.7487  0.9237 -0.2127
 5182SOL     OW27181   2.802   1.628  15.009 -0.0907 -0.4988 -0.2464
 5182SOL    HW127182   2.847   1.665  14.933 -1.2163  0.5147 -0.4156
 5182SOL    HW227183   2.746   1.703  15.027  1.7917  0.4547  1.6310
 5183SOL     OW27184   2.674   3.661   9.888  0.0939 -0.3883  0.2751
 5183SOL    HW127185   2.581   3.685   9.890  0.4017  0.9234 -1.0797
 5183SOL    HW227186   2.688   3.661   9.794 -0.0937  1.1052  0.2544
 5184SOL     OW27187   3.450   2.281   4.621  0.3063 -0.2076 -0.5216
 5184SOL    HW127188   3.493   2.243   4.544  1.5095 -0.2052  0.1411
 5184SOL    HW227189   3.358   2.273   4.597 -0.1335 -1.4471  1.6044
 5185SOL     OW27190   4.633   0.935  14.976  0.0013  0.2076  0.2265
 5185SOL    HW127191   4.583   0.925  14.895 -0.5400  1.5482  0.3885
 5185SOL    HW227192   4.702   0.994  14.946 -1.2542  1.6874  0.2749
 5186SOL     OW27193   3.309   3.465   9.172 -0.2038 -0.2942  0.7335
 5186SOL    HW127194   3.278   3.507   9.092  1.2848 -0.5843  0.0090
 5186SOL    HW227195   3.318   3.538   9.233 -2.2131  0.4869  0.1105
 5187SOL     OW27196   0.618   1.531   8.048  0.3447 -0.4712  0.2846
 5187SOL    HW127197   0.647   1.613   8.009 -0.8128 -0.1934  0.0105
 5187SOL    HW227198   0.680   1.505   8.116 -1.1744  0.6306  2.0959
 5188SOL     OW27199   4.271   0.515   8.809 -0.0675  0.6611  0.1745
 5188SOL    HW127200   4.234   0.429   8.825  0.7429 -0.1228 -2.1901
 5188SOL    HW227201   4.363   0.489   8.800  0.0517  0.1964  2.5888
 5189SOL     OW27202   1.673   0.110   8.302 -0.1741  0.1027 -0.1513
 5189SOL    HW127203   1.691   0.071   8.388 -0.1784 -1.7039 -0.9750
 5189SOL    HW227204   1.578   0.116   8.302 -0.1586  0.2947 -0.8507
 5190SOL     OW27205   0.029   3.043   7.929 -0.0495  0.2168  0.2472
 5190SOL    HW127206   0.007   3.019   8.019  0.5086 -1.0536  0.0439
 5190SOL    HW227207   4.692   3.001   7.886  0.6724  0.5502 -1.3257
 5191SOL     OW27208   1.984   3.582  17.167 -0.4396  0.2187  0.2072
 5191SOL    HW127209   1.993   3.668  17.209  0.3134 -0.0052  0.5168
 5191SOL    HW227210   2.001   3.527  17.244  0.6945  0.7352  0.3293
 5192SOL     OW27211   2.442   1.157  10.327 -0.3794  0.6572 -0.1502
 5192SOL    HW127212   2.466   1.120  10.412 -1.4461 -0.6452 -0.4108
 5192SOL    HW227213   2.410   1.076  10.287 -0.4845  1.1707 -1.0829
 5193SOL     OW27214   4.009   2.267   8.496 -0.2258  0.3764  0.1275
 5193SOL    HW127215   3.995   2.277   8.402 -0.1820  2.2767  0.3251
 5193SOL    HW227216   3.958   2.339   8.534 -1.0467 -0.1739  0.0746
 5194SOL     OW27217   3.068   3.464   4.595 -0.5261  0.2402  0.3304
 5194SOL    HW127218   3.030   3.533   4.650  2.1635  0.2321  2.1725
 5194SOL    HW227219   3.111   3.510   4.524  0.5106 -1.8946 -0.4303
 5195SOL     OW27220   3.870   4.485   7.395  0.0974 -0.2292 -0.4016
 5195SOL    HW127221   3.790   4.490   7.343 -0.4785 -1.4265  0.3636
 5195SOL    HW227222   3.837   4.519   7.478  0.8052 -2.0018  0.6339
 5196SOL     OW27223   3.892   3.336   2.814  0.0819 -0.1300 -0.2288
 5196SOL    HW127224   3.927   3.284   2.887 -1.0574  0.1840  0.5497
 5196SOL    HW227225   3.841   3.275   2.761  0.3517 -0.3840 -0.1963
 5197SOL     OW27226   3.328   2.472   9.528  0.6959 -0.2350  0.3496
 5197SOL    HW127227   3.271   2.533   9.479  0.5339 -1.3134 -0.8108
 5197SOL    HW227228   3.292   2.389   9.497 -2.3450  1.1275  0.2496
 5198SOL     OW27229   1.621   1.797  16.003  0.2541  0.4970  0.4160
 5198SOL    HW127230   1.700   1.817  16.053  0.0135  0.8324  0.6635
 5198SOL    HW227231   1.591   1.877  15.959 -0.0867  1.7047  2.8635
 5199SOL     OW27232   1.415   0.389   5.087  0.1316  0.2071  0.1638
 5199SOL    HW127233   1.340   0.329   5.093  0.5413 -0.2183  1.0078
 5199SOL    HW227234   1.478   0.318   5.102  0.8565  0.7747 -0.2033
 5200SOL     OW27235   3.464   3.600  11.113  0.4488 -0.5895 -0.2290
 5200SOL    HW127236   3.421   3.518  11.087 -2.2646  0.0951  2.0344
 5200SOL    HW227237   3.497   3.584  11.202 -0.2009  2.0163  0.4716
 5201SOL     OW27238   2.029   2.841   4.807  0.7969 -0.1134 -0.4722
 5201SOL    HW127239   2.109   2.863   4.760 -1.6531  2.7697 -3.2125
 5201SOL    HW227240   2.003   2.759   4.764 -0.0263 -0.3653  0.4774
 5202SOL     OW27241   2.807   0.429   2.250 -0.6007  0.8223  0.1805
 5202SOL    HW127242   2.718   0.406   2.275  0.1970 -2.1531  0.2200
 5202SOL    HW227243   2.812   0.396   2.160  0.1871  1.0267  0.1454
 5203SOL     OW27244   3.099   2.438   8.475 -0.3453 -0.3186 -0.2881
 5203SOL    HW127245   3.091   2.532   8.485  0.6705 -0.4130  1.4382
 5203SOL    HW227246   3.195   2.427   8.472 -0.4719 -1.3221 -1.0193
 5204SOL     OW27247   0.011   2.615   4.027  0.4981  0.0477 -0.5542
 5204SOL    HW127248   4.710   2.699   4.005  1.3977  0.2927 -1.1906
 5204SOL    HW227249   4.705   2.551   3.970  1.5789  0.4777 -1.8599
 5205SOL     OW27250   3.852   2.821   3.392  0.1572  0.0080 -0.0562
 5205SOL    HW127251   3.919   2.764   3.430  1.7636  1.2372 -1.0438
 5205SOL    HW227252   3.805   2.848   3.470  1.5780  0.1450  0.7514
 5206SOL     OW27253   0.323   4.203   2.155  0.0215  0.2230  0.2780
 5206SOL    HW127254   0.280   4.201   2.241  3.1496 -1.0322  1.8346
 5206SOL    HW227255   0.246   4.200   2.099 -1.1216  2.0157  1.7435
 5207SOL     OW27256   2.837   2.078   9.604 -0.0479 -0.5284  0.3522
 5207SOL    HW127257   2.842   2.100   9.511  0.3425 -1.8700  0.0461
 5207SOL    HW227258   2.864   1.986   9.600  1.3396 -0.1771  1.4956
 5208SOL     OW27259   4.719   1.042  14.544  0.9450  0.3544  0.0816
 5208SOL    HW127260   0.057   0.998  14.582  1.3290  2.7963  2.1239
 5208SOL    HW227261   0.025   1.109  14.492  0.4892  0.1433 -0.5756
 5209SOL     OW27262   3.837   4.665   3.555 -0.2303  0.1728 -0.4406
 5209SOL    HW127263   3.931   4.668   3.572 -0.1529 -1.3385 -0.5957
 5209SOL    HW227264   3.800   4.695   3.638  1.2933  0.5251  0.0993
 5210SOL     OW27265   4.096   1.562   3.953  0.4536  0.3576 -0.3141
 5210SOL    HW127266   4.041   1.501   4.002  1.0019  1.2423  1.4080
 5210SOL    HW227267   4.172   1.504   3.960  1.2117  1.4420  0.4475
 5211SOL     OW27268   2.819   3.001  12.506 -0.0590 -0.1085  0.1265
 5211SOL    HW127269   2.888   2.942  12.475 -1.6121 -2.5150  1.3105
 5211SOL    HW227270   2.885   3.068  12.526  0.9114 -0.4924 -1.8053
 5212SOL     OW27271   2.589   1.585   8.751  0.2026 -0.1284  0.0508
 5212SOL    HW127272   2.671   1.539   8.770  0.5955  0.2145 -0.8350
 5212SOL    HW227273   2.517   1.533   8.788 -1.0348 -0.1413 -2.3694
 5213SOL     OW27274   3.917   1.728   3.464 -0.1060  0.1049  0.0534
 5213SOL    HW127275   3.945   1.665   3.530  1.8002  1.8402  0.8938
 5213SOL    HW227276   3.911   1.812   3.510  1.0090 -0.0441  0.4570
 5214SOL     OW27277   2.549   4.701   5.522 -0.1101 -0.1512 -0.2035
 5214SOL    HW127278   2.474   0.021   5.534  0.4771 -0.1474  3.3415
 5214SOL    HW227279   2.607   4.726   5.594  1.0390  1.5334 -1.7084
 5215SOL     OW27280   1.601   1.125  10.366 -0.0938 -0.1265  0.0196
 5215SOL    HW127281   1.613   1.072  10.288 -2.6339  1.6298 -1.5566
 5215SOL    HW227282   1.516   1.090  10.393 -0.2894 -0.8914 -1.6228
 5216SOL     OW27283   3.250   1.072   2.742  0.6223  0.2623  0.2203
 5216SOL    HW127284   3.263   0.982   2.712 -1.0050 -0.6508  2.2701
 5216SOL    HW227285   3.163   1.068   2.782  0.9564 -0.4217  0.8755
 5217SOL     OW27286   0.234   3.578   9.219  0.7604  0.3541 -0.2718
 5217SOL    HW127287   0.142   3.550   9.222  0.0223  2.9059  0.7060
 5217SOL    HW227288   0.265   3.535   9.299 -0.6773 -0.0756  0.0684
 5218SOL     OW27289   3.902   1.818   6.414 -0.4592 -0.0992  0.9214
 5218SOL    HW127290   3.930   1.883   6.349  1.7387 -0.5909  1.3513
 5218SOL    HW227291   3.835   1.862   6.465  0.5547  3.0266 -0.3988
 5219SOL     OW27292   1.476   1.177   4.726 -0.0477  0.1058 -0.1134
 5219SOL    HW127293   1.543   1.129   4.678  0.3542  0.8300 -0.2649
 5219SOL    HW227294   1.505   1.261   4.690  1.4633  0.0417  0.9703
 5220SOL     OW27295   2.536   1.792   7.568 -0.1445 -0.0882  0.8957
 5220SOL    HW127296   2.475   1.830   7.505  1.1603 -0.3941 -0.5657
 5220SOL    HW227297   2.572   1.860   7.625 -0.3440 -0.5597  1.5794
 5221SOL     OW27298   1.426   0.772   7.264 -0.2719  0.3757 -0.2884
 5221SOL    HW127299   1.393   0.778   7.175 -2.1114  0.8503  0.4154
 5221SOL    HW227300   1.359   0.716   7.304 -0.4243  1.6102  1.1761
 5222SOL     OW27301   2.479   4.703   8.421  0.3853  0.0582 -0.9162
 5222SOL    HW127302   2.527   4.653   8.355  0.4256 -0.8309 -0.2095
 5222SOL    HW227303   2.396   4.714   8.375  0.8021  3.2681 -0.9131
 5223SOL     OW27304   4.685   3.274  10.356 -0.1132  0.1746  0.1077
 5223SOL    HW127305   4.597   3.238  10.369  0.6238 -1.3388  0.9101
 5223SOL    HW227306   4.700   3.301  10.447 -0.8302 -2.3171  0.9698
 5224SOL     OW27307   2.488   1.879   5.975  0.3211  0.3192  0.2117
 5224SOL    HW127308   2.545   1.828   6.032  0.7015 -1.1906 -1.5198
 5224SOL    HW227309   2.513   1.966   6.006 -0.9234  1.0145 -0.7239
 5225SOL     OW27310   0.125   1.265   7.081  0.5220  0.3190 -0.0736
 5225SOL    HW127311   0.148   1.260   7.174  1.6545 -1.7133 -0.4496
 5225SOL    HW227312   0.053   1.202   7.085 -0.1118  1.0841  0.3237
 5226SOL     OW27313   1.044   2.970   8.739  0.1648 -0.6303 -0.6948
 5226SOL    HW127314   0.976   2.967   8.672  0.5367  0.7499 -1.1139
 5226SOL    HW227315   1.010   2.902   8.798 -0.7942 -0.0415 -0.5771
 5227SOL     OW27316   1.994   3.430   3.093 -0.0307 -0.2668 -0.2782
 5227SOL    HW127317   1.926   3.487   3.129 -0.3666 -1.4740  1.0241
 5227SOL    HW227318   1.928   3.365   3.066  0.0426 -0.6466  0.4316
 5228SOL     OW27319   4.454   3.194   8.790  0.6179  0.2326  0.1610
 5228SOL    HW127320   4.375   3.237   8.756 -0.8678 -1.8630  0.9295
 5228SOL    HW227321   4.446   3.112   8.741  0.4634 -0.5858  1.5803
 5229SOL     OW27322   4.526   2.919   7.873  0.7929 -0.2514 -0.3173
 5229SOL    HW127323   4.549   2.859   7.802  0.4878  0.5300 -1.0665
 5229SOL    HW227324   4.460   2.871   7.923  1.0081 -1.5418 -1.2576
 5230SOL     OW27325   1.550   3.681   4.192  0.4539  0.3998  0.5294
 5230SOL    HW127326   1.486   3.710   4.128  2.2361  0.5185 -1.2084
 5230SOL    HW227327   1.616   3.665   4.124  2.1545  1.5891  1.9223
 5231SOL     OW27328   1.870   2.239  12.122 -0.1976 -0.3572 -0.0199
 5231SOL    HW127329   1.794   2.285  12.084  0.9900  3.0619  1.7850
 5231SOL    HW227330   1.921   2.208  12.046 -1.1418  1.5815 -1.4473
 5232SOL     OW27331   2.004   3.121  17.264  0.0556  0.3457 -0.0085
 5232SOL    HW127332   1.967   3.098  17.179 -0.3703  2.6467 -0.4543
 5232SOL    HW227333   2.077   3.062  17.282  1.4615  2.0619 -0.1716
 5233SOL     OW27334   2.160   4.389   1.737 -0.2825 -0.4822  0.0251
 5233SOL    HW127335   2.189   4.370   1.826 -0.0231  0.8260  0.2217
 5233SOL    HW227336   2.076   4.344   1.727  0.4030 -1.4529 -1.5142
 5234SOL     OW27337   2.836   0.522   9.573 -0.4346  0.0278  0.3623
 5234SOL    HW127338   2.850   0.472   9.653  1.5730 -0.2949 -0.1992
 5234SOL    HW227339   2.926   0.539   9.546 -0.0204 -0.9640  1.1153
 5235SOL     OW27340   2.273   1.752   2.621 -0.6471  0.2008 -1.0309
 5235SOL    HW127341   2.339   1.751   2.689  0.1673 -1.4171 -1.8575
 5235SOL    HW227342   2.277   1.845   2.598  1.0301  0.0761 -1.2141
 5236SOL     OW27343   3.103   1.105   6.868  0.4400  0.6514  0.5856
 5236SOL    HW127344   3.067   1.152   6.943 -0.8503  1.4039 -0.5094
 5236SOL    HW227345   3.189   1.074   6.899  0.5636 -1.1570 -1.5672
 5237SOL     OW27346   2.187   0.900  10.611  0.3406  0.5126  0.1969
 5237SOL    HW127347   2.166   0.872  10.700  3.8605  2.1087  1.5403
 5237SOL    HW227348   2.182   0.995  10.611 -0.5094  0.4701 -0.2912
 5238SOL     OW27349   2.108   2.879   8.124 -0.4204 -0.0608  0.2282
 5238SOL    HW127350   2.170   2.903   8.194  0.3830  0.4414 -0.6617
 5238SOL    HW227351   2.147   2.802   8.082  1.1352 -0.0621  1.6616
 5239SOL     OW27352   3.328   0.930   6.436  0.3375 -0.0858 -0.6045
 5239SOL    HW127353   3.378   1.009   6.415 -0.6969  0.8246  0.3831
 5239SOL    HW227354   3.295   0.914   6.348 -1.9428  0.3567  0.1803
 5240SOL     OW27355   2.359   2.606   4.451 -0.0283  0.4587 -0.1119
 5240SOL    HW127356   2.375   2.668   4.523  0.0369 -1.5053  1.5765
 5240SOL    HW227357   2.448   2.585   4.424 -0.2866  0.2769 -0.8025
 5241SOL     OW27358   2.279   4.325  10.773  0.0531 -0.3252  0.7079
 5241SOL    HW127359   2.289   4.419  10.756  0.8061 -0.4071  0.7140
 5241SOL    HW227360   2.201   4.330  10.828 -0.5022  1.0174 -0.1952
 5242SOL     OW27361   1.641   2.872   3.059  0.4682  0.1721 -0.1282
 5242SOL    HW127362   1.662   2.963   3.081 -0.7947  0.5517 -0.4948
 5242SOL    HW227363   1.721   2.824   3.083  0.4549  1.0981  1.8144
 5243SOL     OW27364   2.778   4.309   7.347 -0.0040  0.4337 -0.2872
 5243SOL    HW127365   2.720   4.302   7.423 -2.2158 -0.3910 -2.0519
 5243SOL    HW227366   2.778   4.404   7.334  1.6981  0.1837 -2.0745
 5244SOL     OW27367   0.284   3.116   3.134  0.7279 -0.6684 -0.0004
 5244SOL    HW127368   0.210   3.075   3.089  0.7549 -1.5189  0.7289
 5244SOL    HW227369   0.298   3.187   3.072  0.6476 -2.2632 -1.8281
 5245SOL     OW27370   2.473   0.115   1.259  0.2424  0.3103 -0.1185
 5245SOL    HW127371   2.416   0.068   1.198 -0.3468  1.3654 -0.3859
 5245SOL    HW227372   2.511   0.037   1.300 -1.5551 -1.1031 -1.1217
 5246SOL     OW27373   1.567   1.712  13.538  0.2361  0.1909  0.0524
 5246SOL    HW127374   1.487   1.694  13.488  0.8984  0.4062 -1.1059
 5246SOL    HW227375   1.627   1.650  13.498  1.3605  0.4542  1.3311
 5247SOL     OW27376   3.420   3.164   6.519  0.3486  0.5842 -0.2552
 5247SOL    HW127377   3.384   3.076   6.504 -0.7430  1.5850 -3.4985
 5247SOL    HW227378   3.358   3.179   6.590 -0.3663  0.4046 -0.8402
 5248SOL     OW27379   0.963   0.819   5.944  0.0566 -0.5702  0.4391
 5248SOL    HW127380   0.948   0.735   5.901  0.9362 -1.6385  2.2513
 5248SOL    HW227381   1.029   0.861   5.889  1.5347 -1.0952  1.8079
 5249SOL     OW27382   3.008   0.419   4.219 -0.1716 -0.7807  0.2776
 5249SOL    HW127383   3.038   0.407   4.309 -1.6545  0.4700  0.9210
 5249SOL    HW227384   3.006   0.332   4.179  0.0906  0.9198 -3.4310
 5250SOL     OW27385   3.021   0.574   9.171 -0.3397  0.1469  0.3305
 5250SOL    HW127386   2.927   0.577   9.189 -0.5730 -1.0664 -0.6802
 5250SOL    HW227387   3.032   0.662   9.136  0.7379 -0.3622 -0.6110
 5251SOL     OW27388   1.362   0.019   7.026  0.6440 -0.0889  0.5323
 5251SOL    HW127389   1.278   4.735   6.985  0.0191 -2.0149  2.7657
 5251SOL    HW227390   1.394   0.087   6.967  0.8683  2.0192  3.0839
 5252SOL     OW27391   1.935   3.539   1.628 -0.0412 -0.1801  0.2479
 5252SOL    HW127392   1.849   3.510   1.657 -0.1562 -0.1890 -0.1052
 5252SOL    HW227393   1.939   3.526   1.533 -5.9098 -0.5662  0.0862
 5253SOL     OW27394   3.076   0.452   2.760 -0.3249 -0.2509 -0.0921
 5253SOL    HW127395   3.030   0.409   2.688 -1.2925 -0.8332  0.8685
 5253SOL    HW227396   3.007   0.512   2.789  1.7425  0.1704  3.9470
 5254SOL     OW27397   4.187   4.035   3.852  0.1075 -0.2069 -0.3770
 5254SOL    HW127398   4.124   4.095   3.890 -1.3528 -0.0693 -3.0667
 5254SOL    HW227399   4.265   4.072   3.893  0.8053 -1.9654 -0.0967
 5255SOL     OW27400   4.384   3.974  16.890  1.0311  0.5303  0.1965
 5255SOL    HW127401   4.312   3.999  16.832 -0.8841  0.4843  2.5542
 5255SOL    HW227402   4.455   3.948  16.832  1.9368  0.0292  1.5162
 5256SOL     OW27403   3.746   0.179   8.534 -0.4109 -0.0441 -0.2020
 5256SOL    HW127404   3.749   0.269   8.501 -0.3457  0.2585  0.6076
 5256SOL    HW227405   3.766   0.125   8.458 -0.3313  0.7830 -0.7589
 5257SOL     OW27406   4.271   0.314   2.160 -0.0606  0.4974 -0.0077
 5257SOL    HW127407   4.225   0.345   2.082  1.6113  0.7293 -0.8902
 5257SOL    HW227408   4.241   0.386   2.216 -0.2498 -1.2500  2.1652
 5258SOL     OW27409   1.924   4.532   7.273 -0.1593 -0.0235 -0.2801
 5258SOL    HW127410   1.856   4.469   7.298  1.1772 -0.3245  2.5461
 5258SOL    HW227411   1.944   4.522   7.180 -0.6116  0.5663 -0.4385
 5259SOL     OW27412   2.926   0.570  14.493 -0.0685  0.3280 -0.2928
 5259SOL    HW127413   2.948   0.550  14.402 -0.6621 -3.9760  0.5231
 5259SOL    HW227414   2.899   0.662  14.486 -0.4104  0.1629 -1.1450
 5260SOL     OW27415   2.951   1.056   2.762  0.0520  0.1971  0.1777
 5260SOL    HW127416   2.937   1.144   2.727 -2.7696 -0.6829 -0.9146
 5260SOL    HW227417   2.933   1.004   2.684 -3.1638 -0.2737  1.2075
 5261SOL     OW27418   1.892   2.315   3.434  0.2440 -0.1213 -0.5989
 5261SOL    HW127419   1.842   2.258   3.492 -0.7553 -0.2695 -1.6052
 5261SOL    HW227420   1.845   2.397   3.450  0.3086 -0.4505  1.2833
 5262SOL     OW27421   3.978   1.834   1.368 -0.2965 -0.0685 -0.0647
 5262SOL    HW127422   4.053   1.816   1.425 -0.0449 -2.3973 -1.1154
 5262SOL    HW227423   3.964   1.927   1.388 -1.5909 -0.4181  0.6316
 5263SOL     OW27424   2.313   3.820   4.892  0.0049 -0.4548  0.5855
 5263SOL    HW127425   2.257   3.749   4.860  0.3162 -1.3494  1.9998
 5263SOL    HW227426   2.265   3.902   4.887 -0.2498 -0.7231 -1.5100
 5264SOL     OW27427   0.071   3.531   7.562  0.8671  0.5612 -0.4005
 5264SOL    HW127428   0.074   3.626   7.553  1.1722  0.5400 -0.4912
 5264SOL    HW227429   4.721   3.518   7.599  0.9047  1.9242  0.1683
 5265SOL     OW27430   2.163   3.147   7.804  0.4706  0.4547  1.1040
 5265SOL    HW127431   2.166   3.219   7.741  0.8757 -1.5729 -1.1732
 5265SOL    HW227432   2.255   3.119   7.804  0.0198 -1.0202  0.3831
 5266SOL     OW27433   2.087   2.498  11.100 -0.0698 -0.0955  0.1423
 5266SOL    HW127434   2.116   2.409  11.077  1.4458  0.1135  1.2255
 5266SOL    HW227435   2.044   2.525  11.019  3.1608  0.2151 -1.4807
 5267SOL     OW27436   3.544   0.008   6.623  0.3566  0.0057 -0.1711
 5267SOL    HW127437   3.620   0.062   6.604  1.2321 -1.1715 -0.0089
 5267SOL    HW227438   3.532   0.025   6.717  0.2233 -0.8080 -0.0355
 5268SOL     OW27439   2.802   1.852   0.650  0.0168  0.1268 -0.3953
 5268SOL    HW127440   2.814   1.770   0.697  2.9345  0.7957  0.0319
 5268SOL    HW227441   2.716   1.831   0.614 -0.4221  1.5723 -0.2204
 5269SOL     OW27442   2.043   4.139   3.634 -1.0567  0.1511 -0.2138
 5269SOL    HW127443   2.072   4.077   3.702  0.3623 -0.6339 -1.5295
 5269SOL    HW227444   1.998   4.204   3.687  0.0268 -0.7241  1.8203
 5270SOL     OW27445   3.401   2.656  15.377  0.5519  0.0870  0.1234
 5270SOL    HW127446   3.480   2.641  15.429  0.7761  2.7719  0.5677
 5270SOL    HW227447   3.335   2.672  15.445  2.1961  0.6740  1.5948
 5271SOL     OW27448   3.728   2.906  10.676  0.2455  0.4249 -0.2275
 5271SOL    HW127449   3.731   2.934  10.584 -0.4261 -2.2121 -1.0730
 5271SOL    HW227450   3.804   2.954  10.709  1.5413 -0.4995 -1.8585
 5272SOL     OW27451   3.981   1.241   1.424  0.4096 -0.0484 -0.3277
 5272SOL    HW127452   4.034   1.195   1.490 -0.0592 -3.0324 -2.0150
 5272SOL    HW227453   4.039   1.308   1.388 -0.6145 -0.2950 -2.4284
 5273SOL     OW27454   2.836   3.882   8.543  0.3016  0.2499  0.3051
 5273SOL    HW127455   2.784   3.959   8.520 -0.2545 -0.0257  0.6365
 5273SOL    HW227456   2.810   3.883   8.635  1.2775 -0.6797  0.5902
 5274SOL     OW27457   1.306   0.738   3.682 -0.0377  0.0608 -0.0000
 5274SOL    HW127458   1.240   0.675   3.653  0.5101  0.3863 -1.9831
 5274SOL    HW227459   1.370   0.679   3.722 -0.5261  0.0301  0.7357
 5275SOL     OW27460   4.445   3.964  13.658 -0.0061  0.1043  0.0870
 5275SOL    HW127461   4.442   3.883  13.606 -1.1425  0.7805 -0.9014
 5275SOL    HW227462   4.380   4.019  13.615 -1.0814 -1.4624 -0.3150
 5276SOL     OW27463   4.149   2.055   8.255  0.1536 -0.4637  0.2993
 5276SOL    HW127464   4.079   2.003   8.294  0.6385 -1.4787 -0.1625
 5276SOL    HW227465   4.175   2.004   8.178 -2.5272 -2.1894  0.5528
 5277SOL     OW27466   0.183   1.882  10.815  0.2134  0.3245  0.3521
 5277SOL    HW127467   0.177   1.976  10.835 -1.9179 -0.2873  2.6280
 5277SOL    HW227468   0.209   1.884  10.723 -0.4234  0.1369  0.1695
 5278SOL     OW27469   0.128   2.553   2.372  0.3005  1.0776  0.0912
 5278SOL    HW127470   0.222   2.569   2.381  0.1802  1.7024  0.2690
 5278SOL    HW227471   0.119   2.473   2.322 -1.5364 -0.0104  2.1804
 5279SOL     OW27472   3.828   1.107   2.447  0.2580  0.2521  0.3506
 5279SOL    HW127473   3.842   1.188   2.496  0.3556 -0.2819  1.1976
 5279SOL    HW227474   3.839   1.129   2.354 -0.4337 -2.4182 -0.3784
 5280SOL     OW27475   4.216   4.356  13.523  0.3277 -0.3466 -0.1778
 5280SOL    HW127476   4.278   4.297  13.482  0.7689  0.3175 -0.4714
 5280SOL    HW227477   4.166   4.371  13.443 -2.2305 -0.5938  1.3561
 5281SOL     OW27478   0.185   2.147   4.133 -0.3712 -0.2645  0.2563
 5281SOL    HW127479   0.280   2.139   4.141 -0.6744  0.4615  4.2765
 5281SOL    HW227480   0.177   2.182   4.221 -2.4853  0.5188 -0.2335
 5282SOL     OW27481   1.345   2.895   3.817 -0.1695 -0.6471  0.1532
 5282SOL    HW127482   1.338   2.952   3.893  0.3264  1.1308 -1.1455
 5282SOL    HW227483   1.292   2.821   3.847 -0.1691 -0.6706  0.0971
 5283SOL     OW27484   3.252   1.401   3.637  0.1472  0.0277  0.2208
 5283SOL    HW127485   3.254   1.334   3.569 -0.3655  0.1112  0.1239
 5283SOL    HW227486   3.163   1.397   3.670 -0.4961 -2.4454 -1.8185
 5284SOL     OW27487   0.581   3.576   4.230  0.0572  0.0793  0.0426
 5284SOL    HW127488   0.640   3.508   4.262  0.2532 -1.2211 -3.0749
 5284SOL    HW227489   0.534   3.531   4.159  1.4491 -0.4818 -0.5302
 5285SOL     OW27490   0.365   2.692   2.621 -0.0406  0.1373  0.3092
 5285SOL    HW127491   0.273   2.693   2.597  0.0055 -2.8482  0.0111
 5285SOL    HW227492   0.379   2.600   2.641  1.3153  0.3011  0.1550
 5286SOL     OW27493   0.501   4.605   1.199  0.7998 -0.9172 -0.4614
 5286SOL    HW127494   0.514   4.510   1.203  0.4844 -0.9226  0.4082
 5286SOL    HW227495   0.512   4.632   1.108 -0.9912  1.3367 -0.0009
 5287SOL     OW27496   1.149   2.655   3.571 -0.1310 -0.6354 -0.2463
 5287SOL    HW127497   1.103   2.723   3.620  1.5892 -0.5948  1.3157
 5287SOL    HW227498   1.232   2.649   3.619 -0.6196 -0.5983  0.5980
 5288SOL     OW27499   2.371   2.662  15.302  0.3322  0.1331 -0.4072
 5288SOL    HW127500   2.424   2.600  15.251 -1.3890 -0.3794 -1.5797
 5288SOL    HW227501   2.292   2.661  15.248  0.7768 -2.6240 -1.0418
 5289SOL     OW27502   1.793   1.314   5.469 -0.0134 -0.5337  0.4351
 5289SOL    HW127503   1.832   1.344   5.387  0.4710 -0.5235  0.6696
 5289SOL    HW227504   1.766   1.224   5.451  0.5715 -0.4487 -0.8373
 5290SOL     OW27505   3.860   1.810  13.297  0.3381 -0.5077 -0.3154
 5290SOL    HW127506   3.803   1.865  13.244  1.8077 -1.0539 -2.4248
 5290SOL    HW227507   3.937   1.866  13.310  1.2780 -1.6866 -0.9401
 5291SOL     OW27508   3.225   0.837   2.582  0.1489  0.3579  0.5215
 5291SOL    HW127509   3.253   0.761   2.632  0.5399  1.2230  1.6175
 5291SOL    HW227510   3.146   0.807   2.538  1.3551 -1.1494 -0.6146
 5292SOL     OW27511   2.047   3.405   2.412  0.0429 -0.2845  0.1235
 5292SOL    HW127512   2.000   3.388   2.494  0.0171  0.9265  0.3616
 5292SOL    HW227513   1.973   3.434   2.358  1.7018  1.8898 -0.9605
 5293SOL     OW27514   2.780   2.241   2.900 -0.2405 -0.4144  0.1066
 5293SOL    HW127515   2.823   2.156   2.902  0.1797 -0.2355 -1.2502
 5293SOL    HW227516   2.688   2.217   2.884  0.0038 -1.2256 -0.0764
 5294SOL     OW27517   2.065   1.443   4.678 -0.3826 -0.2687  0.1662
 5294SOL    HW127518   2.112   1.422   4.759 -1.3011  0.0475  0.7805
 5294SOL    HW227519   2.099   1.376   4.619 -0.5389 -0.7525  0.6190
 5295SOL     OW27520   0.028   2.583   8.825 -0.0334 -0.2697  0.3594
 5295SOL    HW127521   0.058   2.504   8.869 -0.1132 -1.2797 -1.3979
 5295SOL    HW227522   4.718   2.628   8.895  1.6985  0.3262  1.1672
 5296SOL     OW27523   3.115   1.011  13.303  0.2374  0.5780 -0.3984
 5296SOL    HW127524   3.172   0.952  13.254  1.1841  1.6701 -0.6085
 5296SOL    HW227525   3.124   1.090  13.250  0.7863  1.7944  1.5121
 5297SOL     OW27526   1.961   2.219   6.731  0.1101 -0.0634 -0.3181
 5297SOL    HW127527   2.005   2.297   6.697 -0.1701 -0.1449 -0.8734
 5297SOL    HW227528   1.924   2.258   6.810  0.2791  3.2313 -1.8495
 5298SOL     OW27529   0.676   2.952   2.961 -0.4306  0.1046 -0.5330
 5298SOL    HW127530   0.680   2.857   2.953  2.4411  0.3853 -2.3913
 5298SOL    HW227531   0.740   2.965   3.031 -1.0685  0.7136 -0.0565
 5299SOL     OW27532   0.375   3.699   4.556  0.3719 -0.2260  0.9716
 5299SOL    HW127533   0.415   3.649   4.627 -0.1122 -1.5342  0.3155
 5299SOL    HW227534   0.430   3.778   4.555 -0.1208  0.1088  0.4947
 5300SOL     OW27535   2.833   1.963   0.366 -0.3068  0.0184 -0.6590
 5300SOL    HW127536   2.760   1.906   0.342 -1.1812  0.9301 -0.1643
 5300SOL    HW227537   2.865   1.920   0.445 -1.0690  2.4035  0.9368
 5301SOL     OW27538   2.045   0.202   3.563  0.7801 -0.1093 -0.3260
 5301SOL    HW127539   2.052   0.242   3.477 -1.4242 -0.4418 -0.6621
 5301SOL    HW227540   1.968   0.148   3.544 -0.7350  1.7104  0.6215
 5302SOL     OW27541   0.880   0.143   2.622 -0.1216  0.0092  0.1497
 5302SOL    HW127542   0.847   0.133   2.533  2.2814  0.4054 -0.7733
 5302SOL    HW227543   0.909   0.055   2.646 -2.1491 -0.9050 -0.7378
 5303SOL     OW27544   3.529   1.724   4.193 -0.3586  0.8551 -0.0322
 5303SOL    HW127545   3.479   1.661   4.141  1.1225  0.5028 -1.0350
 5303SOL    HW227546   3.560   1.679   4.271 -1.9165  0.1738  0.1992
 5304SOL     OW27547   2.968   3.561   3.851  0.1336  0.4101  0.2776
 5304SOL    HW127548   2.917   3.545   3.930 -1.9825  0.8182 -1.0106
 5304SOL    HW227549   2.947   3.485   3.797 -0.8731  0.6387  0.3444
 5305SOL     OW27550   3.297   2.458   0.048 -0.0804 -0.2661  0.9695
 5305SOL    HW127551   3.242   2.527   0.012  2.7329  1.8130  0.6521
 5305SOL    HW227552   3.291   2.388  17.732 -1.8341 -0.0245  0.8716
 5306SOL     OW27553   1.267   0.972  11.274 -0.1736  0.0509  0.2361
 5306SOL    HW127554   1.269   1.016  11.359 -0.6698 -0.6312  0.5950
 5306SOL    HW227555   1.354   0.989  11.238 -0.2205 -1.1524 -0.4136
 5307SOL     OW27556   0.539   3.872   7.583  0.7655 -0.3276  0.0078
 5307SOL    HW127557   0.589   3.880   7.665 -0.2341 -3.2434  0.9065
 5307SOL    HW227558   0.572   3.957   7.553  0.0517 -0.1745 -0.3395
 5308SOL     OW27559   3.710   4.421   4.881 -0.0128 -0.2393  0.1166
 5308SOL    HW127560   3.670   4.345   4.840  1.3714 -1.0270  0.2155
 5308SOL    HW227561   3.638   4.474   4.916  0.8936  1.0202  0.0778
 5309SOL     OW27562   1.359   0.918   4.978  0.1902  0.1078  0.0188
 5309SOL    HW127563   1.379   1.010   4.994  1.2610 -0.3726  1.3971
 5309SOL    HW227564   1.289   0.908   5.042  0.5592  1.7233  0.6771
 5310SOL     OW27565   1.888   4.169  13.092  0.4374 -0.4926  0.9628
 5310SOL    HW127566   1.941   4.089  13.088  0.3336 -0.6345  2.3067
 5310SOL    HW227567   1.822   4.134  13.153  2.1948 -2.5025  1.7109
 5311SOL     OW27568   2.916   3.189   9.119 -0.1379  0.1616  0.0124
 5311SOL    HW127569   2.976   3.205   9.192 -0.5773  0.8171  0.2307
 5311SOL    HW227570   2.864   3.267   9.134  1.7198  1.0090  2.0436
 5312SOL     OW27571   2.486   1.790   8.510 -0.4421 -0.0609 -0.1860
 5312SOL    HW127572   2.505   1.870   8.559  1.1638 -0.9225  0.5576
 5312SOL    HW227573   2.498   1.724   8.578 -0.1594  0.4536  0.2593
 5313SOL     OW27574   1.607   1.025   6.812 -0.0063 -0.5544 -0.1127
 5313SOL    HW127575   1.610   0.984   6.726  2.5573  0.9855 -0.7588
 5313SOL    HW227576   1.641   1.112   6.789 -1.1243  0.3210  1.5129
 5314SOL     OW27577   0.779   3.902   7.264 -0.3374  0.1118  0.3732
 5314SOL    HW127578   0.705   3.946   7.222 -0.5645 -2.1818 -1.6231
 5314SOL    HW227579   0.844   3.971   7.273  0.0121 -0.4416  2.0329
 5315SOL     OW27580   3.990   1.913  11.273  0.4212  0.0541  0.0835
 5315SOL    HW127581   4.060   1.957  11.322 -0.3515  1.1753  0.1550
 5315SOL    HW227582   4.036   1.852  11.214 -0.7660 -1.4984  0.7695
 5316SOL     OW27583   0.534   3.511   5.837 -0.0393 -0.5397 -0.0184
 5316SOL    HW127584   0.608   3.542   5.888 -0.8073 -1.0867  1.4156
 5316SOL    HW227585   0.548   3.538   5.746 -1.9613 -1.0856 -0.4820
 5317SOL     OW27586   0.691   3.047   0.475  0.0142 -0.2284  0.3591
 5317SOL    HW127587   0.694   3.112   0.546  0.9195 -1.1209  1.1301
 5317SOL    HW227588   0.714   2.965   0.518  0.2920 -0.0268  0.6022
 5318SOL     OW27589   4.629   1.838   5.058  0.0545 -0.1949 -0.0730
 5318SOL    HW127590   4.662   1.827   5.147  1.5324  1.2556 -0.4454
 5318SOL    HW227591   4.694   1.791   5.006 -0.2066  0.4166 -0.9630
 5319SOL     OW27592   3.160   0.843   5.939 -0.6843 -0.1959 -0.4357
 5319SOL    HW127593   3.175   0.880   5.852 -1.9956  0.8845 -0.1967
 5319SOL    HW227594   3.093   0.782   5.907 -0.8203 -0.4695  0.3885
 5320SOL     OW27595   4.532   2.853   7.454  0.2796  0.4561  0.5791
 5320SOL    HW127596   4.594   2.893   7.515 -0.9150 -0.0665  2.1182
 5320SOL    HW227597   4.589   2.843   7.377  0.6014  1.7479  0.6529
 5321SOL     OW27598   0.524   0.089   1.002  0.5674 -0.3257  0.1257
 5321SOL    HW127599   0.589   0.152   0.971  0.8997 -0.7119  0.0481
 5321SOL    HW227600   0.500   0.121   1.089  1.0692  0.7012 -0.1141
 5322SOL     OW27601   1.745   2.756  17.683  0.1414 -0.3613  0.6982
 5322SOL    HW127602   1.797   2.689  17.638  0.3890 -0.1871  0.7239
 5322SOL    HW227603   1.671   2.752  17.623  1.2161  2.6951 -0.8162
 5323SOL     OW27604   3.021   3.736   6.209  0.5193 -0.1284  0.4455
 5323SOL    HW127605   3.068   3.657   6.183 -1.0076 -0.4131 -1.5063
 5323SOL    HW227606   3.069   3.813   6.179  0.1941  0.0942  0.4988
 5324SOL     OW27607   2.505   2.132   2.885  0.4807 -0.7555 -0.0241
 5324SOL    HW127608   2.512   2.066   2.816 -1.4614  2.3196 -3.2375
 5324SOL    HW227609   2.464   2.086   2.958 -0.3019  0.4240  0.2769
 5325SOL     OW27610   4.469   1.870   4.855  0.0598  0.5597  0.6824
 5325SOL    HW127611   4.504   1.861   4.944 -0.3866  0.6667  0.8665
 5325SOL    HW227612   4.418   1.789   4.852 -1.1014  1.3821 -1.1645
 5326SOL     OW27613   1.980   4.562   3.047 -0.2200 -0.6027  0.4908
 5326SOL    HW127614   2.015   4.476   3.071  1.5116 -0.1334 -0.4040
 5326SOL    HW227615   1.956   4.552   2.955  0.8654  2.1062 -0.0654
 5327SOL     OW27616   3.280   4.484  14.230 -0.1419 -0.0556  0.0904
 5327SOL    HW127617   3.214   4.482  14.160 -1.1434 -3.5548  1.1640
 5327SOL    HW227618   3.340   4.543  14.184  0.1165 -0.8797 -0.6372
 5328SOL     OW27619   3.902   4.699  14.519 -0.6963 -0.9262  0.2733
 5328SOL    HW127620   3.957   0.038  14.535  2.2808 -3.0186  0.1182
 5328SOL    HW227621   3.953   4.648  14.456 -0.7713 -0.9710  0.2485
 5329SOL     OW27622   4.505   1.559   9.388  0.1133  0.1262  0.2132
 5329SOL    HW127623   4.441   1.496   9.423 -0.3772 -0.1064 -1.1004
 5329SOL    HW227624   4.534   1.512   9.310  1.8206  1.7670 -0.1048
 5330SOL     OW27625   2.180   2.483   1.442 -0.1129  0.4772  0.3600
 5330SOL    HW127626   2.161   2.502   1.350 -0.2756 -1.0642  0.0868
 5330SOL    HW227627   2.183   2.568   1.487  0.4255  0.4062  0.4553
 5331SOL     OW27628   4.502   4.525   6.046  0.1164  0.7128  0.2020
 5331SOL    HW127629   4.421   4.567   6.076 -0.1504 -0.6813  1.4480
 5331SOL    HW227630   4.519   4.587   5.976  0.7761  1.1305  0.7396
 5332SOL     OW27631   2.687   4.015  11.634  0.0653 -0.3676  0.6682
 5332SOL    HW127632   2.672   4.110  11.635  1.5006 -0.1236 -1.1132
 5332SOL    HW227633   2.781   4.005  11.622  0.0744  0.2411  0.2501
 5333SOL     OW27634   2.622   0.106  16.723  0.0907 -0.1446 -0.6158
 5333SOL    HW127635   2.574   0.097  16.805  0.1150 -0.1052 -0.5974
 5333SOL    HW227636   2.615   0.201  16.714  1.8574  0.0557  0.0412
 5334SOL     OW27637   1.349   2.647   7.709  0.3069 -0.6784 -0.4299
 5334SOL    HW127638   1.320   2.727   7.753  1.2190 -0.8596  0.5138
 5334SOL    HW227639   1.375   2.588   7.780  0.9943  0.0215 -0.0923
 5335SOL     OW27640   2.915   0.058   9.482  0.3131 -0.3737 -0.0649
 5335SOL    HW127641   2.966   0.132   9.450 -1.4515 -0.0077 -2.0124
 5335SOL    HW227642   2.979   0.012   9.536  0.1732 -0.5125 -0.0180
 5336SOL     OW27643   0.762   4.547   6.743  0.3518 -0.6274 -0.2426
 5336SOL    HW127644   0.822   4.613   6.777  0.2007 -0.2452 -0.7138
 5336SOL    HW227645   0.788   4.542   6.651  1.3481 -0.8805  0.0528
 5337SOL     OW27646   1.704   2.722   5.179  0.3522  0.3814  0.0334
 5337SOL    HW127647   1.664   2.734   5.265  1.6619 -0.8376  0.8072
 5337SOL    HW227648   1.796   2.716   5.204  0.5179 -1.4536 -1.0554
 5338SOL     OW27649   0.285   0.422   8.601 -0.6124  0.1175 -0.4287
 5338SOL    HW127650   0.346   0.458   8.537 -2.3691  0.5044 -1.9002
 5338SOL    HW227651   0.318   0.460   8.682 -1.2886  0.6873 -0.4217
 5339SOL     OW27652   0.594   1.842   1.920 -0.1834  0.5490  0.7359
 5339SOL    HW127653   0.547   1.898   1.858  0.0830  0.3177  0.3300
 5339SOL    HW227654   0.553   1.760   1.892 -2.2762  2.0285 -0.5338
 5340SOL     OW27655   2.499   0.338   8.928  0.1420  0.8512 -0.0484
 5340SOL    HW127656   2.423   0.286   8.904  2.7091 -2.8942 -0.0115
 5340SOL    HW227657   2.544   0.353   8.845  0.1566 -0.1228 -0.2099
 5341SOL     OW27658   1.268   2.183   3.567  0.0332  0.0969  0.1459
 5341SOL    HW127659   1.350   2.232   3.576 -0.0142  0.4262 -1.3208
 5341SOL    HW227660   1.281   2.102   3.616 -1.0367  0.1744  0.5681
 5342SOL     OW27661   1.096   3.633  11.810  0.0395 -0.6054 -0.5152
 5342SOL    HW127662   1.175   3.650  11.862 -1.4984  2.5607  0.7515
 5342SOL    HW227663   1.131   3.606  11.725 -0.9255 -2.1613 -0.4119
 5343SOL     OW27664   2.767   0.035   4.250 -0.3885 -0.1708  0.1635
 5343SOL    HW127665   2.688   0.083   4.226 -0.3702  0.4279  1.3013
 5343SOL    HW227666   2.746   0.004   4.338 -0.7416 -0.1570  0.0849
 5344SOL     OW27667   4.335   3.699  17.691 -0.0489  0.3731  0.4371
 5344SOL    HW127668   4.351   3.723   0.034  0.9220 -0.5742  0.5195
 5344SOL    HW227669   4.428   3.683  17.673 -0.3831 -0.9134 -0.1399
 5345SOL     OW27670   2.032   3.953   0.322  0.4029 -0.6945  0.3260
 5345SOL    HW127671   1.949   3.934   0.366  0.4001 -0.1727  0.5361
 5345SOL    HW227672   2.015   3.909   0.238 -1.4013  2.8464 -1.1624
 5346SOL     OW27673   2.223   1.572   3.883 -0.6202  0.4442 -0.2002
 5346SOL    HW127674   2.307   1.539   3.914 -1.0377  1.7932  2.2669
 5346SOL    HW227675   2.220   1.654   3.931 -1.4091 -0.7662  1.7925
 5347SOL     OW27676   2.072   3.138   6.206 -0.1406  0.5317 -0.7099
 5347SOL    HW127677   2.046   3.229   6.220 -0.2564  0.1953  1.2342
 5347SOL    HW227678   2.147   3.127   6.263 -0.1278 -1.7617 -1.1586
 5348SOL     OW27679   3.114   3.669   3.665 -0.0168  0.2236 -0.3523
 5348SOL    HW127680   3.104   3.600   3.731 -0.0356  0.2184 -0.3608
 5348SOL    HW227681   3.199   3.707   3.685  0.6703 -1.6558  0.3808
 5349SOL     OW27682   3.639   1.070   2.084  0.1117  0.2423 -0.1291
 5349SOL    HW127683   3.553   1.113   2.086 -0.3737 -0.6961 -0.5734
 5349SOL    HW227684   3.610   0.983   2.113  1.7388 -1.3016 -3.1069
 5350SOL     OW27685   0.069   0.553   5.001 -0.6111  0.7914 -0.6514
 5350SOL    HW127686   0.131   0.597   4.943  0.6435  0.4543  0.4365
 5350SOL    HW227687   0.118   0.483   5.044 -3.0400 -0.1790  0.5861
 5351SOL     OW27688   3.104   0.364   9.312 -0.0443 -0.3453 -0.2229
 5351SOL    HW127689   3.081   0.434   9.251 -0.6941  0.8894  1.4556
 5351SOL    HW227690   3.098   0.405   9.398 -3.3428  1.7575 -1.4568
 5352SOL     OW27691   4.679   0.643   7.268 -0.2766  0.6083  0.7097
 5352SOL    HW127692   4.589   0.613   7.281  0.0518  0.1350  1.8940
 5352SOL    HW227693   4.702   0.650   7.175 -1.6480 -1.7312  0.1899
 5353SOL     OW27694   0.366   1.383   9.794 -0.0736  0.0056  0.1435
 5353SOL    HW127695   0.281   1.349   9.822  0.5261 -2.0012 -0.4611
 5353SOL    HW227696   0.358   1.371   9.700 -0.1535  1.8610 -0.0910
 5354SOL     OW27697   2.619   4.582   3.550 -0.0935 -0.1034 -0.3121
 5354SOL    HW127698   2.626   4.563   3.644  0.5236  1.6194 -0.0169
 5354SOL    HW227699   2.708   4.603   3.522  0.8168 -1.7273  1.3951
 5355SOL     OW27700   4.317   0.062   3.135  0.6805  0.4144  0.1433
 5355SOL    HW127701   4.347   0.042   3.046  1.7984  0.0360  0.6078
 5355SOL    HW227702   4.240   0.009   3.151  1.2168 -0.5052 -0.3431
 5356SOL     OW27703   0.462   1.779   4.696  0.0779  0.6676  0.0642
 5356SOL    HW127704   0.412   1.736   4.627 -0.1086 -0.6862  1.0574
 5356SOL    HW227705   0.484   1.868   4.667 -2.0140  1.0227 -0.4511
 5357SOL     OW27706   3.580   2.027  14.710 -0.0267  0.3222  0.2576
 5357SOL    HW127707   3.590   2.061  14.621 -0.7384 -0.8279 -0.2498
 5357SOL    HW227708   3.667   2.055  14.740  0.8110 -1.2780 -0.6933
 5358SOL     OW27709   4.256   2.202   7.100  0.3752  0.6049 -0.4016
 5358SOL    HW127710   4.236   2.178   7.009 -0.4663  0.2921 -0.1378
 5358SOL    HW227711   4.315   2.132   7.127 -0.3912  0.0598 -0.1251
 5359SOL     OW27712   2.139   2.875  16.467  0.2183  0.0440 -0.2455
 5359SOL    HW127713   2.052   2.835  16.465  0.3982 -0.4867  2.1117
 5359SOL    HW227714   2.114   2.944  16.528 -4.0347 -0.1428 -1.7424
 5360SOL     OW27715   3.325   2.630  12.453 -0.2646 -0.3241 -0.4299
 5360SOL    HW127716   3.417   2.629  12.426 -0.8182  2.1326 -2.4139
 5360SOL    HW227717   3.347   2.570  12.525  1.5908 -1.5724 -2.0118
 5361SOL     OW27718   1.279   1.041  15.725  0.1901  0.2797  0.4400
 5361SOL    HW127719   1.340   1.107  15.692  0.5402 -0.2059  0.1108
 5361SOL    HW227720   1.217   1.103  15.763 -2.8519 -2.0057 -0.6904
 5362SOL     OW27721   4.495   1.775   2.740  0.4640 -0.2787 -0.4765
 5362SOL    HW127722   4.437   1.847   2.718  1.0814 -0.6188 -3.1645
 5362SOL    HW227723   4.466   1.699   2.689 -1.5273 -1.6916  2.7669
 5363SOL     OW27724   0.482   3.086   1.249  0.2937  0.1419 -0.0531
 5363SOL    HW127725   0.465   3.175   1.281  2.1415  0.8791 -1.1603
 5363SOL    HW227726   0.574   3.084   1.223 -0.1426  0.4471 -1.6539
 5364SOL     OW27727   3.379   2.137   3.074  0.1103  0.3346 -0.0095
 5364SOL    HW127728   3.334   2.164   3.153 -1.7375 -0.9572 -0.6247
 5364SOL    HW227729   3.440   2.070   3.103 -0.7305 -0.4483 -0.0802
 5365SOL     OW27730   0.994   1.914   1.985 -0.1209 -0.1043  0.5291
 5365SOL    HW127731   0.940   1.839   1.961 -2.4683  1.2884  1.3617
 5365SOL    HW227732   0.952   1.983   1.932 -1.3068 -0.2142  1.3278
 5366SOL     OW27733   0.180   1.818   4.549 -0.4362  0.1346 -0.2222
 5366SOL    HW127734   0.204   1.846   4.638 -0.3478 -0.1510 -0.1574
 5366SOL    HW227735   0.249   1.752   4.539 -2.7186 -2.4765  1.2299
 5367SOL     OW27736   1.425   1.794   3.081  0.2184 -0.2426 -0.1131
 5367SOL    HW127737   1.456   1.720   3.029 -0.3615 -2.3046  2.4559
 5367SOL    HW227738   1.447   1.862   3.017  0.3015 -1.3934 -1.2998
 5368SOL     OW27739   0.008   2.102  15.247  0.1873  0.5140 -0.7249
 5368SOL    HW127740   4.657   2.137  15.249  0.0941  0.1503  0.9938
 5368SOL    HW227741   0.026   2.063  15.333 -2.5528 -0.0908 -0.4300
 5369SOL     OW27742   4.552   0.559   3.563  0.7363  0.2802 -0.0198
 5369SOL    HW127743   4.643   0.528   3.556  0.9090  0.7664  0.0843
 5369SOL    HW227744   4.529   0.539   3.472 -2.7947  0.8777  0.7477
 5370SOL     OW27745   1.995   1.678  17.430  0.4701 -0.5567 -0.0981
 5370SOL    HW127746   1.997   1.723  17.345  0.0276 -0.1809  0.0932
 5370SOL    HW227747   1.922   1.619  17.412  0.5079 -0.4773 -0.5313
 5371SOL     OW27748   1.951   4.123   7.132  0.2697  0.1064 -0.7012
 5371SOL    HW127749   2.028   4.072   7.158  0.7872  0.0993 -2.2351
 5371SOL    HW227750   1.900   4.103   7.210 -1.4935 -1.3683 -2.2522
 5372SOL     OW27751   1.341   4.145  16.955 -0.6302 -0.2659 -0.4109
 5372SOL    HW127752   1.397   4.218  16.981 -0.3976 -1.1524  1.5530
 5372SOL    HW227753   1.416   4.086  16.942 -0.5428  0.1327 -1.7314
 5373SOL     OW27754   2.022   2.249   9.661 -0.2868  0.1412  0.6089
 5373SOL    HW127755   2.116   2.265   9.665 -0.1350 -0.7061  0.2656
 5373SOL    HW227756   2.007   2.201   9.743  1.1340  1.1891  1.4874
 5374SOL     OW27757   0.088   1.572   2.256  0.2536 -0.5854  0.4899
 5374SOL    HW127758   0.114   1.542   2.168 -1.1299  0.8001 -0.3770
 5374SOL    HW227759   0.167   1.605   2.299 -0.3354 -0.5532  1.5362
 5375SOL     OW27760   0.008   0.103   4.035  0.2601  0.4761  0.3888
 5375SOL    HW127761   4.687   0.167   3.995 -0.8631  0.8121  2.5488
 5375SOL    HW227762   0.090   0.120   3.989 -0.6887 -0.9751 -1.8556
 5376SOL     OW27763   0.087   3.948   9.172  0.5427  0.3152  0.4345
 5376SOL    HW127764   0.036   4.016   9.216 -1.4145 -2.1676  2.0163
 5376SOL    HW227765   0.117   3.902   9.250 -0.7722  1.5966  1.7010
 5377SOL     OW27766   2.234   3.408   4.450 -0.5052 -0.1712 -0.5533
 5377SOL    HW127767   2.273   3.458   4.379  0.3936  1.3743  1.0274
 5377SOL    HW227768   2.305   3.396   4.513  0.7425 -0.0270 -1.9454
 5378SOL     OW27769   1.106   3.734   4.355  0.4663 -0.3505 -0.0935
 5378SOL    HW127770   1.172   3.721   4.423  0.3477 -0.9781 -0.0942
 5378SOL    HW227771   1.135   3.814   4.311 -1.8111 -0.3531 -1.6152
 5379SOL     OW27772   3.997   3.730   9.761 -0.0744  0.0215  0.2052
 5379SOL    HW127773   4.033   3.777   9.685  0.2589 -0.0750  0.3078
 5379SOL    HW227774   3.903   3.734   9.740  0.3074  0.1783 -1.4847
 5380SOL     OW27775   4.727   2.797   1.660 -0.0486 -0.0037 -0.4435
 5380SOL    HW127776   4.681   2.881   1.659  0.2764  0.1642 -1.1670
 5380SOL    HW227777   4.657   2.746   1.702 -1.3173  1.8448 -0.3165
 5381SOL     OW27778   0.009   0.876   4.777  0.8230 -0.2287 -0.1260
 5381SOL    HW127779   4.659   0.869   4.816  0.5153 -1.2828 -0.9946
 5381SOL    HW227780   0.053   0.924   4.847 -0.2374  1.1726 -0.4127
 5382SOL     OW27781   3.248   2.813   2.689 -0.2132  0.2022  0.2202
 5382SOL    HW127782   3.207   2.766   2.616 -0.0733  0.4348 -0.0095
 5382SOL    HW227783   3.297   2.741   2.730  2.6063  1.2863 -1.2087
 5383SOL     OW27784   3.346   3.877   8.132  0.2449  0.0171  0.5860
 5383SOL    HW127785   3.276   3.941   8.148  2.0123  2.0923 -0.0851
 5383SOL    HW227786   3.375   3.875   8.223  1.4682 -1.4764  0.1512
 5384SOL     OW27787   0.581   0.131   1.647  0.4102 -0.1296  0.7266
 5384SOL    HW127788   0.591   0.090   1.561  0.3460 -1.4170  1.3370
 5384SOL    HW227789   0.637   0.075   1.702  1.5327  0.7472  0.4649
 5385SOL     OW27790   2.564   3.595  12.791 -0.6163 -0.4498  0.6084
 5385SOL    HW127791   2.598   3.634  12.872 -1.9630  1.8274  0.0942
 5385SOL    HW227792   2.526   3.671  12.746 -2.9595 -1.7350  0.4103
 5386SOL     OW27793   3.033   1.743   1.357  0.6812  0.5185  0.3730
 5386SOL    HW127794   3.000   1.743   1.267  0.0015  0.1989  0.6259
 5386SOL    HW227795   3.002   1.656   1.384 -0.8772  0.6450 -1.0231
 5387SOL     OW27796   2.259   3.154   4.848 -0.3187  0.2963  0.5632
 5387SOL    HW127797   2.347   3.145   4.885 -0.2276  0.1974  0.3221
 5387SOL    HW227798   2.251   3.249   4.842  1.3874  0.2815 -1.8573
 5388SOL     OW27799   1.882   2.155   8.920  0.4632  0.2518 -0.2769
 5388SOL    HW127800   1.945   2.181   8.988  0.5029  1.3388 -0.7182
 5388SOL    HW227801   1.920   2.213   8.853 -2.4138  0.7199 -1.4887
 5389SOL     OW27802   0.068   4.145  15.936 -1.1415  0.4650  0.1491
 5389SOL    HW127803   0.039   4.063  15.896  3.5176 -2.3920  2.6287
 5389SOL    HW227804   0.135   4.174  15.875 -0.4561 -1.5112 -0.0424
 5390SOL     OW27805   4.181   4.294   2.178 -0.6533 -0.1932  0.2826
 5390SOL    HW127806   4.113   4.357   2.200 -1.1253 -0.2379 -1.0495
 5390SOL    HW227807   4.238   4.365   2.146  0.8075 -0.2657  2.6901
 5391SOL     OW27808   4.692   1.361   3.395  0.2165 -0.4265  0.1317
 5391SOL    HW127809   0.032   1.404   3.358 -0.4609 -0.1500 -0.9665
 5391SOL    HW227810   4.615   1.414   3.373 -1.2350 -2.7929 -0.5087
 5392SOL     OW27811   2.477   4.031   0.616 -0.1560  0.2276  0.3314
 5392SOL    HW127812   2.402   4.039   0.557 -1.3620  0.2720  1.8427
 5392SOL    HW227813   2.526   4.111   0.598 -0.9976  0.5993 -0.3261
 5393SOL     OW27814   0.196   2.831   1.409 -0.0630  0.5043  0.8107
 5393SOL    HW127815   0.225   2.922   1.407  1.6819 -0.0691 -0.3584
 5393SOL    HW227816   0.162   2.826   1.498 -1.2342  0.6153  0.3706
 5394SOL     OW27817   1.644   0.251   5.123  0.1116 -0.0356  0.5662
 5394SOL    HW127818   1.714   0.312   5.142  1.4318 -1.9914  1.9892
 5394SOL    HW227819   1.688   0.197   5.058  0.5328  1.0628 -0.0623
 5395SOL     OW27820   1.058   2.899   7.269 -0.7267  0.2259 -0.2934
 5395SOL    HW127821   1.064   2.969   7.334  0.7279 -1.6582  1.6158
 5395SOL    HW227822   0.966   2.903   7.247 -0.3551  1.7937 -1.5106
 5396SOL     OW27823   3.469   4.310   0.655 -0.1472  0.1137 -0.2307
 5396SOL    HW127824   3.501   4.307   0.565 -0.7180 -0.7114 -0.4052
 5396SOL    HW227825   3.547   4.275   0.698 -0.9239 -0.3387  0.8101
 5397SOL     OW27826   0.188   0.252   6.355 -0.4483  0.1539  0.1297
 5397SOL    HW127827   0.264   0.269   6.409  0.3527 -1.5490 -0.4509
 5397SOL    HW227828   0.223   0.185   6.297 -2.9795 -0.0442 -1.2055
 5398SOL     OW27829   0.773   4.441  15.999  0.2986  0.6441 -0.0691
 5398SOL    HW127830   0.751   4.460  16.090 -2.8341  0.5047 -0.7817
 5398SOL    HW227831   0.758   4.346  15.998  0.4478  0.6240 -0.2810
 5399SOL     OW27832   3.821   2.365   2.381  0.8953  0.5902 -0.0437
 5399SOL    HW127833   3.747   2.367   2.442  2.2212 -1.0180  1.6286
 5399SOL    HW227834   3.879   2.416   2.438  1.0900  0.5911 -0.2455
 5400SOL     OW27835   4.644   2.075   3.251  0.2595 -0.1866  0.1346
 5400SOL    HW127836   4.614   2.139   3.316  1.8270 -1.5478  2.2277
 5400SOL    HW227837   4.626   1.997   3.303 -1.5369 -0.3863 -0.7927
 5401SOL     OW27838   3.093   1.211   5.865  0.1453 -0.4804  0.5578
 5401SOL    HW127839   3.118   1.121   5.888  0.2110 -0.0659  2.1360
 5401SOL    HW227840   2.998   1.203   5.858  0.2462 -1.3102  0.0742
 5402SOL     OW27841   0.192   2.163   3.154 -0.2650 -0.7352  0.9446
 5402SOL    HW127842   0.209   2.103   3.081  0.9128  0.1124  0.5413
 5402SOL    HW227843   0.107   2.128   3.181  0.0193 -0.0769  2.7180
 5403SOL     OW27844   3.211   0.858   6.200 -0.3752  0.1954 -0.6320
 5403SOL    HW127845   3.179   0.853   6.110  0.6851  1.8509 -1.1186
 5403SOL    HW227846   3.126   0.881   6.238 -0.2826 -0.2188 -0.1836
 5404SOL     OW27847   4.302   3.150   9.433 -0.0452 -0.3707  0.0570
 5404SOL    HW127848   4.341   3.144   9.521 -0.2235  0.1562  0.1730
 5404SOL    HW227849   4.383   3.139   9.383 -0.7040  1.2337 -1.3454
 5405SOL     OW27850   0.995   2.500   4.782  0.0311 -0.2797 -0.2174
 5405SOL    HW127851   1.034   2.577   4.741 -0.0021  0.4142  1.0508
 5405SOL    HW227852   0.914   2.545   4.804 -1.5558 -1.6058 -3.3325
 5406SOL     OW27853   3.254   4.621   1.648  0.0507  0.0800  0.2736
 5406SOL    HW127854   3.238   4.680   1.574  2.8322 -0.1846 -0.5202
 5406SOL    HW227855   3.164   4.597   1.672 -0.0681 -2.1316 -2.3698
 5407SOL     OW27856   0.714   0.237  16.469 -0.3050  0.0688  0.2957
 5407SOL    HW127857   0.799   0.196  16.453 -0.7042 -0.0043 -1.7246
 5407SOL    HW227858   0.676   0.182  16.537 -1.4127  1.2292  0.6213
 5408SOL     OW27859   1.793   0.488   7.806 -0.0654  0.3282 -0.5370
 5408SOL    HW127860   1.881   0.508   7.772 -1.2606  4.2611 -1.3062
 5408SOL    HW227861   1.772   0.414   7.749  0.8613  0.0669 -0.5443
 5409SOL     OW27862   0.450   0.375  17.142 -0.1114  0.4324 -0.4731
 5409SOL    HW127863   0.431   0.466  17.165 -0.0394  0.0166  1.2509
 5409SOL    HW227864   0.467   0.347  17.233  0.6831  0.3627 -0.6391
 5410SOL     OW27865   4.655   1.969   0.652  0.2750 -0.1956 -0.1274
 5410SOL    HW127866   4.722   1.905   0.679  0.0533  0.2042  1.4025
 5410SOL    HW227867   4.575   1.931   0.687 -0.0704 -0.3703 -1.1161
 5411SOL     OW27868   2.765   2.762   8.487 -0.6230 -0.0177 -0.6823
 5411SOL    HW127869   2.792   2.700   8.555 -0.7559 -0.9725 -1.5131
 5411SOL    HW227870   2.709   2.702   8.438 -2.0673  2.9666 -2.6881
 5412SOL     OW27871   1.967   2.569  11.839  0.5883 -0.3551  0.4442
 5412SOL    HW127872   2.034   2.507  11.808 -1.8082 -2.7458  0.0383
 5412SOL    HW227873   1.980   2.645  11.782  0.9941  2.0184  3.7396
 5413SOL     OW27874   4.403   3.074   9.682  0.3090  0.2158  0.2583
 5413SOL    HW127875   4.326   3.113   9.723 -0.4371 -0.3613 -0.5868
 5413SOL    HW227876   4.359   2.990   9.665 -2.0243  1.1769  1.4394
 5414SOL     OW27877   1.101   2.119  11.005 -0.3370  0.0597 -0.2750
 5414SOL    HW127878   1.013   2.110  11.042  0.6456 -1.3605  1.6908
 5414SOL    HW227879   1.131   2.193  11.057 -1.3545  0.4851 -0.2876
 5415SOL     OW27880   0.978   1.112   6.771  0.3237  0.0576  0.2003
 5415SOL    HW127881   1.070   1.119   6.798  0.3601 -0.7219  0.2625
 5415SOL    HW227882   0.944   1.082   6.855 -0.8166 -0.6356 -0.5143
 5416SOL     OW27883   2.401   3.409   2.881  0.3081  0.0333 -0.1504
 5416SOL    HW127884   2.463   3.481   2.869  2.5300 -1.8699  0.0681
 5416SOL    HW227885   2.325   3.460   2.910  0.4054 -0.7344  1.4698
 5417SOL     OW27886   1.868   2.682   0.287  0.7621 -0.5368 -0.3380
 5417SOL    HW127887   1.892   2.761   0.236  0.3172  0.1569  0.5368
 5417SOL    HW227888   1.944   2.690   0.344  0.2294 -1.5223  0.4903
 5418SOL     OW27889   4.323   0.253   7.768 -0.5089  1.0576  0.0475
 5418SOL    HW127890   4.362   0.334   7.801  2.5858 -0.7531  0.7866
 5418SOL    HW227891   4.333   0.271   7.675  1.1037 -0.1306 -0.0004
 5419SOL     OW27892   3.139   2.162  11.975  0.1476  0.0785 -0.4269
 5419SOL    HW127893   3.204   2.160  12.045  1.3269  0.5237 -1.5090
 5419SOL    HW227894   3.055   2.149  12.019  0.8358  1.7745  1.3849
 5420SOL     OW27895   1.987   4.648  10.685 -1.0632  0.9511 -0.3912
 5420SOL    HW127896   2.037   4.721  10.720 -0.4261 -0.0618  0.8248
 5420SOL    HW227897   2.057   4.583  10.676 -2.0113 -0.1838  0.2925
 5421SOL     OW27898   0.707   0.031   6.518 -0.3109 -0.0923 -0.2337
 5421SOL    HW127899   0.619   0.047   6.550  0.6347 -0.1941  2.3882
 5421SOL    HW227900   0.691   0.056   6.427 -0.7620 -2.0553 -0.7015
 5422SOL     OW27901   1.602   3.354   8.721 -0.6052  0.1950  0.1362
 5422SOL    HW127902   1.515   3.392   8.706  0.3379  3.4692  2.9644
 5422SOL    HW227903   1.583   3.260   8.718  1.3696 -0.1480 -1.6507
 5423SOL     OW27904   1.197   3.598   2.835 -0.5077 -0.4250  0.2601
 5423SOL    HW127905   1.227   3.681   2.798  0.6345 -1.0798 -0.2889
 5423SOL    HW227906   1.183   3.543   2.758  0.1498 -0.2246 -0.0014
 5424SOL     OW27907   1.614   0.580   2.216  0.3291  0.2637 -0.3764
 5424SOL    HW127908   1.643   0.541   2.298 -1.0086 -0.9368 -0.4737
 5424SOL    HW227909   1.607   0.671   2.245 -0.3191  0.5002 -1.2784
 5425SOL     OW27910   3.275   3.686   4.673  0.1984 -0.2522  0.0448
 5425SOL    HW127911   3.210   3.738   4.627 -1.8674 -2.1713  0.7980
 5425SOL    HW227912   3.287   3.608   4.620  1.3161  0.1412 -0.2794
 5426SOL     OW27913   2.337   0.204  10.001 -0.2135 -0.2675  0.3454
 5426SOL    HW127914   2.394   0.275  10.031 -1.5390  0.9363  0.0203
 5426SOL    HW227915   2.251   0.227  10.035  0.9999  4.4906  0.1903
 5427SOL     OW27916   2.429   1.207   7.959 -0.2718  0.1858 -0.0690
 5427SOL    HW127917   2.397   1.198   7.869 -0.6328 -0.2419  0.1052
 5427SOL    HW227918   2.524   1.201   7.946 -0.6724 -0.4960 -2.6645
 5428SOL     OW27919   3.035   2.808  11.213  0.3855 -0.4397  0.2743
 5428SOL    HW127920   3.005   2.813  11.303 -1.6249  0.5861 -0.4394
 5428SOL    HW227921   3.129   2.809  11.229  0.4734 -0.9201 -0.2137
 5429SOL     OW27922   2.477   3.179   7.110 -0.5824  0.4055  0.6183
 5429SOL    HW127923   2.431   3.099   7.082  2.1345 -0.6536 -0.7507
 5429SOL    HW227924   2.508   3.209   7.025 -0.6316  0.4255  0.6068
 5430SOL     OW27925   1.469   2.422   8.001 -0.3717  0.4171 -0.1146
 5430SOL    HW127926   1.446   2.428   8.094  1.8027 -1.2036  0.5339
 5430SOL    HW227927   1.546   2.478   8.011 -0.3515  0.5505 -1.0642
 5431SOL     OW27928   3.050   3.166  12.002 -0.2857 -0.5636  0.5328
 5431SOL    HW127929   3.124   3.120  11.963 -0.2226  0.6278 -0.7442
 5431SOL    HW227930   3.060   3.245  11.949  0.1042  0.1774  1.7122
 5432SOL     OW27931   1.704   3.752   5.569 -0.1982  0.2548  0.3834
 5432SOL    HW127932   1.636   3.685   5.573 -0.8077  0.8754  0.4360
 5432SOL    HW227933   1.784   3.700   5.560 -0.1898  0.3817 -0.3278
 5433SOL     OW27934   0.453   3.247  17.074  0.0944 -0.4139  0.2652
 5433SOL    HW127935   0.522   3.203  17.024 -0.0531  0.4139 -0.6717
 5433SOL    HW227936   0.504   3.284  17.146  1.2374  0.8678 -1.1891
 5434SOL     OW27937   1.612   0.929   6.257  0.1790  0.7675 -0.3475
 5434SOL    HW127938   1.589   0.942   6.349  2.9873  0.2247  0.4259
 5434SOL    HW227939   1.556   0.855   6.234  1.8307 -0.2031 -1.2006
 5435SOL     OW27940   1.981   3.543  15.454  0.0090 -0.1881 -0.2720
 5435SOL    HW127941   2.053   3.601  15.429  0.3902 -1.4108 -1.9891
 5435SOL    HW227942   1.938   3.559  15.370 -3.0993 -2.4433  0.8834
 5436SOL     OW27943   0.349   2.600   1.261 -0.2672  0.0695 -0.0151
 5436SOL    HW127944   0.304   2.635   1.338  0.0863 -1.1828  0.7605
 5436SOL    HW227945   0.394   2.678   1.231 -0.1442  1.4318  3.6685
 5437SOL     OW27946   3.687   3.367  13.426  0.2832  0.1718 -0.0882
 5437SOL    HW127947   3.711   3.357  13.333  0.8743  0.8252 -0.0059
 5437SOL    HW227948   3.594   3.347  13.424 -0.1119  2.0619 -0.4695
 5438SOL     OW27949   2.123   1.850  10.243  0.0310  0.4498 -0.1149
 5438SOL    HW127950   2.065   1.814  10.176 -0.7587  0.7903  0.3833
 5438SOL    HW227951   2.206   1.848  10.195 -0.6178  0.0518 -1.2292
 5439SOL     OW27952   2.457   3.839   5.587 -0.1787 -0.1570 -0.0257
 5439SOL    HW127953   2.441   3.753   5.628  0.4848 -1.4639 -2.5336
 5439SOL    HW227954   2.401   3.894   5.642  0.1497 -0.2760  0.4357
 5440SOL     OW27955   4.575   3.787  12.257 -0.1836 -0.6874  0.3538
 5440SOL    HW127956   4.639   3.733  12.212  0.4681 -0.8445  1.4672
 5440SOL    HW227957   4.512   3.808  12.188 -0.6461 -0.1973  0.9347
 5441SOL     OW27958   1.572   1.975  10.325 -0.5093 -0.9035 -0.1011
 5441SOL    HW127959   1.558   1.883  10.347  2.5532 -1.6245 -1.0979
 5441SOL    HW227960   1.549   2.014  10.410  0.4901 -0.1041 -0.2024
 5442SOL     OW27961   1.182   0.699  11.229  0.7307 -0.0754 -0.5856
 5442SOL    HW127962   1.239   0.776  11.232  2.7996 -1.6432  0.2542
 5442SOL    HW227963   1.236   0.636  11.276  0.3652  0.6487  0.8122
 5443SOL     OW27964   0.021   2.437   9.251  0.6729  0.0327 -0.0412
 5443SOL    HW127965   0.036   2.529   9.231 -0.1103  0.0022 -0.7575
 5443SOL    HW227966   0.059   2.432   9.339  0.6823 -1.2589 -0.1199
 5444SOL     OW27967   4.361   0.940  11.053 -0.2822  0.1521 -0.1234
 5444SOL    HW127968   4.423   1.007  11.080  1.1571 -0.4136 -2.0908
 5444SOL    HW227969   4.295   0.938  11.124 -0.1578  4.5204  0.0770
 5445SOL     OW27970   0.334   3.355   6.730  0.0498  0.2065 -0.3256
 5445SOL    HW127971   0.267   3.287   6.740  0.4998 -0.4572 -1.8544
 5445SOL    HW227972   0.272   3.417   6.769 -0.6641  0.7278 -2.3286
 5446SOL     OW27973   0.014   2.585  10.278 -0.1812 -0.6410 -0.4638
 5446SOL    HW127974   0.044   2.597  10.188 -0.1721  1.6034 -0.1599
 5446SOL    HW227975   0.022   2.675  10.308  0.3614 -1.1767  1.0085
 5447SOL     OW27976   4.159   3.249  15.607  0.1405 -0.2077  0.8065
 5447SOL    HW127977   4.102   3.175  15.584 -1.6615  1.7068 -0.8119
 5447SOL    HW227978   4.136   3.263  15.699 -0.4614 -0.2279  0.6580
 5448SOL     OW27979   4.327   2.318   7.970 -0.0825 -0.7341 -0.2615
 5448SOL    HW127980   4.313   2.241   7.915 -0.0091 -1.1320  0.2720
 5448SOL    HW227981   4.332   2.382   7.900 -0.7572  0.9026  1.1833
 5449SOL     OW27982   0.519   3.005   8.369  0.0848  0.1584  0.2246
 5449SOL    HW127983   0.477   2.994   8.283 -0.2288 -1.4719  0.5827
 5449SOL    HW227984   0.473   2.935   8.414  0.2467  1.0565  1.7625
 5450SOL     OW27985   0.834   2.892   6.099 -0.4183  0.2482 -0.7557
 5450SOL    HW127986   0.776   2.966   6.081  1.1233  1.1797 -1.8919
 5450SOL    HW227987   0.842   2.891   6.194  1.0127  1.8522 -0.8584
 5451SOL     OW27988   0.801   1.069   2.748  0.0703  0.0788 -0.0769
 5451SOL    HW127989   0.864   1.009   2.708 -0.8510 -0.0139 -1.3728
 5451SOL    HW227990   0.814   1.152   2.701  0.2593  0.2127  0.2158
 5452SOL     OW27991   0.205   0.611   1.432 -0.4680  0.3118 -0.0962
 5452SOL    HW127992   0.174   0.524   1.406  1.1668 -0.1491 -0.5351
 5452SOL    HW227993   0.132   0.666   1.405 -0.1821  0.1167 -1.2499
 5453SOL     OW27994   2.944   3.371   9.568 -0.4532 -0.0155 -0.0251
 5453SOL    HW127995   2.930   3.461   9.536  0.7885  0.7783  1.6850
 5453SOL    HW227996   3.036   3.348   9.570 -0.6062 -0.8016 -1.6632
 5454SOL     OW27997   0.899   0.789   2.276 -0.2727 -0.0541  0.3869
 5454SOL    HW127998   0.921   0.828   2.192 -0.8808  0.6123  0.5447
 5454SOL    HW227999   0.825   0.840   2.308  2.1854  2.7029  1.6455
 5455SOL     OW28000   4.527   3.524   9.828 -0.0780  0.1715  0.7295
 5455SOL    HW128001   4.558   3.568   9.908  0.1485  0.2477  0.6002
 5455SOL    HW228002   4.542   3.432   9.851 -0.3427  0.1684  0.8853
 5456SOL     OW28003   2.411   3.160   0.176 -0.3151 -0.2817 -0.2019
 5456SOL    HW128004   2.447   3.248   0.183  1.9103 -1.2808  0.8477
 5456SOL    HW228005   2.456   3.123   0.252  0.9013 -0.9793 -1.2655
 5457SOL     OW28006   0.754   2.160  10.157 -0.0127 -0.0872 -0.1079
 5457SOL    HW128007   0.811   2.105  10.211 -0.4361 -1.8229 -1.4679
 5457SOL    HW228008   0.806   2.191  10.083 -3.3990  3.1697 -1.1015
 5458SOL     OW28009   3.024   3.832   7.870  0.1298 -0.1108  0.3481
 5458SOL    HW128010   3.087   3.903   7.885 -0.9248  0.8705  0.1312
 5458SOL    HW228011   3.002   3.832   7.777 -1.0461 -0.4629  0.6296
 5459SOL     OW28012   1.819   2.669  15.489 -0.3528  0.1527  0.5297
 5459SOL    HW128013   1.777   2.751  15.514 -0.8882 -0.0895  0.4125
 5459SOL    HW228014   1.913   2.688  15.480 -0.3055 -0.4944 -0.3738
 5460SOL     OW28015   3.159   2.420   8.009 -0.6664 -0.8918  0.0969
 5460SOL    HW128016   3.209   2.443   7.931 -0.3717 -0.6599  0.3559
 5460SOL    HW228017   3.084   2.479   8.010  1.3534  1.6936 -0.9382
 5461SOL     OW28018   2.473   0.150   6.803  0.5487 -0.0907 -0.4158
 5461SOL    HW128019   2.439   0.072   6.848  0.9955 -0.4472 -0.6924
 5461SOL    HW228020   2.504   0.109   6.722 -2.0716 -3.3023  0.1783
 5462SOL     OW28021   2.707   3.288   6.873 -0.1496  0.4892 -0.2804
 5462SOL    HW128022   2.745   3.346   6.808  0.9503  0.2956  0.1934
 5462SOL    HW228023   2.619   3.269   6.840 -0.2951  0.5780  0.0477
 5463SOL     OW28024   0.343   1.615   4.510 -0.2651  0.2165 -0.2975
 5463SOL    HW128025   0.285   1.539   4.511 -0.3491  0.3209  1.7883
 5463SOL    HW228026   0.428   1.570   4.500  0.6101  1.7724  0.1542
 5464SOL     OW28027   4.107   2.095   3.289  0.3260  0.4948  0.4460
 5464SOL    HW128028   4.148   2.175   3.256  1.3809 -1.4689 -2.9234
 5464SOL    HW228029   4.084   2.113   3.380  0.7896  1.2362  0.4263
 5465SOL     OW28030   3.295   1.119  17.104 -0.1665 -0.2203 -0.5826
 5465SOL    HW128031   3.330   1.043  17.151 -2.4508 -0.2104  1.2138
 5465SOL    HW228032   3.208   1.085  17.083 -0.7390  0.3434  0.8223
 5466SOL     OW28033   3.840   2.123   7.654  0.2958  0.1062  0.5508
 5466SOL    HW128034   3.877   2.211   7.656 -2.0973  1.0855  0.8412
 5466SOL    HW228035   3.921   2.075   7.637  0.7031  1.4278 -1.1648
 5467SOL     OW28036   4.228   2.469   3.585  0.3157 -0.6468  0.4067
 5467SOL    HW128037   4.163   2.426   3.640  0.1717  0.6792  1.2653
 5467SOL    HW228038   4.293   2.399   3.572  1.6765  0.7355 -0.2711
 5468SOL     OW28039   3.906   1.154   7.946 -0.1818 -0.0696  0.1275
 5468SOL    HW128040   3.835   1.092   7.962 -0.0403 -0.0309  0.8595
 5468SOL    HW228041   3.976   1.091   7.928  3.1620  3.5888  0.2286
 5469SOL     OW28042   1.475   2.770   1.865  0.2484 -0.4725  0.0418
 5469SOL    HW128043   1.434   2.790   1.781 -1.0106 -1.6756  0.3829
 5469SOL    HW228044   1.412   2.728   1.923 -0.8571 -2.1175 -2.3790
 5470SOL     OW28045   0.337   3.932  15.819 -0.8122 -0.0789  0.3482
 5470SOL    HW128046   0.318   4.024  15.800  1.9463  0.6527  1.0593
 5470SOL    HW228047   0.313   3.934  15.912 -0.4615 -2.6679  0.5153
 5471SOL     OW28048   3.564   1.749   3.016  0.2352  1.0392  0.3420
 5471SOL    HW128049   3.524   1.664   3.035  0.7930  0.2351 -2.0062
 5471SOL    HW228050   3.537   1.808   3.086  1.7149  1.2726  0.7264
 5472SOL     OW28051   3.580   3.208   7.469 -0.0896  0.0982  0.3421
 5472SOL    HW128052   3.618   3.246   7.548 -0.3036 -0.3823  0.6729
 5472SOL    HW228053   3.485   3.219   7.474  0.3273  3.4521  1.1260
 5473SOL     OW28054   2.645   4.430  15.089 -0.7389  0.2336 -0.3065
 5473SOL    HW128055   2.708   4.399  15.024  1.5031  0.9296  1.5532
 5473SOL    HW228056   2.568   4.388  15.051 -1.2075  1.2944 -0.5358
 5474SOL     OW28057   3.480   3.036   5.240 -0.1637  0.4007 -0.2366
 5474SOL    HW128058   3.420   3.083   5.297 -0.3592  1.7530 -1.5720
 5474SOL    HW228059   3.486   2.950   5.283  0.0671  0.5625  0.0497
 5475SOL     OW28060   4.690   4.520  16.160  0.4694  0.4734 -0.0382
 5475SOL    HW128061   4.627   4.524  16.089 -0.0317  0.9017  0.4378
 5475SOL    HW228062   0.023   4.559  16.108  1.7965 -0.4875  1.0379
 5476SOL     OW28063   4.043   1.571   1.037 -0.4370 -0.6997  0.4511
 5476SOL    HW128064   4.008   1.660   1.032 -1.0278 -0.9685 -0.1250
 5476SOL    HW228065   4.134   1.597   1.020 -0.6840  1.2551  2.1563
 5477SOL     OW28066   3.290   0.507   3.304  0.5375  0.3712  0.5652
 5477SOL    HW128067   3.240   0.461   3.372  0.0671 -1.5928 -1.1206
 5477SOL    HW228068   3.266   0.462   3.223  1.1924  3.4831 -1.3531
 5478SOL     OW28069   3.337   0.364   8.637  0.0065 -0.2084 -0.2764
 5478SOL    HW128070   3.294   0.376   8.722  0.1804 -1.6202  0.0079
 5478SOL    HW228071   3.410   0.307   8.658  0.8556  1.0333  0.1776
 5479SOL     OW28072   0.712   0.485   4.839 -0.2992  0.4607 -0.5124
 5479SOL    HW128073   0.754   0.515   4.919  1.5336  1.5343 -1.8808
 5479SOL    HW228074   0.679   0.400   4.867 -1.2347  1.9654  3.0169
 5480SOL     OW28075   1.682   2.318   7.592 -0.0327  0.2408 -0.3342
 5480SOL    HW128076   1.596   2.348   7.564  0.5164  2.3711  0.2849
 5480SOL    HW228077   1.678   2.281   7.680 -0.9661  0.6935 -0.1969
 5481SOL     OW28078   1.875   2.614   4.370  0.1484  0.2105 -0.1249
 5481SOL    HW128079   1.960   2.658   4.367  0.1315  0.2653  0.2611
 5481SOL    HW228080   1.814   2.675   4.328  0.2379  0.2633 -0.1782
 5482SOL     OW28081   0.042   0.887   5.892  0.3889  0.1767 -0.6712
 5482SOL    HW128082   0.130   0.915   5.868  0.5928 -1.6167 -2.0534
 5482SOL    HW228083   0.070   0.802   5.926 -1.0268  0.1985  0.5549
 5483SOL     OW28084   4.197   2.089  11.340  0.3035 -0.1201  0.0438
 5483SOL    HW128085   4.251   2.103  11.262  0.3533  0.9470  0.2671
 5483SOL    HW228086   4.256   2.029  11.386 -1.3682 -2.6601 -1.0954
 5484SOL     OW28087   3.118   4.241   9.820 -0.1948  0.1536 -0.2922
 5484SOL    HW128088   3.117   4.242   9.724  0.2596  0.5555 -0.2920
 5484SOL    HW228089   3.147   4.153   9.840  1.1639  1.1714  2.1454
 5485SOL     OW28090   2.506   4.373   5.983 -0.5379  0.3258 -0.0646
 5485SOL    HW128091   2.513   4.454   5.933  0.3368 -0.3889 -1.0904
 5485SOL    HW228092   2.580   4.371   6.044 -0.8140 -4.3527  0.1617
 5486SOL     OW28093   3.326   2.548   5.286  0.3443 -0.3307 -0.0450
 5486SOL    HW128094   3.299   2.487   5.355 -0.1497  0.1814  0.2080
 5486SOL    HW228095   3.304   2.635   5.318 -0.8799 -0.5713 -0.2596
 5487SOL     OW28096   2.314   2.291  12.529 -0.4028 -0.0724  0.0817
 5487SOL    HW128097   2.383   2.334  12.580 -0.0561 -0.9515  0.3510
 5487SOL    HW228098   2.295   2.223  12.594 -0.2057 -1.2618 -1.1147
 5488SOL     OW28099   2.161   0.400   6.337  0.4316  0.0200  0.1903
 5488SOL    HW128100   2.169   0.406   6.432 -0.0207  0.2621  0.2154
 5488SOL    HW228101   2.104   0.476   6.324  0.1817  0.0678  1.6094
 5489SOL     OW28102   4.327   1.551  17.646  0.3913  0.0487 -0.0059
 5489SOL    HW128103   4.372   1.636  17.650 -2.6985  1.6796  0.1905
 5489SOL    HW228104   4.252   1.587  17.598 -1.2430 -1.1048  1.6689
 5490SOL     OW28105   2.582   2.678  12.171  0.0788  0.4666 -0.2664
 5490SOL    HW128106   2.536   2.643  12.094  0.6465 -2.8344  0.8873
 5490SOL    HW228107   2.562   2.771  12.175  1.7197  0.7942  0.1278
 5491SOL     OW28108   2.622   2.404   5.240 -0.2025  0.0106 -0.2844
 5491SOL    HW128109   2.621   2.329   5.300 -1.0018  0.6835  0.5445
 5491SOL    HW228110   2.529   2.414   5.221 -0.0269  1.3202 -0.4316
 5492SOL     OW28111   3.117   2.780   3.925  0.0619  0.3278  0.2012
 5492SOL    HW128112   3.065   2.848   3.883  1.3657 -0.4238 -2.6128
 5492SOL    HW228113   3.063   2.703   3.907  0.4772  0.4277 -1.4291
 5493SOL     OW28114   0.210   0.500   5.645 -0.5192  0.1492  0.8588
 5493SOL    HW128115   0.227   0.411   5.615  0.1919  0.5537  0.0671
 5493SOL    HW228116   0.161   0.491   5.727 -3.2763 -2.2047 -1.0047
 5494SOL     OW28117   2.423   4.454   7.326  0.5694  0.0584  0.5705
 5494SOL    HW128118   2.447   4.404   7.404 -0.6269  1.6007  1.9282
 5494SOL    HW228119   2.342   4.409   7.303  0.5799 -0.1521  0.9585
 5495SOL     OW28120   1.328   2.223  16.640 -0.1064 -0.0896 -0.3712
 5495SOL    HW128121   1.305   2.248  16.551  1.0049 -0.6526 -0.8250
 5495SOL    HW228122   1.420   2.250  16.643  0.8862 -3.3851  0.0607
 5496SOL     OW28123   1.452   2.180   2.768 -0.1125 -0.3686  0.6700
 5496SOL    HW128124   1.499   2.189   2.851 -0.3526 -1.7096  0.9548
 5496SOL    HW228125   1.377   2.123   2.780  0.4681 -1.5083 -1.0754
 5497SOL     OW28126   0.889   0.314   8.355  0.1006 -0.2147 -0.2628
 5497SOL    HW128127   0.942   0.283   8.429 -0.0971 -0.6762 -0.3111
 5497SOL    HW228128   0.948   0.368   8.303  0.6194 -0.1471  0.4009
 5498SOL     OW28129   0.830   0.365   2.984 -0.4116 -0.2374 -0.0546
 5498SOL    HW128130   0.784   0.371   2.900 -0.1479  2.3363 -0.0010
 5498SOL    HW228131   0.883   0.289   2.959 -0.7467 -0.4543 -0.1115
 5499SOL     OW28132   2.371   1.705  15.709 -0.1714 -0.5639  0.0655
 5499SOL    HW128133   2.332   1.630  15.664 -1.7556  0.5304 -0.3589
 5499SOL    HW228134   2.466   1.688  15.705  0.1697  1.6194 -0.8751
 5500SOL     OW28135   2.288   3.507  15.524  0.3079  0.5092 -0.6652
 5500SOL    HW128136   2.305   3.543  15.437 -0.9881  2.2409 -0.2085
 5500SOL    HW228137   2.337   3.574  15.572 -0.8500  1.0733 -0.2588
 5501SOL     OW28138   3.061   1.913   2.658 -0.1102 -0.5750 -1.1013
 5501SOL    HW128139   3.084   1.834   2.610 -0.5234 -0.8752 -0.7998
 5501SOL    HW228140   3.143   1.923   2.707 -1.5814 -1.0068  1.4599
 5502SOL     OW28141   0.474   0.242   6.383  0.4010  0.0818 -0.4761
 5502SOL    HW128142   0.560   0.282   6.383  0.9093 -0.9952 -1.3576
 5502SOL    HW228143   0.482   0.175   6.315  0.8568  0.1870 -0.5249
 5503SOL     OW28144   1.541   1.478  16.325 -0.0109 -0.4454  0.8076
 5503SOL    HW128145   1.510   1.513  16.242 -1.2887 -0.8342  1.1106
 5503SOL    HW228146   1.560   1.388  16.297  0.1308 -0.4989  1.0738
 5504SOL     OW28147   2.326   0.564   9.073 -0.0864 -0.2274  0.2305
 5504SOL    HW128148   2.391   0.633   9.089 -1.7583  1.3431  0.2022
 5504SOL    HW228149   2.387   0.503   9.031 -2.0513 -1.9240 -0.1440
 5505SOL     OW28150   3.684   3.792   6.333  0.4711  0.5604  0.6587
 5505SOL    HW128151   3.616   3.848   6.371 -0.4592 -1.0343  1.3482
 5505SOL    HW228152   3.641   3.778   6.249  2.6810  0.1052 -0.3974
 5506SOL     OW28153   0.408   1.440   8.206  0.1483 -0.2601 -0.4466
 5506SOL    HW128154   0.468   1.478   8.141  1.7773  0.4112  1.4631
 5506SOL    HW228155   0.329   1.442   8.151 -0.4265 -0.6647  0.3696
 5507SOL     OW28156   2.453   1.241   9.416 -0.1962  0.1490 -0.5485
 5507SOL    HW128157   2.460   1.239   9.512  1.9296 -2.7333 -0.7591
 5507SOL    HW228158   2.358   1.241   9.407 -0.2240  0.9746 -0.2019
 5508SOL     OW28159   1.980   0.232   7.559 -0.1157 -0.4196  0.0168
 5508SOL    HW128160   2.018   0.245   7.472 -1.5852 -0.1218 -0.5845
 5508SOL    HW228161   2.047   0.193   7.615  0.5726 -0.3906 -0.7981
 5509SOL     OW28162   3.842   4.185   1.377  0.5215 -0.1955  0.1747
 5509SOL    HW128163   3.751   4.213   1.364  0.4733  0.1270  1.1973
 5509SOL    HW228164   3.878   4.273   1.388  2.2124 -0.8430 -0.1691
 5510SOL     OW28165   1.148   2.561   5.142  0.6441  0.1491 -0.1777
 5510SOL    HW128166   1.055   2.561   5.117  0.9638 -0.1997 -1.3637
 5510SOL    HW228167   1.152   2.542   5.236  2.2935  1.5842  0.0370
 5511SOL     OW28168   2.684   1.036  14.520  0.2784 -0.2383 -0.1060
 5511SOL    HW128169   2.746   1.106  14.500 -0.3283  0.0713 -0.8888
 5511SOL    HW228170   2.735   0.955  14.528 -0.0336 -0.3742  0.4873
 5512SOL     OW28171   0.539   3.888   8.894  0.2178  0.2273  0.2088
 5512SOL    HW128172   0.582   3.914   8.812 -0.7157 -0.0455 -0.3728
 5512SOL    HW228173   0.463   3.946   8.889 -0.9741 -1.2681  0.8785
 5513SOL     OW28174   3.986   4.464   9.779  0.2323 -0.1347  0.4654
 5513SOL    HW128175   4.018   4.510   9.857  1.4638  1.2027 -0.8191
 5513SOL    HW228176   4.039   4.492   9.705 -1.7840  1.5193 -0.3819
 5514SOL     OW28177   1.204   2.272   4.653 -0.0712  0.3680  0.4378
 5514SOL    HW128178   1.273   2.251   4.591  0.3773 -1.4502  1.5626
 5514SOL    HW228179   1.151   2.326   4.595  1.5650 -0.5939 -1.9405
 5515SOL     OW28180   0.221   3.196   1.009 -0.6690  0.1507 -0.4433
 5515SOL    HW128181   0.232   3.101   1.010  1.0493  0.3628  0.8566
 5515SOL    HW228182   0.140   3.219   1.054 -0.5711 -1.3825  0.5261
 5516SOL     OW28183   0.513   3.912   8.378  0.0005  0.1366 -0.2048
 5516SOL    HW128184   0.481   3.994   8.414 -2.0012  0.2269 -2.2068
 5516SOL    HW228185   0.433   3.860   8.375  1.2871 -1.8427 -0.9602
 5517SOL     OW28186   1.477   2.934  12.221 -0.1075  0.2472  0.6585
 5517SOL    HW128187   1.411   2.914  12.154  1.4154 -0.0523 -0.7466
 5517SOL    HW228188   1.483   2.843  12.249 -1.2893 -0.3445 -0.9992
 5518SOL     OW28189   4.677   0.190   6.625  0.0995  1.0793  0.0693
 5518SOL    HW128190   4.642   0.155   6.707  1.5403 -1.2771 -0.3070
 5518SOL    HW228191   4.605   0.247   6.599  1.5831  3.5481  1.4150
 5519SOL     OW28192   1.354   4.303  15.720  0.1672 -0.3041 -0.3037
 5519SOL    HW128193   1.392   4.221  15.754 -1.9454 -1.2384 -0.1990
 5519SOL    HW228194   1.270   4.268  15.689  0.0153 -2.3456  2.4032
 5520SOL     OW28195   3.781   1.907   2.644  0.2038 -0.3179 -0.7415
 5520SOL    HW128196   3.735   1.824   2.659 -0.6431  0.3226  0.1926
 5520SOL    HW228197   3.746   1.952   2.721  0.6708  1.1046 -1.3687
 5521SOL     OW28198   1.981   2.369   1.217 -0.0081  0.7248 -0.5219
 5521SOL    HW128199   2.041   2.419   1.162  0.3058  0.1363 -0.7185
 5521SOL    HW228200   1.916   2.433   1.245  0.4043 -0.1492  2.3997
 5522SOL     OW28201   4.321   1.976  12.641  0.1584  0.1837  0.0718
 5522SOL    HW128202   4.311   2.007  12.551  1.6793  3.2837  0.9769
 5522SOL    HW228203   4.415   1.957  12.646 -0.0537 -0.7137  0.5539
 5523SOL     OW28204   4.407   2.726   7.676 -0.7400 -0.1404  0.1109
 5523SOL    HW128205   4.473   2.739   7.607  0.0588  0.1189  0.9158
 5523SOL    HW228206   4.375   2.637   7.667  0.0170 -0.4801  0.7566
 5524SOL     OW28207   2.496   3.318   0.935  0.6130 -0.3748 -0.0014
 5524SOL    HW128208   2.464   3.264   1.007 -0.2547  2.1019  1.4650
 5524SOL    HW228209   2.465   3.406   0.958  0.6697  0.2829 -2.3950
 5525SOL     OW28210   0.028   4.626   5.820 -0.2738  0.4863  0.1154
 5525SOL    HW128211   0.015   4.688   5.892 -3.4973  1.7490 -1.5626
 5525SOL    HW228212   4.686   4.633   5.769 -0.7247 -1.7698  0.5243
 5526SOL     OW28213   4.514   0.837  10.662  0.1596  0.2339  0.6102
 5526SOL    HW128214   4.509   0.808  10.753  1.5319 -1.9471 -0.0252
 5526SOL    HW228215   4.573   0.772  10.626 -1.4160  0.6464 -2.7586
 5527SOL     OW28216   4.384   4.335   0.578 -0.0006  0.3897  0.5384
 5527SOL    HW128217   4.454   4.298   0.632  0.1787 -1.2702 -0.8441
 5527SOL    HW228218   4.431   4.336   0.495  0.4252 -2.2616  0.7430
 5528SOL     OW28219   3.359   1.489  12.534 -0.1930  0.5110 -0.2731
 5528SOL    HW128220   3.284   1.471  12.477 -1.5895 -0.4250  1.8938
 5528SOL    HW228221   3.355   1.411  12.588  1.9100 -0.8338 -2.0394
 5529SOL     OW28222   2.389   3.178   8.470 -0.3391  0.8119 -0.1085
 5529SOL    HW128223   2.425   3.168   8.558 -1.7377 -2.5414  0.0586
 5529SOL    HW228224   2.313   3.224   8.506  0.3421  0.5019  1.7112
 5530SOL     OW28225   3.490   2.590   7.072  0.4268  0.3945 -0.5531
 5530SOL    HW128226   3.409   2.548   7.043  0.7774 -2.4010  2.4984
 5530SOL    HW228227   3.555   2.545   7.017 -1.2389 -1.5565 -0.9130
 5531SOL     OW28228   3.365   1.959   2.855  0.1031  0.2335  0.9176
 5531SOL    HW128229   3.316   2.030   2.895  0.8185  0.3120  1.6661
 5531SOL    HW228230   3.336   1.887   2.911  1.1149  1.7291  3.3372
 5532SOL     OW28231   3.012   4.380   1.874 -0.2432 -0.0358 -0.9709
 5532SOL    HW128232   2.933   4.379   1.822 -0.1769  0.4765 -1.0815
 5532SOL    HW228233   2.973   4.388   1.961 -0.4265  1.2935 -1.1712
 5533SOL     OW28234   3.679   2.554   6.830 -0.1857  0.4373 -0.2056
 5533SOL    HW128235   3.701   2.592   6.746 -0.5022 -0.6082 -0.7601
 5533SOL    HW228236   3.735   2.591   6.899 -1.8386 -0.4789  1.6275
 5534SOL     OW28237   0.626   3.228   4.993 -0.1877  0.3147  0.2119
 5534SOL    HW128238   0.542   3.240   5.038 -0.1106  0.2105  0.3840
 5534SOL    HW228239   0.684   3.204   5.066  0.1313 -0.3594 -0.2662
 5535SOL     OW28240   2.896   0.234  16.794 -0.2797 -0.2732 -0.4762
 5535SOL    HW128241   2.894   0.144  16.826 -0.1617  0.8279  2.6956
 5535SOL    HW228242   2.842   0.286  16.854  1.1023  0.4005  0.1971
 5536SOL     OW28243   2.758   1.494   1.745  0.0078 -0.3055 -0.1992
 5536SOL    HW128244   2.794   1.496   1.833  1.0182  0.3965 -0.6267
 5536SOL    HW228245   2.750   1.589   1.737  1.6466 -0.1085  0.5863
 5537SOL     OW28246   0.918   4.011   2.389  0.5298 -0.4757 -0.6786
 5537SOL    HW128247   0.867   4.087   2.361 -0.1280 -0.4962  0.4466
 5537SOL    HW228248   0.858   3.937   2.396 -0.6108  0.7162  2.4684
 5538SOL     OW28249   4.438   4.576  11.771  0.0066  0.2319 -0.4918
 5538SOL    HW128250   4.521   4.619  11.791  1.6715 -2.1272 -2.3068
 5538SOL    HW228251   4.390   4.614  11.844  0.5495  0.5503 -0.3033
 5539SOL     OW28252   1.677   4.249   8.414  0.0937  0.2338  0.7102
 5539SOL    HW128253   1.753   4.302   8.392  0.3122 -0.4518 -0.2006
 5539SOL    HW228254   1.720   4.167   8.439 -0.0805  0.0353  0.3713
 5540SOL     OW28255   4.117   1.840   4.029 -0.3484  0.0948 -0.3601
 5540SOL    HW128256   4.120   1.771   3.962  0.9025 -0.7979  0.5994
 5540SOL    HW228257   4.109   1.795   4.113 -1.9474  0.5548 -0.2801
 5541SOL     OW28258   2.594   4.220   2.268 -0.3762  0.0837  0.4437
 5541SOL    HW128259   2.572   4.127   2.271  1.6857 -0.3662  1.3292
 5541SOL    HW228260   2.619   4.229   2.176 -0.3920 -0.1031  0.4217
 5542SOL     OW28261   2.953   3.987  14.881 -0.1708 -0.0577  0.0143
 5542SOL    HW128262   2.917   3.974  14.969  1.0838  1.6733  0.7842
 5542SOL    HW228263   2.946   3.898  14.848 -1.7091 -0.3552  1.1634
 5543SOL     OW28264   0.546   1.598   4.202  0.0576 -0.0965  0.1973
 5543SOL    HW128265   0.536   1.530   4.269 -0.4041  1.7164  1.9867
 5543SOL    HW228266   0.575   1.545   4.128  0.1172 -1.3291  1.1020
 5544SOL     OW28267   4.367   2.157   6.414 -0.0621  0.0889  0.3620
 5544SOL    HW128268   4.424   2.146   6.490  0.4162  0.6451  0.0861
 5544SOL    HW228269   4.357   2.252   6.412 -0.3270  0.0127 -1.9634
 5545SOL     OW28270   2.368   1.581   7.215 -0.1303  0.1550 -0.0090
 5545SOL    HW128271   2.371   1.584   7.310  2.4193 -1.7016 -0.0446
 5545SOL    HW228272   2.461   1.591   7.195 -0.3979  3.1347  0.2258
 5546SOL     OW28273   2.527   2.169   6.044 -0.4952  0.2434  0.1691
 5546SOL    HW128274   2.468   2.214   5.982 -1.8391 -0.1564  1.1745
 5546SOL    HW228275   2.500   2.201   6.130  0.8573  0.8097  0.3867
 5547SOL     OW28276   4.711   3.983   1.162 -0.4613  0.2663  0.4192
 5547SOL    HW128277   4.687   3.978   1.254  0.0248 -0.9436  0.4731
 5547SOL    HW228278   0.053   3.931   1.162 -1.0109 -0.5696 -0.8559
 5548SOL     OW28279   2.165   2.567   0.641  0.2437 -0.4210  0.4666
 5548SOL    HW128280   2.088   2.568   0.584  0.4808 -3.4645  0.0854
 5548SOL    HW228281   2.221   2.522   0.578  1.6607 -0.4164  1.7317
 5549SOL     OW28282   0.095   2.949   8.220 -0.4636  0.1100  0.1005
 5549SOL    HW128283   0.123   2.963   8.310  1.9673 -1.3004 -0.4371
 5549SOL    HW228284   0.020   3.009   8.219  0.2830  1.0351  0.3795
 5550SOL     OW28285   3.231   1.738   6.798  0.2943 -0.5731 -0.6730
 5550SOL    HW128286   3.290   1.791   6.743 -0.4831  0.5980 -0.3768
 5550SOL    HW228287   3.287   1.713   6.871  0.6362  0.4727 -0.5692
 5551SOL     OW28288   1.918   3.850  10.577 -0.0577 -0.3711 -0.7184
 5551SOL    HW128289   1.956   3.792  10.643 -0.5679 -1.1378 -1.1018
 5551SOL    HW228290   1.841   3.805  10.543 -1.2684  1.5067 -0.4808
 5552SOL     OW28291   1.223   1.451   3.334  0.4517  0.1448 -1.0887
 5552SOL    HW128292   1.271   1.476   3.413 -1.6718 -2.4926  1.0127
 5552SOL    HW228293   1.232   1.538   3.296  2.5517  0.9109  1.1115
 5553SOL     OW28294   3.887   0.736   5.239 -0.0212  0.5748 -0.0360
 5553SOL    HW128295   3.930   0.653   5.261 -0.9496  0.4989  1.4846
 5553SOL    HW228296   3.957   0.784   5.282  0.9269 -0.3862 -0.4980
 5554SOL     OW28297   4.403   4.166   8.731  0.3002  0.2906 -0.3902
 5554SOL    HW128298   4.413   4.239   8.792  0.9290  0.6028 -0.8616
 5554SOL    HW228299   4.429   4.101   8.796  1.7063  0.4826 -0.7585
 5555SOL     OW28300   1.921   3.053   7.557 -0.1779 -0.2509  0.1064
 5555SOL    HW128301   1.951   3.078   7.644  2.1607  0.8654 -1.0314
 5555SOL    HW228302   1.826   3.053   7.570 -0.4207 -1.5213 -1.6804
 5556SOL     OW28303   0.447   3.476   5.069 -0.1021  0.1346  0.4710
 5556SOL    HW128304   0.398   3.394   5.066  1.0312 -0.6140  2.2359
 5556SOL    HW228305   0.515   3.451   5.132 -0.1838 -0.0479  0.4868
 5557SOL     OW28306   2.491   0.253  14.692  0.0862  0.8107  0.0428
 5557SOL    HW128307   2.533   0.168  14.699  2.3051  2.1213  2.9686
 5557SOL    HW228308   2.551   0.307  14.641  0.8302 -0.2643 -0.2058
 5558SOL     OW28309   4.109   0.893   1.779 -0.2211 -0.5015  0.3062
 5558SOL    HW128310   4.055   0.852   1.846 -1.5097  1.9589  0.7942
 5558SOL    HW228311   4.195   0.904   1.820 -0.3473  2.7404 -0.2535
 5559SOL     OW28312   0.968   1.775  14.544  0.7146 -0.1391  0.4447
 5559SOL    HW128313   0.930   1.827  14.615 -0.8422  1.4885 -1.5942
 5559SOL    HW228314   1.021   1.838  14.496  0.0879 -0.7256 -1.0180
 5560SOL     OW28315   3.962   4.254   6.808 -0.1401  0.7661 -0.1627
 5560SOL    HW128316   3.886   4.312   6.816 -0.7934 -0.0804 -0.2510
 5560SOL    HW228317   4.023   4.313   6.851 -0.8138  0.0131  1.8503
 5561SOL     OW28318   0.840   0.812  13.076  0.0777 -0.5569 -0.0077
 5561SOL    HW128319   0.786   0.854  13.143 -0.3198 -2.3520  0.7972
 5561SOL    HW228320   0.912   0.781  13.131  1.1321 -0.4047 -1.3252
 5562SOL     OW28321   1.429   3.426   4.209  0.5788 -0.6450  0.0850
 5562SOL    HW128322   1.476   3.501   4.244  0.8962 -1.0802  0.5899
 5562SOL    HW228323   1.363   3.401   4.273 -1.1233  1.0388 -1.0200
 5563SOL     OW28324   3.137   4.332  16.792  0.5013 -0.4047 -0.9327
 5563SOL    HW128325   3.147   4.280  16.872  0.6632  1.1466  0.0613
 5563SOL    HW228326   3.186   4.409  16.823 -0.8585 -0.3645  1.1404
 5564SOL     OW28327   3.152   3.752   6.745  0.0484  0.3494 -0.3097
 5564SOL    HW128328   3.221   3.685   6.741  0.1947  0.4642  0.2115
 5564SOL    HW228329   3.097   3.718   6.816  0.1431 -0.9027 -0.8268
 5565SOL     OW28330   1.466   1.309  17.519  0.3388  0.2013  0.0236
 5565SOL    HW128331   1.536   1.268  17.570 -0.0464 -0.6917 -0.1737
 5565SOL    HW228332   1.394   1.293  17.581 -0.7201  0.2966 -1.1899
 5566SOL     OW28333   1.044   2.273   6.004 -0.5373 -0.1379  0.0457
 5566SOL    HW128334   0.984   2.344   6.024  0.2689  0.3674  0.6439
 5566SOL    HW228335   1.072   2.223   6.081  1.2280  0.8769  0.0566
 5567SOL     OW28336   2.437   0.555  16.863 -0.4680 -0.2355  0.5789
 5567SOL    HW128337   2.414   0.463  16.850 -1.3527  0.2288 -1.1495
 5567SOL    HW228338   2.439   0.565  16.958  2.2905  3.4855  0.1235
 5568SOL     OW28339   3.404   4.350   7.968  0.7415  0.7593 -0.1832
 5568SOL    HW128340   3.494   4.379   7.957  0.7456  1.0433  0.5998
 5568SOL    HW228341   3.360   4.417   7.915 -0.6786  0.7893  1.0128
 5569SOL     OW28342   0.594   0.583   1.029 -0.2352  0.9261 -0.0752
 5569SOL    HW128343   0.534   0.598   1.101 -0.0095 -0.4834  0.4223
 5569SOL    HW228344   0.575   0.492   1.004  0.1220  0.1147  2.5848
 5570SOL     OW28345   0.928   2.740  17.092 -0.1830 -0.2658  0.5631
 5570SOL    HW128346   0.995   2.677  17.119 -0.1253  0.2144  1.5139
 5570SOL    HW228347   0.853   2.680  17.086  1.7191 -2.9319  3.3546
 5571SOL     OW28348   4.386   2.120   3.845 -0.0237  0.6031  0.5058
 5571SOL    HW128349   4.422   2.096   3.930 -2.2818  4.0959  2.4147
 5571SOL    HW228350   4.300   2.141   3.881 -0.7749 -2.3915  0.4538
 5572SOL     OW28351   0.442   1.519   5.358 -0.4894  0.7136 -0.3399
 5572SOL    HW128352   0.352   1.494   5.382 -0.7002  1.0246 -0.8170
 5572SOL    HW228353   0.490   1.455   5.411 -2.9950 -0.2240  0.7972
 5573SOL     OW28354   3.395   4.618   3.564 -0.1523  0.2803  0.8584
 5573SOL    HW128355   3.372   4.624   3.657  0.1340  1.7959  0.8180
 5573SOL    HW228356   3.477   4.569   3.562  0.1498  0.8851 -0.8859
 5574SOL     OW28357   1.933   2.132   9.920 -0.0446 -1.0969 -0.1864
 5574SOL    HW128358   1.855   2.112   9.972 -0.1184  1.3886  0.6540
 5574SOL    HW228359   1.964   2.202   9.977  2.2969 -0.4619 -2.2637
 5575SOL     OW28360   3.267   3.507  11.717 -0.3624 -0.1593  0.0787
 5575SOL    HW128361   3.329   3.476  11.783 -1.6729 -0.5738  1.1232
 5575SOL    HW228362   3.233   3.590  11.749  1.1800  1.0422 -1.3977
 5576SOL     OW28363   2.369   2.351   5.088 -0.8651  0.1305 -0.8259
 5576SOL    HW128364   2.296   2.344   5.027 -2.9401 -0.6223  1.7416
 5576SOL    HW228365   2.387   2.445   5.090 -1.3764  0.1907  1.0724
 5577SOL     OW28366   0.970   2.221   4.804  0.4117 -0.3757  0.6122
 5577SOL    HW128367   1.056   2.232   4.764  0.3046 -0.4896  0.3474
 5577SOL    HW228368   0.929   2.307   4.801  0.1896 -0.5163 -0.4269
 5578SOL     OW28369   3.807   1.442   5.288  0.5972  0.6075 -0.1554
 5578SOL    HW128370   3.728   1.460   5.339  0.2703  0.3273 -0.5616
 5578SOL    HW228371   3.770   1.402   5.209  0.3948  0.6761 -0.0958
 5579SOL     OW28372   4.282   4.274   4.225  0.1977 -0.2168  0.2604
 5579SOL    HW128373   4.201   4.271   4.174 -1.2744  1.0928  2.5728
 5579SOL    HW228374   4.283   4.369   4.232  2.2646 -0.0658 -1.9857
 5580SOL     OW28375   2.442   3.010  16.139  0.3392  0.6460  0.1034
 5580SOL    HW128376   2.463   2.933  16.192  1.2739  1.1028  0.4017
 5580SOL    HW228377   2.376   3.055  16.191 -1.7896 -1.5134 -0.6683
 5581SOL     OW28378   4.737   2.098  16.473 -0.2024 -0.1310 -0.0204
 5581SOL    HW128379   4.697   2.153  16.541 -0.5148  0.6014 -0.7830
 5581SOL    HW228380   0.093   2.113  16.483 -0.3567  0.3278  0.7676
 5582SOL     OW28381   4.634   0.260   5.970  0.5190  0.7140 -0.2011
 5582SOL    HW128382   4.662   0.300   6.052 -0.5286  1.0519 -0.0118
 5582SOL    HW228383   4.676   0.322   5.910  0.7416 -1.6339 -2.4947
 5583SOL     OW28384   0.137   1.890   3.050 -0.7146 -0.1919  0.0855
 5583SOL    HW128385   0.160   1.860   2.962  0.4166  1.7174 -0.2863
 5583SOL    HW228386   0.048   1.920   3.033 -1.1816 -2.4813 -1.5350
 5584SOL     OW28387   3.031   4.192   7.492  0.0552 -0.6647  0.4001
 5584SOL    HW128388   2.983   4.259   7.443 -1.2343 -2.0091 -0.1742
 5584SOL    HW228389   2.966   4.192   7.563  0.4387 -1.0565  0.7475
 5585SOL     OW28390   3.691   3.802   9.137 -0.1979 -0.0586  0.2096
 5585SOL    HW128391   3.656   3.722   9.096  0.5569  0.1082 -0.7674
 5585SOL    HW228392   3.729   3.766   9.217 -0.1137  0.4440  0.3921
 5586SOL     OW28393   1.565   4.079  14.315  0.5079 -0.9083 -0.1983
 5586SOL    HW128394   1.571   4.014  14.385 -0.6165  0.7427  1.4550
 5586SOL    HW228395   1.472   4.090  14.294  0.4863 -0.5417  0.0927
 5587SOL     OW28396   3.337   0.245   9.667 -0.3977  0.1003 -0.1307
 5587SOL    HW128397   3.310   0.270   9.755  0.2297 -1.8570  0.6142
 5587SOL    HW228398   3.380   0.328   9.646  1.2919 -0.9416 -0.7718
 5588SOL     OW28399   4.418   2.102   9.436  0.1895 -0.0388  0.2205
 5588SOL    HW128400   4.488   2.167   9.448 -1.0435  1.1404  1.0412
 5588SOL    HW228401   4.398   2.071   9.524 -1.8582 -1.0895 -0.6266
 5589SOL     OW28402   1.934   1.021   0.016 -0.3794  0.0048  0.9356
 5589SOL    HW128403   1.850   0.996  17.727  0.0153 -1.0564  0.7590
 5589SOL    HW228404   1.938   1.111  17.733  1.9324 -0.5566 -0.3734
 5590SOL     OW28405   4.071   1.170   7.676  0.5776 -0.6445  0.6339
 5590SOL    HW128406   4.057   1.086   7.633 -1.2051 -0.4841  0.9047
 5590SOL    HW228407   4.098   1.145   7.765 -0.7398 -0.4114  1.0970
 5591SOL     OW28408   3.922   4.455   1.891 -0.5645  0.4602 -0.1369
 5591SOL    HW128409   3.902   4.436   1.799 -0.5659  0.1995 -0.0826
 5591SOL    HW228410   3.965   4.379   1.931  0.2662  0.6481 -0.6702
 5592SOL     OW28411   2.247   2.942   2.259 -0.2797  0.5519  0.2919
 5592SOL    HW128412   2.330   2.896   2.246 -1.2242 -1.3252  0.9589
 5592SOL    HW228413   2.188   2.894   2.200  1.2585  0.3241 -1.0647
 5593SOL     OW28414   4.118   1.535   8.001  0.3528  0.2029  0.6523
 5593SOL    HW128415   4.055   1.607   8.003 -2.0727 -1.8398 -1.9489
 5593SOL    HW228416   4.122   1.514   7.908  0.2468  0.5070  0.5794
 5594SOL     OW28417   3.771   3.053  14.070 -0.1569 -0.0650 -0.4456
 5594SOL    HW128418   3.713   3.071  13.996 -0.0919  0.6756 -0.3210
 5594SOL    HW228419   3.826   2.990  14.024 -1.4538 -1.5413  0.0517
 5595SOL     OW28420   3.625   4.279   3.234  0.3400  0.2028  0.2874
 5595SOL    HW128421   3.685   4.205   3.243 -0.1193 -0.5119 -2.3920
 5595SOL    HW228422   3.691   4.342   3.205  0.0368  0.0104 -0.8525
 5596SOL     OW28423   2.239   3.206  16.929 -0.7507  0.6614  0.4430
 5596SOL    HW128424   2.321   3.239  16.968  0.5374  2.9467 -4.1681
 5596SOL    HW228425   2.265   3.114  16.933  1.9125  1.4619  1.5146
 5597SOL     OW28426   1.302   3.104   8.930 -0.5173  0.8547 -0.6758
 5597SOL    HW128427   1.222   3.147   8.899  0.7465  1.6979 -2.8024
 5597SOL    HW228428   1.262   3.039   8.987  0.7434  1.8204  1.3030
 5598SOL     OW28429   3.957   0.125   8.811 -0.5545 -0.1227  0.5003
 5598SOL    HW128430   3.951   0.181   8.734  2.0835  1.7651  1.6702
 5598SOL    HW228431   4.052   0.124   8.820 -0.7064 -0.3338  2.2092
 5599SOL     OW28432   2.221   3.079  16.287  0.2997  0.8428  0.2286
 5599SOL    HW128433   2.133   3.096  16.253 -0.8929 -0.7908  2.4461
 5599SOL    HW228434   2.211   3.000  16.340 -0.9312 -0.1234 -1.4364
 5600SOL     OW28435   0.777   1.754   6.311 -0.2272 -0.4258 -0.7827
 5600SOL    HW128436   0.697   1.806   6.305  0.5882  0.8384 -0.6176
 5600SOL    HW228437   0.777   1.710   6.226  1.4463 -2.1990  0.1325
 5601SOL     OW28438   2.008   4.587   5.010 -0.5096 -0.5361 -0.2187
 5601SOL    HW128439   1.931   4.621   5.055  0.1490  0.2770  0.3036
 5601SOL    HW228440   2.063   4.540   5.074 -0.6593  0.9526  0.9982
 5602SOL     OW28441   4.641   4.714   4.718  0.0803 -0.0659  0.7030
 5602SOL    HW128442   4.680   0.064   4.720 -0.5081  0.1628  2.4919
 5602SOL    HW228443   4.641   4.701   4.813  2.5833 -0.3201  0.6784
 5603SOL     OW28444   2.931   0.048   2.836  0.2278 -0.5306  0.2747
 5603SOL    HW128445   2.951   0.105   2.910  0.2057 -0.7226  0.4296
 5603SOL    HW228446   3.012   4.734   2.836 -0.1278 -1.1057 -1.5817
 5604SOL     OW28447   3.861   2.549   1.757 -0.4513  0.4180 -0.1080
 5604SOL    HW128448   3.898   2.471   1.715 -1.6392  0.4546 -1.1989
 5604SOL    HW228449   3.790   2.508   1.806  1.6997 -3.2915 -0.0689
 5605SOL     OW28450   1.625   3.869   3.436  0.2978 -0.1090  0.3283
 5605SOL    HW128451   1.610   3.949   3.485 -0.5153  0.1374 -0.3219
 5605SOL    HW228452   1.687   3.892   3.367 -0.0536 -0.9181 -0.2697
 5606SOL     OW28453   0.240   3.106   7.048  0.1392 -0.4450  0.9683
 5606SOL    HW128454   0.203   3.193   7.045  1.5629  0.1515  0.4793
 5606SOL    HW228455   0.328   3.131   7.077 -0.3336 -1.2707  3.0987
 5607SOL     OW28456   2.612   2.950   4.733 -0.2643 -0.2516  0.6248
 5607SOL    HW128457   2.701   2.980   4.712 -0.0578 -1.5271 -0.3119
 5607SOL    HW228458   2.582   3.019   4.793 -0.8625 -0.6016  0.7210
 5608SOL     OW28459   0.809   0.563   7.266 -0.4985 -0.5574  0.3676
 5608SOL    HW128460   0.802   0.635   7.329  1.4461 -0.6320  0.6755
 5608SOL    HW228461   0.810   0.619   7.189 -0.5986  1.0465  1.5383
 5609SOL     OW28462   2.321   2.588   2.225 -0.6360 -0.1491 -0.4164
 5609SOL    HW128463   2.362   2.514   2.180 -2.5961 -1.6786  0.3499
 5609SOL    HW228464   2.237   2.550   2.251 -1.1463  0.9163 -0.5132
 5610SOL     OW28465   4.574   1.643   7.202 -0.2193 -0.6138 -0.2672
 5610SOL    HW128466   4.640   1.664   7.269 -0.5800 -3.8289  1.1172
 5610SOL    HW228467   4.628   1.605   7.133  1.4063 -1.6031  1.5246
 5611SOL     OW28468   2.935   1.361  11.202  0.3275  0.2887  0.3927
 5611SOL    HW128469   2.994   1.301  11.155  0.0419  0.9025 -0.7490
 5611SOL    HW228470   2.931   1.315  11.286  0.3830  0.1351  0.3119
 5612SOL     OW28471   1.708   2.807  16.648  0.0085  0.0151  0.0808
 5612SOL    HW128472   1.761   2.729  16.664  1.0372  0.5806 -0.5558
 5612SOL    HW228473   1.745   2.863  16.716  2.6258  0.2489 -1.5359
 5613SOL     OW28474   3.195   1.581   8.278  0.5558 -0.3457  0.7177
 5613SOL    HW128475   3.177   1.669   8.310 -0.8570 -0.4346  0.1564
 5613SOL    HW228476   3.111   1.536   8.285 -0.8473  2.5159  1.7514
 5614SOL     OW28477   0.969   3.267  12.182  0.0955  0.1844  0.6815
 5614SOL    HW128478   0.997   3.176  12.183 -0.4815  0.0009 -1.2032
 5614SOL    HW228479   0.974   3.277  12.087 -0.6277  1.4086  0.7655
 5615SOL     OW28480   3.430   4.716   9.726  0.2926 -0.0943 -0.0073
 5615SOL    HW128481   3.366   4.655   9.690  0.2706 -0.6798  1.0274
 5615SOL    HW228482   3.392   0.065   9.715  2.6959  1.0533  0.6073
 5616SOL     OW28483   2.466   1.429   8.371  0.4072 -0.3526  0.8241
 5616SOL    HW128484   2.378   1.447   8.339  1.8146  1.0712 -2.2896
 5616SOL    HW228485   2.522   1.384   8.307  1.5916  2.3725 -0.0917
 5617SOL     OW28486   4.164   2.740  15.741 -0.1349  0.5493 -0.4332
 5617SOL    HW128487   4.187   2.832  15.738 -2.4293  1.1698  1.2560
 5617SOL    HW228488   4.159   2.718  15.834  2.1334  2.2648  0.0993
 5618SOL     OW28489   0.920   4.110   2.892  0.5320 -0.2856 -0.0639
 5618SOL    HW128490   1.011   4.112   2.863  0.5002 -0.5579 -0.1720
 5618SOL    HW228491   0.886   4.052   2.824  0.6510 -0.5495  0.1034
 5619SOL     OW28492   2.670   1.397  11.741 -0.7402  0.3384 -0.2150
 5619SOL    HW128493   2.655   1.353  11.825 -0.5009  0.5930 -0.0365
 5619SOL    HW228494   2.728   1.339  11.692 -0.5007 -0.1654  0.6590
 5620SOL     OW28495   1.913   3.607   4.394 -0.7321 -0.1274  0.4717
 5620SOL    HW128496   1.852   3.559   4.338 -1.2191  2.3152 -1.1252
 5620SOL    HW228497   1.920   3.542   4.463  1.8309  0.3919  0.6919
 5621SOL     OW28498   0.756   3.032   2.552 -0.0933 -0.0796  0.4326
 5621SOL    HW128499   0.834   3.017   2.606  0.1946 -0.2868 -0.0382
 5621SOL    HW228500   0.759   2.948   2.506  0.6092  0.6084 -0.7833
 5622SOL     OW28501   1.788   4.361  16.795 -0.4475 -0.0677  0.3796
 5622SOL    HW128502   1.823   4.302  16.862 -0.8872 -1.0679 -0.2741
 5622SOL    HW228503   1.746   4.301  16.733 -1.8653 -0.4892  1.7492
 5623SOL     OW28504   4.364   1.205   6.849  0.6437  0.1173 -0.4324
 5623SOL    HW128505   4.367   1.288   6.896 -1.2337  1.1744 -2.1502
 5623SOL    HW228506   4.269   1.198   6.839  0.6738 -3.4930  2.1262
 5624SOL     OW28507   2.436   4.313   2.792 -0.2683  0.1575  0.3204
 5624SOL    HW128508   2.428   4.402   2.758  1.2069  0.1919  0.0592
 5624SOL    HW228509   2.454   4.270   2.708  0.6942  1.2404 -0.0382
 5625SOL     OW28510   0.572   1.748   8.631 -0.4530  0.2948 -0.0004
 5625SOL    HW128511   0.481   1.770   8.614 -1.4177 -0.3129  4.3305
 5625SOL    HW228512   0.569   1.743   8.726 -2.3716  0.6435 -0.0449
 5626SOL     OW28513   2.989   1.281   3.620  0.4089 -0.0269 -0.1164
 5626SOL    HW128514   2.919   1.216   3.614  2.2274 -1.7173 -2.8955
 5626SOL    HW228515   3.031   1.268   3.536 -0.3924  2.0969 -0.8568
 5627SOL     OW28516   2.862   0.757  10.187 -0.5728  0.3929  0.3470
 5627SOL    HW128517   2.794   0.823  10.173 -0.6679  0.1422 -0.4136
 5627SOL    HW228518   2.830   0.693  10.123  2.0180 -0.7706  0.1768
 5628SOL     OW28519   2.882   4.265   3.727 -0.0042 -0.2336  0.2970
 5628SOL    HW128520   2.834   4.185   3.706  0.8544 -0.4471 -0.8941
 5628SOL    HW228521   2.842   4.287   3.811 -2.3014 -3.1697 -0.0248
 5629SOL     OW28522   1.823   3.284   4.665  0.3976  0.4003 -0.0516
 5629SOL    HW128523   1.881   3.350   4.627  3.3535 -2.2697 -0.2043
 5629SOL    HW228524   1.886   3.220   4.698  0.3873 -0.4310 -1.6283
 5630SOL     OW28525   2.352   2.444   6.386  0.1820 -0.2143  0.2993
 5630SOL    HW128526   2.342   2.353   6.356  1.6135 -0.1425 -0.4107
 5630SOL    HW228527   2.261   2.475   6.388  0.0734 -0.3361 -2.6751
 5631SOL     OW28528   2.201   2.158   2.306 -0.5440  0.5151  0.3688
 5631SOL    HW128529   2.161   2.167   2.220  2.1713 -1.8581 -1.1544
 5631SOL    HW228530   2.283   2.112   2.287 -1.7225 -1.2936 -0.3120
 5632SOL     OW28531   0.043   0.371   1.474 -0.2027 -0.0845 -0.2158
 5632SOL    HW128532   4.728   0.291   1.475 -1.1053  0.4903 -1.3838
 5632SOL    HW228533   4.718   0.438   1.500 -0.5199 -0.5827  0.2959
 5633SOL     OW28534   1.212   2.685   2.785  0.2237  0.4678  0.2472
 5633SOL    HW128535   1.136   2.630   2.763  1.3034 -0.9903  0.2060
 5633SOL    HW228536   1.227   2.653   2.874  1.6970 -0.2475 -0.2522
 5634SOL     OW28537   1.909   4.331   3.778  0.1279 -0.0714 -0.5075
 5634SOL    HW128538   1.839   4.321   3.842 -1.2704  0.0363 -2.0262
 5634SOL    HW228539   1.889   4.410   3.727  1.5622 -0.7996 -2.2053
 5635SOL     OW28540   0.802   1.965   9.340 -0.2640 -0.2167  0.2562
 5635SOL    HW128541   0.805   1.871   9.324 -2.4424 -0.1424 -0.5503
 5635SOL    HW228542   0.787   1.963   9.435  2.3925 -0.3640  0.6602
 5636SOL     OW28543   1.495   1.402   4.027  0.0600  0.5875 -0.5212
 5636SOL    HW128544   1.523   1.456   4.101  2.3952  0.6010 -1.4088
 5636SOL    HW228545   1.508   1.320   4.075  1.1364  0.9152 -0.2588
 5637SOL     OW28546   3.502   2.807   4.186  0.5214  0.5089 -0.6237
 5637SOL    HW128547   3.527   2.898   4.171  2.7840 -0.0343 -0.1161
 5637SOL    HW228548   3.465   2.790   4.100 -0.1690  0.4760 -0.3268
 5638SOL     OW28549   1.871   4.619   3.761  0.2630  0.5214  0.2149
 5638SOL    HW128550   1.946   4.677   3.775 -0.6955  2.0072 -0.7738
 5638SOL    HW228551   1.805   4.657   3.819 -1.7840 -0.4335 -1.5117
 5639SOL     OW28552   2.994   1.623   3.303  0.2784  0.1295  0.3769
 5639SOL    HW128553   2.919   1.570   3.331  1.0927 -0.6464  1.0852
 5639SOL    HW228554   2.973   1.711   3.334  0.4808  0.4533 -0.3814
 5640SOL     OW28555   2.243   0.369   4.689  0.4935  0.4729  0.7983
 5640SOL    HW128556   2.243   0.442   4.628  0.2133 -0.0580  0.1698
 5640SOL    HW228557   2.155   0.375   4.725 -0.8278 -3.3493 -1.8220
 5641SOL     OW28558   2.466   0.406  15.931 -0.8414  0.2016  0.1566
 5641SOL    HW128559   2.539   0.363  15.888 -2.0354 -0.6809 -0.9921
 5641SOL    HW228560   2.398   0.377  15.871  1.1814  0.3333 -2.1806
 5642SOL     OW28561   0.842   3.371   2.174 -0.2950  0.1697 -0.4532
 5642SOL    HW128562   0.830   3.466   2.182 -1.0249 -0.0395  0.9866
 5642SOL    HW228563   0.932   3.350   2.199 -0.0001  0.1155 -1.5746
 5643SOL     OW28564   2.713   0.736  15.713 -0.1052 -0.2696  0.2120
 5643SOL    HW128565   2.741   0.776  15.631  0.6689  2.0044  1.5592
 5643SOL    HW228566   2.763   0.655  15.708  0.2493 -0.1039  1.0028
 5644SOL     OW28567   1.741   2.619  16.008  0.3640 -0.2178 -0.0779
 5644SOL    HW128568   1.701   2.667  15.935 -1.0000 -1.3248 -0.0705
 5644SOL    HW228569   1.815   2.574  15.966  0.8134 -0.1337  0.6366
 5645SOL     OW28570   1.682   2.460   0.640 -0.0378  0.4942  0.2113
 5645SOL    HW128571   1.648   2.548   0.655 -1.4119  0.3054 -1.8191
 5645SOL    HW228572   1.638   2.439   0.558  1.4102  0.4268 -0.5493
 5646SOL     OW28573   1.818   3.253   0.006  0.2028  0.0945  0.5381
 5646SOL    HW128574   1.867   3.231   0.085  2.5581  1.6250 -0.4845
 5646SOL    HW228575   1.890   3.278  17.696  1.2161  1.3939  2.3307
 5647SOL     OW28576   1.025   1.104   5.456  0.3835  0.0107 -0.2460
 5647SOL    HW128577   1.012   1.013   5.429  0.3682 -0.8828  2.8222
 5647SOL    HW228578   1.117   1.104   5.428  0.8418  0.3937  1.2690
 5648SOL     OW28579   4.037   0.164   6.717 -0.3464  0.3031 -0.1173
 5648SOL    HW128580   4.064   0.256   6.716  3.4215 -0.7998 -1.1212
 5648SOL    HW228581   4.120   0.117   6.702  0.1569  1.1256  0.0800
 5649SOL     OW28582   2.866   0.875  14.843  0.2740  0.2259  0.0461
 5649SOL    HW128583   2.910   0.794  14.816  0.9105  0.9744 -1.1323
 5649SOL    HW228584   2.934   0.938  14.865 -1.2567  1.5193  1.0356
 5650SOL     OW28585   1.668   3.526   7.284  0.2017 -0.3022  0.2619
 5650SOL    HW128586   1.676   3.451   7.224  1.9039 -1.2538  1.7033
 5650SOL    HW228587   1.575   3.526   7.307  0.1939 -1.1776  0.2260
 5651SOL     OW28588   4.682   2.837   6.042 -0.1135 -0.1660  0.3909
 5651SOL    HW128589   4.727   2.857   5.960  1.4060 -2.2374  0.7160
 5651SOL    HW228590   4.725   2.898   6.102 -1.6289  0.2722  1.0358
 5652SOL     OW28591   2.003   2.763   5.340  0.1613 -0.1774 -0.0864
 5652SOL    HW128592   1.999   2.758   5.245  0.0393 -1.1978 -0.0267
 5652SOL    HW228593   1.999   2.859   5.340 -0.4682 -0.2122  1.1318
 5653SOL     OW28594   1.809   3.634   6.777 -0.0216 -0.1088 -0.5966
 5653SOL    HW128595   1.868   3.701   6.741 -0.2258 -1.3804 -3.2870
 5653SOL    HW228596   1.760   3.616   6.697  1.6715  0.0103 -1.6509
 5654SOL     OW28597   1.413   1.833  16.190  0.3156 -0.0288 -0.8083
 5654SOL    HW128598   1.478   1.798  16.129  1.5025 -1.7028  1.4526
 5654SOL    HW228599   1.467   1.834  16.269  0.6712  4.9741 -1.1223
 5655SOL     OW28600   4.520   0.271  17.533  0.0515 -0.1912  0.4681
 5655SOL    HW128601   4.596   0.214  17.518 -0.5584 -0.3800 -1.9910
 5655SOL    HW228602   4.483   0.265  17.445 -0.7545 -2.9447  0.9842
 5656SOL     OW28603   4.733   1.733   7.429 -0.1729  0.6161  0.2221
 5656SOL    HW128604   4.667   1.790   7.468 -0.9093 -0.3896  0.4362
 5656SOL    HW228605   0.056   1.802   7.403 -0.6302  0.7172 -0.5760
 5657SOL     OW28606   3.479   2.251   1.464 -0.2582 -0.0936 -0.1576
 5657SOL    HW128607   3.400   2.270   1.412 -0.7036  2.3466  1.3758
 5657SOL    HW228608   3.529   2.331   1.448  0.1644 -0.3706 -0.2053
 5658SOL     OW28609   1.915   0.945  10.823 -0.0518 -0.0653 -0.3658
 5658SOL    HW128610   2.007   0.918  10.826 -0.2004 -0.5376 -0.1053
 5658SOL    HW228611   1.937   1.037  10.809  1.2895 -0.0296  1.9546
 5659SOL     OW28612   1.849   4.531  13.354  0.3606  0.2516 -0.2200
 5659SOL    HW128613   1.818   4.611  13.311 -1.0675 -0.2842 -0.1973
 5659SOL    HW228614   1.769   4.482  13.372  0.9234 -0.2860  0.8149
 5660SOL     OW28615   3.597   3.211   5.462 -0.2930  0.1341 -0.4017
 5660SOL    HW128616   3.616   3.131   5.511  2.4543  0.6544 -0.6026
 5660SOL    HW228617   3.669   3.202   5.399  0.3737  1.6909  0.1631
 5661SOL     OW28618   2.557   0.663   2.614 -0.2839  0.6654 -0.1789
 5661SOL    HW128619   2.516   0.659   2.528 -0.6479  2.3741 -0.0721
 5661SOL    HW228620   2.481   0.637   2.668 -0.9819 -0.1377 -1.5410
 5662SOL     OW28621   2.562   1.789   0.977  0.2136 -0.6907  0.6604
 5662SOL    HW128622   2.571   1.855   0.908  0.5741 -0.6877  0.7108
 5662SOL    HW228623   2.635   1.832   1.020  1.4059 -1.3845 -0.6769
 5663SOL     OW28624   2.467   2.305  14.984 -0.4774  0.3581  0.2694
 5663SOL    HW128625   2.460   2.332  14.893  0.3992  1.3216  0.4908
 5663SOL    HW228626   2.432   2.383  15.026 -2.7997 -1.2974  1.4213
 5664SOL     OW28627   0.822   3.942   8.349 -0.4516 -0.0863 -0.5135
 5664SOL    HW128628   0.911   3.912   8.366 -0.5958 -0.6764 -0.7867
 5664SOL    HW228629   0.780   3.873   8.401  0.9784 -0.1762  0.5302
 5665SOL     OW28630   2.488   0.692  10.010  0.3218 -0.2213 -0.1084
 5665SOL    HW128631   2.583   0.701  10.007  0.3786 -0.3820  1.3282
 5665SOL    HW228632   2.466   0.761   9.946  0.8668  0.6581  0.6505
 5666SOL     OW28633   1.711   1.536  15.911 -0.3481  0.9434 -0.2428
 5666SOL    HW128634   1.674   1.619  15.939  0.0932  1.0832 -0.0766
 5666SOL    HW228635   1.634   1.479  15.916 -0.1009  0.5515 -0.8046
 5667SOL     OW28636   4.479   2.357   4.595 -1.0537 -0.1279 -0.0425
 5667SOL    HW128637   4.531   2.281   4.570  0.6249  1.4549 -1.3290
 5667SOL    HW228638   4.455   2.379   4.505  0.4071  2.6673  0.2568
 5668SOL     OW28639   2.845   2.209   7.120 -0.2956 -0.3190 -0.0950
 5668SOL    HW128640   2.783   2.252   7.179 -1.2296 -2.0816  0.1997
 5668SOL    HW228641   2.918   2.186   7.177 -0.0582 -1.6965 -0.9579
 5669SOL     OW28642   2.135   1.563   6.131  0.8651  0.2637 -0.3186
 5669SOL    HW128643   2.226   1.534   6.128  0.5495 -0.8497  0.9991
 5669SOL    HW228644   2.138   1.639   6.072 -0.6666  1.6451  1.3707
 5670SOL     OW28645   2.763   2.251   2.426 -0.1106  0.2272 -0.1072
 5670SOL    HW128646   2.818   2.192   2.478 -0.2247 -0.5317 -0.8496
 5670SOL    HW228647   2.758   2.188   2.354  1.2635 -0.6840  0.5913
 5671SOL     OW28648   0.512   2.051   7.807  0.2473  0.0140  0.2305
 5671SOL    HW128649   0.603   2.024   7.797 -0.6053 -3.6215  2.1720
 5671SOL    HW228650   0.482   2.041   7.717  2.0162  0.8009 -0.4289
 5672SOL     OW28651   3.099   0.511   9.543  0.2420 -0.1358 -1.0178
 5672SOL    HW128652   3.153   0.590   9.540 -1.7022  1.4356  4.4480
 5672SOL    HW228653   3.126   0.496   9.634 -0.2506 -0.6587 -0.9585
 5673SOL     OW28654   1.577   0.740  16.243 -0.1665 -0.1218  0.0150
 5673SOL    HW128655   1.547   0.793  16.169  3.1587 -1.6703 -2.3962
 5673SOL    HW228656   1.628   0.674  16.197 -0.8858 -2.4917  2.5691
 5674SOL     OW28657   0.507   3.030  17.715  0.0862 -0.1292  0.6770
 5674SOL    HW128658   0.544   2.955   0.014  0.3510 -0.2395  0.3005
 5674SOL    HW228659   0.499   3.087   0.043  1.7944  0.7887  0.1841
 5675SOL     OW28660   2.094   2.702  14.146  0.1283 -0.3775 -0.4256
 5675SOL    HW128661   2.049   2.779  14.112  0.0529 -1.1479 -2.0811
 5675SOL    HW228662   2.165   2.757  14.179  0.5211 -0.8311 -0.5021
 5676SOL     OW28663   3.686   1.642   4.579 -0.0391  0.2121  0.1385
 5676SOL    HW128664   3.674   1.736   4.596 -3.0211 -0.3407  1.0656
 5676SOL    HW228665   3.631   1.613   4.652 -0.7436 -2.0471 -1.3021
 5677SOL     OW28666   2.848   2.013   4.382  0.4184 -0.3272 -0.2712
 5677SOL    HW128667   2.891   2.094   4.408 -1.9051  0.8177  0.0308
 5677SOL    HW228668   2.912   1.952   4.420  0.5429 -1.0220 -1.6119
 5678SOL     OW28669   4.045   2.689   1.874 -0.4117  0.2750  0.2287
 5678SOL    HW128670   3.981   2.634   1.830 -0.9694  1.2132 -0.1320
 5678SOL    HW228671   4.056   2.758   1.809  0.3370 -0.1935 -0.1461
 5679SOL     OW28672   0.304   0.352  13.350  0.9980 -0.2283 -0.2551
 5679SOL    HW128673   0.328   0.404  13.274 -0.1532  2.4010  1.1905
 5679SOL    HW228674   0.337   0.401  13.425 -0.8404 -3.1570  2.4757
 5680SOL     OW28675   0.871   0.957   9.285  0.0306  0.0185 -0.3885
 5680SOL    HW128676   0.863   1.021   9.356  2.4426  0.7859 -0.7985
 5680SOL    HW228677   0.966   0.948   9.291  0.0511 -0.5078 -1.5038
 5681SOL     OW28678   3.362   1.252   8.809 -0.1343 -0.1431  0.2113
 5681SOL    HW128679   3.420   1.208   8.747  0.9634 -0.2342  1.2982
 5681SOL    HW228680   3.412   1.333   8.819  0.0946 -0.5011  1.8983
 5682SOL     OW28681   3.993   3.903   5.069 -0.1784 -0.4445  0.1708
 5682SOL    HW128682   4.079   3.931   5.038 -0.7021 -2.7008 -3.3094
 5682SOL    HW228683   3.994   3.814   5.033 -0.5416 -0.0261 -0.8898
 5683SOL     OW28684   0.051   4.660   2.744 -0.7952  0.1372  0.3814
 5683SOL    HW128685   0.122   4.694   2.690 -1.8089 -0.1451 -1.1514
 5683SOL    HW228686   0.087   4.649   2.831  1.8956  0.6524 -0.6725
 5684SOL     OW28687   2.909   3.623  14.472 -0.1746  0.2701  0.5160
 5684SOL    HW128688   2.816   3.642  14.460 -0.3586 -0.7918  0.3188
 5684SOL    HW228689   2.940   3.701  14.518  2.0030  0.1745 -0.7915
 5685SOL     OW28690   2.344   2.804   3.019  0.6171 -0.6874 -0.5497
 5685SOL    HW128691   2.267   2.838   2.974  1.1618  2.7300  1.0711
 5685SOL    HW228692   2.406   2.807   2.945  1.7996  2.2368  0.5237
 5686SOL     OW28693   4.105   2.520   6.950  0.1986 -0.1732 -0.4990
 5686SOL    HW128694   4.164   2.558   6.885  2.9383 -1.9684  0.9636
 5686SOL    HW228695   4.143   2.535   7.037 -1.3477 -4.2535  0.8664
 5687SOL     OW28696   4.022   4.399   4.784  0.4049  0.3301 -0.4890
 5687SOL    HW128697   3.927   4.394   4.792  0.4669 -0.0910 -0.0102
 5687SOL    HW228698   4.043   4.390   4.877 -1.2798  0.9948 -0.0398
 5688SOL     OW28699   2.824   1.860   7.958 -0.0083  0.3145  0.2585
 5688SOL    HW128700   2.740   1.897   7.930 -0.7794  0.4731  2.7985
 5688SOL    HW228701   2.787   1.792   8.015  2.9546 -1.1285  0.4579
 5689SOL     OW28702   4.133   1.613   9.220 -0.2506  0.3004  0.2077
 5689SOL    HW128703   4.193   1.686   9.205  0.6366 -0.3595  0.6169
 5689SOL    HW228704   4.077   1.655   9.285  1.4979  0.4268  1.6267
 5690SOL     OW28705   3.452   0.097   6.097 -0.4604  0.2330 -0.2212
 5690SOL    HW128706   3.445   0.167   6.162  0.6998 -0.7953  0.9954
 5690SOL    HW228707   3.466   0.018   6.149 -3.8390 -0.2638 -0.0600
 5691SOL     OW28708   3.036   4.456   5.624  0.1895 -0.0581 -0.4602
 5691SOL    HW128709   3.004   4.442   5.713  1.9249 -0.4574  0.1144
 5691SOL    HW228710   3.104   4.390   5.610 -0.4613 -1.0044  0.8328
 5692SOL     OW28711   4.326   0.339   1.210 -0.2827 -0.0544 -0.1351
 5692SOL    HW128712   4.245   0.356   1.161 -0.8870 -2.5034 -0.0305
 5692SOL    HW228713   4.393   0.351   1.142  0.4007  0.1804  0.5790
 5693SOL     OW28714   4.204   4.286   2.630 -0.2085  0.0097 -0.6357
 5693SOL    HW128715   4.252   4.361   2.594  0.3598 -1.1087 -2.1872
 5693SOL    HW228716   4.245   4.264   2.714  2.5263 -0.8098 -2.2312
 5694SOL     OW28717   2.334   0.881   2.816 -0.3276 -0.0765  0.1099
 5694SOL    HW128718   2.402   0.820   2.844 -1.4178 -1.3531 -0.0221
 5694SOL    HW228719   2.386   0.961   2.823  1.4721 -1.4299  2.1595
 5695SOL     OW28720   1.800   1.448   4.832  0.1855 -0.6774 -0.5097
 5695SOL    HW128721   1.872   1.481   4.778  0.6845  2.2766  2.0160
 5695SOL    HW228722   1.824   1.355   4.834 -0.4803 -0.8532 -0.5604
 5696SOL     OW28723   3.315   3.848   4.053  0.2961  0.1852  0.7287
 5696SOL    HW128724   3.226   3.814   4.044  0.3938  0.2089 -0.2706
 5696SOL    HW228725   3.351   3.840   3.965 -1.9260  2.3797 -0.4036
 5697SOL     OW28726   0.063   0.119   0.637  0.6827 -0.1745  0.5826
 5697SOL    HW128727   0.148   0.160   0.654  0.5069  0.8529 -1.1106
 5697SOL    HW228728   0.003   0.193   0.639  0.9514  0.1588 -3.3207
 5698SOL     OW28729   3.893   1.912  15.363 -0.4206 -0.4659 -0.0382
 5698SOL    HW128730   3.957   1.844  15.387  0.4966  0.4716  0.1557
 5698SOL    HW228731   3.928   1.955  15.285 -4.1302 -0.3095 -1.6118
 5699SOL     OW28732   2.108   2.651  15.196  0.3888  0.3946 -0.1583
 5699SOL    HW128733   2.021   2.612  15.181  1.0266 -0.0645 -2.7853
 5699SOL    HW228734   2.106   2.667  15.290  0.8849 -2.4365  0.3252
 5700SOL     OW28735   1.312   0.318  12.132  0.3753 -0.8773  0.5678
 5700SOL    HW128736   1.383   0.268  12.093 -0.4889 -2.4307  1.0012
 5700SOL    HW228737   1.240   0.257  12.147  0.8296 -1.4932  0.2041
 5701SOL     OW28738   4.124   2.332   2.873  0.0125 -0.0703  0.1958
 5701SOL    HW128739   4.056   2.267   2.859 -1.9661  1.9556  0.4264
 5701SOL    HW228740   4.175   2.310   2.794  2.2663  2.3445  0.9867
 5702SOL     OW28741   0.050   0.505   5.871 -0.4006  0.1819  0.0536
 5702SOL    HW128742   4.701   0.546   5.876 -0.5933 -0.2715  0.4001
 5702SOL    HW228743   0.096   0.553   5.940 -0.5595 -0.3525  0.5374
 5703SOL     OW28744   3.769   2.148   9.712 -0.5482 -0.4518  0.5290
 5703SOL    HW128745   3.702   2.147   9.644 -1.5505  2.6063  1.4369
 5703SOL    HW228746   3.792   2.057   9.731  1.1266 -0.0666  0.3827
 5704SOL     OW28747   4.385   4.558   4.900  0.0543 -0.4615  0.2696
 5704SOL    HW128748   4.404   4.566   4.807  0.1801  3.7298  0.6633
 5704SOL    HW228749   4.306   4.609   4.914  0.0397 -1.1962  2.8280
 5705SOL     OW28750   0.940   3.248   5.125  0.0112  0.3724 -0.3908
 5705SOL    HW128751   0.884   3.312   5.170 -1.0054 -1.0551  0.3534
 5705SOL    HW228752   0.987   3.309   5.067 -2.3787  0.4080 -2.2790
 5706SOL     OW28753   1.617   0.951   8.363 -0.0180 -0.4306  0.2443
 5706SOL    HW128754   1.587   0.917   8.278  1.4147 -0.3929 -0.2926
 5706SOL    HW228755   1.711   0.944   8.345 -0.9246 -3.9118 -3.2031
 5707SOL     OW28756   3.145   3.348  13.180 -0.1781  0.0076 -0.7310
 5707SOL    HW128757   3.104   3.285  13.121 -0.9715 -1.5814  1.5536
 5707SOL    HW228758   3.171   3.290  13.251 -1.1568 -3.0857 -2.9026
 5708SOL     OW28759   4.635   1.564  15.554 -0.3623 -0.7048 -0.1875
 5708SOL    HW128760   4.584   1.600  15.482 -0.2683  0.9267  0.5724
 5708SOL    HW228761   4.711   1.539  15.500  1.0475  0.7629  1.1240
 5709SOL     OW28762   4.376   0.510  13.297  0.0844 -0.1587  0.2795
 5709SOL    HW128763   4.436   0.584  13.307 -1.6876  1.7690 -3.3760
 5709SOL    HW228764   4.316   0.528  13.369  0.3393 -0.2834  0.5209
 5710SOL     OW28765   0.062   1.873   2.099 -0.3938  0.2076 -0.5637
 5710SOL    HW128766   4.710   1.845   2.116 -0.2024  0.5751  1.0020
 5710SOL    HW228767   0.115   1.827   2.164 -0.6662  0.2866 -0.2889
 5711SOL     OW28768   3.363   3.894   1.423 -0.1991 -0.6886  0.0545
 5711SOL    HW128769   3.271   3.904   1.399 -0.1552 -0.1549  0.1139
 5711SOL    HW228770   3.413   3.873   1.344 -0.6433  0.3573 -0.5069
 5712SOL     OW28771   1.896   0.473   2.815 -0.0791  0.3895  0.0349
 5712SOL    HW128772   1.961   0.500   2.879  0.6874 -2.1208  0.2945
 5712SOL    HW228773   1.837   0.547   2.832 -2.0895 -0.9660 -1.0580
 5713SOL     OW28774   3.135   0.857   3.028 -0.1825 -0.0688 -0.2742
 5713SOL    HW128775   3.165   0.941   3.063 -1.1211  0.3440 -0.4528
 5713SOL    HW228776   3.103   0.887   2.942  1.1099  0.8956 -0.4269
 5714SOL     OW28777   3.193   1.700   2.517 -0.1528 -0.4990 -0.3300
 5714SOL    HW128778   3.209   1.637   2.587  0.0686 -0.2279 -0.1411
 5714SOL    HW228779   3.277   1.737   2.492 -1.0294  2.1185  0.6069
 5715SOL     OW28780   0.168   4.371  15.534  0.0014  0.7047  0.6831
 5715SOL    HW128781   0.194   4.444  15.477 -2.3285 -0.5566 -1.9867
 5715SOL    HW228782   0.086   4.407  15.570 -1.9767  0.6652 -3.7426
 5716SOL     OW28783   4.519   4.658   5.673  0.2733 -0.3590  0.2215
 5716SOL    HW128784   4.473   4.703   5.602  0.5415  1.2123  1.0378
 5716SOL    HW228785   4.474   4.574   5.666  1.7859 -1.0178 -1.7123
 5717SOL     OW28786   3.202   2.081  15.976  0.1225  0.2992  0.0895
 5717SOL    HW128787   3.264   2.020  15.937 -0.9272 -0.8957  0.2686
 5717SOL    HW228788   3.153   2.024  16.036  0.0811  0.1263 -0.1110
 5718SOL     OW28789   0.328   3.103  14.318 -0.6323 -0.5430 -0.0448
 5718SOL    HW128790   0.388   3.072  14.386  0.5634  3.8758  0.8586
 5718SOL    HW228791   0.371   3.063  14.242  3.4778 -0.7891  2.4255
 5719SOL     OW28792   3.092   1.500  12.315  0.4622 -0.0756  0.3985
 5719SOL    HW128793   3.086   1.584  12.359  0.3084  0.4003 -0.5400
 5719SOL    HW228794   3.076   1.525  12.224  0.8555  0.3973  0.4580
 5720SOL     OW28795   4.097   1.852   9.825  0.0668 -0.1081  0.1376
 5720SOL    HW128796   4.009   1.858   9.787  1.2891  0.2526 -2.6602
 5720SOL    HW228797   4.133   1.789   9.762 -0.7350  0.7720 -1.2134
 5721SOL     OW28798   4.431   1.611   7.437  0.4430  0.0362 -0.5905
 5721SOL    HW128799   4.504   1.566   7.480  0.4257 -0.0396 -0.6399
 5721SOL    HW228800   4.480   1.632   7.357  2.4722  0.1771  0.6989
 5722SOL     OW28801   0.671   0.242   8.808  0.4503 -0.4424 -0.2746
 5722SOL    HW128802   0.725   0.312   8.771  0.7532  0.9301  2.7822
 5722SOL    HW228803   0.583   0.274   8.789  0.8933  0.8877 -0.1332
 5723SOL     OW28804   1.916   0.435  16.372 -0.0747  0.6738 -0.1307
 5723SOL    HW128805   1.989   0.375  16.383 -1.1881 -0.7569 -0.4958
 5723SOL    HW228806   1.915   0.505  16.437  2.1003 -0.2747  0.9098
 5724SOL     OW28807   4.381   2.951  10.808  0.4682  0.2203 -0.2236
 5724SOL    HW128808   4.377   2.855  10.812  0.6907  0.2006 -0.4817
 5724SOL    HW228809   4.442   2.967  10.880  1.5208 -2.8483 -0.4393
 5725SOL     OW28810   2.244   0.143   4.382 -0.0933 -0.8942  0.2979
 5725SOL    HW128811   2.286   0.202   4.319 -1.2115 -0.5644 -0.1444
 5725SOL    HW228812   2.236   0.202   4.456 -0.8046 -1.5720  0.7545
 5726SOL     OW28813   4.507   0.577  12.707 -0.0580 -0.1676  0.4438
 5726SOL    HW128814   4.540   0.658  12.747  0.2502 -0.4923  0.8421
 5726SOL    HW228815   4.505   0.597  12.613  0.3884 -2.9315 -0.1485
 5727SOL     OW28816   0.327   1.207   9.026  0.1713 -0.1331  0.0717
 5727SOL    HW128817   0.400   1.146   9.020  0.8888  0.8447 -1.1823
 5727SOL    HW228818   0.340   1.261   8.948 -3.1220  0.9185  0.2539
 5728SOL     OW28819   0.518   2.883   7.001  0.9785  0.0689 -0.2193
 5728SOL    HW128820   0.441   2.832   6.975  0.3195  0.4745  0.9398
 5728SOL    HW228821   0.569   2.815   7.044  2.0253  1.4011  0.6173
 5729SOL     OW28822   0.058   0.122  12.979 -0.0638  0.0126 -0.0091
 5729SOL    HW128823   4.713   0.168  12.998  0.3394  0.9008 -0.4110
 5729SOL    HW228824   0.113   0.197  12.956  0.1375  0.0507  0.5968
 5730SOL     OW28825   4.303   3.403  10.304  0.0965 -0.5730  0.1632
 5730SOL    HW128826   4.264   3.486  10.280  0.3348 -0.3652  0.4968
 5730SOL    HW228827   4.329   3.362  10.221 -0.7020 -1.6184  0.4386
 5731SOL     OW28828   0.011   0.877  16.927  0.3403  0.5565 -0.1370
 5731SOL    HW128829   4.662   0.872  16.966  0.7818 -0.5200  0.7150
 5731SOL    HW228830   0.080   0.865  16.993  0.5670  0.1562 -0.4413
 5732SOL     OW28831   2.130   0.535   8.854  0.0380  0.3904  0.7488
 5732SOL    HW128832   2.179   0.473   8.800 -0.8794 -1.7207  2.3799
 5732SOL    HW228833   2.181   0.540   8.935 -1.3490 -2.0064  1.7756
 5733SOL     OW28834   4.539   2.318  11.033 -0.5027 -0.4866 -0.8038
 5733SOL    HW128835   4.458   2.314  11.083 -0.1981 -1.2377 -0.3771
 5733SOL    HW228836   4.527   2.386  10.966 -1.8663 -0.4061 -0.4740
 5734SOL     OW28837   2.273   2.482  12.070  0.3485  0.1462  0.0373
 5734SOL    HW128838   2.290   2.404  12.123 -0.2649 -0.5003 -0.7311
 5734SOL    HW228839   2.183   2.503  12.094  0.5335  1.2524 -0.2075
 5735SOL     OW28840   4.307   4.421   5.640  0.3493 -0.3977 -0.4092
 5735SOL    HW128841   4.319   4.396   5.732 -0.7755  3.5642  0.8484
 5735SOL    HW228842   4.288   4.335   5.603 -0.8983 -0.2520 -0.0959
 5736SOL     OW28843   4.330   1.551  10.237 -0.2178  0.7524  0.3379
 5736SOL    HW128844   4.409   1.498  10.247 -0.8068 -0.1322  0.3109
 5736SOL    HW228845   4.292   1.508  10.160  2.1013  0.0632 -0.4075
 5737SOL     OW28846   3.994   3.002  10.702 -0.5871  0.2544 -0.2448
 5737SOL    HW128847   4.016   2.914  10.672  0.0368  0.0547  0.8148
 5737SOL    HW228848   3.940   3.032  10.629  0.6591 -2.7241 -2.4156
 5738SOL     OW28849   4.119   1.589  13.882  0.3231  0.0501 -0.0342
 5738SOL    HW128850   4.078   1.598  13.968  2.8049  0.2043  1.1567
 5738SOL    HW228851   4.047   1.605  13.822  1.9481  0.5550 -1.8381
 5739SOL     OW28852   3.843   3.454  10.135  0.2332 -0.3293  0.0989
 5739SOL    HW128853   3.821   3.451  10.228  0.2700 -0.0323  0.1176
 5739SOL    HW228854   3.848   3.548  10.121  2.1400 -0.4708 -0.0884
 5740SOL     OW28855   2.650   4.252  13.232  0.9379 -0.0350 -0.2384
 5740SOL    HW128856   2.658   4.326  13.292 -3.9131  0.3079 -0.0395
 5740SOL    HW228857   2.603   4.273  13.152  0.7855 -1.0418 -0.4190
 5741SOL     OW28858   0.293   0.349   4.120 -0.5867  0.7765  0.0176
 5741SOL    HW128859   0.254   0.292   4.054  0.4002  0.3338 -0.1882
 5741SOL    HW228860   0.307   0.282   4.186  2.8985  1.4349 -0.0731
 5742SOL     OW28861   0.135   0.900  13.069 -0.5359 -0.1570 -0.1208
 5742SOL    HW128862   0.082   0.860  13.137  0.7327 -0.4415  0.6923
 5742SOL    HW228863   0.141   0.993  13.092  0.0083  0.1008 -1.3041
 5743SOL     OW28864   1.898   3.586   2.850  0.0640  0.0824 -0.2218
 5743SOL    HW128865   1.993   3.593   2.864  0.1366  2.2142 -1.7155
 5743SOL    HW228866   1.886   3.649   2.779 -3.6724  0.8381  1.1242
 5744SOL     OW28867   2.721   1.317  15.667  0.3197 -0.1459  0.1692
 5744SOL    HW128868   2.696   1.262  15.592  1.3795  2.7846 -2.3542
 5744SOL    HW228869   2.635   1.315  15.708  1.5343 -3.0389  2.5797
 5745SOL     OW28870   2.306   2.012   1.163 -0.6504  0.2238 -0.7970
 5745SOL    HW128871   2.265   2.054   1.239 -1.7217 -0.3169 -1.0819
 5745SOL    HW228872   2.317   2.089   1.107  0.1810 -0.7761 -2.0162
 5746SOL     OW28873   0.629   4.086   5.409  0.0562  0.4396  0.3908
 5746SOL    HW128874   0.683   4.026   5.357  1.6406  2.3117 -0.1459
 5746SOL    HW228875   0.543   4.083   5.367  0.2761  0.0742 -0.0299
 5747SOL     OW28876   1.853   1.751   5.447  0.2319 -0.5378  0.2288
 5747SOL    HW128877   1.833   1.811   5.519  2.2004 -0.1333  0.4529
 5747SOL    HW228878   1.871   1.809   5.373  0.2349  1.7033  1.9962
 5748SOL     OW28879   0.113   3.647   4.672  0.5204 -0.0712 -0.3567
 5748SOL    HW128880   0.187   3.595   4.640  0.2417  0.3494 -1.7079
 5748SOL    HW228881   0.051   3.574   4.666  0.1606  0.1179  0.9980
 5749SOL     OW28882   1.820   2.596   2.208  0.8359  0.0548  0.0379
 5749SOL    HW128883   1.765   2.606   2.130 -0.0004  1.5522  0.8219
 5749SOL    HW228884   1.758   2.599   2.280 -0.8910 -0.4124 -1.4299
 5750SOL     OW28885   3.222   4.650   7.410 -0.0034  0.1540  0.0400
 5750SOL    HW128886   3.163   4.646   7.486 -3.3602 -0.0418 -2.5942
 5750SOL    HW228887   3.277   4.726   7.428  1.6980 -0.6467 -1.7726
 5751SOL     OW28888   0.408   2.027   7.260  0.4089  0.2321  0.1132
 5751SOL    HW128889   0.402   2.111   7.214  0.0029  0.3971  0.4822
 5751SOL    HW228890   0.358   1.971   7.201  0.6090 -0.1146  0.2725
 5752SOL     OW28891   1.972   1.871   7.320  0.5463 -0.1538  0.3290
 5752SOL    HW128892   2.024   1.836   7.248  2.4987 -0.5647  1.9655
 5752SOL    HW228893   1.914   1.933   7.276 -0.0463 -1.1673 -0.3194
 5753SOL     OW28894   2.835   3.788   0.282  0.0455  0.0615 -0.5458
 5753SOL    HW128895   2.764   3.817   0.339  1.0651  0.9036  0.2998
 5753SOL    HW228896   2.857   3.868   0.236  0.7498  0.9608  1.3282
 5754SOL     OW28897   2.279   0.844   0.808  0.0224 -0.6594  0.2384
 5754SOL    HW128898   2.280   0.796   0.726  1.1483  0.6727 -0.5213
 5754SOL    HW228899   2.371   0.845   0.834  0.7481 -1.3566 -2.3390
 5755SOL     OW28900   2.825   4.435  14.384 -0.5708 -0.1091  0.0223
 5755SOL    HW128901   2.799   4.349  14.417 -0.4200 -0.7152 -1.4630
 5755SOL    HW228902   2.916   4.421  14.359 -0.0984  1.0482  1.0513
 5756SOL     OW28903   0.817   0.285   7.940 -0.3213 -0.3774 -0.2537
 5756SOL    HW128904   0.903   0.290   7.983 -1.0953  1.3628  1.1092
 5756SOL    HW228905   0.770   0.332   8.009  0.8383 -1.1257  1.0410
 5757SOL     OW28906   4.493   0.991   2.164 -0.3908  0.6316  0.5863
 5757SOL    HW128907   4.562   0.924   2.169 -1.7670 -0.6986  1.9277
 5757SOL    HW228908   4.420   0.929   2.161  0.8036 -0.9546  3.7697
 5758SOL     OW28909   3.024   4.025   6.510  0.1588  0.4846  0.2991
 5758SOL    HW128910   3.003   3.980   6.592 -1.5201  1.7657  0.5738
 5758SOL    HW228911   3.043   4.114   6.539  1.9054 -0.2262  1.3117
 5759SOL     OW28912   0.711   1.770   7.958 -0.3598  0.4775  0.0332
 5759SOL    HW128913   0.726   1.799   7.868 -2.0113 -1.8029 -0.9631
 5759SOL    HW228914   0.785   1.814   8.000  0.5372  1.0187 -2.1011
 5760SOL     OW28915   2.654   1.543   7.638  0.5522 -0.1493  0.5987
 5760SOL    HW128916   2.686   1.590   7.715 -0.1835  0.8731  0.2853
 5760SOL    HW228917   2.605   1.615   7.597  1.7132  0.3340  0.0655
 5761SOL     OW28918   3.188   2.078   0.975 -0.3179 -0.2282 -0.1159
 5761SOL    HW128919   3.122   2.040   0.917 -0.9281 -1.1585  1.1803
 5761SOL    HW228920   3.131   2.106   1.047  0.9099  0.9920  0.3860
 5762SOL     OW28921   2.064   4.226  16.513 -0.0292  0.2884  0.8531
 5762SOL    HW128922   1.983   4.250  16.468 -0.1738 -1.4036  0.2236
 5762SOL    HW228923   2.089   4.146  16.467  0.1025  1.6982 -1.5174
 5763SOL     OW28924   1.209   0.216   5.716 -0.0462  0.0511  0.0537
 5763SOL    HW128925   1.136   0.220   5.778  0.0301  2.8564 -0.0744
 5763SOL    HW228926   1.212   0.120   5.715 -0.9430  0.0305 -0.4077
 5764SOL     OW28927   4.322   0.391   3.604 -0.7014 -0.2380  0.1576
 5764SOL    HW128928   4.403   0.434   3.632  0.4859 -1.3389 -1.5339
 5764SOL    HW228929   4.270   0.464   3.570  0.0816  0.3586  0.2551
 5765SOL     OW28930   1.748   2.370  13.608 -0.1939  0.5259  0.2931
 5765SOL    HW128931   1.814   2.439  13.604 -0.2889  0.7083  1.9974
 5765SOL    HW228932   1.701   2.373  13.524  1.2364  0.8498 -0.4968
 5766SOL     OW28933   3.119   2.299  12.510 -0.4909  0.1712  0.1208
 5766SOL    HW128934   3.088   2.389  12.497 -0.0255  0.1128 -1.4653
 5766SOL    HW228935   3.058   2.262  12.573 -0.2980 -2.2040 -1.0888
 5767SOL     OW28936   1.126   1.690  11.797 -0.6729  0.5339 -0.5607
 5767SOL    HW128937   1.171   1.746  11.860 -1.3657  0.5069 -0.0392
 5767SOL    HW228938   1.069   1.629  11.844 -0.0473  0.4728  0.1079
 5768SOL     OW28939   2.757   0.782   8.803 -0.2915 -0.1063  0.8831
 5768SOL    HW128940   2.829   0.843   8.787  0.5865 -1.1864  0.7030
 5768SOL    HW228941   2.708   0.790   8.721  0.5463  2.5760  0.6411
 5769SOL     OW28942   3.528   0.115   2.648  0.2549  1.1833 -0.2569
 5769SOL    HW128943   3.577   0.035   2.669 -1.5444  0.2256  0.3445
 5769SOL    HW228944   3.470   0.082   2.580  1.1570 -1.3358  0.1944
 5770SOL     OW28945   1.761   4.638   9.857 -0.2223  0.3774  0.3786
 5770SOL    HW128946   1.830   4.695   9.823  0.1017 -0.5766 -0.5369
 5770SOL    HW228947   1.808   4.561   9.889  2.3200  2.4384  1.5571
 5771SOL     OW28948   3.503   4.325   2.820 -0.0761  0.3364 -0.2733
 5771SOL    HW128949   3.433   4.372   2.775  1.8181 -0.1075 -3.6902
 5771SOL    HW228950   3.575   4.386   2.806  1.2172 -1.0437  0.3270
 5772SOL     OW28951   4.545   3.400   3.842  0.0863  0.0961  0.2547
 5772SOL    HW128952   4.596   3.442   3.911 -0.3688  3.3659 -1.3852
 5772SOL    HW228953   4.501   3.328   3.887  0.2337 -1.1874 -1.6529
 5773SOL     OW28954   0.698   1.687   5.212  0.3924 -0.9409 -0.1807
 5773SOL    HW128955   0.689   1.726   5.125 -0.5191  0.3992  0.5298
 5773SOL    HW228956   0.612   1.649   5.227  0.6307 -0.9987  1.0247
 5774SOL     OW28957   2.619   1.470   2.245  0.2494  0.1458 -0.1976
 5774SOL    HW128958   2.588   1.384   2.273  0.2520  0.0713 -0.4235
 5774SOL    HW228959   2.545   1.521   2.278  0.8341  1.4120 -0.8402
 5775SOL     OW28960   2.227   1.262  11.624  0.1933 -0.4460 -0.2220
 5775SOL    HW128961   2.290   1.329  11.598  0.3259 -1.6952 -3.0562
 5775SOL    HW228962   2.146   1.277  11.575 -0.0342  0.0616  0.3057
 5776SOL     OW28963   4.106   3.978  15.925  0.2456  0.6564  0.0821
 5776SOL    HW128964   4.020   3.945  15.901  0.5677  0.8479 -1.3326
 5776SOL    HW228965   4.121   3.952  16.016 -1.3555 -1.1771 -0.1902
 5777SOL     OW28966   3.264   1.722  14.110 -0.3012  0.0531  0.6492
 5777SOL    HW128967   3.298   1.801  14.068  0.3531 -0.8955 -0.5629
 5777SOL    HW228968   3.220   1.755  14.189  0.1302 -1.8984  1.7024
 5778SOL     OW28969   1.059   2.685  11.072 -0.1676 -0.4198  0.0243
 5778SOL    HW128970   1.057   2.626  11.148 -2.0035 -0.7603 -0.2932
 5778SOL    HW228971   0.964   2.697  11.077 -0.0206  0.9477 -0.5917
 5779SOL     OW28972   3.189   1.253  13.215  0.2329 -0.1684  0.1595
 5779SOL    HW128973   3.238   1.306  13.279 -0.0198  1.0455 -0.6426
 5779SOL    HW228974   3.267   1.227  13.167 -1.1180 -1.8526 -1.1092
 5780SOL     OW28975   2.151   1.734   7.139  0.5859 -0.3677  0.2667
 5780SOL    HW128976   2.090   1.701   7.073 -0.3782  2.7985 -0.4180
 5780SOL    HW228977   2.197   1.654   7.164  0.1832 -0.7455 -0.2046
 5781SOL     OW28978   1.165   2.982   9.603  0.1980  0.3596  0.3843
 5781SOL    HW128979   1.191   2.961   9.693  0.9773  0.6629  0.2381
 5781SOL    HW228980   1.174   3.078   9.605  1.4628  0.2103  1.9962
 5782SOL     OW28981   2.126   0.679   9.235 -0.1574 -0.4595 -0.4306
 5782SOL    HW128982   2.126   0.773   9.220  1.2201 -0.7058 -1.8786
 5782SOL    HW228983   2.200   0.650   9.183 -0.9998 -0.4021 -1.6667
 5783SOL     OW28984   1.847   1.443   5.232  0.3743 -0.1918  0.5110
 5783SOL    HW128985   1.937   1.462   5.257  0.1933  1.2971  0.0374
 5783SOL    HW228986   1.823   1.526   5.190  0.1724  1.0031  2.9978
 5784SOL     OW28987   2.972   0.718   5.796  0.0621 -0.2174 -0.3595
 5784SOL    HW128988   2.926   0.802   5.802 -0.6872 -0.5906 -0.8256
 5784SOL    HW228989   2.910   0.657   5.756  1.0616 -0.0680 -2.1489
 5785SOL     OW28990   0.786   0.659   9.548  0.1764 -0.4353  0.2947
 5785SOL    HW128991   0.744   0.587   9.501 -1.3266  0.2172  0.6146
 5785SOL    HW228992   0.841   0.616   9.613  1.2812  2.3122  1.2095
 5786SOL     OW28993   4.303   0.594   8.132  0.3682 -0.4149  0.1073
 5786SOL    HW128994   4.306   0.600   8.037  0.1924 -1.4802  0.0333
 5786SOL    HW228995   4.320   0.686   8.152  1.0216 -0.5210  0.0216
 5787SOL     OW28996   3.411   1.931   6.107  0.1109 -0.1592  0.1942
 5787SOL    HW128997   3.402   2.026   6.114  4.1509  0.1720  0.9713
 5787SOL    HW228998   3.339   1.918   6.046 -1.7347 -1.0547  2.5572
 5788SOL     OW28999   4.403   3.209   1.444  0.1471  0.7029  0.3035
 5788SOL    HW129000   4.438   3.289   1.482  3.1627  0.1887 -1.3964
 5788SOL    HW229001   4.461   3.194   1.369  0.4248 -0.3493  0.7260
 5789SOL     OW29002   2.047   4.604   3.435  0.3711  0.9330  0.3045
 5789SOL    HW129003   2.040   4.649   3.519  1.1064 -1.7486  1.8162
 5789SOL    HW229004   1.961   4.633   3.407  0.2334  0.0087 -0.2447
 5790SOL     OW29005   3.820   4.622  16.809  0.2568  0.2193 -0.2284
 5790SOL    HW129006   3.895   4.566  16.827 -0.7052 -1.5547 -1.7383
 5790SOL    HW229007   3.765   4.564  16.756  1.7884 -0.1816 -1.3844
 5791SOL     OW29008   2.338   0.389  15.591  0.1275 -0.1655  0.1996
 5791SOL    HW129009   2.268   0.436  15.637  0.9439  1.3387 -0.1138
 5791SOL    HW229010   2.329   0.301  15.629  2.0648  0.1002  1.2336
 5792SOL     OW29011   1.715   0.746   7.517  0.2668 -0.0789  0.0143
 5792SOL    HW129012   1.792   0.702   7.553  0.1868 -1.1215 -1.0888
 5792SOL    HW229013   1.660   0.670   7.498 -0.0060  0.3579 -0.9426
 5793SOL     OW29014   0.581   0.393   3.453 -0.2828 -0.6954 -0.2414
 5793SOL    HW129015   0.637   0.362   3.382 -0.2119 -0.5103 -0.2646
 5793SOL    HW229016   0.636   0.423   3.525  0.0567  0.1233 -0.8507
 5794SOL     OW29017   0.349   1.011  17.614 -0.2585  0.1425 -0.3582
 5794SOL    HW129018   0.297   0.934  17.636 -1.4992  1.1143  0.1271
 5794SOL    HW229019   0.314   1.063  17.687 -3.3485  0.7598 -2.2657
 5795SOL     OW29020   2.980   2.954   3.790  0.0997  0.0580  0.2159
 5795SOL    HW129021   3.026   3.034   3.764  0.1639 -0.3079 -0.8063
 5795SOL    HW229022   2.917   2.934   3.720  0.0148 -0.3261  0.4050
 5796SOL     OW29023   0.344   1.454   2.226  0.7377 -0.4945  0.3049
 5796SOL    HW129024   0.416   1.515   2.246 -0.1038  0.7686 -0.4953
 5796SOL    HW229025   0.380   1.416   2.145 -1.8714  0.3470 -1.2410
 5797SOL     OW29026   0.088   3.497  12.986 -0.3408 -0.2146  0.2439
 5797SOL    HW129027   0.071   3.591  12.974 -2.5683 -0.4682  1.3625
 5797SOL    HW229028   0.000   3.466  13.009 -1.6619  3.9998  0.8961
 5798SOL     OW29029   1.380   4.560   1.806 -0.1482  0.5153  0.1098
 5798SOL    HW129030   1.333   4.491   1.854 -1.8721  1.3372 -0.4017
 5798SOL    HW229031   1.457   4.576   1.860  0.5545  2.2431 -1.4134
 5799SOL     OW29032   3.918   2.762   7.550  0.2214 -0.1477 -0.4720
 5799SOL    HW129033   3.857   2.690   7.566 -1.1619  1.1956  0.3605
 5799SOL    HW229034   3.856   2.831   7.576 -0.4307 -0.8202 -0.2393
 5800SOL     OW29035   2.659   3.055   7.295  0.3923  0.3171 -0.3475
 5800SOL    HW129036   2.606   3.113   7.351  0.1227  1.0518 -1.3628
 5800SOL    HW229037   2.640   3.080   7.205  1.4138 -0.3571 -0.7422
 5801SOL     OW29038   3.890   2.916  12.916 -0.4650  0.6370 -0.4974
 5801SOL    HW129039   3.836   2.948  12.844 -0.8158  1.6858  0.2313
 5801SOL    HW229040   3.965   2.975  12.916 -0.9635  1.2711 -0.0390
 5802SOL     OW29041   4.486   0.659   2.550  0.0967 -0.4639  0.3618
 5802SOL    HW129042   4.437   0.738   2.530  4.8507  3.0319  2.4606
 5802SOL    HW229043   4.420   0.603   2.591 -0.7169  1.9559  2.3185
 5803SOL     OW29044   2.176   2.303   4.917  0.1640 -0.1288  0.2869
 5803SOL    HW129045   2.093   2.343   4.894 -0.3491 -0.7947  0.9970
 5803SOL    HW229046   2.234   2.329   4.844 -0.3728 -1.4893 -0.6184
 5804SOL     OW29047   1.055   1.549   8.711  0.1059 -0.2929  0.0944
 5804SOL    HW129048   1.025   1.581   8.626 -0.1547 -0.7667  0.0021
 5804SOL    HW229049   0.979   1.578   8.762 -1.1768 -0.8724 -1.4653
 5805SOL     OW29050   1.847   0.848   9.920 -0.0697  0.2409 -0.6110
 5805SOL    HW129051   1.867   0.836  10.013 -0.5225  1.3683 -0.3737
 5805SOL    HW229052   1.754   0.867   9.923 -0.4372 -1.6678 -0.0757
 5806SOL     OW29053   0.906   3.637   7.799  0.0361  0.5094 -0.1686
 5806SOL    HW129054   0.962   3.715   7.796 -0.5665  0.9804  0.8403
 5806SOL    HW229055   0.865   3.652   7.713  1.3472  1.3770 -0.6387
 5807SOL     OW29056   3.032   0.998  17.051  0.2173 -0.1936  0.6075
 5807SOL    HW129057   2.939   1.020  17.044  0.5456  0.6537 -1.0884
 5807SOL    HW229058   3.029   0.908  17.084  0.0676  0.1818  1.6007
 5808SOL     OW29059   2.313   1.102  10.999 -0.3244 -0.0679  0.4186
 5808SOL    HW129060   2.356   1.044  11.061 -0.9928 -1.0811 -0.0737
 5808SOL    HW229061   2.318   1.180  11.055  1.6251 -0.5158  0.8895
 5809SOL     OW29062   1.307   3.803  10.549 -0.2657  0.7013  0.4408
 5809SOL    HW129063   1.267   3.862  10.485  1.2956 -0.2702 -1.4429
 5809SOL    HW229064   1.228   3.769  10.590  0.0707 -1.3915 -0.6238
 5810SOL     OW29065   1.489   1.413  12.104 -0.4928  0.3389 -0.3480
 5810SOL    HW129066   1.411   1.359  12.094 -0.3427 -0.2677  1.8505
 5810SOL    HW229067   1.547   1.354  12.151 -1.4792  0.7690  1.3817
 5811SOL     OW29068   2.431   1.347  14.340  0.2296  0.1735 -0.3152
 5811SOL    HW129069   2.425   1.436  14.304 -0.0969 -0.2441 -1.2879
 5811SOL    HW229070   2.396   1.353  14.428  1.3956  2.2848  0.0144
 5812SOL     OW29071   0.407   2.031   2.161  0.3233  0.4604 -0.4222
 5812SOL    HW129072   0.430   1.943   2.132  1.1096  0.8837 -1.0512
 5812SOL    HW229073   0.427   2.030   2.254 -1.2406  1.8757 -0.0564
 5813SOL     OW29074   3.411   0.642  13.884 -0.3479 -0.5462  0.0790
 5813SOL    HW129075   3.373   0.703  13.821  1.3306  1.1018  0.6504
 5813SOL    HW229076   3.450   0.574  13.828  2.3877  1.6300 -0.6542
 5814SOL     OW29077   3.120   1.702   5.549 -0.3308  0.0126 -0.1561
 5814SOL    HW129078   3.182   1.774   5.563  0.1291 -0.3257 -0.4548
 5814SOL    HW229079   3.089   1.728   5.462  0.2605  2.6293  0.4316
 5815SOL     OW29080   0.898   0.381   3.702 -0.4230  0.3411  0.3755
 5815SOL    HW129081   0.927   0.452   3.645 -0.0067  0.7092  1.0605
 5815SOL    HW229082   0.811   0.414   3.723  0.0146  1.1645  0.8593
 5816SOL     OW29083   3.952   2.602  17.246 -0.5681 -0.6503  0.0482
 5816SOL    HW129084   3.983   2.551  17.321  3.0090  0.4621 -0.6719
 5816SOL    HW229085   3.858   2.585  17.245 -1.1361  2.3205  1.2326
 5817SOL     OW29086   3.691   2.510  13.640  0.1083  0.1222 -0.6470
 5817SOL    HW129087   3.634   2.491  13.714 -1.2190  1.6975 -1.2587
 5817SOL    HW229088   3.636   2.581  13.608 -1.0050 -0.8994 -0.9720
 5818SOL     OW29089   1.609   2.871   7.393  0.0103  0.0772  0.6745
 5818SOL    HW129090   1.590   2.777   7.384  0.0694  0.2969 -1.7555
 5818SOL    HW229091   1.526   2.917   7.379  0.5078  0.9134  0.5062
 5819SOL     OW29092   2.316   1.764   4.312  0.2248 -0.0735 -0.4591
 5819SOL    HW129093   2.326   1.856   4.339  0.3930 -0.0228 -0.6934
 5819SOL    HW229094   2.367   1.720   4.380  1.5443 -0.1343 -1.4894
 5820SOL     OW29095   1.025   3.066  10.275 -0.2688 -0.6006  0.2516
 5820SOL    HW129096   1.046   3.140  10.217 -1.2918 -0.2094  0.3740
 5820SOL    HW229097   1.113   3.052  10.309  0.6838  2.4778 -0.9061
 5821SOL     OW29098   3.414   0.505   7.300  0.0956 -0.1072 -0.4398
 5821SOL    HW129099   3.398   0.588   7.256 -0.2786 -0.8846 -1.7692
 5821SOL    HW229100   3.437   0.456   7.222  1.3596 -3.2403  1.8897
 5822SOL     OW29101   2.985   1.341  15.539 -0.4528  0.3198 -0.0905
 5822SOL    HW129102   2.916   1.325  15.604 -0.3869 -1.0641 -0.3672
 5822SOL    HW229103   3.037   1.261  15.537  1.6564  1.6967 -0.3287
 5823SOL     OW29104   3.632   0.942  13.251  0.3770  0.1081  0.1046
 5823SOL    HW129105   3.619   0.861  13.300  0.8469  0.2110  0.4034
 5823SOL    HW229106   3.710   0.920  13.199 -1.2527  0.7643 -2.6063
 5824SOL     OW29107   2.948   4.015  10.636 -0.3115 -0.2738 -0.0778
 5824SOL    HW129108   2.993   4.057  10.709 -1.2843 -0.9644  0.9171
 5824SOL    HW229109   2.868   3.999  10.685 -1.0803  1.6536 -0.7211
 5825SOL     OW29110   3.991   3.028  15.499 -0.2682 -0.0415  0.4196
 5825SOL    HW129111   3.932   2.984  15.560 -1.4730  1.2921  0.2174
 5825SOL    HW229112   3.987   2.986  15.413 -1.9289  0.0036  0.4704
 5826SOL     OW29113   4.203   0.768   8.894  0.2565  0.1418  0.1839
 5826SOL    HW129114   4.224   0.860   8.874 -2.1506  0.8954  1.0405
 5826SOL    HW229115   4.275   0.710   8.869  1.0415  1.0864  0.2635
 5827SOL     OW29116   0.402   2.401   3.179  0.2177 -0.4339 -0.0661
 5827SOL    HW129117   0.444   2.319   3.153 -2.4451 -1.6956 -0.4436
 5827SOL    HW229118   0.427   2.469   3.116 -1.0748 -0.3852 -0.5399
 5828SOL     OW29119   4.085   1.149   8.336 -0.3754  0.0734  0.4966
 5828SOL    HW129120   4.050   1.208   8.270  1.7699 -1.4613 -2.0269
 5828SOL    HW229121   4.178   1.149   8.313  0.0400  0.3728  2.1405
 5829SOL     OW29122   3.011   0.325   2.503 -0.0590  0.0794 -0.2478
 5829SOL    HW129123   3.091   0.276   2.485  0.4636  1.7018 -2.3619
 5829SOL    HW229124   2.951   0.269   2.454  1.6064 -1.5943 -0.3683
 5830SOL     OW29125   1.180   2.458  13.836  0.5861  0.2101 -0.1876
 5830SOL    HW129126   1.239   2.384  13.824 -0.7560 -0.8968  0.1557
 5830SOL    HW229127   1.231   2.521  13.886  0.3940  0.3136 -0.1212
 5831SOL     OW29128   3.502   3.640  10.391  0.3581  0.2288 -0.3867
 5831SOL    HW129129   3.466   3.689  10.317 -2.0397  0.9818  1.2862
 5831SOL    HW229130   3.473   3.691  10.467  0.1009  0.7357 -0.8273
 5832SOL     OW29131   3.002   3.192   4.535 -0.1427  0.2734  0.2478
 5832SOL    HW129132   2.907   3.195   4.529 -0.0147 -1.7208 -2.7324
 5832SOL    HW229133   3.028   3.283   4.553  1.0888 -0.2169  0.9258
 5833SOL     OW29134   2.763   0.591   3.538 -0.1699  0.0403 -0.3793
 5833SOL    HW129135   2.832   0.656   3.557  0.6599 -0.8266 -0.4327
 5833SOL    HW229136   2.729   0.567   3.624  2.1696 -1.2274  0.1953
 5834SOL     OW29137   1.456   2.907   2.857 -0.4484 -0.2219  0.0592
 5834SOL    HW129138   1.428   2.974   2.920  0.1790  2.4360 -2.5009
 5834SOL    HW229139   1.482   2.831   2.910  2.0286  0.9392  0.5237
 5835SOL     OW29140   2.536   4.729  10.072  0.0900  0.0094  0.4905
 5835SOL    HW129141   2.451   4.697  10.102  1.4092 -1.0205  3.0543
 5835SOL    HW229142   2.506   0.077  10.041 -0.1241  0.8084  2.9300
 5836SOL     OW29143   1.982   0.047   4.355  0.0174  0.4880 -0.1015
 5836SOL    HW129144   1.954   0.006   4.437  0.6572  1.7922  0.7644
 5836SOL    HW229145   2.077   0.055   4.365  0.1300  1.6505 -2.1054
 5837SOL     OW29146   3.356   0.339   4.960  0.0144  0.4250  0.1054
 5837SOL    HW129147   3.353   0.380   4.874  1.1420  0.4659  0.0875
 5837SOL    HW229148   3.428   0.387   5.000  2.4017 -2.1655 -1.1410
 5838SOL     OW29149   0.274   2.159   3.612 -0.0485  0.6516 -0.0887
 5838SOL    HW129150   0.315   2.148   3.527 -0.5768  1.2309 -0.4142
 5838SOL    HW229151   0.334   2.145   3.686 -0.4018 -1.8569 -0.2868
 5839SOL     OW29152   3.789   0.651  16.211 -0.5645 -0.6240  0.9268
 5839SOL    HW129153   3.724   0.662  16.142 -0.4117  1.2205  1.0531
 5839SOL    HW229154   3.858   0.622  16.152 -0.7840 -0.1362  0.4286
 5840SOL     OW29155   0.470   2.755  10.008 -0.1617  0.0959  0.1667
 5840SOL    HW129156   0.426   2.689  10.063 -2.8050  1.2967 -0.4847
 5840SOL    HW229157   0.559   2.739  10.039  0.2138  2.5513  0.3422
 5841SOL     OW29158   0.443   2.666  15.161  0.1216 -0.0752 -0.2093
 5841SOL    HW129159   0.464   2.716  15.240  0.0652  1.1550 -0.9758
 5841SOL    HW229160   0.405   2.730  15.100  0.7594 -0.0335 -0.5651
 5842SOL     OW29161   1.864   0.377   4.423 -0.2000 -0.2857 -0.2432
 5842SOL    HW129162   1.929   0.432   4.378  0.5904 -0.5586  0.5636
 5842SOL    HW229163   1.898   0.389   4.512 -2.5370 -0.7081  0.6972
 5843SOL     OW29164   3.035   3.655   5.053 -0.6154  0.0921 -0.9693
 5843SOL    HW129165   3.087   3.663   5.134  0.9640  1.6758 -2.1435
 5843SOL    HW229166   2.970   3.724   5.068 -0.7958 -0.4625  0.9191
 5844SOL     OW29167   2.906   0.879   4.066 -0.0704  0.6155 -0.0392
 5844SOL    HW129168   2.844   0.832   4.122  0.0409  1.7018  0.9921
 5844SOL    HW229169   2.904   0.846   3.976  1.4150  0.0157  0.1405
 5845SOL     OW29170   4.648   2.070   2.524  0.2195  0.4407  0.0883
 5845SOL    HW129171   4.635   2.075   2.429 -1.0772 -0.3302  0.2378
 5845SOL    HW229172   4.576   2.119   2.562 -1.4042 -1.7596 -0.1728
 5846SOL     OW29173   0.475   0.792  10.905  0.6234 -0.1896 -0.0484
 5846SOL    HW129174   0.510   0.713  10.864 -1.6059 -0.1533 -2.0224
 5846SOL    HW229175   0.456   0.763  10.994  0.0494 -0.6883 -0.3317
 5847SOL     OW29176   3.600   3.163   3.282  0.2000 -0.0898  0.3498
 5847SOL    HW129177   3.553   3.225   3.225 -1.8619 -1.7085  0.3046
 5847SOL    HW229178   3.538   3.183   3.352 -1.6026  0.0679 -1.2859
 5848SOL     OW29179   2.766   4.032  13.387  0.2429 -0.2442  0.5656
 5848SOL    HW129180   2.744   4.102  13.325 -1.0553 -1.2448 -0.1047
 5848SOL    HW229181   2.748   4.084  13.465 -4.3101  0.3507 -0.8942
 5849SOL     OW29182   3.658   0.278   3.001 -0.3193 -0.2770 -0.1453
 5849SOL    HW129183   3.673   0.349   3.063  1.9173  1.0413 -2.1560
 5849SOL    HW229184   3.644   0.203   3.058 -0.5526  0.1995  0.4183
 5850SOL     OW29185   2.322   1.078   6.400 -0.2784 -0.1418  0.1398
 5850SOL    HW129186   2.376   1.004   6.429 -1.1157 -0.5944  0.5342
 5850SOL    HW229187   2.379   1.148   6.430  1.2606 -0.9313 -0.9300
 5851SOL     OW29188   0.268   3.308   5.531 -0.1077  0.1023 -0.0785
 5851SOL    HW129189   0.350   3.324   5.577  0.4305  1.1998 -1.4265
 5851SOL    HW229190   0.250   3.217   5.557 -3.5216  0.8805  0.3003
 5852SOL     OW29191   2.255   3.471   5.373  0.1398  0.0747 -0.3691
 5852SOL    HW129192   2.300   3.421   5.440  0.4687 -1.9588 -2.1174
 5852SOL    HW229193   2.336   3.516   5.349  0.3745 -1.7567 -3.0417
 5853SOL     OW29194   4.080   2.622   5.958  0.1170 -0.4299  0.6718
 5853SOL    HW129195   4.147   2.641   5.892  0.2338 -0.4985  0.7699
 5853SOL    HW229196   3.994   2.622   5.916  0.5569  1.9850 -0.2502
 5854SOL     OW29197   2.203   3.129   2.574  0.3878 -0.0723 -0.6231
 5854SOL    HW129198   2.208   3.223   2.556  2.8264 -0.0211  0.3847
 5854SOL    HW229199   2.112   3.106   2.553  0.2925 -2.1876  1.9522
 5855SOL     OW29200   0.738   1.381   2.144 -0.3767 -0.2617 -0.6394
 5855SOL    HW129201   0.656   1.428   2.128  1.2713  3.1067  0.6659
 5855SOL    HW229202   0.793   1.457   2.165 -0.2700 -0.9411  1.5276
 5856SOL     OW29203   1.472   0.865  15.543  0.0739  0.5807  0.4264
 5856SOL    HW129204   1.537   0.901  15.483  0.8226 -0.6959  0.4596
 5856SOL    HW229205   1.405   0.845  15.478  2.8882 -0.4964 -2.1283
 5857SOL     OW29206   4.670   0.087   5.401 -0.2666  0.2634 -0.1370
 5857SOL    HW129207   4.698   0.144   5.474 -1.9366  1.3110 -0.3263
 5857SOL    HW229208   4.687   4.735   5.429 -2.0715 -0.6505 -1.9952
 5858SOL     OW29209   2.219   3.731   8.643 -0.3445  0.1456 -0.1157
 5858SOL    HW129210   2.300   3.681   8.642 -0.5562 -0.2189  0.8636
 5858SOL    HW229211   2.161   3.660   8.670 -0.7870  0.9330  1.0402
 5859SOL     OW29212   3.661   0.064   8.126 -0.5406 -0.0376 -0.1836
 5859SOL    HW129213   3.747   0.103   8.109  0.6726 -1.6565  2.1881
 5859SOL    HW229214   3.674   0.040   8.218 -2.6343 -0.7516 -0.0674
 5860SOL     OW29215   2.668   0.540   6.775 -0.5791 -0.4864 -0.5104
 5860SOL    HW129216   2.575   0.554   6.758 -1.4036 -1.6164  3.1269
 5860SOL    HW229217   2.690   0.600   6.846  0.3448  1.8712 -2.8047
 5861SOL     OW29218   0.391   3.075  10.311  0.0690 -0.4881  0.3317
 5861SOL    HW129219   0.451   3.120  10.252 -0.2382  1.0634  1.1942
 5861SOL    HW229220   0.366   2.997  10.261 -0.9579 -0.7408  1.2373
 5862SOL     OW29221   1.633   3.699  16.232 -0.0295  0.2533  0.4923
 5862SOL    HW129222   1.692   3.762  16.274  0.2977  0.3152 -0.0608
 5862SOL    HW229223   1.555   3.729  16.277  0.5599  2.7095 -0.1329
 5863SOL     OW29224   1.681   2.489  15.726 -0.4244 -0.9852  0.6547
 5863SOL    HW129225   1.687   2.582  15.702 -0.8413 -1.4859 -1.3920
 5863SOL    HW229226   1.751   2.455  15.672 -0.9148  1.3749 -1.4750
 5864SOL     OW29227   4.017   0.601   6.142  0.5495  0.1631  0.1119
 5864SOL    HW129228   3.950   0.533   6.146  2.1788 -1.4493  0.5167
 5864SOL    HW229229   4.090   0.541   6.123 -0.9022 -1.1197 -1.3787
 5865SOL     OW29230   0.906   4.378   5.675  0.5857 -0.1760 -0.5780
 5865SOL    HW129231   0.987   4.367   5.625  0.3280 -1.1077 -0.7854
 5865SOL    HW229232   0.930   4.446   5.738 -0.2148  0.4991 -1.0047
 5866SOL     OW29233   4.184   1.465  16.169  0.0735 -0.6409  0.9067
 5866SOL    HW129234   4.129   1.497  16.098 -2.0634 -1.0743  2.3401
 5866SOL    HW229235   4.147   1.380  16.196 -0.1200 -0.1038  2.3528
 5867SOL     OW29236   1.345   2.817   4.857 -0.0037 -0.1241  0.4525
 5867SOL    HW129237   1.437   2.813   4.883  0.6294  0.9015 -1.6558
 5867SOL    HW229238   1.294   2.829   4.937  0.0521  1.3637  0.2672
 5868SOL     OW29239   3.054   1.456  15.304  0.2120  0.1985 -1.0344
 5868SOL    HW129240   2.995   1.396  15.259 -1.6522  1.8820 -0.8435
 5868SOL    HW229241   3.024   1.441  15.394  0.5361 -0.0307 -0.9670
 5869SOL     OW29242   2.187   3.019   7.386  0.4484 -0.0041  0.0550
 5869SOL    HW129243   2.106   3.043   7.431  1.3265  1.2197  0.9859
 5869SOL    HW229244   2.156   3.008   7.297  1.3260  1.5438 -0.4347
 5870SOL     OW29245   0.077   3.313   8.584 -0.8202 -0.1384  0.3398
 5870SOL    HW129246   0.060   3.246   8.518 -0.7902  1.2807 -1.0941
 5870SOL    HW229247   0.152   3.353   8.540 -1.0414  0.8595  0.8596
 5871SOL     OW29248   1.710   0.954  17.603 -0.3962  0.0273 -0.0297
 5871SOL    HW129249   1.697   0.929  17.512  1.2467 -0.9666  0.0071
 5871SOL    HW229250   1.675   0.874  17.641 -1.9040  0.6264 -0.1757
 5872SOL     OW29251   0.618   2.662   6.288  0.1228 -1.2222  0.6780
 5872SOL    HW129252   0.555   2.590   6.290  0.1000 -1.2519 -1.0073
 5872SOL    HW229253   0.586   2.709   6.210  0.0594 -2.2994  0.0488
 5873SOL     OW29254   4.277   1.767   7.788  0.0803 -0.5011  0.6543
 5873SOL    HW129255   4.348   1.721   7.742  0.5710 -1.0631  1.9675
 5873SOL    HW229256   4.207   1.703   7.771  0.7574 -0.9549 -0.4805
 5874SOL     OW29257   3.735   1.868   4.094  0.4551 -0.4958  0.2374
 5874SOL    HW129258   3.709   1.839   4.006 -1.4230 -0.5793  0.8403
 5874SOL    HW229259   3.671   1.829   4.153 -1.1811  0.2206 -1.0679
 5875SOL     OW29260   3.125   3.019   5.941  0.5304  0.6160  0.2846
 5875SOL    HW129261   3.108   3.113   5.951  0.8048  1.0131 -2.6983
 5875SOL    HW229262   3.057   3.002   5.876  0.9085 -0.3864  0.1545
 5876SOL     OW29263   2.455   2.611   9.982  0.3569 -0.3237 -0.5505
 5876SOL    HW129264   2.485   2.572  10.064  0.3723  0.3764 -0.2189
 5876SOL    HW229265   2.528   2.581   9.927  1.1560  2.0715 -0.8094
 5877SOL     OW29266   3.263   2.195   8.295 -0.0824 -0.3306 -0.6016
 5877SOL    HW129267   3.172   2.200   8.268 -0.0748  2.8290 -0.0739
 5877SOL    HW229268   3.271   2.285   8.326 -0.1964 -0.7409  0.6547
 5878SOL     OW29269   2.208   2.324   2.823 -0.1309 -0.6152 -0.4328
 5878SOL    HW129270   2.219   2.284   2.737 -2.6678 -0.0076 -1.0590
 5878SOL    HW229271   2.285   2.380   2.816 -0.2052 -0.7749 -2.8021
 5879SOL     OW29272   1.508   0.829   4.547  0.1690 -0.1693  0.2938
 5879SOL    HW129273   1.450   0.906   4.549  0.5633  0.1278  0.3329
 5879SOL    HW229274   1.473   0.775   4.477  0.1859 -1.2538  1.1297
 5880SOL     OW29275   2.766   1.696   5.896  0.8404  0.4988  0.0473
 5880SOL    HW129276   2.722   1.754   5.834  0.8649  1.0409  0.5348
 5880SOL    HW229277   2.837   1.669   5.838 -2.1500 -1.4663 -2.6757
 5881SOL     OW29278   2.478   0.238   6.397 -0.4675  0.2856 -0.1322
 5881SOL    HW129279   2.426   0.279   6.466 -1.1019 -1.1548  0.2251
 5881SOL    HW229280   2.418   0.182   6.348  0.6060  0.6182 -1.8414
 5882SOL     OW29281   2.397   0.357   1.350  0.0535 -0.4825 -0.0535
 5882SOL    HW129282   2.415   0.321   1.437 -2.2152 -2.5858 -0.4585
 5882SOL    HW229283   2.415   0.285   1.291  1.3610 -2.5523  2.8761
 5883SOL     OW29284   4.579   1.123   9.574 -0.2772 -0.2429 -0.2293
 5883SOL    HW129285   4.494   1.123   9.530 -1.5079  1.8005  2.1740
 5883SOL    HW229286   4.632   1.057   9.528 -0.0098 -0.4011  0.3101
 5884SOL     OW29287   1.166   3.263   7.206  0.2487 -0.1009 -0.0857
 5884SOL    HW129288   1.137   3.337   7.260 -1.1267 -0.1454 -0.7712
 5884SOL    HW229289   1.191   3.199   7.273  0.0540 -0.3147 -0.2164
 5885SOL     OW29290   3.233   1.124   0.558  0.1162 -0.9490 -0.3080
 5885SOL    HW129291   3.268   1.095   0.643 -1.4818  1.9845  1.3832
 5885SOL    HW229292   3.166   1.187   0.583  1.4632  0.4584 -0.2029
 5886SOL     OW29293   4.484   0.773   7.810  0.1443  0.0335 -0.2467
 5886SOL    HW129294   4.549   0.797   7.875  0.7534 -1.2958 -0.3597
 5886SOL    HW229295   4.438   0.856   7.801 -0.5391 -0.3767 -0.5298
 5887SOL     OW29296   1.688   4.377   6.755 -0.2756 -0.3368 -0.4032
 5887SOL    HW129297   1.605   4.412   6.724  0.7302  0.7742 -1.7941
 5887SOL    HW229298   1.675   4.327   6.836 -1.7684  0.7687  0.0394
 5888SOL     OW29299   0.348   1.488   5.835  0.2446  0.8337  0.1635
 5888SOL    HW129300   0.374   1.419   5.773 -1.8431 -0.3237  0.5748
 5888SOL    HW229301   0.430   1.496   5.883  0.3136  0.4741  0.1057
 5889SOL     OW29302   4.184   1.771   1.528 -0.1414 -0.6378 -0.4646
 5889SOL    HW129303   4.139   1.691   1.553 -0.5124 -0.0730  0.6753
 5889SOL    HW229304   4.261   1.734   1.485  0.5877 -1.5421  1.6039
 5890SOL     OW29305   2.426   1.776   1.306 -0.2452  0.1167  0.6419
 5890SOL    HW129306   2.502   1.805   1.356  0.3007  0.9325 -0.6610
 5890SOL    HW229307   2.387   1.863   1.292  0.1482 -0.0652 -1.6481
 5891SOL     OW29308   3.833   0.384   8.360  0.0734  0.6358 -0.1497
 5891SOL    HW129309   3.752   0.415   8.319 -0.0861 -0.0974 -0.3847
 5891SOL    HW229310   3.893   0.374   8.286 -0.1109 -0.0793 -0.2027
 5892SOL     OW29311   1.941   3.378   6.686  0.3405  0.9104  0.3944
 5892SOL    HW129312   1.914   3.445   6.624 -1.6505 -1.0217 -0.8509
 5892SOL    HW229313   2.004   3.331   6.631 -2.1011 -2.1444  0.1477
 5893SOL     OW29314   3.267   2.417  13.910  0.1044  0.1068 -0.2117
 5893SOL    HW129315   3.186   2.379  13.876  0.2262 -0.5408  0.2285
 5893SOL    HW229316   3.230   2.497  13.949 -0.2523 -0.0719 -0.1770
 5894SOL     OW29317   4.160   0.886   0.354  0.2938 -0.0998 -0.1206
 5894SOL    HW129318   4.147   0.807   0.300  1.5208  0.9434 -1.9400
 5894SOL    HW229319   4.173   0.843   0.439  1.1351 -2.3709 -1.3764
 5895SOL     OW29320   4.583   4.735   2.946 -0.0347 -0.1403  0.1201
 5895SOL    HW129321   4.608   4.696   2.862 -1.1178 -0.6011  0.0202
 5895SOL    HW229322   4.551   4.656   2.988  1.3988 -1.6480 -1.6267
 5896SOL     OW29323   0.801   2.733   1.420  0.4411  0.5431 -0.4392
 5896SOL    HW129324   0.711   2.700   1.426  0.5923  0.3290  0.7450
 5896SOL    HW229325   0.839   2.645   1.428  0.7708  0.9234  2.3827
 5897SOL     OW29326   3.190   4.568  15.025 -0.2599 -0.1251  0.0787
 5897SOL    HW129327   3.118   4.629  15.041 -0.6167 -0.5374  0.0673
 5897SOL    HW229328   3.221   4.598  14.939  1.6015 -0.6880  0.5668
 5898SOL     OW29329   3.264   4.544  14.508  0.5509 -0.1262  0.3913
 5898SOL    HW129330   3.271   4.515  14.417  0.2183 -0.2045  0.3904
 5898SOL    HW229331   3.171   4.568  14.507  0.6847  0.3674 -0.1077
 5899SOL     OW29332   2.609   4.187   4.815  0.4930  0.5023  0.2687
 5899SOL    HW129333   2.577   4.102   4.784  0.0811 -0.2453  2.6773
 5899SOL    HW229334   2.703   4.175   4.804  0.0532 -2.4096 -0.2801
 5900SOL     OW29335   1.884   1.896   3.012 -0.1321 -0.2030  1.0928
 5900SOL    HW129336   1.884   1.979   3.060 -1.2927  1.4564 -1.7358
 5900SOL    HW229337   1.978   1.878   3.011 -0.2939 -0.9834 -0.1144
 5901SOL     OW29338   1.542   4.037   8.042  0.3545 -0.1514 -0.5444
 5901SOL    HW129339   1.576   3.957   8.081 -1.7138 -0.8738 -0.2398
 5901SOL    HW229340   1.477   4.073   8.103  0.0329  0.1551 -1.0702
 5902SOL     OW29341   4.419   0.645   7.578  0.1863  0.7666  0.3341
 5902SOL    HW129342   4.508   0.638   7.542  0.8369 -1.8446  2.4695
 5902SOL    HW229343   4.446   0.702   7.650  0.9311  0.9686 -0.1010
 5903SOL     OW29344   1.118   2.526   7.813 -0.2046  0.2411  0.2876
 5903SOL    HW129345   1.024   2.534   7.827 -0.7526 -2.1696 -2.0249
 5903SOL    HW229346   1.122   2.599   7.752  0.7356 -0.1353 -0.1022
 5904SOL     OW29347   0.116   2.078   9.853  0.0509 -0.3475 -0.0053
 5904SOL    HW129348   0.080   2.134   9.921  0.5606 -1.3312  1.0814
 5904SOL    HW229349   0.209   2.101   9.857  0.4431 -1.7499 -0.8860
 5905SOL     OW29350   2.422   2.539   7.717 -0.0948 -0.2464 -0.5692
 5905SOL    HW129351   2.461   2.478   7.654 -0.5049 -0.5172 -0.5532
 5905SOL    HW229352   2.344   2.488   7.739 -1.6804  1.3408 -2.5160
 5906SOL     OW29353   1.547   3.769   2.619 -0.0986 -0.3209 -0.0259
 5906SOL    HW129354   1.555   3.770   2.714 -0.8054 -0.8480  0.0366
 5906SOL    HW229355   1.612   3.832   2.586  0.5435 -0.2474  1.3725
 5907SOL     OW29356   0.792   0.755   7.476 -0.3197  0.0842 -0.0409
 5907SOL    HW129357   0.809   0.676   7.528 -0.4939 -1.1321 -1.8384
 5907SOL    HW229358   0.701   0.771   7.500 -0.4864  0.1241 -0.7137
 5908SOL     OW29359   0.865   3.790  10.552 -0.1084 -0.4158  0.3308
 5908SOL    HW129360   0.928   3.728  10.588  1.3806  1.3889  0.8391
 5908SOL    HW229361   0.803   3.723  10.523  0.8515 -0.9387 -0.5159
 5909SOL     OW29362   3.727   4.075   2.510  0.2614  0.1653 -0.2295
 5909SOL    HW129363   3.742   4.121   2.427  1.5862 -2.8184 -1.6151
 5909SOL    HW229364   3.635   4.090   2.533 -0.1570 -3.3928  0.4359
 5910SOL     OW29365   3.851   0.071   5.927 -0.8316  0.0697 -0.7398
 5910SOL    HW129366   3.881   0.034   6.010  0.1106  0.5723 -0.8582
 5910SOL    HW229367   3.878   0.162   5.920 -0.7233  0.0219 -0.9181
 5911SOL     OW29368   1.124   0.653   1.915 -0.0584  0.6891  0.0163
 5911SOL    HW129369   1.189   0.700   1.864  2.1835 -2.4211  0.0147
 5911SOL    HW229370   1.058   0.710   1.955 -0.4872 -0.5604  1.0782
 5912SOL     OW29371   2.796   2.806   5.074  0.3784 -0.0411 -0.3572
 5912SOL    HW129372   2.758   2.752   5.144 -2.5768 -0.3794 -2.2258
 5912SOL    HW229373   2.716   2.822   5.024  0.5702 -1.1852 -1.0331
 5913SOL     OW29374   1.786   4.121  16.901 -0.0147 -1.0634 -0.3227
 5913SOL    HW129375   1.720   4.062  16.863 -1.5186  2.0192 -2.5166
 5913SOL    HW229376   1.853   4.054  16.914  1.5807  0.2016 -1.9777
 5914SOL     OW29377   3.977   2.417  16.687 -0.7641  0.3025  0.1158
 5914SOL    HW129378   3.944   2.488  16.632  0.4230  0.0199 -0.9568
 5914SOL    HW229379   4.005   2.469  16.762 -0.6919 -2.3837  1.9437
 5915SOL     OW29380   1.418   1.258   1.538 -0.4664  0.0108 -0.3735
 5915SOL    HW129381   1.370   1.312   1.601  1.4703  1.1121  0.1379
 5915SOL    HW229382   1.510   1.284   1.543 -0.4440 -0.4973  1.6847
 5916SOL     OW29383   0.332   3.887   6.194 -0.1691 -0.1285 -0.0299
 5916SOL    HW129384   0.390   3.958   6.165 -2.7744  1.7924 -0.5260
 5916SOL    HW229385   0.361   3.811   6.144 -0.6751 -1.1228  1.1722
 5917SOL     OW29386   1.336   1.349  14.474 -0.4103 -0.1654  0.4879
 5917SOL    HW129387   1.315   1.391  14.391 -2.0208  0.8837  1.4231
 5917SOL    HW229388   1.409   1.292  14.449 -0.2735  0.8397 -1.4099
 5918SOL     OW29389   2.471   4.092   4.143 -0.0262 -0.2856 -0.5722
 5918SOL    HW129390   2.415   4.170   4.144 -1.1818 -1.1322  2.2613
 5918SOL    HW229391   2.446   4.056   4.058 -0.8784 -1.8192  0.3092
 5919SOL     OW29392   4.174   2.659   7.512  0.3381 -0.5589  0.7678
 5919SOL    HW129393   4.225   2.728   7.469 -1.3966  0.1339 -0.1741
 5919SOL    HW229394   4.091   2.705   7.513  1.6755  1.9158 -1.5163
 5920SOL     OW29395   0.287   0.015   6.186 -0.2069 -0.1819  0.5067
 5920SOL    HW129396   0.284   4.691   6.259 -0.1862 -0.6262  0.1314
 5920SOL    HW229397   0.196   0.030   6.160  0.4476 -1.4239 -2.4539
 5921SOL     OW29398   3.566   3.649   9.860  0.1459  0.1729 -0.2314
 5921SOL    HW129399   3.479   3.613   9.843  0.2941 -0.4910  0.4169
 5921SOL    HW229400   3.579   3.608   9.946  2.1499  2.6223  0.6293
 5922SOL     OW29401   3.194   4.067   4.167  0.7132  0.5564 -0.7400
 5922SOL    HW129402   3.110   4.049   4.125  0.6505  0.6231 -0.6432
 5922SOL    HW229403   3.254   3.994   4.146  1.5769  1.8284 -2.7441
 5923SOL     OW29404   2.025   2.192  11.897  0.0905 -0.2484 -0.5239
 5923SOL    HW129405   2.087   2.251  11.854  0.0174 -1.0332 -1.7147
 5923SOL    HW229406   2.087   2.126  11.928  1.0635  1.1941  0.6323
 5924SOL     OW29407   4.522   3.425   1.565 -0.4685  0.4250  0.1720
 5924SOL    HW129408   4.503   3.482   1.640  1.1128  0.6814  0.3711
 5924SOL    HW229409   4.579   3.481   1.513 -2.8837  2.4196 -0.2911
 5925SOL     OW29410   4.165   1.670   2.479  0.3949  0.6683  0.4615
 5925SOL    HW129411   4.088   1.621   2.450 -0.1103  2.2766 -0.8586
 5925SOL    HW229412   4.163   1.758   2.443 -1.5987  0.0232 -1.0171
 5926SOL     OW29413   3.791   4.404   3.063 -0.2846 -0.4789  0.4627
 5926SOL    HW129414   3.874   4.360   3.042  0.5338  0.4622  1.6891
 5926SOL    HW229415   3.768   4.440   2.977 -4.3860  0.2437  1.8716
 5927SOL     OW29416   1.372   4.209   2.548 -0.0600  0.2967 -0.0326
 5927SOL    HW129417   1.302   4.245   2.493  1.4820  0.0195 -2.1527
 5927SOL    HW229418   1.383   4.131   2.495  2.9885  0.2524  0.6537
 5928SOL     OW29419   2.376   4.106   7.856  0.3984 -0.5352  0.6464
 5928SOL    HW129420   2.382   4.177   7.920  1.6479  1.1147 -1.2879
 5928SOL    HW229421   2.464   4.123   7.822 -0.4076  1.3437 -0.5147
 5929SOL     OW29422   0.906   0.907   3.692  0.1741  0.0319 -0.1962
 5929SOL    HW129423   0.821   0.869   3.667 -0.6445  1.6228  0.1598
 5929SOL    HW229424   0.885   0.990   3.733  2.0474  0.9330 -1.0626
 5930SOL     OW29425   3.417   1.302   5.991 -0.0525  0.4704  0.5444
 5930SOL    HW129426   3.374   1.287   6.075 -1.7845  1.0985 -0.2253
 5930SOL    HW229427   3.347   1.279   5.929  0.5947  1.5234 -0.5897
 5931SOL     OW29428   2.397   3.435   7.740 -0.2188 -0.2548  0.4760
 5931SOL    HW129429   2.353   3.517   7.763  1.1593 -0.0110  2.2230
 5931SOL    HW229430   2.388   3.389   7.823 -2.2546 -2.6824 -1.0771
 5932SOL     OW29431   1.383   4.023   2.360 -0.0113 -0.1451 -0.4916
 5932SOL    HW129432   1.401   3.966   2.285  0.6788 -0.9187  0.2653
 5932SOL    HW229433   1.409   4.106   2.320 -0.1749  1.1607  2.0735
 5933SOL     OW29434   0.589   1.763  12.521 -0.5108 -0.0156  0.1391
 5933SOL    HW129435   0.574   1.746  12.613 -0.4405 -0.0583  0.1427
 5933SOL    HW229436   0.505   1.800  12.495 -0.8895  0.0565  1.5231
 5934SOL     OW29437   1.142   3.801  11.228 -0.4780 -0.1096 -0.7264
 5934SOL    HW129438   1.126   3.761  11.142 -2.0032  2.5134 -1.6636
 5934SOL    HW229439   1.122   3.894  11.216  1.2203  0.7831  3.2654
 5935SOL     OW29440   2.739   0.822  15.071  0.0763  0.2020  0.0016
 5935SOL    HW129441   2.764   0.858  14.986  2.5827 -0.6197  0.4178
 5935SOL    HW229442   2.775   0.736  15.053 -1.1823 -0.6552  1.5354
 5936SOL     OW29443   0.681   1.431   6.209 -0.0353 -0.2467 -0.1544
 5936SOL    HW129444   0.699   1.440   6.303 -1.0897  0.2397  0.0098
 5936SOL    HW229445   0.755   1.375   6.187 -0.8692 -1.5935  0.4671
 5937SOL     OW29446   0.386   0.431   2.775  0.1000 -0.4141 -0.3917
 5937SOL    HW129447   0.337   0.349   2.769 -0.5845  0.0182 -0.6989
 5937SOL    HW229448   0.377   0.466   2.687  3.2016  2.4300  0.4296
 5938SOL     OW29449   3.303   0.053  16.572 -0.0490 -0.0349 -0.1910
 5938SOL    HW129450   3.266   4.733  16.505  1.4248  2.0708 -2.8306
 5938SOL    HW229451   3.231   0.114  16.587 -0.2532  0.2090 -2.0991
 5939SOL     OW29452   3.268   3.231   8.014  0.2385  0.1181 -0.2119
 5939SOL    HW129453   3.347   3.264   7.971  0.0806 -0.3814 -0.8721
 5939SOL    HW229454   3.256   3.299   8.081 -0.8169  0.4957 -0.7830
 5940SOL     OW29455   3.654   2.814   9.859 -0.0434  0.2443  0.5841
 5940SOL    HW129456   3.609   2.747   9.807 -0.7202 -0.0943  1.6054
 5940SOL    HW229457   3.582   2.833   9.920 -0.5181  1.1085 -0.2504
 5941SOL     OW29458   0.294   2.785   7.357  0.5171 -0.1398  0.2763
 5941SOL    HW129459   0.253   2.815   7.277  0.0725  0.8259  0.8762
 5941SOL    HW229460   0.234   2.717   7.389  0.0862 -0.1965 -0.6625
 5942SOL     OW29461   1.597   4.660   5.631  0.3257  0.2732  0.1010
 5942SOL    HW129462   1.525   4.601   5.651  0.4334  0.0151 -0.2661
 5942SOL    HW229463   1.550   4.714   5.567 -0.9121 -2.0561 -0.9722
 5943SOL     OW29464   1.843   1.251   8.839 -0.0904  0.5454 -0.0521
 5943SOL    HW129465   1.843   1.339   8.876 -0.3703  0.4654  0.1419
 5943SOL    HW229466   1.817   1.274   8.750  1.1524  1.6734 -0.1277
 5944SOL     OW29467   1.202   3.432   5.761  0.1348  0.5643  0.3863
 5944SOL    HW129468   1.215   3.504   5.699 -0.1064  0.6955  0.4877
 5944SOL    HW229469   1.207   3.353   5.708  0.5021  0.2495  0.8950
 5945SOL     OW29470   0.047   2.870  11.507 -0.5801 -0.1275 -0.7593
 5945SOL    HW129471   0.018   2.855  11.597  1.1644  0.5805 -0.0733
 5945SOL    HW229472   4.715   2.823  11.460  0.3883 -1.1652 -1.1628
 5946SOL     OW29473   2.654   0.909  10.152  0.5800  0.2454 -0.0034
 5946SOL    HW129474   2.582   0.874  10.206 -1.0030  2.3500 -0.7547
 5946SOL    HW229475   2.612   0.991  10.125  1.6214 -0.0038 -2.3323
 5947SOL     OW29476   0.985   1.239   5.223  0.4667  0.0310 -0.3150
 5947SOL    HW129477   0.982   1.211   5.314  1.1281  1.3338  0.1101
 5947SOL    HW229478   1.078   1.263   5.228  0.8143 -0.9118 -2.0237
 5948SOL     OW29479   2.877   0.643   4.336 -0.3760  0.1313  0.2373
 5948SOL    HW129480   2.931   0.564   4.331  0.4902  0.8287 -1.3930
 5948SOL    HW229481   2.810   0.604   4.392 -0.3337 -1.6020 -0.8995
 5949SOL     OW29482   2.647   0.709  16.791  0.6645  0.1213  0.1675
 5949SOL    HW129483   2.570   0.659  16.820  2.2590 -2.1944  0.4263
 5949SOL    HW229484   2.720   0.651  16.810 -0.4568 -0.2494  3.3159
 5950SOL     OW29485   2.573   2.553   4.805 -0.3889 -0.1182 -0.6879
 5950SOL    HW129486   2.527   2.598   4.735 -0.3011 -0.1961 -0.7976
 5950SOL    HW229487   2.514   2.484   4.836  0.3920 -0.2074  0.5935
 5951SOL     OW29488   2.870   0.229   8.463 -0.7091 -0.4219 -0.1221
 5951SOL    HW129489   2.794   0.254   8.515 -0.1944 -0.2942  0.5724
 5951SOL    HW229490   2.943   0.277   8.502 -0.0120 -2.5830  1.2591
 5952SOL     OW29491   4.217   2.598   6.722 -0.2258  0.0918  0.0653
 5952SOL    HW129492   4.139   2.578   6.669 -0.5292  0.4671  0.3722
 5952SOL    HW229493   4.269   2.629   6.648  0.0821 -0.0343  0.2333
 5953SOL     OW29494   1.929   0.534   1.788 -0.1233 -0.1500 -0.8556
 5953SOL    HW129495   1.834   0.533   1.785 -0.1618 -0.4398  0.6939
 5953SOL    HW229496   1.944   0.607   1.727  0.8266 -1.4233 -2.1592
 5954SOL     OW29497   0.541   4.057   5.940 -0.6154  0.0107  0.0660
 5954SOL    HW129498   0.570   4.081   6.028 -0.4185 -0.0910  0.0293
 5954SOL    HW229499   0.451   4.087   5.933 -0.2128  0.6312 -2.3356
 5955SOL     OW29500   0.320   3.046   9.509 -0.0856  0.0926  0.1491
 5955SOL    HW129501   0.301   3.055   9.603 -1.3570  0.1801 -0.1115
 5955SOL    HW229502   0.415   3.035   9.515 -0.3631 -1.0288  2.9035
 5956SOL     OW29503   1.269   1.267  17.713  0.0976  0.1260 -0.2048
 5956SOL    HW129504   1.279   1.173  17.728 -1.0332 -0.5010 -3.4805
 5956SOL    HW229505   1.179   1.260  17.681  0.0494  1.5157 -0.3965
 5957SOL     OW29506   0.060   3.193   4.025 -0.1411  0.0164 -0.5106
 5957SOL    HW129507   0.138   3.160   4.069 -0.2528  0.4479  0.0061
 5957SOL    HW229508   0.048   3.282   4.059 -2.9084 -0.3948 -0.3892
 5958SOL     OW29509   3.473   0.449   7.020  0.3558  0.1148  0.1801
 5958SOL    HW129510   3.449   0.533   6.981 -0.4354  0.3692  1.2015
 5958SOL    HW229511   3.478   0.383   6.951  0.1167 -0.6026  0.8526
 5959SOL     OW29512   4.569   1.027   6.887 -0.5497 -1.0231 -0.5304
 5959SOL    HW129513   4.492   1.084   6.880  0.6613  0.7551  0.7467
 5959SOL    HW229514   4.624   1.054   6.814  0.1321 -1.1531 -0.0604
 5960SOL     OW29515   3.517   0.062  12.266  0.0758 -0.2587  0.1222
 5960SOL    HW129516   3.559   0.144  12.243  0.1536  0.1071  1.5747
 5960SOL    HW229517   3.567   0.036  12.343  0.2090 -0.6352 -0.0899
 5961SOL     OW29518   0.208   0.691   1.710 -0.6360  0.1078  0.1451
 5961SOL    HW129519   0.215   0.745   1.789  0.4125  2.1432 -1.3435
 5961SOL    HW229520   0.175   0.756   1.648  0.3528  0.0654 -0.4087
 5962SOL     OW29521   0.764   0.054   2.956 -0.1727 -0.1689 -0.1149
 5962SOL    HW129522   0.682   0.068   3.002  0.0648  0.8696  0.0024
 5962SOL    HW229523   0.732   0.070   2.867  0.0865 -0.0378 -0.1841
 5963SOL     OW29524   4.060   2.671   9.780 -0.2345 -0.3398  0.5204
 5963SOL    HW129525   4.105   2.616   9.844 -0.1166 -0.2693  0.4982
 5963SOL    HW229526   3.980   2.685   9.831 -0.1878 -0.6595  0.6808
 5964SOL     OW29527   1.589   0.476   4.340 -0.0822 -0.1045 -0.1906
 5964SOL    HW129528   1.676   0.446   4.364  0.4873  2.4436  0.9714
 5964SOL    HW229529   1.533   0.434   4.405 -1.1422 -0.6580 -1.4624
 5965SOL     OW29530   0.932   1.039  15.558 -0.1559 -0.4944  0.6797
 5965SOL    HW129531   0.998   0.972  15.576  0.5898  0.0540 -0.0117
 5965SOL    HW229532   0.861   0.986  15.522  1.9749 -0.6156 -3.3978
 5966SOL     OW29533   3.498   1.460   6.686  0.0159 -0.2175  0.3687
 5966SOL    HW129534   3.585   1.444   6.650  0.8780  1.7643  1.5633
 5966SOL    HW229535   3.500   1.405   6.765 -0.1618 -3.2136 -1.6974
 5967SOL     OW29536   1.021   1.970   4.628 -0.2617  0.4380  0.1818
 5967SOL    HW129537   1.037   1.878   4.651 -0.2802  1.0937  2.7880
 5967SOL    HW229538   1.044   2.019   4.706 -0.1092  0.2866  0.2308
 5968SOL     OW29539   3.553   3.967   4.379 -0.0001  0.4501  0.6501
 5968SOL    HW129540   3.464   3.961   4.415 -0.5116 -2.0092 -1.0999
 5968SOL    HW229541   3.580   3.876   4.387 -2.9152 -0.3806  1.0897
 5969SOL     OW29542   1.249   3.662   5.587  0.0003  0.2882 -0.7728
 5969SOL    HW129543   1.292   3.746   5.603  0.2175 -0.4441  2.4337
 5969SOL    HW229544   1.211   3.682   5.501  0.7991 -1.9283 -1.6413
 5970SOL     OW29545   3.229   1.485   7.790  0.3468 -0.7372 -0.3699
 5970SOL    HW129546   3.255   1.542   7.862 -2.1561  1.9724 -1.5821
 5970SOL    HW229547   3.232   1.551   7.721  1.8676 -0.0751  0.3402
 5971SOL     OW29548   3.783   2.369   6.141  0.2771  0.0625 -0.3298
 5971SOL    HW129549   3.695   2.360   6.176  0.8858 -1.0531  0.9008
 5971SOL    HW229550   3.839   2.328   6.207 -0.4398 -1.0581 -0.4271
 5972SOL     OW29551   2.626   1.976  13.303  0.2081  0.0588  0.5308
 5972SOL    HW129552   2.614   2.008  13.393 -0.0634  1.6570 -0.0853
 5972SOL    HW229553   2.603   1.883  13.311 -1.5318  0.4758  0.3860
 5973SOL     OW29554   3.398   3.948   9.147 -0.5039  0.1194  0.0056
 5973SOL    HW129555   3.447   4.030   9.147  3.7369 -2.3675 -2.7468
 5973SOL    HW229556   3.467   3.896   9.188 -1.3133  0.1519  1.3978
 5974SOL     OW29557   2.194   2.009   4.937 -0.3964 -0.5701 -0.4120
 5974SOL    HW129558   2.257   2.011   5.009 -0.6109  2.4827 -0.3115
 5974SOL    HW229559   2.151   2.094   4.934 -1.9083 -1.2676  0.8968
 5975SOL     OW29560   0.972   3.753   3.036  0.5003 -0.3456  0.7458
 5975SOL    HW129561   0.932   3.780   2.953  0.7379  0.1961  0.8087
 5975SOL    HW229562   1.055   3.801   3.034  0.3049 -0.0648 -0.5071
 5976SOL     OW29563   0.246   2.157  10.744 -0.4070  0.3273 -0.2261
 5976SOL    HW129564   0.279   2.227  10.689  1.2370 -0.9113 -0.8305
 5976SOL    HW229565   0.161   2.192  10.769 -0.9929 -1.1121 -0.1628
 5977SOL     OW29566   1.331   3.446   3.931  0.5335  0.2805  0.0652
 5977SOL    HW129567   1.323   3.456   4.026 -0.6834  0.0431 -0.0195
 5977SOL    HW229568   1.238   3.433   3.911  1.4237 -3.3553 -1.7089
 5978SOL     OW29569   2.043   4.656   1.954 -0.3932  0.3162 -0.3741
 5978SOL    HW129570   1.983   4.590   1.920 -0.2855  0.5844 -1.0762
 5978SOL    HW229571   2.077   4.612   2.031  2.7217 -1.3289 -2.7201
 5979SOL     OW29572   1.975   3.171   1.250  0.1687 -0.3648  0.2331
 5979SOL    HW129573   2.038   3.136   1.188  1.6440 -0.9584  2.0555
 5979SOL    HW229574   2.020   3.252   1.275  0.2245 -0.0963 -0.7559
 5980SOL     OW29575   0.869   2.689   5.385 -0.2956 -0.2877  0.3473
 5980SOL    HW129576   0.843   2.702   5.476  1.9024 -0.6546  1.0231
 5980SOL    HW229577   0.960   2.660   5.379  0.0545  0.8544  0.0470
 5981SOL     OW29578   1.587   1.879   7.259  0.6635 -0.1112 -0.3285
 5981SOL    HW129579   1.493   1.895   7.262  0.7641  0.3677  0.2275
 5981SOL    HW229580   1.607   1.897   7.351 -0.1695 -0.3836 -0.0970
 5982SOL     OW29581   2.453   3.635  10.437  0.4014 -0.0857 -0.3184
 5982SOL    HW129582   2.471   3.667  10.349 -2.4456  3.5463  0.4208
 5982SOL    HW229583   2.435   3.716  10.485 -1.5910 -0.1147 -1.0591
 5983SOL     OW29584   1.445   2.521  15.246  0.0630 -0.0089 -0.2070
 5983SOL    HW129585   1.449   2.550  15.338  0.6371  2.6709 -1.0833
 5983SOL    HW229586   1.528   2.559  15.217 -0.6766  2.8745  1.3942
 5984SOL     OW29587   1.793   3.368   4.325 -0.2131 -0.6313  0.1126
 5984SOL    HW129588   1.755   3.362   4.237 -0.5047  0.8036  0.1413
 5984SOL    HW229589   1.743   3.299   4.369  1.9984 -1.2153  1.6981
 5985SOL     OW29590   4.285   2.347  11.163 -0.0848  0.2946 -0.0890
 5985SOL    HW129591   4.252   2.393  11.085  0.3140  1.0033  0.1593
 5985SOL    HW229592   4.204   2.326  11.210 -0.7390  2.1399 -0.3863
 5986SOL     OW29593   0.067   1.712   1.740 -0.1328 -0.4895  0.1220
 5986SOL    HW129594   0.122   1.786   1.764  0.2974 -0.8068  0.1148
 5986SOL    HW229595   0.109   1.669   1.665  2.0655 -0.6848  1.4763
 5987SOL     OW29596   3.655   2.411   9.142  0.2938 -0.0545 -0.3438
 5987SOL    HW129597   3.630   2.466   9.216  0.6053  1.0084 -1.0267
 5987SOL    HW229598   3.715   2.469   9.096 -1.5867  2.7604  0.7055
 5988SOL     OW29599   2.694   4.422   0.195  0.3111 -0.6588 -0.1901
 5988SOL    HW129600   2.734   4.428   0.109  0.6510  2.1434  0.1677
 5988SOL    HW229601   2.707   4.330   0.219  2.7973 -0.3749 -0.4857
 5989SOL     OW29602   4.230   0.701   5.548 -0.3905 -0.0668  0.2334
 5989SOL    HW129603   4.250   0.656   5.466  3.3338  0.2090  0.9621
 5989SOL    HW229604   4.301   0.658   5.595 -1.0462 -1.1818  0.1979
 5990SOL     OW29605   1.093   2.616   8.424  0.0791 -0.7475 -0.1419
 5990SOL    HW129606   1.046   2.550   8.373  0.3584 -1.1121  0.0704
 5990SOL    HW229607   1.039   2.624   8.503 -0.2134 -0.8337 -0.3345
 5991SOL     OW29608   1.724   1.936  15.331  0.7298  0.1711 -0.9494
 5991SOL    HW129609   1.721   1.872  15.401  1.5687  1.0644 -0.1092
 5991SOL    HW229610   1.751   2.018  15.372 -2.7520 -0.2780  2.2591
 5992SOL     OW29611   4.510   2.085  15.517 -0.9401  0.4765  0.0834
 5992SOL    HW129612   4.423   2.060  15.550 -0.6884 -0.2890  0.1563
 5992SOL    HW229613   4.561   2.106  15.596  0.5451  0.7463 -0.9547
 5993SOL     OW29614   4.497   4.537   3.788  0.0173 -0.0091  0.3445
 5993SOL    HW129615   4.541   4.509   3.869 -0.1502  0.1112  0.4772
 5993SOL    HW229616   4.407   4.519   3.813  0.1566  0.1147  0.9511
 5994SOL     OW29617   0.500   3.595   9.498  0.2157 -0.5171 -0.1376
 5994SOL    HW129618   0.531   3.677   9.537 -1.3459 -0.9932  2.1363
 5994SOL    HW229619   0.459   3.552   9.574 -0.1130  1.2013  0.6522
 5995SOL     OW29620   2.475   0.348   2.572 -0.0663 -0.3424  0.3722
 5995SOL    HW129621   2.408   0.289   2.607  1.1779 -2.3750 -0.6949
 5995SOL    HW229622   2.421   0.427   2.570  2.2831  1.2681  1.1242
 5996SOL     OW29623   4.435   1.003   2.643  0.0796  0.1531 -0.1034
 5996SOL    HW129624   4.429   0.943   2.718 -0.8192  0.0649 -0.2442
 5996SOL    HW229625   4.372   0.960   2.584 -0.7625  0.4897  0.5422
 5997SOL     OW29626   4.461   1.392   8.013  0.0091  0.0252  0.1088
 5997SOL    HW129627   4.455   1.486   7.991 -1.6173 -0.1744 -0.2716
 5997SOL    HW229628   4.475   1.367   7.921  1.5216 -0.0600  0.3580
 5998SOL     OW29629   3.567   1.004   0.657 -0.0721  0.0117  0.4172
 5998SOL    HW129630   3.591   0.975   0.745 -0.1184  1.7561  1.0026
 5998SOL    HW229631   3.488   1.052   0.679 -0.6479  0.5395 -2.8573
 5999SOL     OW29632   4.271   2.135   8.954 -0.0701  0.5167 -0.1118
 5999SOL    HW129633   4.243   2.130   8.863  0.8347  1.0679 -0.4212
 5999SOL    HW229634   4.223   2.058   8.986  0.8697 -0.3027 -0.6734
 6000SOL     OW29635   0.840   3.367   8.375 -0.1172  0.0807 -0.2641
 6000SOL    HW129636   0.865   3.385   8.465  0.0869 -1.2154 -0.0562
 6000SOL    HW229637   0.753   3.405   8.365 -0.8754 -1.5850 -0.0919
 6001SOL     OW29638   4.196   3.220   8.748  0.4180 -0.0426  0.2155
 6001SOL    HW129639   4.120   3.190   8.698  0.3880 -2.3024  1.6080
 6001SOL    HW229640   4.172   3.193   8.836  0.2188 -2.0093 -0.4180
 6002SOL     OW29641   3.733   2.926   7.051  0.2974 -0.2737  0.8511
 6002SOL    HW129642   3.783   2.850   7.080 -0.7869 -1.5042 -0.4985
 6002SOL    HW229643   3.655   2.881   7.019  1.0886  0.0297 -1.5691
 6003SOL     OW29644   3.674   3.818   2.734 -0.3023 -0.1592  0.4998
 6003SOL    HW129645   3.767   3.841   2.730 -0.3071 -0.0811  0.8361
 6003SOL    HW229646   3.659   3.800   2.642 -3.1009  2.5172  0.4255
 6004SOL     OW29647   3.928   4.278   3.626 -0.0031  0.4219  0.3663
 6004SOL    HW129648   3.900   4.187   3.620 -1.2990  1.0730 -3.0365
 6004SOL    HW229649   3.864   4.320   3.684  0.4268 -0.7273  1.6826
 6005SOL     OW29650   4.356   3.411   8.482 -0.2885 -0.3631  0.2841
 6005SOL    HW129651   4.426   3.398   8.546 -1.7086 -0.9174  1.7430
 6005SOL    HW229652   4.397   3.454   8.408 -1.4094 -1.2076 -0.8268
 6006SOL     OW29653   1.220   0.819   5.212 -0.6175  0.7053  0.2399
 6006SOL    HW129654   1.279   0.745   5.228 -2.9271 -1.4171 -0.8435
 6006SOL    HW229655   1.154   0.810   5.282 -0.5164 -1.2540  0.0876
 6007SOL     OW29656   1.837   2.925   3.585 -0.0715 -0.4916 -0.0841
 6007SOL    HW129657   1.895   2.924   3.661  1.7835 -1.5764 -1.5110
 6007SOL    HW229658   1.760   2.887   3.625 -0.7130 -0.2881 -1.1159
 6008SOL     OW29659   3.173   4.231   5.886 -0.4293 -0.0512  0.5188
 6008SOL    HW129660   3.195   4.197   5.799  2.7216 -0.2259  1.3594
 6008SOL    HW229661   3.078   4.239   5.880 -0.8047 -5.8953 -0.9411
 6009SOL     OW29662   2.260   3.309   7.213  0.3725  0.5059  0.3832
 6009SOL    HW129663   2.289   3.390   7.254 -1.4406 -0.0665  2.7607
 6009SOL    HW229664   2.338   3.292   7.161  0.2957  0.7579  0.1843
 6010SOL     OW29665   2.481   1.552   9.140  0.2874  0.2476  0.1095
 6010SOL    HW129666   2.430   1.476   9.109  1.8658  0.2304 -2.4508
 6010SOL    HW229667   2.553   1.507   9.183 -0.4245 -0.3305  0.7027
 6011SOL     OW29668   1.331   0.572   8.872  0.0415 -0.1546 -0.1405
 6011SOL    HW129669   1.317   0.665   8.892 -1.2818 -0.5158  0.5464
 6011SOL    HW229670   1.320   0.530   8.957  1.0531 -1.5933 -0.7274
 6012SOL     OW29671   1.335   1.065   6.469 -0.5063 -0.1168 -0.3227
 6012SOL    HW129672   1.340   0.977   6.432  0.7587  0.3543 -1.2499
 6012SOL    HW229673   1.311   1.048   6.560  0.5087 -2.2873 -0.4455
 6013SOL     OW29674   2.848   4.308   6.443 -0.0080 -0.9374  0.1241
 6013SOL    HW129675   2.799   4.246   6.497  1.1782 -0.0658  2.2118
 6013SOL    HW229676   2.829   4.386   6.496 -0.2453 -0.0716 -1.2284
 6014SOL     OW29677   3.940   2.725  12.521 -0.4507 -0.0285 -0.3545
 6014SOL    HW129678   3.930   2.675  12.440 -2.1702 -1.2837  0.6201
 6014SOL    HW229679   3.933   2.650  12.580  0.9855  0.1921  0.0821
 6015SOL     OW29680   3.320   1.517   2.676 -0.3789  0.1775 -0.8681
 6015SOL    HW129681   3.302   1.453   2.746  2.7414  1.4487  1.0884
 6015SOL    HW229682   3.290   1.467   2.601 -1.7715  1.4534 -1.1599
 6016SOL     OW29683   3.940   4.544   6.614  0.4318 -0.7581  0.2259
 6016SOL    HW129684   3.992   4.551   6.694 -0.8183  1.6350  0.8197
 6016SOL    HW229685   3.852   4.515   6.639 -0.1353  0.5928 -0.2049
 6017SOL     OW29686   0.830   0.700  11.637  0.4869 -0.2931  0.4886
 6017SOL    HW129687   0.874   0.784  11.649 -1.9685  1.2681 -1.2807
 6017SOL    HW229688   0.905   0.655  11.598  1.5131  0.7539  1.2646
 6018SOL     OW29689   2.287   2.606   8.151 -0.1384 -0.4640  0.2577
 6018SOL    HW129690   2.321   2.518   8.166  0.3132 -0.5125 -1.1061
 6018SOL    HW229691   2.286   2.646   8.239 -0.6620  0.0569  0.0157
 6019SOL     OW29692   0.431   2.766   7.776 -0.4133  0.2188 -0.6471
 6019SOL    HW129693   0.489   2.831   7.816 -1.5459  1.1082 -0.4293
 6019SOL    HW229694   0.383   2.727   7.849  3.4912 -1.3190  1.1058
 6020SOL     OW29695   2.096   0.536  16.649 -0.0912  0.2602 -0.0467
 6020SOL    HW129696   2.153   0.609  16.673 -0.3065  1.1907 -2.3269
 6020SOL    HW229697   2.007   0.565  16.630 -0.6262  1.2246  3.8737
 6021SOL     OW29698   3.483   3.693  10.860  0.9081  0.3347  0.3445
 6021SOL    HW129699   3.566   3.736  10.877  0.7312  0.7529  0.1464
 6021SOL    HW229700   3.457   3.666  10.948 -2.5134 -2.5821 -1.5645
 6022SOL     OW29701   0.681   2.435   8.499 -0.2115  0.0527 -0.2818
 6022SOL    HW129702   0.715   2.487   8.573  1.8427 -2.9747  0.9147
 6022SOL    HW229703   0.759   2.440   8.444 -0.1875  1.2990 -0.1370
 6023SOL     OW29704   2.587   1.918  15.376  0.1588  0.2050 -0.2293
 6023SOL    HW129705   2.607   1.825  15.384  0.2206  0.2071 -0.3621
 6023SOL    HW229706   2.626   1.941  15.292 -0.7920  1.3135 -0.3781
 6024SOL     OW29707   3.434   1.307  12.100  0.3597 -0.3243 -0.0666
 6024SOL    HW129708   3.393   1.379  12.148 -0.2952 -1.3596  0.9304
 6024SOL    HW229709   3.467   1.360  12.027 -1.1429  0.9604  0.1751
 6025SOL     OW29710   2.134   4.457   3.903 -0.3698 -0.1311 -0.2732
 6025SOL    HW129711   2.078   4.414   3.839 -2.6283 -0.1316  1.7010
 6025SOL    HW229712   2.080   4.439   3.981  0.0892 -2.6927 -0.5620
 6026SOL     OW29713   4.490   3.449   7.745 -0.2076  0.0964 -0.6172
 6026SOL    HW129714   4.439   3.466   7.666 -1.3267 -0.4155 -0.0002
 6026SOL    HW229715   4.500   3.354   7.740  3.4641  0.4072  1.0506
 6027SOL     OW29716   0.905   0.995  15.873  0.1494 -0.0882  0.1175
 6027SOL    HW129717   0.898   1.057  15.800  0.5840 -1.8411 -1.4258
 6027SOL    HW229718   0.943   0.919  15.830  0.4613  0.8656 -1.3032
 6028SOL     OW29719   3.193   2.763   9.777  0.1145 -0.2306  0.2346
 6028SOL    HW129720   3.141   2.719   9.844  1.5863 -0.4024  1.2570
 6028SOL    HW229721   3.120   2.791   9.722 -0.0613 -2.0930 -0.4898
 6029SOL     OW29722   1.075   3.502   4.208 -0.4876 -0.1870 -0.0155
 6029SOL    HW129723   1.069   3.582   4.157 -2.4095  0.8186  1.7851
 6029SOL    HW229724   1.082   3.541   4.295  0.5652 -0.4321  0.0117
 6030SOL     OW29725   0.674   4.590  16.235 -0.1934  0.0935 -0.1071
 6030SOL    HW129726   0.680   4.581  16.330  0.5136  0.7419 -0.0866
 6030SOL    HW229727   0.584   4.622  16.230  0.0145  0.9608  1.6569
 6031SOL     OW29728   1.644   3.604   2.938 -0.3275  0.0424  0.8875
 6031SOL    HW129729   1.738   3.587   2.934 -0.8832 -2.5976 -0.5587
 6031SOL    HW229730   1.606   3.518   2.922 -1.9303  1.0815 -0.9330
 6032SOL     OW29731   1.643   1.105   7.193  0.0815  0.5121  0.5937
 6032SOL    HW129732   1.666   1.035   7.255  0.5219  1.1464  1.1443
 6032SOL    HW229733   1.727   1.140   7.165 -0.2930  0.4554 -0.6060
 6033SOL     OW29734   4.177   2.919   7.726  0.1652 -0.2925 -0.1675
 6033SOL    HW129735   4.119   2.870   7.784 -0.4981  0.2731 -0.3573
 6033SOL    HW229736   4.238   2.847   7.707  0.2947  0.0619 -1.0754
 6034SOL     OW29737   2.520   0.379   4.646 -0.1556 -0.5198 -0.8059
 6034SOL    HW129738   2.519   0.415   4.558 -1.5309 -0.8047 -0.9115
 6034SOL    HW229739   2.427   0.372   4.667  0.4700 -2.0532  1.4845
 6035SOL     OW29740   1.420   1.220   4.989 -0.3931 -0.6474 -0.0694
 6035SOL    HW129741   1.499   1.270   5.008 -1.3643  0.8687 -0.0389
 6035SOL    HW229742   1.441   1.202   4.897  1.6120  4.5657 -0.6399
 6036SOL     OW29743   2.952   2.407   1.833  0.5159 -0.0772 -0.1893
 6036SOL    HW129744   2.911   2.482   1.878  3.9356 -0.6048  3.8014
 6036SOL    HW229745   2.937   2.419   1.740 -2.2661 -0.5622  0.1875
 6037SOL     OW29746   2.128   2.984   9.940 -0.7047 -0.1859 -0.7036
 6037SOL    HW129747   2.130   3.017   9.850  2.2711 -0.8738 -0.8845
 6037SOL    HW229748   2.178   2.905   9.925  0.9724  0.8729 -0.6838
 6038SOL     OW29749   2.332   1.903   2.217 -0.2986 -0.1423  0.0501
 6038SOL    HW129750   2.259   1.846   2.240 -1.1816  0.4215 -1.2934
 6038SOL    HW229751   2.397   1.874   2.281 -0.6128 -0.4619  0.2185
 6039SOL     OW29752   2.448   2.544   6.140 -0.7917  0.1912 -0.6578
 6039SOL    HW129753   2.534   2.526   6.102 -0.6467 -2.2664  0.8465
 6039SOL    HW229754   2.458   2.493   6.221 -0.9828 -0.8108 -1.2657
 6040SOL     OW29755   3.536   1.100   6.198 -0.1708 -0.0237 -0.2834
 6040SOL    HW129756   3.530   1.091   6.103  0.5602 -0.3583 -0.3040
 6040SOL    HW229757   3.549   1.192   6.219 -0.0599 -0.3974  1.3442
 6041SOL     OW29758   1.618   0.281   1.002  0.2264 -0.2759  0.4834
 6041SOL    HW129759   1.547   0.340   1.029 -0.8502 -0.2972 -2.3549
 6041SOL    HW229760   1.647   0.240   1.084 -0.2123  0.0855  0.8230
 6042SOL     OW29761   1.498   2.203   0.613 -0.3112  0.4161  0.1603
 6042SOL    HW129762   1.562   2.247   0.669 -0.7843 -0.0343  1.0559
 6042SOL    HW229763   1.484   2.269   0.546  0.6979  0.4622 -0.0056
 6043SOL     OW29764   3.407   4.696   7.148  0.0825  0.8694  0.4580
 6043SOL    HW129765   3.313   4.686   7.129  0.0666  0.4318  0.7663
 6043SOL    HW229766   3.408   0.043   7.104  1.8537 -0.0609 -1.2659
 6044SOL     OW29767   0.509   4.335   7.781 -0.5160 -0.6470 -0.3952
 6044SOL    HW129768   0.450   4.270   7.745  0.7337 -1.3824 -1.1097
 6044SOL    HW229769   0.572   4.280   7.828 -1.6819 -0.7852  0.9943
 6045SOL     OW29770   4.570   1.150   0.577 -0.2648  0.3380 -0.4740
 6045SOL    HW129771   4.478   1.129   0.561 -0.8020  0.1923  2.8486
 6045SOL    HW229772   4.557   1.146   0.672 -0.0765  1.3800 -0.4080
 6046SOL     OW29773   2.774   3.326   3.746  0.0278 -0.7849 -0.1689
 6046SOL    HW129774   2.778   3.348   3.653 -0.4776  0.9951  0.2450
 6046SOL    HW229775   2.690   3.362   3.775 -0.1723 -1.9947  0.7838
 6047SOL     OW29776   0.050   0.454   3.491 -0.2642  0.0698  0.1648
 6047SOL    HW129777   4.733   0.379   3.471 -1.0850  0.3205  1.4360
 6047SOL    HW229778   0.131   0.413   3.523  0.1105 -0.6376 -1.6973
 6048SOL     OW29779   2.882   1.264   4.899 -0.0141 -0.2113  0.8874
 6048SOL    HW129780   2.869   1.340   4.955 -0.2780  0.8029 -0.5716
 6048SOL    HW229781   2.846   1.189   4.947 -3.2095  1.8664  1.6963
 6049SOL     OW29782   0.208   4.651   3.006 -1.0182  0.0944 -0.1670
 6049SOL    HW129783   0.161   4.729   3.033 -1.6311 -1.3271  2.8303
 6049SOL    HW229784   0.185   4.575   3.060  2.6648 -0.3341  0.7929
 6050SOL     OW29785   1.726   3.272  10.659 -0.6140  0.1781 -0.0568
 6050SOL    HW129786   1.776   3.254  10.738 -0.0200  0.1803 -0.4294
 6050SOL    HW229787   1.709   3.181  10.636 -1.7005  0.7072 -1.3357
 6051SOL     OW29788   1.165   2.550  12.752 -0.3004  0.2760  0.5187
 6051SOL    HW129789   1.105   2.554  12.827  1.7478  3.4370  1.9890
 6051SOL    HW229790   1.249   2.550  12.797 -0.0076 -0.3604 -0.0411
 6052SOL     OW29791   2.875   1.219   7.559 -0.3465  0.0369 -0.5859
 6052SOL    HW129792   2.948   1.279   7.548 -1.0727  1.6333  3.1809
 6052SOL    HW229793   2.845   1.249   7.645 -1.1046 -1.7929 -0.2130
 6053SOL     OW29794   3.322   3.716   7.917 -0.3236  0.2918 -0.0749
 6053SOL    HW129795   3.321   3.768   7.998  1.6659 -1.7972  1.2799
 6053SOL    HW229796   3.404   3.670   7.936  0.7618  2.0959 -0.3848
 6054SOL     OW29797   1.003   0.932   4.061  0.4739 -0.5452  0.1349
 6054SOL    HW129798   0.923   0.882   4.045  0.2664 -0.8683  2.2324
 6054SOL    HW229799   0.996   0.930   4.156  1.1882  2.2043  0.2452
 6055SOL     OW29800   1.654   1.875  16.327  0.9086  0.3544  0.3507
 6055SOL    HW129801   1.657   1.949  16.387  1.6258  1.3680 -0.9313
 6055SOL    HW229802   1.699   1.803  16.372 -0.5110  0.1536  1.4569
 6056SOL     OW29803   0.733   3.894  16.418  0.3166 -0.1337  0.3422
 6056SOL    HW129804   0.813   3.924  16.461  0.3396 -2.3005  1.8045
 6056SOL    HW229805   0.761   3.810  16.383 -1.5356 -0.8678  0.6384
 6057SOL     OW29806   1.431   2.386   8.292  0.6977 -0.4527 -0.1209
 6057SOL    HW129807   1.479   2.422   8.366  1.1486  0.9472 -1.0974
 6057SOL    HW229808   1.348   2.366   8.336  0.4005 -0.1992 -0.5557
 6058SOL     OW29809   1.070   3.295   0.692 -0.2092 -0.2147  0.0638
 6058SOL    HW129810   1.145   3.249   0.728  1.1846  1.5420 -0.6368
 6058SOL    HW229811   1.007   3.223   0.684 -2.2895  1.8862 -2.3597
 6059SOL     OW29812   0.013   3.532   2.396  0.0217 -0.0029  0.1252
 6059SOL    HW129813   4.675   3.474   2.389 -1.1943  1.4207  1.2245
 6059SOL    HW229814   4.716   3.597   2.457  1.6754 -0.4516  1.5225
 6060SOL     OW29815   3.476   4.655   3.820  0.2046  0.1750 -0.0762
 6060SOL    HW129816   3.415   4.713   3.865 -0.8782 -0.5408 -0.5918
 6060SOL    HW229817   3.442   4.571   3.852  0.0169 -0.9482 -3.1629
 6061SOL     OW29818   4.120   3.502   9.535  0.2520 -0.0476 -0.2296
 6061SOL    HW129819   4.169   3.549   9.602  0.2594 -0.1075 -0.1926
 6061SOL    HW229820   4.053   3.456   9.587  0.1071 -0.0950 -0.4615
 6062SOL     OW29821   0.033   2.082   3.547 -0.5099 -0.1325 -0.4969
 6062SOL    HW129822   0.056   2.001   3.503  1.2108  0.1283 -0.0712
 6062SOL    HW229823   0.119   2.110   3.577 -0.6921  0.6388 -0.6874
 6063SOL     OW29824   3.185   3.706  10.732  0.0086  0.2090  0.1535
 6063SOL    HW129825   3.123   3.718  10.804  0.7770  0.7212  0.7411
 6063SOL    HW229826   3.236   3.633  10.769  0.5002  0.6772  0.4034
 6064SOL     OW29827   2.081   2.070  14.814 -0.4456 -0.0485 -0.2576
 6064SOL    HW129828   2.039   1.984  14.819 -0.1524 -0.0998  1.2703
 6064SOL    HW229829   2.055   2.099  14.726 -1.7477 -0.0264  0.1372
 6065SOL     OW29830   2.853   3.163   3.148  0.1134  0.5038  0.3329
 6065SOL    HW129831   2.795   3.092   3.121 -1.9155  2.1823  0.2956
 6065SOL    HW229832   2.914   3.160   3.074  0.9861  0.0407  1.0686
 6066SOL     OW29833   2.452   3.387   6.551  0.4482 -0.2231  0.0367
 6066SOL    HW129834   2.456   3.435   6.634 -0.8132  2.8741 -1.7087
 6066SOL    HW229835   2.503   3.444   6.494  0.7932 -0.3746  0.1936
 6067SOL     OW29836   0.588   1.102   7.645 -0.1595 -0.5950  0.3853
 6067SOL    HW129837   0.660   1.150   7.605 -1.7017 -0.7527 -2.5620
 6067SOL    HW229838   0.613   1.094   7.737  0.3863 -3.3562  0.0002
 6068SOL     OW29839   1.060   0.120  14.063 -0.0843 -0.6057  0.5415
 6068SOL    HW129840   1.142   0.145  14.105  0.6747 -1.8048 -0.2311
 6068SOL    HW229841   1.072   0.028  14.037 -2.1123 -0.5253 -0.6568
 6069SOL     OW29842   2.202   0.980   4.961  0.0354 -0.2186 -0.1560
 6069SOL    HW129843   2.249   0.911   5.007 -1.1725 -1.3792 -0.6611
 6069SOL    HW229844   2.232   1.058   5.007 -2.2755 -0.5831  1.9587
 6070SOL     OW29845   2.023   4.345  15.150  0.0634  0.4705  0.1147
 6070SOL    HW129846   2.089   4.414  15.139  1.3800 -1.1960 -2.6550
 6070SOL    HW229847   1.958   4.393  15.201 -0.2788 -0.4731  0.5699
 6071SOL     OW29848   4.523   0.641  14.772 -0.0306 -0.7015  0.1641
 6071SOL    HW129849   4.435   0.610  14.794 -0.5741  0.3738 -0.4706
 6071SOL    HW229850   4.517   0.733  14.747 -2.3646 -1.0795 -0.7091
 6072SOL     OW29851   3.809   0.116   4.460  0.0268 -0.0505  0.2670
 6072SOL    HW129852   3.827   0.033   4.506 -1.9271 -1.5970 -1.7321
 6072SOL    HW229853   3.725   0.141   4.498 -0.7649 -0.3359 -1.2705
 6073SOL     OW29854   1.452   1.878   4.108 -0.4239 -0.0622 -0.5679
 6073SOL    HW129855   1.377   1.822   4.086  0.1820 -0.8461 -0.6728
 6073SOL    HW229856   1.526   1.825   4.079 -0.9142 -0.7053 -0.6707
 6074SOL     OW29857   1.935   3.630   1.246 -0.2401  0.2096  0.0438
 6074SOL    HW129858   1.885   3.560   1.287 -0.8995  0.8299  0.3016
 6074SOL    HW229859   1.892   3.706   1.284 -0.2415  0.7529 -1.0301
 6075SOL     OW29860   0.309   3.233  17.538 -0.2092  0.1463  0.3739
 6075SOL    HW129861   0.286   3.265  17.451  0.7573 -0.7382 -0.2083
 6075SOL    HW229862   0.305   3.314  17.588  2.6699 -0.3048  1.3645
 6076SOL     OW29863   2.582   0.717   6.096 -0.0252  0.3099 -0.3952
 6076SOL    HW129864   2.548   0.743   6.010  0.6571  0.3108 -0.6590
 6076SOL    HW229865   2.651   0.653   6.080 -2.2158 -1.5902 -2.3871
 6077SOL     OW29866   1.420   4.090   4.053 -0.0558  0.4596 -0.4246
 6077SOL    HW129867   1.408   4.121   4.143 -0.8752 -1.5663  0.1690
 6077SOL    HW229868   1.390   4.164   4.000 -1.8019 -0.0830 -0.1947
 6078SOL     OW29869   1.596   1.525   6.638  0.0783  0.5296 -0.0865
 6078SOL    HW129870   1.533   1.504   6.569  1.0061 -2.2266 -0.0868
 6078SOL    HW229871   1.630   1.609   6.605  2.4123 -1.1207 -1.8497
 6079SOL     OW29872   1.312   3.253   8.439  0.9349 -0.2387  0.2751
 6079SOL    HW129873   1.347   3.330   8.394 -0.4926 -1.0050 -2.1062
 6079SOL    HW229874   1.348   3.180   8.389  1.1285  0.0548 -0.0138
 6080SOL     OW29875   0.926   2.783  14.315  0.2242  0.0294  0.2987
 6080SOL    HW129876   0.858   2.722  14.286  1.4917 -1.1937 -0.1178
 6080SOL    HW229877   0.902   2.787  14.408 -0.7986 -2.0950  0.1101
 6081SOL     OW29878   3.316   2.228   1.887  0.0787 -0.4022 -0.3555
 6081SOL    HW129879   3.304   2.161   1.819 -1.4914 -0.1105 -0.3504
 6081SOL    HW229880   3.234   2.216   1.933  0.7493  0.6193  1.0975
 6082SOL     OW29881   2.218   2.815   5.688  0.0857 -0.1928  0.4316
 6082SOL    HW129882   2.160   2.884   5.720 -0.5213 -0.8502  0.7598
 6082SOL    HW229883   2.278   2.869   5.637 -0.6506 -1.1686 -1.4745
 6083SOL     OW29884   1.474   0.365  12.682  0.0124  0.4964  0.2049
 6083SOL    HW129885   1.408   0.296  12.681  0.5181 -0.0080  1.0279
 6083SOL    HW229886   1.556   0.325  12.712 -0.9642 -2.1384 -0.6459
 6084SOL     OW29887   4.589   2.380  17.218 -0.7452  0.2773 -0.1683
 6084SOL    HW129888   4.669   2.400  17.266 -0.5357  1.2259 -0.9037
 6084SOL    HW229889   4.527   2.447  17.245 -0.6858  0.4913 -0.5684
 6085SOL     OW29890   4.044   3.251   4.338 -0.1164  0.1447 -0.7955
 6085SOL    HW129891   4.055   3.172   4.390  0.7493  2.1525  2.0560
 6085SOL    HW229892   4.133   3.279   4.317  0.6511  1.2005  3.8061
 6086SOL     OW29893   2.872   0.398   4.485 -0.1337  0.1552  0.0113
 6086SOL    HW129894   2.885   0.303   4.493 -0.0280  0.1584 -0.1235
 6086SOL    HW229895   2.871   0.424   4.577 -1.1493 -0.2586  0.1106
 6087SOL     OW29896   1.335   3.627   8.677 -0.1307  0.1733  0.0091
 6087SOL    HW129897   1.362   3.687   8.607  0.5875 -0.7720 -0.5307
 6087SOL    HW229898   1.260   3.582   8.637 -1.5913  2.3627  0.3295
 6088SOL     OW29899   3.990   0.854   2.012 -0.0881 -0.0933 -0.4432
 6088SOL    HW129900   3.996   0.759   2.018 -0.6384 -0.2155 -1.9332
 6088SOL    HW229901   3.940   0.882   2.089  1.5831  2.5378 -0.2941
 6089SOL     OW29902   1.520   2.358   5.841  0.1081 -0.4723 -0.4296
 6089SOL    HW129903   1.567   2.282   5.873  1.6567  0.6222 -0.0870
 6089SOL    HW229904   1.588   2.425   5.842 -0.3566  0.0120 -0.7866
 6090SOL     OW29905   2.470   2.375  14.708  0.2844 -0.1320  0.6056
 6090SOL    HW129906   2.434   2.453  14.667  0.9812  0.5441  1.2984
 6090SOL    HW229907   2.443   2.301  14.653  0.6143  0.2744 -0.1085
 6091SOL     OW29908   4.426   2.884   9.211 -0.1048  0.2377 -0.1742
 6091SOL    HW129909   4.424   2.965   9.161  1.1491  1.9904  2.6126
 6091SOL    HW229910   4.388   2.824   9.147 -1.3206 -0.2783  1.0145
 6092SOL     OW29911   0.130   2.010   1.677  0.2224  0.0365  0.6329
 6092SOL    HW129912   0.077   2.017   1.598  1.5252  0.9992 -0.1649
 6092SOL    HW229913   0.167   2.098   1.679  1.4411 -0.4385 -0.9168
 6093SOL     OW29914   2.511   1.424   4.530  0.0004  0.1438  0.7092
 6093SOL    HW129915   2.502   1.382   4.444  1.2194  1.5505 -0.1115
 6093SOL    HW229916   2.578   1.487   4.504  0.8314 -1.7129 -1.6909
 6094SOL     OW29917   3.989   0.725   4.532 -0.4695  0.6272 -0.7822
 6094SOL    HW129918   3.973   0.728   4.437 -1.5432 -0.9164 -0.6572
 6094SOL    HW229919   4.081   0.700   4.522 -1.0807 -2.3564  0.8909
 6095SOL     OW29920   1.491   2.573   2.663 -0.3327  0.8091 -0.2824
 6095SOL    HW129921   1.424   2.618   2.714 -0.6112 -1.5499  1.3746
 6095SOL    HW229922   1.567   2.585   2.719 -0.2109  2.3059 -0.7586
 6096SOL     OW29923   3.332   0.619   2.711  0.2425 -0.2297  0.2104
 6096SOL    HW129924   3.275   0.554   2.751 -2.3551  2.0460  0.1997
 6096SOL    HW229925   3.391   0.643   2.782  1.2340 -1.4795 -0.1988
 6097SOL     OW29926   3.260   4.647   5.007 -0.2707  0.0228  0.7162
 6097SOL    HW129927   3.186   4.661   5.066 -1.0910 -1.2405 -0.0080
 6097SOL    HW229928   3.224   4.632   4.919 -0.7774 -0.2582  0.9708
 6098SOL     OW29929   0.096   3.034  10.169  0.5030 -0.0119  0.5477
 6098SOL    HW129930   0.163   2.967  10.179  0.5361  0.0848  1.0078
 6098SOL    HW229931   0.042   3.003  10.242 -2.6565 -0.0132 -1.7951
 6099SOL     OW29932   3.247   2.663   5.984 -0.0681  0.1180 -0.9290
 6099SOL    HW129933   3.212   2.663   6.073 -0.0463  0.7529 -0.9209
 6099SOL    HW229934   3.162   2.682   5.943 -1.1339  1.0854  1.7304
 6100SOL     OW29935   3.995   3.715   0.376  0.0510 -0.5202  0.0085
 6100SOL    HW129936   3.904   3.690   0.363 -0.2010  0.0882  0.5981
 6100SOL    HW229937   4.018   3.650   0.443 -2.7296 -1.7138 -0.1948
 6101SOL     OW29938   1.730   0.440   5.864 -0.2998 -0.2880  0.1158
 6101SOL    HW129939   1.680   0.359   5.877 -0.1045 -0.1546  1.7557
 6101SOL    HW229940   1.665   0.483   5.809  0.3102 -0.4879 -0.7655
 6102SOL     OW29941   4.575   1.875   7.569  0.4756 -0.0737  0.0142
 6102SOL    HW129942   4.480   1.883   7.566  0.5607 -0.9033 -4.5294
 6102SOL    HW229943   4.591   1.948   7.629  1.2659 -0.2065 -0.0412
 6103SOL     OW29944   4.062   3.612   8.324  0.1142 -0.1186 -0.1475
 6103SOL    HW129945   3.972   3.643   8.310  0.5217  0.7076 -0.9265
 6103SOL    HW229946   4.115   3.691   8.334  2.6617 -1.8187 -0.4920
 6104SOL     OW29947   4.027   2.651   9.490  0.4835 -0.0168 -0.3601
 6104SOL    HW129948   3.951   2.709   9.495 -0.4427 -1.0427 -2.7189
 6104SOL    HW229949   4.059   2.634   9.579  0.6113 -1.9907 -0.7711
 6105SOL     OW29950   2.611   2.104  12.618 -0.2759 -0.2105 -0.8179
 6105SOL    HW129951   2.518   2.095  12.638 -0.2566 -0.3408 -0.7873
 6105SOL    HW229952   2.636   2.021  12.576 -1.6222 -2.0469  1.9955
 6106SOL     OW29953   4.678   4.583   8.235  0.1317 -0.1786  0.5750
 6106SOL    HW129954   4.737   4.638   8.286  0.9670 -0.1062 -0.4630
 6106SOL    HW229955   4.672   4.514   8.302  2.4742 -2.4468 -1.5589
 6107SOL     OW29956   2.710   2.560   7.316  0.0741 -0.1533 -0.2356
 6107SOL    HW129957   2.636   2.499   7.316  1.6977 -2.1397 -3.1239
 6107SOL    HW229958   2.670   2.645   7.333  0.1461 -0.2043  0.1808
 6108SOL     OW29959   4.162   0.507   7.688 -0.2432 -0.0927 -0.2194
 6108SOL    HW129960   4.128   0.581   7.738 -0.7763 -0.9652  0.7196
 6108SOL    HW229961   4.246   0.537   7.655 -0.8579  0.2614 -1.4658
 6109SOL     OW29962   0.656   3.837   4.123 -0.3926 -0.6546 -0.4917
 6109SOL    HW129963   0.630   3.766   4.182 -3.3656  1.0657  0.2838
 6109SOL    HW229964   0.741   3.811   4.088 -0.9660 -1.4683 -1.2574
 6110SOL     OW29965   0.289   4.006   1.363  0.4527  0.1835 -0.2871
 6110SOL    HW129966   0.344   4.077   1.330  0.4545  0.3605  0.0960
 6110SOL    HW229967   0.251   3.972   1.282 -1.3341  0.0945  0.5842
 6111SOL     OW29968   1.609   3.984   6.391 -0.1903 -0.1576  0.1536
 6111SOL    HW129969   1.587   3.995   6.299  1.0811  1.9100  0.1137
 6111SOL    HW229970   1.604   4.073   6.425 -0.6075 -0.5048  1.0138
 6112SOL     OW29971   0.830   0.661   0.882  0.4560  0.0035  0.2492
 6112SOL    HW129972   0.754   0.634   0.934  0.5659 -1.2598 -0.2465
 6112SOL    HW229973   0.796   0.671   0.793 -1.0819 -1.5095  0.6554
 6113SOL     OW29974   3.050   1.617   8.815  0.4554  0.0041 -0.1798
 6113SOL    HW129975   3.021   1.663   8.894 -1.0950 -1.5978  0.1724
 6113SOL    HW229976   2.995   1.661   8.751  0.4789  1.8460  1.0563
 6114SOL     OW29977   2.077   1.229  15.398 -0.3637 -0.0218 -0.0023
 6114SOL    HW129978   2.042   1.280  15.471 -2.0292 -2.0679  0.6107
 6114SOL    HW229979   2.165   1.268  15.395 -0.0662 -0.6964 -0.0244
 6115SOL     OW29980   0.126   4.372   3.457  0.1165 -0.0237 -0.1968
 6115SOL    HW129981   0.095   4.382   3.547 -0.4349 -0.1002 -0.3757
 6115SOL    HW229982   0.221   4.379   3.467  0.3671 -0.7757 -2.1179
 6116SOL     OW29983   3.800   0.540   3.003 -0.1623 -0.1023  0.4697
 6116SOL    HW129984   3.827   0.463   2.953 -3.0338 -1.5604  1.1861
 6116SOL    HW229985   3.864   0.550   3.074  2.0595 -0.6959 -1.4533
 6117SOL     OW29986   4.710   1.978   9.665 -0.1724  0.1925 -0.0098
 6117SOL    HW129987   0.034   2.002   9.734 -0.3852 -0.1822  0.3101
 6117SOL    HW229988   4.626   1.998   9.707 -0.7330 -1.7427 -0.2134
 6118SOL     OW29989   1.744   3.958   6.846  0.5736  0.2571 -0.1536
 6118SOL    HW129990   1.663   3.992   6.809  2.1457  2.6454 -1.3905
 6118SOL    HW229991   1.788   3.920   6.770  1.7514 -1.5015  1.3811
 6119SOL     OW29992   1.621   4.446   8.207 -0.6399 -0.4028 -0.5447
 6119SOL    HW129993   1.556   4.489   8.152 -0.2609 -2.8198 -2.8713
 6119SOL    HW229994   1.563   4.399   8.267 -0.1382  2.3224  2.0879
 6120SOL     OW29995   2.125   1.999  12.084 -1.0337  0.4473 -0.0816
 6120SOL    HW129996   2.075   2.021  12.163  2.3030  2.6690  1.3919
 6120SOL    HW229997   2.072   1.924  12.056  0.4278 -0.9325  0.8354
 6121SOL     OW29998   2.738   1.572   4.418  0.2627  0.0129  0.5901
 6121SOL    HW129999   2.803   1.635   4.388  0.0317  0.3020  0.6936
 6121SOL    HW230000   2.725   1.525   4.335 -2.0279 -0.3253  1.1407
 6122SOL     OW30001   2.150   4.169   6.674 -0.2469  0.8867  1.0700
 6122SOL    HW130002   2.195   4.105   6.728  3.1417  1.3935 -1.1239
 6122SOL    HW230003   2.225   4.205   6.626 -0.5238  0.4471  0.2974
 6123SOL     OW30004   2.806   0.442   3.292  0.4264  0.5475 -0.1518
 6123SOL    HW130005   2.788   0.359   3.337  1.5877  1.5015  2.0164
 6123SOL    HW230006   2.801   0.508   3.360 -0.0918  1.5837 -1.1915
 6124SOL     OW30007   2.279   4.562   5.383 -0.2659  0.5296  0.1808
 6124SOL    HW130008   2.369   4.557   5.415 -0.5411 -0.8405  0.7065
 6124SOL    HW230009   2.235   4.606   5.456  0.8765  0.0853  1.1313
 6125SOL     OW30010   0.768   1.383   8.415 -0.5546 -0.1827  0.1411
 6125SOL    HW130011   0.791   1.448   8.349 -0.5682 -1.0945 -0.7562
 6125SOL    HW230012   0.850   1.353   8.455  0.3578  2.3409  0.1629
 6126SOL     OW30013   3.686   2.647   6.140 -0.0920  0.3689 -0.0208
 6126SOL    HW130014   3.722   2.566   6.105 -2.0428 -1.5891  2.5092
 6126SOL    HW230015   3.686   2.708   6.066 -0.9638  0.1338 -0.2132
 6127SOL     OW30016   3.511   3.777   3.025  0.5701  0.1618  0.3945
 6127SOL    HW130017   3.538   3.687   3.048  0.5217  0.1792  0.5187
 6127SOL    HW230018   3.416   3.771   3.035  0.9038 -1.9735  2.1658
 6128SOL     OW30019   1.368   3.807  17.230 -0.2019 -0.0077 -0.0394
 6128SOL    HW130020   1.421   3.843  17.158 -1.3765  0.0987 -0.8628
 6128SOL    HW230021   1.414   3.849  17.302 -0.1814 -2.2118  1.2136
 6129SOL     OW30022   4.131   3.013   0.541 -0.3478  0.4742 -0.1425
 6129SOL    HW130023   4.077   2.936   0.559  0.5220  0.2527  1.5867
 6129SOL    HW230024   4.204   2.969   0.498 -0.8034 -1.8357  1.4261
 6130SOL     OW30025   1.302   0.791   6.414 -0.1865  0.1347  0.2940
 6130SOL    HW130026   1.248   0.825   6.343  0.2497  2.5571  1.1378
 6130SOL    HW230027   1.364   0.743   6.359 -1.8456 -1.5693 -0.1081
 6131SOL     OW30028   1.042   4.277   8.163 -0.5849 -0.3898  0.3993
 6131SOL    HW130029   0.957   4.247   8.195 -2.1685  2.0073 -1.5586
 6131SOL    HW230030   1.024   4.260   8.070 -0.0399 -0.7227  0.3562
 6132SOL     OW30031   3.468   0.170   5.778 -0.0907 -0.0390 -0.8591
 6132SOL    HW130032   3.450   0.104   5.711 -0.4644  1.2583 -2.0471
 6132SOL    HW230033   3.505   0.113   5.845  2.2628  1.7650 -0.6412
 6133SOL     OW30034   4.141   3.197   7.999  0.3105 -0.4935  0.3620
 6133SOL    HW130035   4.161   3.219   8.090 -2.5619  0.8983  0.6622
 6133SOL    HW230036   4.199   3.121   7.994 -0.3617 -1.0790  1.5938
 6134SOL     OW30037   4.553   3.811   6.231 -0.0760 -0.1651  0.1712
 6134SOL    HW130038   4.574   3.897   6.267 -0.8060 -0.1277  0.5087
 6134SOL    HW230039   4.458   3.822   6.237  0.0610  0.6632  0.8408
 6135SOL     OW30040   0.185   4.051  10.169 -0.3138 -0.1479  0.7344
 6135SOL    HW130041   0.237   4.005  10.104 -1.4623 -0.6964  0.1933
 6135SOL    HW230042   0.247   4.098  10.224 -1.1129 -0.5162  1.9498
 6136SOL     OW30043   3.215   2.199   7.881 -0.1622  0.3032  0.2380
 6136SOL    HW130044   3.188   2.269   7.940 -1.1696 -0.0234  0.1691
 6136SOL    HW230045   3.171   2.224   7.800  0.4470  2.2221  0.5128
 6137SOL     OW30046   2.822   4.536   7.080 -0.0296  0.3506 -0.2954
 6137SOL    HW130047   2.853   4.598   7.013 -0.9833  0.9100 -0.2238
 6137SOL    HW230048   2.802   4.600   7.148 -1.9321  2.0170 -2.4122
 6138SOL     OW30049   4.520   1.172  10.080 -0.4555  0.3385  0.5161
 6138SOL    HW130050   4.501   1.259  10.114 -0.2843 -0.1052  1.7493
 6138SOL    HW230051   4.538   1.198   9.990  0.4834 -1.7533  0.1080
 6139SOL     OW30052   0.879   2.044  11.158  0.3501 -0.1514  0.2035
 6139SOL    HW130053   0.791   2.057  11.123  0.3706  1.0140  0.5959
 6139SOL    HW230054   0.863   2.040  11.253 -2.1258 -0.3583 -0.2189
 6140SOL     OW30055   3.427   4.140   6.033  0.2475  0.2107 -0.2978
 6140SOL    HW130056   3.392   4.228   6.020 -0.5278 -0.0527  0.0063
 6140SOL    HW230057   3.499   4.150   5.971  1.8407  0.0049  1.5499
 6141SOL     OW30058   1.484   4.379   6.018 -0.1522 -0.2695  0.5604
 6141SOL    HW130059   1.392   4.385   5.992  0.2729  0.6732 -0.7366
 6141SOL    HW230060   1.469   4.355   6.110 -3.8478 -1.3563 -0.3495
 6142SOL     OW30061   0.504   2.050   5.376 -0.1707 -0.2952  0.3355
 6142SOL    HW130062   0.554   2.095   5.309  0.5872 -1.9495 -0.2112
 6142SOL    HW230063   0.572   1.990   5.409 -0.2176 -1.6769 -2.0682
 6143SOL     OW30064   3.301   2.968   8.055  0.2304  0.1212  0.0038
 6143SOL    HW130065   3.367   2.969   8.125  1.0453  1.6264 -0.7823
 6143SOL    HW230066   3.291   3.062   8.039 -0.2528 -0.0213 -0.5164
 6144SOL     OW30067   0.637   4.094   7.474  0.3614  0.0743 -0.4351
 6144SOL    HW130068   0.633   4.068   7.382 -2.1667  1.0987 -0.5946
 6144SOL    HW230069   0.622   4.188   7.470 -0.7075 -0.0862  0.0204
 6145SOL     OW30070   0.898   3.222   5.822  0.4318  0.2655 -0.2193
 6145SOL    HW130071   0.912   3.131   5.795 -1.4037  0.1050 -0.6356
 6145SOL    HW230072   0.860   3.219   5.910  1.6960 -0.7346  0.2839
 6146SOL     OW30073   0.906   0.253   3.968 -0.7481  0.1465  0.2113
 6146SOL    HW130074   0.925   0.260   3.875 -1.9233 -1.6768 -0.1549
 6146SOL    HW230075   0.998   0.235   3.989 -0.3867  0.6488 -0.9293
 6147SOL     OW30076   0.281   3.263  11.322 -0.2952  0.2086 -0.1855
 6147SOL    HW130077   0.333   3.211  11.261  2.6003  0.0798  2.3697
 6147SOL    HW230078   0.283   3.356  11.299 -1.8097  0.2276 -0.2945
 6148SOL     OW30079   0.563   0.353   9.774  0.0057  0.2242 -0.1193
 6148SOL    HW130080   0.658   0.343   9.770  0.3898  4.0440 -1.1885
 6148SOL    HW230081   0.555   0.412   9.849  1.5675  1.2199 -0.7385
 6149SOL     OW30082   2.583   2.022   7.706 -0.3452  0.1998  0.1326
 6149SOL    HW130083   2.513   2.084   7.688  1.8967  2.6226 -0.3259
 6149SOL    HW230084   2.581   2.031   7.802  0.9519 -1.1435  0.2864
 6150SOL     OW30085   1.304   1.948   3.730  0.9667  0.3280  0.0091
 6150SOL    HW130086   1.224   1.898   3.717  1.0692 -0.0704  0.9694
 6150SOL    HW230087   1.366   1.875   3.725  0.8710  0.0833  2.4231
 6151SOL     OW30088   3.874   2.263  11.051 -0.3454 -0.2676 -0.2140
 6151SOL    HW130089   3.855   2.232  11.139  0.7875 -0.0635  0.1071
 6151SOL    HW230090   3.830   2.348  11.052  1.0915  0.5290 -2.2809
 6152SOL     OW30091   3.712   4.607   5.735  0.2733  0.4247  0.5423
 6152SOL    HW130092   3.778   4.659   5.781  0.6585  0.0897  0.3600
 6152SOL    HW230093   3.682   4.545   5.801 -0.0699  0.6629  0.6161
 6153SOL     OW30094   0.475   1.190   7.124  0.6940  0.1885 -0.1259
 6153SOL    HW130095   0.397   1.205   7.070  1.6824  0.4629 -1.4612
 6153SOL    HW230096   0.447   1.240   7.200 -1.2530 -1.6463  0.3653
 6154SOL     OW30097   2.071   3.852  14.559 -0.0588  0.4608  0.4411
 6154SOL    HW130098   2.023   3.778  14.598 -0.7432  0.8521  0.3404
 6154SOL    HW230099   1.999   3.899  14.518  0.2891  0.9521  0.3956
 6155SOL     OW30100   0.720   3.810   2.384 -0.1378 -0.3977  0.0198
 6155SOL    HW130101   0.644   3.852   2.345 -1.7068 -2.3914  0.8784
 6155SOL    HW230102   0.686   3.792   2.472 -1.0093 -0.0243 -0.2445
 6156SOL     OW30103   2.459   1.601  14.674  1.1927 -0.7828  0.0201
 6156SOL    HW130104   2.447   1.615  14.580  0.5338  2.4755  0.5725
 6156SOL    HW230105   2.405   1.523  14.685 -0.5886  0.4323 -0.0775
 6157SOL     OW30106   2.514   3.076   0.429 -0.4911  0.0356 -0.8901
 6157SOL    HW130107   2.608   3.071   0.442 -0.5026  1.7098 -0.0975
 6157SOL    HW230108   2.503   3.099   0.522 -0.0569  0.2263 -0.8905
 6158SOL     OW30109   1.067   4.632   3.430  0.0139 -0.5499 -0.2703
 6158SOL    HW130110   1.115   4.628   3.512  0.5074  0.5073 -0.5112
 6158SOL    HW230111   0.986   4.645   3.479  0.2620  1.5902 -0.4552
 6159SOL     OW30112   4.619   0.089   6.884  0.1626 -0.2439 -0.3153
 6159SOL    HW130113   4.591   0.104   6.974  1.3207  0.3481 -0.0500
 6159SOL    HW230114   4.714   0.076   6.889  0.1683  0.6798  1.9427
 6160SOL     OW30115   0.329   3.163   6.344 -0.2009 -0.5803  0.1489
 6160SOL    HW130116   0.350   3.070   6.340  1.6536 -0.1071 -1.0461
 6160SOL    HW230117   0.368   3.172   6.431 -2.4088  1.3694  0.9306
 6161SOL     OW30118   1.651   1.472   9.462  0.3025 -0.3243  0.0939
 6161SOL    HW130119   1.637   1.484   9.368 -1.5733 -1.0587  0.2788
 6161SOL    HW230120   1.562   1.478   9.497  0.2982  2.6759 -0.4133
 6162SOL     OW30121   3.907   1.377   7.049  0.3146  0.3853  0.1501
 6162SOL    HW130122   3.971   1.435   7.092 -0.9767  0.9053  1.3932
 6162SOL    HW230123   3.969   1.361   6.979 -0.0014  1.0367 -0.2782
 6163SOL     OW30124   0.093   2.309  11.530  0.0794 -0.6472 -0.4489
 6163SOL    HW130125   0.168   2.363  11.556 -0.1156 -0.4733 -0.2411
 6163SOL    HW230126   0.125   2.219  11.534  0.4958 -0.4675  0.2790
 6164SOL     OW30127   1.174   4.214  15.529 -0.0442  0.0593  0.2329
 6164SOL    HW130128   1.131   4.158  15.594  2.0244 -0.9623  0.7387
 6164SOL    HW230129   1.122   4.294  15.526 -0.0750  0.0115 -0.5361
 6165SOL     OW30130   4.151   1.299  12.156  0.1075  0.2369 -0.4159
 6165SOL    HW130131   4.075   1.241  12.159 -0.1292  0.6046  0.7095
 6165SOL    HW230132   4.125   1.386  12.186 -0.4624  0.6895 -2.2224
 6166SOL     OW30133   1.580   2.595   7.320 -0.6517 -0.1696  0.3953
 6166SOL    HW130134   1.640   2.590   7.395  0.6198  2.1943 -0.4694
 6166SOL    HW230135   1.507   2.546   7.358 -1.0056 -1.3816 -1.8549
 6167SOL     OW30136   3.825   0.969   1.363  0.0646 -0.2255 -0.1253
 6167SOL    HW130137   3.853   0.918   1.440  0.1377 -1.1327 -0.7569
 6167SOL    HW230138   3.802   1.042   1.421 -2.1328 -0.3543 -0.8570
 6168SOL     OW30139   3.312   3.563  15.642  0.0572 -0.9600  0.0991
 6168SOL    HW130140   3.230   3.607  15.620 -0.8029 -2.1938  0.8733
 6168SOL    HW230141   3.344   3.544  15.554  0.8546 -1.3920  0.4769
 6169SOL     OW30142   2.001   0.256   6.884 -0.0472 -0.3284  0.1045
 6169SOL    HW130143   2.007   0.201   6.961 -0.7536 -1.2930 -0.5266
 6169SOL    HW230144   1.923   0.311   6.892 -0.3315 -0.6105 -0.7026
 6170SOL     OW30145   3.251   0.966   5.682 -0.3598  0.3145  0.2325
 6170SOL    HW130146   3.194   1.002   5.613  1.2339 -1.2975 -1.9503
 6170SOL    HW230147   3.315   0.931   5.620  0.4071  0.0612  1.1744
 6171SOL     OW30148   1.960   2.120   7.855  0.1386 -0.3482  0.1991
 6171SOL    HW130149   1.996   2.136   7.942  1.5658 -2.4168 -0.0028
 6171SOL    HW230150   1.961   2.024   7.852 -1.0095 -0.3053 -1.3959
 6172SOL     OW30151   3.576   3.496   4.211 -0.2145 -0.6104 -0.4776
 6172SOL    HW130152   3.506   3.441   4.246 -0.8120 -0.5339 -1.5412
 6172SOL    HW230153   3.571   3.476   4.117 -1.9891  0.6425 -0.6592
 6173SOL     OW30154   3.070   0.430   3.475  0.4463  0.5164 -0.3441
 6173SOL    HW130155   3.002   0.414   3.410  0.9652 -3.2099  0.0513
 6173SOL    HW230156   3.022   0.421   3.557  1.7716  1.6526  0.5487
 6174SOL     OW30157   3.447   4.286   6.784  0.3372 -0.3751 -0.6865
 6174SOL    HW130158   3.389   4.251   6.716 -1.2287  1.0075 -0.0639
 6174SOL    HW230159   3.382   4.338   6.830  0.6585  0.6681 -1.4000
 6175SOL     OW30160   3.394   1.371   9.484  0.5842  0.4255  0.6630
 6175SOL    HW130161   3.385   1.276   9.494  2.1014  0.2100 -0.0015
 6175SOL    HW230162   3.473   1.381   9.431  0.0678 -1.3793 -0.4344
 6176SOL     OW30163   3.483   3.473  13.684 -0.1827 -0.1022 -0.3489
 6176SOL    HW130164   3.446   3.390  13.713  3.9327 -1.4244  1.2187
 6176SOL    HW230165   3.409   3.533  13.678 -0.2936 -0.0814  1.2351
 6177SOL     OW30166   3.113   4.179  17.029 -0.6946 -0.4344  0.3263
 6177SOL    HW130167   3.092   4.092  17.063 -0.2920 -0.4719  0.4730
 6177SOL    HW230168   3.112   4.226  17.112  3.5384  1.7386 -0.8598
 6178SOL     OW30169   0.555   1.837   4.313  0.3553 -0.1304 -0.4840
 6178SOL    HW130170   0.564   1.745   4.289  2.3455  0.2399 -1.1593
 6178SOL    HW230171   0.466   1.855   4.283  0.7555  0.2126 -1.4523
 6179SOL     OW30172   4.082   4.112   9.431  0.5372  0.2860 -0.3312
 6179SOL    HW130173   4.085   4.208   9.428  1.0518  0.3526  2.6539
 6179SOL    HW230174   3.994   4.102   9.394  1.7069  2.8602 -3.7317
 6180SOL     OW30175   0.646   1.646   6.592  0.4145 -0.5392 -0.1212
 6180SOL    HW130176   0.741   1.639   6.601  0.4961  0.0951 -0.4816
 6180SOL    HW230177   0.627   1.739   6.602 -1.3231 -0.8242 -0.7539
 6181SOL     OW30178   1.685   3.714  17.120  0.3088 -0.3492  0.2010
 6181SOL    HW130179   1.662   3.636  17.170  0.2199 -1.3229 -1.3645
 6181SOL    HW230180   1.776   3.697  17.145  1.0584  1.3700 -1.3980
 6182SOL     OW30181   2.776   4.032   4.555  0.2964 -0.0422  0.0372
 6182SOL    HW130182   2.691   4.034   4.598  0.2460 -0.5588 -0.0437
 6182SOL    HW230183   2.750   4.081   4.477 -2.2057 -2.7897 -0.8300
 6183SOL     OW30184   2.232   3.245   3.823 -0.3539  0.1005  0.1724
 6183SOL    HW130185   2.211   3.161   3.864  0.3634 -0.1537  0.0214
 6183SOL    HW230186   2.224   3.230   3.728  0.5751 -2.3679  0.4899
 6184SOL     OW30187   2.102   2.598   3.612 -0.2141 -0.5331  0.1150
 6184SOL    HW130188   2.151   2.525   3.650  0.9106 -0.6330 -1.5337
 6184SOL    HW230189   2.017   2.607   3.655 -0.3397  1.7687 -0.6290
 6185SOL     OW30190   3.130   2.873   1.249  0.3928 -0.3276 -0.1684
 6185SOL    HW130191   3.222   2.871   1.275 -0.9324 -1.0426  4.4007
 6185SOL    HW230192   3.123   2.835   1.161 -1.4933  1.3683 -0.7441
 6186SOL     OW30193   2.104   2.530  12.438 -0.2048 -0.4284 -0.5081
 6186SOL    HW130194   2.181   2.551  12.491  0.4780 -0.5740 -1.4369
 6186SOL    HW230195   2.143   2.452  12.399 -0.2017 -0.6793  0.0004
 6187SOL     OW30196   0.429   0.831   8.205 -0.2035 -0.1021  0.3084
 6187SOL    HW130197   0.520   0.821   8.233 -0.7480 -1.6677  1.5469
 6187SOL    HW230198   0.378   0.828   8.286 -0.3616  0.7459  0.2379
 6188SOL     OW30199   3.251   4.051   8.836 -0.2314 -0.0792  0.7865
 6188SOL    HW130200   3.174   4.062   8.893 -0.2537  1.2135  0.4997
 6188SOL    HW230201   3.319   4.096   8.886 -0.6571 -0.8464  2.0697
 6189SOL     OW30202   2.768   3.375   0.884  0.0771  0.2243  0.1658
 6189SOL    HW130203   2.714   3.443   0.843  0.8587  1.9771  2.0758
 6189SOL    HW230204   2.694   3.315   0.895 -2.0369  2.7822  0.1282
 6190SOL     OW30205   2.273   1.858   1.587  0.0357 -0.2026  0.4279
 6190SOL    HW130206   2.270   1.764   1.566 -0.9762 -0.2914  0.9436
 6190SOL    HW230207   2.183   1.891   1.586  0.3545  0.6117 -1.2784
 6191SOL     OW30208   0.998   3.330   4.615 -0.4727 -0.2494  0.2517
 6191SOL    HW130209   1.016   3.239   4.592 -2.8853  0.0252 -2.6297
 6191SOL    HW230210   0.923   3.360   4.564 -0.9590  1.8413  2.1959
 6192SOL     OW30211   0.733   1.263   6.691 -0.1698  0.4375 -0.5090
 6192SOL    HW130212   0.818   1.228   6.663  0.0646 -1.7892  2.9161
 6192SOL    HW230213   0.754   1.338   6.748 -1.3331 -0.7394  1.4667
 6193SOL     OW30214   0.113   0.436   7.071 -0.3298  0.6939 -0.2658
 6193SOL    HW130215   0.078   0.384   7.144  0.0607  1.1666  0.2604
 6193SOL    HW230216   0.208   0.424   7.082 -0.4229 -0.3809 -0.6456
 6194SOL     OW30217   1.704   4.107  10.796  0.2049 -0.0709  1.0260
 6194SOL    HW130218   1.695   4.043  10.866 -1.2668 -0.4088  0.5080
 6194SOL    HW230219   1.798   4.123  10.809  0.3193 -0.8887  1.2181
 6195SOL     OW30220   1.529   2.291  16.837  0.0788 -0.2909  0.0453
 6195SOL    HW130221   1.552   2.200  16.856  3.2883  0.7379  1.0889
 6195SOL    HW230222   1.586   2.310  16.763  1.3273 -1.3413  0.7354
 6196SOL     OW30223   2.355   2.965   2.756 -0.3000 -0.0986  0.5624
 6196SOL    HW130224   2.404   3.008   2.826 -0.9002  1.4795  0.0123
 6196SOL    HW230225   2.395   3.009   2.681 -2.5643  1.3621  0.2252
 6197SOL     OW30226   1.322   0.231   3.852 -0.0614  0.7826  0.1671
 6197SOL    HW130227   1.294   0.322   3.862 -0.1522  0.9696 -1.8886
 6197SOL    HW230228   1.357   0.221   3.764 -0.4025  2.3639 -0.1489
 6198SOL     OW30229   1.704   0.971   1.484 -0.0576  0.4473  0.6871
 6198SOL    HW130230   1.727   1.008   1.570  1.4731  0.2049  0.3828
 6198SOL    HW230231   1.759   1.018   1.422  2.1224  0.1564  2.3821
 6199SOL     OW30232   2.343   2.179   7.625  0.2643  0.2247  0.3258
 6199SOL    HW130233   2.285   2.141   7.559  0.7562 -1.5040  0.8883
 6199SOL    HW230234   2.404   2.231   7.573  2.3938 -0.4835  2.1214
 6200SOL     OW30235   0.715   2.832   2.361 -0.5723  0.0302  0.5206
 6200SOL    HW130236   0.624   2.830   2.392 -0.4779  0.1730  0.8070
 6200SOL    HW230237   0.706   2.822   2.266 -1.7440 -0.3811  0.6757
 6201SOL     OW30238   3.365   1.263   5.572  0.0835 -0.1571  0.1450
 6201SOL    HW130239   3.348   1.351   5.604  1.5120  0.5007 -0.9303
 6201SOL    HW230240   3.330   1.268   5.483  0.5687 -1.3294 -0.1108
 6202SOL     OW30241   4.014   3.691   3.162 -0.3115  0.3938  0.3288
 6202SOL    HW130242   4.017   3.595   3.164  2.7653  0.5118  0.4396
 6202SOL    HW230243   4.052   3.709   3.248 -1.5962  0.9625  0.7779
 6203SOL     OW30244   0.243   2.758   4.694  0.0419 -0.0950  0.3826
 6203SOL    HW130245   0.306   2.826   4.719  0.8007  0.3144 -2.5852
 6203SOL    HW230246   0.293   2.682   4.722  1.5252  0.9986  0.7109
 6204SOL     OW30247   4.347   3.807   8.219 -0.1254  0.1091  0.1695
 6204SOL    HW130248   4.320   3.876   8.280 -0.5938 -0.8504  1.0330
 6204SOL    HW230249   4.442   3.816   8.208 -0.2819  0.7537 -0.6124
 6205SOL     OW30250   1.503   2.721   8.568  0.6866 -0.3967 -0.4454
 6205SOL    HW130251   1.546   2.806   8.556  0.5996 -0.5606 -1.9796
 6205SOL    HW230252   1.441   2.740   8.638  1.1227 -1.9145  0.3475
 6206SOL     OW30253   1.887   1.312  10.219  1.1439 -0.3570  0.2108
 6206SOL    HW130254   1.812   1.253  10.221 -0.3339  1.4580 -2.1863
 6206SOL    HW230255   1.922   1.293  10.306 -1.7668  1.3193  1.7461
 6207SOL     OW30256   0.659   0.020   7.975 -0.1797  0.5836 -0.2657
 6207SOL    HW130257   0.676   0.025   7.881  1.0549 -1.5328 -0.1534
 6207SOL    HW230258   0.721   4.688   7.997 -0.9022  0.0150 -0.0416
 6208SOL     OW30259   4.054   0.224   4.542  0.1045 -0.0486 -0.0992
 6208SOL    HW130260   4.116   0.197   4.475  0.9741  2.4508 -0.2949
 6208SOL    HW230261   3.969   0.206   4.503 -0.5188 -0.4150  1.4191
 6209SOL     OW30262   1.773   2.986  12.052  0.0558 -0.2790  0.5103
 6209SOL    HW130263   1.694   2.934  12.040  0.6209 -0.7786 -1.0178
 6209SOL    HW230264   1.746   3.057  12.111  0.0202 -1.1645  1.5595
 6210SOL     OW30265   1.639   3.035   7.624  0.1210 -0.1689 -0.4897
 6210SOL    HW130266   1.598   2.978   7.560 -1.6285  0.7429 -0.1810
 6210SOL    HW230267   1.622   2.990   7.707 -0.2660  0.9527  0.0378
 6211SOL     OW30268   1.716   0.339  11.332  0.0347 -0.3856  0.3003
 6211SOL    HW130269   1.726   0.427  11.369 -2.3637  0.9985 -2.3369
 6211SOL    HW230270   1.627   0.311  11.351 -0.6957  0.1230 -2.3461
 6212SOL     OW30271   1.042   0.037   2.868 -0.1312 -0.3530 -0.0608
 6212SOL    HW130272   1.037   4.695   2.816  1.7252 -1.8990  2.1404
 6212SOL    HW230273   0.957   0.049   2.909 -0.9056  0.3289 -1.8754
 6213SOL     OW30274   2.449   1.333  15.779  0.5721  0.1887  0.4197
 6213SOL    HW130275   2.403   1.369  15.855  1.3941  0.6964  0.6767
 6213SOL    HW230276   2.388   1.351  15.707  1.8596  1.1702 -0.4290
 6214SOL     OW30277   3.050   0.145   7.020 -0.0296  0.1426  0.3127
 6214SOL    HW130278   3.008   0.231   7.008  1.2696  0.3533 -2.9897
 6214SOL    HW230279   3.005   0.123   7.101 -1.9043  0.8450 -0.5246
 6215SOL     OW30280   1.843   3.568   6.510 -0.0723  0.3421 -0.8036
 6215SOL    HW130281   1.764   3.615   6.482 -2.3399 -1.5396  2.4024
 6215SOL    HW230282   1.909   3.635   6.495 -0.1801  0.1606 -2.1344
 6216SOL     OW30283   3.820   3.200   9.468 -0.7163 -0.1759 -0.0952
 6216SOL    HW130284   3.843   3.163   9.382 -0.2789  1.3693 -0.6479
 6216SOL    HW230285   3.860   3.142   9.532 -0.4247  0.9319  0.7306
 6217SOL     OW30286   2.348   1.941   6.981  0.0991  0.0405  0.4218
 6217SOL    HW130287   2.281   1.888   6.937  2.0262 -0.6681 -1.6497
 6217SOL    HW230288   2.290   1.989   7.039  0.9352  0.2063  1.1084
 6218SOL     OW30289   1.206   4.335   9.015 -0.5498  0.2771  0.2814
 6218SOL    HW130290   1.287   4.289   9.037 -0.2995 -0.0192 -1.2794
 6218SOL    HW230291   1.169   4.269   8.956  1.9692 -0.8549 -0.0374
 6219SOL     OW30292   3.378   3.376   5.562  0.1055  0.2607 -0.2433
 6219SOL    HW130293   3.456   3.325   5.539 -0.2103 -0.1393 -0.4271
 6219SOL    HW230294   3.386   3.384   5.657 -0.5572 -0.3477 -0.1334
 6220SOL     OW30295   1.679   3.640   6.025 -0.1005 -0.3117  0.1153
 6220SOL    HW130296   1.681   3.556   6.071  0.9052 -0.9946 -1.2058
 6220SOL    HW230297   1.697   3.609   5.937  0.2080  0.4808 -0.1068
 6221SOL     OW30298   0.855   4.465   6.484 -0.1551  0.0556  0.1976
 6221SOL    HW130299   0.949   4.472   6.498 -0.3425 -0.8407  1.8955
 6221SOL    HW230300   0.839   4.541   6.429  2.0545 -0.3163 -0.9619
 6222SOL     OW30301   2.419   2.189  14.507  0.6554  0.3653  0.4466
 6222SOL    HW130302   2.385   2.113  14.555  0.2480 -0.5668 -1.3344
 6222SOL    HW230303   2.510   2.164  14.488  0.3256 -0.4440 -0.0521
 6223SOL     OW30304   3.055   2.844   8.224 -0.2146 -0.3365 -0.4099
 6223SOL    HW130305   3.013   2.923   8.258 -0.5875 -0.8848  0.4010
 6223SOL    HW230306   3.140   2.873   8.190  0.3555 -1.8477 -0.2601
 6224SOL     OW30307   0.347   0.370   7.401 -0.3022 -0.5533  0.2949
 6224SOL    HW130308   0.435   0.338   7.417  0.5244  2.3878  1.7778
 6224SOL    HW230309   0.304   0.298   7.355  1.0309 -0.7148 -0.6939
 6225SOL     OW30310   2.964   0.947   8.724  0.2270 -0.5588 -0.3684
 6225SOL    HW130311   3.054   0.959   8.756 -0.4075  1.4551  0.6301
 6225SOL    HW230312   2.985   0.899   8.644  1.6244 -0.5266 -0.0314
 6226SOL     OW30313   3.249   2.331   5.681  0.1723  0.2740 -0.1424
 6226SOL    HW130314   3.155   2.340   5.661  0.1212  1.2117  0.5450
 6226SOL    HW230315   3.274   2.274   5.608  0.1759  1.6678 -1.2381
 6227SOL     OW30316   3.172   2.703   9.426  0.5729  0.0408 -0.2254
 6227SOL    HW130317   3.206   2.793   9.430  2.1188 -0.5771  0.6293
 6227SOL    HW230318   3.120   2.702   9.346  1.6991 -1.1848 -0.9349
 6228SOL     OW30319   1.846   1.194   3.075 -0.0090  0.8399 -0.2909
 6228SOL    HW130320   1.854   1.099   3.073 -1.2374  0.6967  1.4025
 6228SOL    HW230321   1.879   1.211   3.164 -1.2004  0.2468  0.2663
 6229SOL     OW30322   2.022   0.505  16.999  0.3689 -0.1292 -0.3723
 6229SOL    HW130323   2.028   0.485  16.906 -0.8546 -1.4414 -0.1731
 6229SOL    HW230324   2.049   0.427  17.048 -0.5668  0.4344  1.0420
 6230SOL     OW30325   0.885   2.191   5.099 -0.2887  0.4966 -0.0069
 6230SOL    HW130326   0.920   2.144   5.024  2.4181  1.2460  0.7942
 6230SOL    HW230327   0.877   2.115   5.157  0.6418  1.8062  1.8483
 6231SOL     OW30328   0.691   3.010  15.739  0.4480 -0.0985  1.1109
 6231SOL    HW130329   0.627   3.073  15.772  1.3043  1.6458 -0.5792
 6231SOL    HW230330   0.744   3.071  15.689 -0.8536  1.3776  1.5441
 6232SOL     OW30331   0.424   0.559   4.021  1.1325 -0.7644  0.4289
 6232SOL    HW130332   0.361   0.621   4.058 -0.7228 -0.4302 -3.2549
 6232SOL    HW230333   0.391   0.484   4.070  0.7881  0.8094  2.5743
 6233SOL     OW30334   0.290   4.020   7.169 -0.2300 -0.4688  0.5193
 6233SOL    HW130335   0.236   4.076   7.113 -4.8227 -2.4098  3.0296
 6233SOL    HW230336   0.262   3.933   7.143 -3.2041  0.7371 -0.4160
 6234SOL     OW30337   0.723   2.112   4.230  0.4121  0.8768  0.6138
 6234SOL    HW130338   0.808   2.085   4.264 -0.8352 -2.9545  0.6370
 6234SOL    HW230339   0.672   2.121   4.311 -1.6041 -0.0112 -0.5514
 6235SOL     OW30340   4.094   1.504   6.835  0.5286  0.3204  0.2077
 6235SOL    HW130341   4.152   1.481   6.762  0.7575  0.6111  0.2965
 6235SOL    HW230342   4.051   1.584   6.804 -0.1805 -0.1290  0.0586
 6236SOL     OW30343   2.757   3.511   5.717 -0.0492 -0.1512  0.2231
 6236SOL    HW130344   2.673   3.553   5.736 -0.5570 -1.1753  0.2459
 6236SOL    HW230345   2.765   3.472   5.804  2.4562 -1.2813 -0.4956
 6237SOL     OW30346   4.680   0.240   3.390 -0.2556  0.3729 -0.0522
 6237SOL    HW130347   4.620   0.169   3.371  0.8570 -0.8365  0.9716
 6237SOL    HW230348   4.707   0.263   3.302 -0.5966  2.1930  0.3145
 6238SOL     OW30349   1.639   3.493   4.628  1.0600 -0.3203  0.3788
 6238SOL    HW130350   1.605   3.441   4.700 -0.1531  1.9835  1.4605
 6238SOL    HW230351   1.733   3.481   4.640  1.1063 -0.1615  0.1817
 6239SOL     OW30352   1.910   4.147  10.987  0.4612 -0.7228  0.7411
 6239SOL    HW130353   1.871   4.216  10.932  1.8602  0.5442  1.3362
 6239SOL    HW230354   1.888   4.182  11.073 -1.1265 -1.1465  0.5142
 6240SOL     OW30355   2.518   3.822   2.549 -0.6079 -0.0895 -0.1827
 6240SOL    HW130356   2.587   3.886   2.565 -0.8065  0.7617 -2.6353
 6240SOL    HW230357   2.487   3.824   2.639 -0.3819  2.2933 -0.1707
 6241SOL     OW30358   1.099   4.487  10.194  0.3160  0.0465  0.3859
 6241SOL    HW130359   1.170   4.459  10.136  0.4782  2.8162 -0.7675
 6241SOL    HW230360   1.029   4.422  10.186 -1.6897  2.2815 -0.6039
 6242SOL     OW30361   2.407   0.000   3.498 -0.3626  0.2495  0.1753
 6242SOL    HW130362   2.368   4.692   3.572 -1.4094  1.0160  0.0872
 6242SOL    HW230363   2.491   4.693   3.510  0.0653  0.7181 -1.0955
 6243SOL     OW30364   1.558   0.961   0.121 -0.2757  0.8657  0.0614
 6243SOL    HW130365   1.588   0.885   0.071  0.4201 -0.3853  2.4148
 6243SOL    HW230366   1.616   0.944   0.195 -3.0422 -0.7244  1.8586
 6244SOL     OW30367   3.758   2.424   3.316  0.0632  0.2619 -0.3051
 6244SOL    HW130368   3.709   2.495   3.358 -0.5275  0.9270 -2.1386
 6244SOL    HW230369   3.829   2.465   3.267  0.2058  0.2637 -0.0961
 6245SOL     OW30370   4.647   3.458   5.038 -0.5127  0.0303  0.0481
 6245SOL    HW130371   4.711   3.509   4.988 -0.8179 -1.7149 -2.1071
 6245SOL    HW230372   4.586   3.529   5.059 -0.2978 -0.3516  2.0166
 6246SOL     OW30373   1.147   2.925   2.132  0.2839 -0.1106 -0.3910
 6246SOL    HW130374   1.136   2.843   2.180  0.1641  0.6256  0.8557
 6246SOL    HW230375   1.152   2.896   2.041 -2.5933 -3.6949  0.6125
 6247SOL     OW30376   3.773   1.123   3.492 -0.1865 -0.1549 -0.4541
 6247SOL    HW130377   3.810   1.049   3.540  0.0225 -2.2560 -3.8873
 6247SOL    HW230378   3.847   1.185   3.489 -0.5051  0.2605  0.4553
 6248SOL     OW30379   4.047   0.187   1.774 -0.3402 -0.2133 -0.3341
 6248SOL    HW130380   4.044   0.094   1.800  1.1086 -0.0024  0.5884
 6248SOL    HW230381   4.001   0.171   1.692 -0.9715 -1.0353  0.1763
 6249SOL     OW30382   3.229   2.158   5.445 -0.3932  0.2972  0.3102
 6249SOL    HW130383   3.166   2.222   5.411  1.7912  0.9052 -2.5570
 6249SOL    HW230384   3.293   2.167   5.374 -0.2711 -1.0402  0.2583
 6250SOL     OW30385   1.890   2.890   2.746  0.2775 -0.3842  0.0519
 6250SOL    HW130386   1.877   2.826   2.676 -1.4690  0.3087 -0.2637
 6250SOL    HW230387   1.825   2.959   2.734  0.4128 -0.0158  1.4341
 6251SOL     OW30388   3.163   3.992   9.293  0.8787 -0.4274  0.2619
 6251SOL    HW130389   3.196   4.077   9.322 -0.8157  1.2695 -2.7503
 6251SOL    HW230390   3.244   3.954   9.259  0.3002  1.6911 -3.4886
 6252SOL     OW30391   2.208   1.823   0.431  0.4807 -0.4954  0.0189
 6252SOL    HW130392   2.228   1.917   0.432  1.9459 -0.7750 -2.1893
 6252SOL    HW230393   2.116   1.829   0.408  0.6251  0.3462 -0.3376
 6253SOL     OW30394   3.545   0.401   9.023 -0.0115 -0.2245 -0.3558
 6253SOL    HW130395   3.625   0.453   9.013  0.0451 -0.5452 -1.5446
 6253SOL    HW230396   3.568   0.342   8.951  0.7260  0.7564 -0.9132
 6254SOL     OW30397   2.164   3.332  17.465  0.1008  0.0028  0.0007
 6254SOL    HW130398   2.168   3.252  17.518  0.6473 -0.9064 -1.4008
 6254SOL    HW230399   2.187   3.304  17.376 -2.9045  2.2533 -1.4972
 6255SOL     OW30400   1.373   1.770   4.742  0.1020 -0.3331 -0.0956
 6255SOL    HW130401   1.366   1.860   4.775 -1.4449 -1.6007  3.0087
 6255SOL    HW230402   1.466   1.750   4.751  0.3040  0.0969 -1.2293
 6256SOL     OW30403   3.294   3.982   4.477  0.1003 -0.0888  0.5400
 6256SOL    HW130404   3.200   3.966   4.481  0.0733 -0.4235 -1.6600
 6256SOL    HW230405   3.306   3.983   4.572  2.3964  2.8426  0.2168
 6257SOL     OW30406   4.483   3.495   9.116 -0.7156  0.4312  0.1718
 6257SOL    HW130407   4.456   3.439   9.189  1.0427  0.8124  1.1148
 6257SOL    HW230408   4.540   3.427   9.081  0.5851  1.3854  0.4677
 6258SOL     OW30409   1.041   1.304   4.689  0.1823  0.9452 -0.4302
 6258SOL    HW130410   1.074   1.237   4.749 -1.3339  1.7553  1.3335
 6258SOL    HW230411   1.099   1.294   4.614  0.8806 -1.6176  0.4490
 6259SOL     OW30412   3.390   2.716   2.099 -0.2930 -0.7429  0.0145
 6259SOL    HW130413   3.415   2.647   2.038  0.2397 -1.1692  0.7123
 6259SOL    HW230414   3.295   2.705   2.109 -0.7340  2.0724 -1.1590
 6260SOL     OW30415   2.537   1.406  10.226 -0.4463  0.2574 -0.2094
 6260SOL    HW130416   2.502   1.325  10.263  1.0214 -0.0521  0.4911
 6260SOL    HW230417   2.566   1.452  10.305 -2.0621  2.8209 -1.0987
 6261SOL     OW30418   3.871   4.295   8.188  0.5956 -0.2055 -0.3148
 6261SOL    HW130419   3.935   4.362   8.164  0.4650 -0.5763 -1.7169
 6261SOL    HW230420   3.923   4.218   8.208  0.2705 -0.1314  0.8008
 6262SOL     OW30421   0.568   1.482  12.477 -0.0652 -0.5092 -0.4656
 6262SOL    HW130422   0.583   1.511  12.387 -0.3181  1.6811  0.1895
 6262SOL    HW230423   0.626   1.541  12.526  1.2406 -1.9703 -0.2351
 6263SOL     OW30424   2.901   3.135  12.212 -0.6519 -0.0014  0.1852
 6263SOL    HW130425   2.960   3.141  12.137  0.2439 -1.6364  0.7673
 6263SOL    HW230426   2.909   3.227  12.241  0.6972  0.3460 -1.2940
 6264SOL     OW30427   4.597   0.966  12.924  0.5547 -0.3435  0.1016
 6264SOL    HW130428   4.684   0.959  12.884 -1.4818  0.7970 -4.5652
 6264SOL    HW230429   4.572   0.880  12.958  0.7248 -0.0919  0.8550
 6265SOL     OW30430   1.494   2.756   8.086 -0.0404 -0.0639 -0.1772
 6265SOL    HW130431   1.451   2.714   8.160  2.1107 -0.2864  0.9459
 6265SOL    HW230432   1.549   2.689   8.047 -0.6115 -1.0029  0.6305
 6266SOL     OW30433   3.391   1.149   5.268  0.8218  0.1123 -0.0108
 6266SOL    HW130434   3.452   1.222   5.274 -1.0532  1.7128 -0.6893
 6266SOL    HW230435   3.307   1.192   5.250  0.4263 -1.4873 -1.9486
 6267SOL     OW30436   0.491   3.664   0.024  0.0475 -0.1757 -0.4176
 6267SOL    HW130437   0.503   3.594  17.708  2.6188 -1.8166  1.7880
 6267SOL    HW230438   0.578   3.665   0.065 -1.3467 -0.1606  2.5092
 6268SOL     OW30439   3.409   2.751  13.955  0.3169 -0.2242 -0.6305
 6268SOL    HW130440   3.382   2.842  13.942 -3.7415 -1.1805  1.0789
 6268SOL    HW230441   3.338   2.710  14.004  0.6819  1.3062  1.1756
 6269SOL     OW30442   1.578   3.657   5.278 -0.1295  0.2458 -0.4377
 6269SOL    HW130443   1.511   3.721   5.301  0.2985 -0.3312  2.3666
 6269SOL    HW230444   1.645   3.718   5.250  1.0955 -0.3507  1.2307
 6270SOL     OW30445   1.030   3.505   1.982  0.3322  0.5080 -0.3376
 6270SOL    HW130446   1.072   3.443   1.923 -1.6804 -0.1279 -1.0940
 6270SOL    HW230447   0.939   3.498   1.955  0.6970 -2.3337 -0.8696
 6271SOL     OW30448   3.892   3.639   7.867  0.0572  0.4455  0.2301
 6271SOL    HW130449   3.950   3.716   7.864  1.9571 -1.0005  0.0861
 6271SOL    HW230450   3.950   3.584   7.919 -1.3282 -0.4318  0.8386
 6272SOL     OW30451   1.667   2.814  12.991 -0.8505 -0.3340 -0.3996
 6272SOL    HW130452   1.730   2.752  13.028 -0.5008  0.8045  0.9685
 6272SOL    HW230453   1.647   2.772  12.908 -1.6093 -0.4057 -0.1819
 6273SOL     OW30454   3.229   1.283  11.799  0.0888 -0.2895  0.7047
 6273SOL    HW130455   3.183   1.320  11.874 -1.2844  1.8039 -1.1688
 6273SOL    HW230456   3.169   1.315  11.731 -0.2499  0.6696  1.4597
 6274SOL     OW30457   0.204   2.986   5.929 -0.4028 -0.0474 -0.4922
 6274SOL    HW130458   0.235   2.896   5.923  0.2983 -0.0053  2.3760
 6274SOL    HW230459   0.256   3.027   5.860  0.0181  1.1586  0.5206
 6275SOL     OW30460   2.537   3.164   2.859 -0.0657 -0.0915  0.2810
 6275SOL    HW130461   2.606   3.215   2.815  1.2017 -1.4603  0.6685
 6275SOL    HW230462   2.478   3.236   2.882 -1.8306 -2.2578  2.4589
 6276SOL     OW30463   0.547   2.647  10.700  0.2573 -0.9066 -0.3425
 6276SOL    HW130464   0.616   2.609  10.756  1.7893  0.1541 -1.5259
 6276SOL    HW230465   0.609   2.686  10.639  0.9877 -3.8426 -1.4731
 6277SOL     OW30466   3.072   1.872   9.459 -0.0858  0.2585  0.1830
 6277SOL    HW130467   3.149   1.897   9.510  0.3136 -2.0407  0.7510
 6277SOL    HW230468   3.071   1.778   9.478 -1.7901  0.0554 -0.8858
 6278SOL     OW30469   4.695   1.290  11.951  0.1597 -0.9469 -0.2406
 6278SOL    HW130470   4.618   1.311  11.897  1.2186  3.4816 -0.0112
 6278SOL    HW230471   0.010   1.243  11.885 -1.1249 -0.1493 -1.8441
 6279SOL     OW30472   4.476   0.345   6.531  0.4464 -0.1785 -0.0561
 6279SOL    HW130473   4.403   0.407   6.534 -0.7344 -1.6830  1.8009
 6279SOL    HW230474   4.430   0.262   6.538  1.0602 -0.3932  1.6124
 6280SOL     OW30475   1.096   4.410   2.905  0.5109  0.3288  0.2334
 6280SOL    HW130476   1.006   4.396   2.877  1.0859 -0.9256 -0.9349
 6280SOL    HW230477   1.090   4.479   2.972  2.6172  0.6471  0.0778
 6281SOL     OW30478   1.208   0.015   9.348  0.1991  0.4385 -0.2586
 6281SOL    HW130479   1.230   0.093   9.400 -0.0031 -0.1019  0.6302
 6281SOL    HW230480   1.250   4.683   9.398 -2.4589 -0.8639  0.1720
 6282SOL     OW30481   3.586   2.577   3.507  0.0876  0.0210  0.1924
 6282SOL    HW130482   3.561   2.636   3.436  2.6839 -0.1551 -0.8536
 6282SOL    HW230483   3.510   2.519   3.521  1.4783 -1.8097  0.1519
 6283SOL     OW30484   1.904   0.356  14.936  0.3364  0.2534  0.0137
 6283SOL    HW130485   1.951   0.431  14.898  1.1415 -0.6475 -0.7892
 6283SOL    HW230486   1.815   0.390  14.922  0.6034  0.6648 -0.7131
 6284SOL     OW30487   2.076   1.104   6.818 -0.2846  0.3361  1.2096
 6284SOL    HW130488   2.095   1.128   6.908  2.4584  1.2710  0.4105
 6284SOL    HW230489   2.120   1.170   6.764 -1.8881  1.7462  1.6211
 6285SOL     OW30490   0.055   0.410  13.234 -0.2792  0.0432  0.0323
 6285SOL    HW130491   0.136   0.361  13.246  0.3972  0.9720 -0.7074
 6285SOL    HW230492   4.730   0.342  13.257  1.8542 -2.2071 -0.7906
 6286SOL     OW30493   2.792   2.241   8.257 -0.2102  0.3972  0.2828
 6286SOL    HW130494   2.773   2.331   8.233  0.1288  1.1742  2.9593
 6286SOL    HW230495   2.823   2.258   8.345 -1.2410 -2.3541  1.1950
 6287SOL     OW30496   1.255   2.645   9.416  0.3412 -0.2092 -1.0537
 6287SOL    HW130497   1.169   2.602   9.421 -0.1202  1.0816  1.8279
 6287SOL    HW230498   1.285   2.664   9.505 -1.9450 -2.9057  0.3039
 6288SOL     OW30499   4.037   0.109  15.069 -0.2863 -0.0126  0.0854
 6288SOL    HW130500   3.971   0.060  15.117  0.4050  0.1460  1.1891
 6288SOL    HW230501   4.118   0.065  15.096  0.7483  1.5117 -0.4849
 6289SOL     OW30502   2.147   3.790   3.132  0.0722 -0.0157 -0.3414
 6289SOL    HW130503   2.062   3.774   3.092 -0.0425 -4.6838  1.8551
 6289SOL    HW230504   2.176   3.876   3.100  1.8642 -0.7221 -0.6147
 6290SOL     OW30505   2.462   0.029   9.044 -0.5207  0.2122  0.5411
 6290SOL    HW130506   2.449   0.066   8.957 -0.5249  0.2287  0.5489
 6290SOL    HW230507   2.409   0.085   9.100  0.2043  0.8532  0.5886
 6291SOL     OW30508   2.573   1.737   6.180  0.2359 -0.1783  0.0326
 6291SOL    HW130509   2.666   1.717   6.171 -0.1572 -0.5051 -3.5251
 6291SOL    HW230510   2.561   1.789   6.259 -0.5246  0.4517 -0.4986
 6292SOL     OW30511   1.236   0.315  11.832  0.4126 -0.7282 -0.0146
 6292SOL    HW130512   1.289   0.384  11.874  2.7829 -1.4909 -1.7192
 6292SOL    HW230513   1.234   0.251  11.903 -0.2708 -0.1423  0.4812
 6293SOL     OW30514   0.649   2.274   2.636 -0.2866  0.0122 -0.0301
 6293SOL    HW130515   0.736   2.248   2.665 -0.6000  0.9984  1.7843
 6293SOL    HW230516   0.647   2.231   2.550  0.3098  0.2018 -0.1401
 6294SOL     OW30517   4.119   2.985  10.937 -0.1064 -0.4823 -0.5702
 6294SOL    HW130518   4.206   2.986  10.897 -0.4169 -0.6955 -1.2561
 6294SOL    HW230519   4.062   3.011  10.864 -3.0629 -1.6031  1.3266
 6295SOL     OW30520   0.524   3.756   9.181  0.1966 -0.5056 -0.5986
 6295SOL    HW130521   0.431   3.739   9.197 -0.0237  0.5191 -0.7807
 6295SOL    HW230522   0.513   3.834   9.126  1.9005  0.0372 -0.1726
 6296SOL     OW30523   1.990   2.771  13.737  0.0212  0.1898  0.1596
 6296SOL    HW130524   1.918   2.781  13.800 -0.2578  1.9848 -0.4308
 6296SOL    HW230525   1.960   2.704  13.675 -1.1891  0.2011  0.7262
 6297SOL     OW30526   0.769   1.745   6.918 -0.6493 -0.8047 -0.5937
 6297SOL    HW130527   0.804   1.728   7.006  1.2054 -0.3161 -1.2357
 6297SOL    HW230528   0.732   1.830   6.941 -0.3444 -1.0347  0.7695
 6298SOL     OW30529   3.537   4.434   2.518 -0.2338  0.7189 -0.3172
 6298SOL    HW130530   3.505   4.346   2.536 -1.7760  1.7213  1.8951
 6298SOL    HW230531   3.469   4.477   2.467 -1.2775  0.5040  0.9057
 6299SOL     OW30532   1.733   1.424   7.543  0.2998 -0.4232  0.2099
 6299SOL    HW130533   1.772   1.496   7.493 -0.8166  0.3315  0.4270
 6299SOL    HW230534   1.687   1.375   7.476  0.2719  0.6415 -0.5557
 6300SOL     OW30535   4.127   1.005   5.986 -0.1557  0.1447 -0.5420
 6300SOL    HW130536   4.122   0.948   6.063 -0.4218  0.7785 -0.0815
 6300SOL    HW230537   4.047   1.057   5.996  0.5486  1.4024 -1.5284
 6301SOL     OW30538   0.913   2.270   7.665 -0.1532  0.1791  0.5144
 6301SOL    HW130539   0.999   2.232   7.644  0.8266  1.7417  1.6271
 6301SOL    HW230540   0.899   2.328   7.591 -1.1594 -1.9843 -0.9734
 6302SOL     OW30541   2.705   2.082  12.878  0.0259 -0.1019 -0.4924
 6302SOL    HW130542   2.657   2.104  12.798 -0.7929  0.1005  0.0679
 6302SOL    HW230543   2.722   2.164  12.924 -2.0673 -0.4344  0.8727
 6303SOL     OW30544   0.722   1.907   4.519  0.2014 -0.1166 -0.1397
 6303SOL    HW130545   0.649   1.899   4.458 -1.0543  0.2087  1.3323
 6303SOL    HW230546   0.697   1.977   4.579  3.3570  0.6642  0.2723
 6304SOL     OW30547   1.551   1.612   2.183  0.0859 -0.0666 -0.5454
 6304SOL    HW130548   1.479   1.644   2.237 -0.4849 -0.3978 -1.1156
 6304SOL    HW230549   1.623   1.672   2.204 -1.9426  2.7364 -1.5828
 6305SOL     OW30550   3.343   3.891   3.402  0.1479 -0.6088 -0.0324
 6305SOL    HW130551   3.323   3.939   3.322  0.6069  2.1802  1.5361
 6305SOL    HW230552   3.300   3.810   3.374  0.4761 -1.0108  0.6183
 6306SOL     OW30553   3.429   0.748   8.420  0.3847  0.2618 -0.3540
 6306SOL    HW130554   3.473   0.781   8.498 -0.2779 -1.4710  0.7679
 6306SOL    HW230555   3.341   0.771   8.451 -0.2817 -2.0089 -0.5406
 6307SOL     OW30556   2.907   0.695   1.179 -0.4981  0.2416  0.7250
 6307SOL    HW130557   2.963   0.669   1.252 -1.2000 -2.0968  0.4439
 6307SOL    HW230558   2.863   0.612   1.161 -4.0275  2.1628  0.3648
 6308SOL     OW30559   0.380   0.651  11.837 -0.3905  0.0605 -0.0523
 6308SOL    HW130560   0.318   0.672  11.766  0.2274  0.3192 -0.5145
 6308SOL    HW230561   0.457   0.690  11.797 -0.9102 -1.5053 -2.5510
 6309SOL     OW30562   1.058   0.510   6.443 -0.3875 -0.1571 -0.4603
 6309SOL    HW130563   1.043   0.604   6.452  0.1597  0.2246 -3.5478
 6309SOL    HW230564   0.988   0.484   6.503  0.6968 -3.2147 -0.5210
 6310SOL     OW30565   1.482   1.277   7.411 -0.1075 -0.1323  0.3465
 6310SOL    HW130566   1.456   1.330   7.335 -0.5116 -0.4018  0.2975
 6310SOL    HW230567   1.465   1.192   7.370  1.0017 -0.0009 -0.3879
 6311SOL     OW30568   1.143   1.120  11.074 -0.5491  0.4339  0.0607
 6311SOL    HW130569   1.119   1.204  11.115  1.8144  2.0157 -1.7632
 6311SOL    HW230570   1.188   1.072  11.143 -0.3491 -0.6097 -0.7942
 6312SOL     OW30571   2.090   1.065   9.167 -0.0859 -0.0574  0.4061
 6312SOL    HW130572   2.185   1.057   9.167 -0.0639  0.1031 -1.8374
 6312SOL    HW230573   2.081   1.118   9.088 -0.0674 -0.6257  0.0250
 6313SOL     OW30574   3.999   2.448   2.561  0.2984 -0.4411 -0.7391
 6313SOL    HW130575   4.051   2.518   2.522  0.3717  0.0679  0.2707
 6313SOL    HW230576   4.074   2.398   2.593  0.5918 -0.1883 -1.0316
 6314SOL     OW30577   4.447   0.977   1.903 -0.7532  0.3868 -0.2968
 6314SOL    HW130578   4.454   0.984   1.998  1.3794 -2.5244 -0.2430
 6314SOL    HW230579   4.509   0.905   1.888 -0.9637 -0.2828  2.0936
 6315SOL     OW30580   1.848   0.665   5.743  0.4268 -0.1818 -0.5591
 6315SOL    HW130581   1.934   0.677   5.702  0.2572  1.6032 -0.3882
 6315SOL    HW230582   1.867   0.589   5.799 -0.1588 -0.2961 -0.5174
 6316SOL     OW30583   3.448   3.787  10.613 -0.1412  0.0975  0.1672
 6316SOL    HW130584   3.484   3.764  10.698  1.1870  0.1762 -0.3622
 6316SOL    HW230585   3.356   3.784  10.638 -0.0428  1.1940  0.6958
 6317SOL     OW30586   4.085   3.522   4.696  0.1870 -0.0758 -0.3171
 6317SOL    HW130587   4.059   3.532   4.604  1.1329  1.0511 -0.4665
 6317SOL    HW230588   4.126   3.436   4.686 -0.2873 -0.3492  0.0999
 6318SOL     OW30589   1.859   2.841   3.894 -0.1711  0.2179  0.1904
 6318SOL    HW130590   1.891   2.927   3.920 -0.2800  0.9609 -2.0726
 6318SOL    HW230591   1.791   2.837   3.961 -0.0324 -1.8283  0.2031
 6319SOL     OW30592   2.219   2.299  12.290  0.5815 -0.1015 -0.0053
 6319SOL    HW130593   2.264   2.293  12.374 -0.8280  1.2660  0.8511
 6319SOL    HW230594   2.134   2.267  12.321 -0.0362  1.6668  0.1374
 6320SOL     OW30595   3.975   1.489   2.397  0.2033 -0.3019  0.5508
 6320SOL    HW130596   3.915   1.441   2.454 -0.9008 -0.0314 -0.3853
 6320SOL    HW230597   3.994   1.410   2.346  2.5305 -0.3234  1.4574
 6321SOL     OW30598   4.311   2.414  16.189 -0.2186 -0.5100  0.5032
 6321SOL    HW130599   4.288   2.343  16.129  3.0209  1.2014 -2.7288
 6321SOL    HW230600   4.283   2.393  16.278  0.4986 -0.5826  0.7185
 6322SOL     OW30601   0.044   4.046   3.246 -0.1805  0.3109  0.7244
 6322SOL    HW130602   0.103   4.074   3.317  2.8091  2.7864 -2.7489
 6322SOL    HW230603   4.700   4.085   3.276 -0.1822  1.2513 -0.5190
 6323SOL     OW30604   0.518   1.949   7.502 -0.5777  0.4184 -0.1467
 6323SOL    HW130605   0.594   2.005   7.487 -0.9205  0.6010 -1.1829
 6323SOL    HW230606   0.455   1.994   7.446  0.5310  0.0230 -1.6873
 6324SOL     OW30607   3.091   1.628  15.115  0.5511 -0.5818  0.1318
 6324SOL    HW130608   3.015   1.586  15.076  1.6528 -1.4466 -1.0689
 6324SOL    HW230609   3.097   1.580  15.198  1.6507  0.0576  0.4252
 6325SOL     OW30610   2.955   0.937   7.657  0.3172 -0.2351 -0.5458
 6325SOL    HW130611   2.908   1.000   7.602 -0.8516 -1.5348 -1.0249
 6325SOL    HW230612   2.918   0.853   7.629  2.4432 -1.1064 -0.7056
 6326SOL     OW30613   4.196   1.816   5.306  0.0826 -0.4612 -0.2365
 6326SOL    HW130614   4.234   1.735   5.272 -1.4123 -1.4324  0.4383
 6326SOL    HW230615   4.122   1.781   5.356 -0.6262  0.5183 -0.5952
 6327SOL     OW30616   4.575   4.663   1.116  0.1261 -0.1632 -0.0017
 6327SOL    HW130617   4.668   4.658   1.137  0.0117  1.4392  0.9108
 6327SOL    HW230618   4.557   0.014   1.084  1.0388  0.5581  1.4850
 6328SOL     OW30619   4.622   4.210   9.035 -0.1335  0.6617  0.5010
 6328SOL    HW130620   4.594   4.126   8.998  1.0408  0.1704  0.7183
 6328SOL    HW230621   4.617   4.189   9.128  4.0572 -0.7561  0.3961
 6329SOL     OW30622   1.346   3.496   0.787  0.3966  0.4431 -0.1150
 6329SOL    HW130623   1.411   3.566   0.780  1.2505 -0.4297 -0.8085
 6329SOL    HW230624   1.407   3.424   0.798  0.3180  0.2377 -1.0750
 6330SOL     OW30625   0.884   0.631   6.619  0.6600  0.0293  0.4196
 6330SOL    HW130626   0.875   0.689   6.544 -1.1698  2.5409  2.6060
 6330SOL    HW230627   0.915   0.698   6.680 -1.5691  0.3319  1.2182
 6331SOL     OW30628   1.201   4.421  16.144  0.0239 -0.3967 -0.3562
 6331SOL    HW130629   1.178   4.514  16.155 -1.2875 -1.1072  2.8737
 6331SOL    HW230630   1.153   4.378  16.216 -1.7892 -0.2667 -1.4759
 6332SOL     OW30631   0.440   2.717  10.437 -0.0123  0.4607 -0.0952
 6332SOL    HW130632   0.517   2.773  10.433  0.4023 -0.1125 -0.0306
 6332SOL    HW230633   0.476   2.644  10.486 -0.8862  1.1026  1.5058
 6333SOL     OW30634   0.980   3.534  16.382  1.0243 -0.0544 -0.0018
 6333SOL    HW130635   0.951   3.529  16.473 -0.2967 -2.0686 -0.5556
 6333SOL    HW230636   1.063   3.491  16.403  0.6722 -1.0637 -0.6987
 6334SOL     OW30637   4.445   0.077   3.695  0.3981 -0.1990  0.1061
 6334SOL    HW130638   4.483   4.734   3.729 -0.6972 -1.2703 -1.2054
 6334SOL    HW230639   4.523   0.133   3.696 -0.2568  0.7264 -0.3300
 6335SOL     OW30640   2.174   2.837   2.493 -0.0570  0.0606 -0.0636
 6335SOL    HW130641   2.206   2.893   2.564 -0.6383  1.4818 -0.9162
 6335SOL    HW230642   2.218   2.868   2.414 -1.2509  1.2992 -0.2405
 6336SOL     OW30643   1.276   3.990   6.601 -0.2466  0.0183  0.0597
 6336SOL    HW130644   1.288   3.896   6.589 -0.7110 -0.0537  0.1420
 6336SOL    HW230645   1.207   3.984   6.668  1.1084  0.1116  1.4815
 6337SOL     OW30646   4.047   0.393   8.152  0.0151  0.3441 -0.0546
 6337SOL    HW130647   4.096   0.321   8.113  0.4858  0.0136  1.1731
 6337SOL    HW230648   4.121   0.454   8.151  0.0987  0.2791  4.0093
 6338SOL     OW30649   1.553   4.346  10.589 -0.4559  0.3237 -0.5826
 6338SOL    HW130650   1.464   4.381  10.577  0.3577  2.4861 -0.3188
 6338SOL    HW230651   1.600   4.396  10.522 -0.5975  2.3809  0.8576
 6339SOL     OW30652   1.834   1.398  10.989  0.0383 -0.3958 -0.6636
 6339SOL    HW130653   1.763   1.365  11.044 -0.2621 -1.7899 -1.8740
 6339SOL    HW230654   1.794   1.476  10.951 -0.9278 -2.6699 -4.3811
 6340SOL     OW30655   3.219   2.496   4.378 -0.0383  0.4179 -0.6305
 6340SOL    HW130656   3.171   2.577   4.361  1.5313  1.5390  0.2315
 6340SOL    HW230657   3.270   2.525   4.454 -1.0183 -1.1435  0.6135
 6341SOL     OW30658   4.029   2.950   4.086  0.7119  0.4316  0.7987
 6341SOL    HW130659   4.017   2.966   3.992  0.2784  1.9531  1.1061
 6341SOL    HW230660   3.948   2.976   4.129  0.5558  1.6785 -0.2215
 6342SOL     OW30661   2.436   0.490   5.664  0.3928 -0.0472 -0.3059
 6342SOL    HW130662   2.379   0.506   5.739  2.5959  1.1936  1.1255
 6342SOL    HW230663   2.497   0.564   5.671 -0.2655  0.4629 -0.0262
 6343SOL     OW30664   1.921   4.241   1.868 -0.0318  0.3002 -0.0086
 6343SOL    HW130665   1.944   4.197   1.787 -0.2324 -0.5259  0.3835
 6343SOL    HW230666   1.830   4.217   1.884 -0.5622  0.8618 -2.2149
 6344SOL     OW30667   0.635   1.987   5.981 -0.3118 -0.0908 -0.2523
 6344SOL    HW130668   0.601   2.057   5.926 -1.4075 -0.4736 -0.0634
 6344SOL    HW230669   0.695   1.945   5.920  0.6854 -0.0128  0.6805
 6345SOL     OW30670   0.101   1.160   9.168  0.0510  0.2469 -0.0074
 6345SOL    HW130671   0.170   1.160   9.101 -1.0706 -0.9267 -1.1689
 6345SOL    HW230672   0.036   1.113   9.117 -1.1126  1.3447  0.4616
 6346SOL     OW30673   3.467   1.448   7.434  0.4341  0.2165 -0.5404
 6346SOL    HW130674   3.496   1.538   7.445 -2.5666  1.0889  0.3660
 6346SOL    HW230675   3.502   1.436   7.346 -0.5938  1.0137 -1.0583
 6347SOL     OW30676   2.507   1.780   6.779 -0.3851  0.6168 -0.1139
 6347SOL    HW130677   2.542   1.696   6.749  0.2311  0.3751  1.2593
 6347SOL    HW230678   2.435   1.757   6.838 -0.9778 -0.9912 -1.4565
 6348SOL     OW30679   3.650   2.502   1.961  0.2354 -0.6439  0.1937
 6348SOL    HW130680   3.561   2.479   1.932  0.8676 -1.7326 -0.8482
 6348SOL    HW230681   3.642   2.478   2.054 -2.7573  3.4135  0.9777
 6349SOL     OW30682   3.045   4.453   3.108 -0.2353 -0.2334 -0.0476
 6349SOL    HW130683   3.043   4.432   3.202 -1.3416 -4.1457 -0.9725
 6349SOL    HW230684   3.134   4.484   3.098  0.4076 -2.3508 -0.8133
 6350SOL     OW30685   1.674   3.665   3.614  0.0615 -0.0221  0.1377
 6350SOL    HW130686   1.644   3.733   3.553 -0.2715  0.0298  0.3634
 6350SOL    HW230687   1.692   3.722   3.688 -1.8967 -0.5848  1.0552
 6351SOL     OW30688   3.581   4.353   6.200  0.6968  0.2036  0.1995
 6351SOL    HW130689   3.584   4.264   6.165 -0.9120  0.2947 -0.1818
 6351SOL    HW230690   3.657   4.350   6.257  0.0220  1.9698  1.1823
 6352SOL     OW30691   1.854   4.053   5.854  0.2729  0.0254 -0.5669
 6352SOL    HW130692   1.903   4.026   5.776  0.8533 -1.0905  0.1740
 6352SOL    HW230693   1.903   4.131   5.879 -0.9823  0.5025  0.3772
 6353SOL     OW30694   0.685   2.672   2.917 -0.6520  0.2205  0.1916
 6353SOL    HW130695   0.746   2.605   2.948  0.9117  1.6044  0.1092
 6353SOL    HW230696   0.630   2.679   2.994 -0.7316 -0.6495  0.2129
 6354SOL     OW30697   4.001   2.427   4.640  0.5035  0.0742 -0.0188
 6354SOL    HW130698   3.939   2.367   4.598 -2.0458  2.0419  0.9225
 6354SOL    HW230699   3.982   2.514   4.605  0.1703 -0.1502 -0.4069
 6355SOL     OW30700   1.540   4.049   7.454 -0.2762 -0.1780 -0.4224
 6355SOL    HW130701   1.471   4.035   7.519  0.3823  0.3261  0.3876
 6355SOL    HW230702   1.517   3.976   7.396 -1.1937 -0.0944 -0.1651
 6356SOL     OW30703   4.448   2.201   5.169  0.0127  0.1949 -0.0066
 6356SOL    HW130704   4.432   2.179   5.077  0.5292  1.0534 -0.3043
 6356SOL    HW230705   4.365   2.172   5.205  0.1795  2.0923  1.8948
 6357SOL     OW30706   1.272   1.389  17.111 -0.0765  0.5386 -0.6917
 6357SOL    HW130707   1.179   1.407  17.100 -0.2571 -0.6192 -1.1021
 6357SOL    HW230708   1.309   1.466  17.069  1.7596 -1.0580 -2.0138
 6358SOL     OW30709   2.643   1.253   8.213 -0.0596 -0.3291  0.3063
 6358SOL    HW130710   2.723   1.302   8.196 -0.3679  0.1023  0.1057
 6358SOL    HW230711   2.646   1.199   8.134 -0.3341  2.0282 -1.3034
 6359SOL     OW30712   1.859   2.690   2.566 -0.0836  0.5158  0.0895
 6359SOL    HW130713   1.777   2.688   2.517 -1.0614 -0.4641  1.7807
 6359SOL    HW230714   1.908   2.619   2.524  0.9156  0.6618  1.0315
 6360SOL     OW30715   0.321   4.209   0.044 -0.2231 -0.3104 -0.3546
 6360SOL    HW130716   0.374   4.266  17.738  2.1229 -0.6056  1.6077
 6360SOL    HW230717   0.284   4.158  17.721 -2.7820  1.4826 -0.3271
 6361SOL     OW30718   2.046   4.308   2.728 -0.0805  0.6893 -0.0303
 6361SOL    HW130719   1.968   4.280   2.680  0.4791 -1.1253  0.1490
 6361SOL    HW230720   2.103   4.231   2.728  0.2051  0.9022  1.1234
 6362SOL     OW30721   0.338   3.618   7.013 -0.6565 -0.1386 -0.1360
 6362SOL    HW130722   0.410   3.555   7.007 -1.2456 -0.7416 -0.9159
 6362SOL    HW230723   0.290   3.572   7.081  3.1237 -1.1247  1.8706
 6363SOL     OW30724   2.440   0.495  11.542  0.0817 -0.2392 -0.3384
 6363SOL    HW130725   2.522   0.507  11.589  1.0946  0.5240 -2.2971
 6363SOL    HW230726   2.382   0.561  11.581  2.1764 -0.0352  2.3798
 6364SOL     OW30727   0.102   3.802  15.622  0.4089 -0.1085  0.0110
 6364SOL    HW130728   0.152   3.850  15.556  1.9130 -2.8302 -0.8163
 6364SOL    HW230729   0.029   3.774  15.567  0.2094 -1.3038  0.8870
 6365SOL     OW30730   2.196   1.948   3.562 -0.2824 -0.1727 -0.0369
 6365SOL    HW130731   2.242   1.998   3.629  0.2727  0.7472 -1.0982
 6365SOL    HW230732   2.146   2.018   3.519  1.5398  1.4558  0.5007
 6366SOL     OW30733   4.045   3.403   6.557 -0.5221  0.2017  0.1667
 6366SOL    HW130734   4.091   3.387   6.475 -1.6645 -0.2313 -0.3915
 6366SOL    HW230735   3.953   3.392   6.533  0.5199 -1.3964 -3.0730
 6367SOL     OW30736   1.178   2.431   7.147 -0.0847  0.4096  0.1177
 6367SOL    HW130737   1.206   2.455   7.059 -1.1145 -0.6908 -0.5194
 6367SOL    HW230738   1.150   2.512   7.189 -3.6050 -1.6060  1.7119
 6368SOL     OW30739   1.008   2.186  13.941  0.4338  0.0210 -0.1413
 6368SOL    HW130740   0.988   2.099  13.975 -1.4776  0.7170  0.4946
 6368SOL    HW230741   1.038   2.165  13.852 -0.8216 -0.5475 -0.4286
 6369SOL     OW30742   4.305   3.495   4.049  0.1657 -0.2331 -0.2990
 6369SOL    HW130743   4.310   3.528   3.960 -0.2489 -1.5314 -0.8049
 6369SOL    HW230744   4.381   3.547   4.073  2.3794 -2.6851 -1.9082
 6370SOL     OW30745   0.359   3.312   5.925 -0.4253 -0.0646 -0.3098
 6370SOL    HW130746   0.393   3.398   5.901  0.4659 -1.0097 -2.4391
 6370SOL    HW230747   0.312   3.328   6.007  1.3511  2.8779  0.1228
 6371SOL     OW30748   3.492   3.872  16.993 -0.0602  0.2752  0.5391
 6371SOL    HW130749   3.549   3.822  16.934 -0.7258 -0.1040  0.2291
 6371SOL    HW230750   3.488   3.954  16.944  2.0799 -1.1441 -2.0223
 6372SOL     OW30751   0.701   2.628  14.357 -0.0915  0.0309 -0.0833
 6372SOL    HW130752   0.664   2.708  14.318  0.9948  0.5380 -0.0777
 6372SOL    HW230753   0.630   2.565  14.346  0.3827 -0.5324  0.0729
 6373SOL     OW30754   3.651   0.166   4.738 -0.3345 -0.4612  0.2581
 6373SOL    HW130755   3.671   0.189   4.829 -1.1242 -1.7300  0.7567
 6373SOL    HW230756   3.654   0.070   4.742  1.5806 -0.4773 -1.3923
 6374SOL     OW30757   1.626   1.403   2.326 -0.0243 -0.2274 -0.3690
 6374SOL    HW130758   1.622   1.315   2.289 -1.2809 -0.7503  1.0077
 6374SOL    HW230759   1.619   1.458   2.247 -1.6053  1.4306  0.9228
 6375SOL     OW30760   2.564   2.043   8.974  0.0314  0.5184 -0.0870
 6375SOL    HW130761   2.578   1.949   8.985  0.6247  0.5564 -0.4955
 6375SOL    HW230762   2.485   2.053   9.027  0.3214  0.0731  0.4358
 6376SOL     OW30763   1.514   0.863   3.976 -0.0425  0.0187  0.2905
 6376SOL    HW130764   1.422   0.851   4.001  0.4479 -3.2519  0.4322
 6376SOL    HW230765   1.563   0.812   4.040 -0.2848  0.7488  1.0551
 6377SOL     OW30766   3.341   1.531   6.468  0.0045 -0.1002  0.0776
 6377SOL    HW130767   3.412   1.521   6.532 -1.4019  0.2398  1.6862
 6377SOL    HW230768   3.266   1.562   6.520  0.7832  1.1111  0.4902
 6378SOL     OW30769   3.546   4.358  13.697 -0.4188  0.1736  0.1610
 6378SOL    HW130770   3.592   4.293  13.644  0.3870  0.9113 -0.0564
 6378SOL    HW230771   3.595   4.438  13.678 -0.4134  0.1685  0.1531
 6379SOL     OW30772   1.001   2.141   8.278  0.0453  0.1327  0.3712
 6379SOL    HW130773   1.022   2.108   8.190 -3.2515 -0.6326 -0.1548
 6379SOL    HW230774   0.905   2.131   8.281  0.1409 -0.5953  0.9160
 6380SOL     OW30775   2.996   2.701   9.200  0.3200  0.0398  0.3787
 6380SOL    HW130776   3.018   2.615   9.165 -0.6732  0.6535 -1.7807
 6380SOL    HW230777   2.901   2.701   9.201  0.2914  0.9499 -1.5075
 6381SOL     OW30778   2.720   2.681   3.450 -0.3699 -0.6355 -0.4361
 6381SOL    HW130779   2.730   2.593   3.413  2.3613  0.1729 -1.6655
 6381SOL    HW230780   2.711   2.720   3.363 -1.5417  2.3220  1.0209
 6382SOL     OW30781   2.946   2.112   3.573  0.7867  0.3407 -0.0089
 6382SOL    HW130782   2.894   2.092   3.651  2.7605 -0.5590  1.0812
 6382SOL    HW230783   3.008   2.172   3.614 -0.2738  0.4847  1.3754
 6383SOL     OW30784   1.189   0.915   5.792  0.2011 -0.3270 -0.1942
 6383SOL    HW130785   1.218   0.887   5.704  0.1613  0.2976 -0.4019
 6383SOL    HW230786   1.266   0.873   5.830  0.7082 -0.5312 -1.4445
 6384SOL     OW30787   0.144   4.689   1.632  0.4391 -0.2328 -0.2653
 6384SOL    HW130788   0.197   0.031   1.632  1.3823 -0.8762 -1.8778
 6384SOL    HW230789   0.138   4.664   1.724  1.2353  4.5478  1.0727
 6385SOL     OW30790   3.311   0.422   5.831  0.2096  0.0121 -0.1522
 6385SOL    HW130791   3.314   0.406   5.926  3.3594 -1.7896 -0.5439
 6385SOL    HW230792   3.340   0.336   5.799 -0.0996  0.1787 -0.8801
 6386SOL     OW30793   4.516   4.719   5.143 -0.3624 -0.5026  0.4302
 6386SOL    HW130794   4.483   4.656   5.078 -0.8236 -0.7152  0.8667
 6386SOL    HW230795   4.598   0.001   5.098 -0.7817 -1.5227 -0.7728
 6387SOL     OW30796   2.402   4.277   5.742 -0.0499  0.0062 -0.3015
 6387SOL    HW130797   2.483   4.299   5.695 -1.4176  0.1353 -2.5987
 6387SOL    HW230798   2.429   4.324   5.820 -0.6251 -1.3237  0.6914
 6388SOL     OW30799   0.739   2.181   8.563  0.1238  0.1214  0.4021
 6388SOL    HW130800   0.717   2.266   8.524  0.4120  0.7640  1.6355
 6388SOL    HW230801   0.694   2.128   8.498 -0.8562  0.7384  0.5717
 6389SOL     OW30802   1.081   4.447   6.112  0.1365 -0.2026 -0.0491
 6389SOL    HW130803   1.119   4.429   6.026 -1.0534  0.1851 -0.6499
 6389SOL    HW230804   1.058   4.362   6.150 -1.5362  0.4640  0.4452
 6390SOL     OW30805   2.754   2.371  12.850 -0.3366  0.4923 -0.1774
 6390SOL    HW130806   2.805   2.439  12.893  0.7604 -1.7136  2.0111
 6390SOL    HW230807   2.672   2.381  12.899 -1.0688 -1.8948 -0.9260
 6391SOL     OW30808   2.278   0.796  16.877 -0.3703 -0.2376 -0.3969
 6391SOL    HW130809   2.328   0.715  16.885 -2.1692 -1.5463 -2.5228
 6391SOL    HW230810   2.275   0.795  16.781 -0.0519 -0.8259 -0.4055
 6392SOL     OW30811   3.229   1.791   3.037 -0.4914 -0.7885  0.1065
 6392SOL    HW130812   3.275   1.713   3.069 -0.6516 -1.1872 -0.6482
 6392SOL    HW230813   3.242   1.853   3.109 -0.9069  0.8486 -1.2217
 6393SOL     OW30814   3.360   1.043   3.792 -0.1535 -0.1760  0.5390
 6393SOL    HW130815   3.415   1.084   3.725 -3.2139  1.8485 -0.7119
 6393SOL    HW230816   3.373   1.113   3.856  2.3995 -1.0713  1.0056
 6394SOL     OW30817   2.322   2.029   6.469  0.7369 -0.8403  0.1314
 6394SOL    HW130818   2.278   1.987   6.395 -0.4591  0.8607 -0.1187
 6394SOL    HW230819   2.256   2.023   6.538 -0.1748 -0.5365 -0.7074
 6395SOL     OW30820   3.090   2.061   4.693  0.2847  0.9050  0.4802
 6395SOL    HW130821   3.086   2.099   4.605  1.6700  1.6942  0.7603
 6395SOL    HW230822   3.146   2.124   4.738  1.0881  0.9190 -0.5357
 6396SOL     OW30823   0.642   2.341   7.336  0.5533 -0.4444 -0.0162
 6396SOL    HW130824   0.559   2.381   7.362  1.6886 -0.3044  3.2806
 6396SOL    HW230825   0.705   2.397   7.381  1.3793 -0.0165 -1.7035
 6397SOL     OW30826   4.654   4.405  17.690  0.4073 -0.0764 -0.2293
 6397SOL    HW130827   4.680   4.331  17.744  0.6000 -0.2874 -0.6071
 6397SOL    HW230828   4.583   4.447  17.738 -0.1276  0.7825 -1.7642
 6398SOL     OW30829   2.194   0.956   5.478 -0.0956 -0.2714 -0.0992
 6398SOL    HW130830   2.221   1.030   5.531 -0.0110 -0.2023 -0.2404
 6398SOL    HW230831   2.103   0.983   5.466  0.0541  0.1708 -0.2365
 6399SOL     OW30832   2.589   1.426   0.097  0.2770 -0.1096  0.0983
 6399SOL    HW130833   2.681   1.441   0.077  0.1704  1.8437  1.1053
 6399SOL    HW230834   2.548   1.491   0.041 -0.2711 -2.1761 -1.8977
 6400SOL     OW30835   2.077   1.875  11.509  0.0846  0.0760  0.6360
 6400SOL    HW130836   1.998   1.907  11.554 -0.4787 -0.1182 -0.2207
 6400SOL    HW230837   2.108   1.801  11.561 -1.5334 -1.0362  0.0031
 6401SOL     OW30838   3.024   2.742   7.473 -0.2292  0.2081 -0.0786
 6401SOL    HW130839   2.949   2.691   7.445 -0.4978  0.3893  0.2992
 6401SOL    HW230840   2.985   2.829   7.463 -0.8296 -0.2010 -1.3491
 6402SOL     OW30841   2.772   1.127   1.713 -0.5464  0.2198 -0.4046
 6402SOL    HW130842   2.798   1.107   1.803  1.6024  0.3039 -0.9945
 6402SOL    HW230843   2.808   1.058   1.658  1.6301  1.7288 -0.8902
 6403SOL     OW30844   0.426   3.912  14.610  0.2536 -0.7063 -0.2079
 6403SOL    HW130845   0.454   4.004  14.601 -4.0241  0.7518  1.4932
 6403SOL    HW230846   0.497   3.859  14.573 -0.0262  0.1611 -2.0092
 6404SOL     OW30847   0.878   3.795   7.503 -0.1036  0.0071 -0.4211
 6404SOL    HW130848   0.851   3.869   7.448 -1.9302 -0.8196 -0.6431
 6404SOL    HW230849   0.815   3.724   7.494 -1.0454  0.5833  1.8015
 6405SOL     OW30850   2.796   3.280   4.993 -0.0990  0.2471  0.2840
 6405SOL    HW130851   2.873   3.336   5.001 -0.2939  0.5166  0.2797
 6405SOL    HW230852   2.836   3.203   5.033  0.6465 -0.7186 -2.3346
 6406SOL     OW30853   4.061   1.155   6.799 -0.0371  0.3339 -0.3543
 6406SOL    HW130854   3.968   1.178   6.788  0.3808  2.2928  0.3232
 6406SOL    HW230855   4.059   1.063   6.771  0.4810 -0.5917  2.6473
 6407SOL     OW30856   0.923   0.287   1.595 -0.1497  0.2547  0.0350
 6407SOL    HW130857   0.890   0.222   1.657  0.0251  0.2951  0.1701
 6407SOL    HW230858   0.910   0.373   1.636  1.0719  0.6684 -0.4312
 6408SOL     OW30859   4.096   1.174  16.199  0.3178 -0.0155  0.3251
 6408SOL    HW130860   4.006   1.154  16.172 -0.1021  0.2711  1.5182
 6408SOL    HW230861   4.105   1.117  16.275  2.0431 -1.9726 -1.3667
 6409SOL     OW30862   0.901   0.503   2.348  0.2007 -0.5707  0.1945
 6409SOL    HW130863   0.823   0.503   2.405 -0.2378  0.3116 -0.4021
 6409SOL    HW230864   0.904   0.591   2.311  1.0031 -1.3922 -1.6632
 6410SOL     OW30865   0.245   4.683  14.197  0.0818 -0.4075 -0.2679
 6410SOL    HW130866   0.189   4.734  14.139 -1.3187 -0.3493  1.1594
 6410SOL    HW230867   0.308   0.013  14.219 -0.3932  0.4006 -1.3792
 6411SOL     OW30868   0.199   3.891   2.131 -0.4896  0.5344  0.0477
 6411SOL    HW130869   0.116   3.919   2.170 -1.4319  0.5741 -1.9862
 6411SOL    HW230870   0.196   3.943   2.051  0.7585 -0.3903 -0.6008
 6412SOL     OW30871   0.764   0.068   5.053  0.4181  0.4757  0.4750
 6412SOL    HW130872   0.735   0.067   4.962  1.8691  1.5017 -0.0047
 6412SOL    HW230873   0.701   0.020   5.106  0.7551 -0.2402  0.2236
 6413SOL     OW30874   1.685   1.023   7.562 -0.2383  0.3744  0.1199
 6413SOL    HW130875   1.612   1.019   7.500  1.1016 -0.8284 -1.3642
 6413SOL    HW230876   1.702   0.929   7.566 -1.5923  0.0928 -0.5424
 6414SOL     OW30877   3.093   3.905   1.382  0.1685 -0.3031 -0.1828
 6414SOL    HW130878   3.036   3.829   1.369 -4.3782  3.1955 -0.8634
 6414SOL    HW230879   3.055   3.960   1.313 -0.6515  0.2611  0.7310
 6415SOL     OW30880   2.442   1.854   5.035  0.2858  0.1231 -0.0248
 6415SOL    HW130881   2.498   1.877   5.109 -0.0682 -0.1238  0.3227
 6415SOL    HW230882   2.431   1.943   5.002 -1.0798 -0.3908 -0.9467
 6416SOL     OW30883   0.426   1.916   3.136  0.3588 -0.4071 -0.5877
 6416SOL    HW130884   0.336   1.916   3.104  1.1104  1.0915 -2.7375
 6416SOL    HW230885   0.467   1.835   3.106 -0.2648 -1.0138  0.2114
 6417SOL     OW30886   2.181   3.312   6.576  0.1729  0.5542  0.4558
 6417SOL    HW130887   2.196   3.239   6.515  1.9400  0.0989  1.4379
 6417SOL    HW230888   2.262   3.359   6.555  0.5250 -1.4811 -2.7886
 6418SOL     OW30889   2.036   2.463   7.665  0.5305  0.1308 -0.5575
 6418SOL    HW130890   2.009   2.375   7.638 -0.3807  0.0228  0.7346
 6418SOL    HW230891   2.077   2.437   7.748  1.0158  0.6061 -0.6481
 6419SOL     OW30892   1.973   4.543   7.583 -0.5683 -0.6406  0.5022
 6419SOL    HW130893   2.022   4.615   7.624 -1.6233 -0.6925  1.8729
 6419SOL    HW230894   1.974   4.557   7.489 -1.7746 -2.4898  0.2072
 6420SOL     OW30895   2.667   2.164   6.470 -0.2316  0.5313  0.1746
 6420SOL    HW130896   2.726   2.119   6.531  0.8610 -1.5305 -2.3819
 6420SOL    HW230897   2.722   2.242   6.460 -2.6825  2.0911 -0.9963
 6421SOL     OW30898   2.639   4.156   2.954 -0.6857  0.0165  0.1028
 6421SOL    HW130899   2.717   4.211   2.947 -0.2586 -0.7468 -1.2420
 6421SOL    HW230900   2.581   4.204   2.895 -1.6539 -1.3191 -0.0238
 6422SOL     OW30901   4.708   1.144  12.621  0.0480  0.4826  0.4477
 6422SOL    HW130902   4.710   1.088  12.543  2.4076 -2.8462  2.9278
 6422SOL    HW230903   0.055   1.118  12.656 -0.9037  0.7734  2.9715
 6423SOL     OW30904   1.712   2.009   8.445  0.1089  0.5971 -0.3099
 6423SOL    HW130905   1.733   2.091   8.401 -3.5849  1.6450 -0.1323
 6423SOL    HW230906   1.617   2.023   8.438 -0.2807 -1.1792  1.3694
 6424SOL     OW30907   4.558   3.004   1.615  0.3117 -0.1942  0.7811
 6424SOL    HW130908   4.510   3.060   1.553 -1.1271 -0.0390  2.0302
 6424SOL    HW230909   4.568   3.071   1.683 -1.2440 -0.0925  0.9109
 6425SOL     OW30910   2.333   2.983  13.080  0.3354  0.2117  0.4748
 6425SOL    HW130911   2.271   3.039  13.033  0.2718 -2.1790 -2.2611
 6425SOL    HW230912   2.399   2.977  13.012 -2.1657  0.6440 -2.0185
 6426SOL     OW30913   4.378   0.337  12.833 -0.7473  0.5609  0.5026
 6426SOL    HW130914   4.349   0.409  12.890  1.0793  1.8490 -0.1937
 6426SOL    HW230915   4.444   0.384  12.782  2.1807 -2.0202  1.8948
 6427SOL     OW30916   2.973   4.055  11.580 -0.1991 -0.5592  0.3007
 6427SOL    HW130917   2.972   4.151  11.573 -1.4819 -0.5564  0.5372
 6427SOL    HW230918   2.999   4.038  11.489  0.9847  0.5768  0.4250
 6428SOL     OW30919   2.135   3.908   8.819 -0.1158 -0.1563 -0.0906
 6428SOL    HW130920   2.139   3.970   8.746 -0.5147  1.1639  1.0142
 6428SOL    HW230921   2.169   3.828   8.781 -0.0108 -0.7578  1.2689
 6429SOL     OW30922   1.408   1.487   5.866  0.5396 -0.6428 -0.1302
 6429SOL    HW130923   1.473   1.493   5.796  1.3360  0.9995  0.7428
 6429SOL    HW230924   1.367   1.412   5.824 -0.0593  0.2179 -1.0754
 6430SOL     OW30925   2.340   2.061   4.015 -0.6241  0.4271  0.2856
 6430SOL    HW130926   2.364   2.021   3.932 -0.0856 -0.0207  0.6546
 6430SOL    HW230927   2.348   2.154   3.994  2.2282 -0.2870 -1.8753
 6431SOL     OW30928   0.825   1.752   8.465 -0.2585  0.7227  0.1123
 6431SOL    HW130929   0.859   1.831   8.506 -0.6786  0.1293  1.6038
 6431SOL    HW230930   0.732   1.759   8.487 -0.9396 -0.8357 -2.3104
 6432SOL     OW30931   3.404   1.045  13.117  0.0998  0.2301 -0.1449
 6432SOL    HW130932   3.469   1.017  13.181 -0.5975  0.2019  0.5392
 6432SOL    HW230933   3.453   1.018  13.039  0.7443 -0.8923  0.6611
 6433SOL     OW30934   3.518   4.315   3.685  0.4885 -0.0685 -0.1599
 6433SOL    HW130935   3.540   4.385   3.623 -1.2168  1.4297  0.9155
 6433SOL    HW230936   3.512   4.244   3.620  3.9482  0.7116 -1.3016
 6434SOL     OW30937   2.466   3.855   3.136  0.3427 -0.2491  0.6793
 6434SOL    HW130938   2.440   3.849   3.044 -0.2057 -0.0717  0.8243
 6434SOL    HW230939   2.435   3.940   3.167  0.3153 -0.2517  0.6594
 6435SOL     OW30940   1.769   4.433   2.795 -0.0787  0.1575 -0.9073
 6435SOL    HW130941   1.793   4.523   2.777  0.2990  0.1870 -0.2478
 6435SOL    HW230942   1.683   4.422   2.753 -0.4393  1.2223 -0.4389
 6436SOL     OW30943   2.154   0.363   1.835  0.0980 -0.0086  0.3248
 6436SOL    HW130944   2.085   0.421   1.802 -0.3380  0.7104  2.4973
 6436SOL    HW230945   2.110   0.303   1.895  1.4925 -1.6376 -0.2946
 6437SOL     OW30946   3.399   3.336  17.577  0.4509 -0.1761 -0.3740
 6437SOL    HW130947   3.454   3.272  17.532  0.8399 -0.2174  0.1573
 6437SOL    HW230948   3.450   3.416  17.565 -0.9224  0.4636 -1.9081
 6438SOL     OW30949   3.936   1.094   3.927 -0.1587 -0.1114  0.0229
 6438SOL    HW130950   3.969   1.049   4.005  0.8315  3.1903  1.5261
 6438SOL    HW230951   3.844   1.067   3.923 -0.8103  2.0673  0.2060
 6439SOL     OW30952   4.116   2.937   8.457 -0.1474  0.0828  0.3529
 6439SOL    HW130953   4.141   2.845   8.468  1.4096  0.5047  0.3642
 6439SOL    HW230954   4.048   2.946   8.523 -0.1217 -2.0356  0.6914
 6440SOL     OW30955   1.170   2.328  12.002 -0.0607 -0.1927 -0.1610
 6440SOL    HW130956   1.203   2.367  12.083 -0.0412  0.5035 -0.4994
 6440SOL    HW230957   1.166   2.235  12.024 -1.9013  0.1596  1.0171
 6441SOL     OW30958   1.157   0.195   7.578  0.3867  0.1389 -0.4069
 6441SOL    HW130959   1.241   0.239   7.568  1.2956 -0.9992  2.1648
 6441SOL    HW230960   1.182   0.135   7.648  0.2995  3.4125  2.4715
 6442SOL     OW30961   0.055   3.389   9.300  0.1119  0.3313  0.1353
 6442SOL    HW130962   0.003   3.407   9.378  0.6843 -0.5839  0.7234
 6442SOL    HW230963   0.060   3.294   9.310 -0.9849  0.4937  2.2686
 6443SOL     OW30964   4.547   2.089  16.004 -0.3248  0.2890  0.3189
 6443SOL    HW130965   4.587   2.003  15.985 -0.5531  0.6181 -1.6129
 6443SOL    HW230966   4.619   2.116  16.061  0.7965  1.1092 -1.4924
 6444SOL     OW30967   2.271   4.341   0.814 -0.2328 -0.5166 -0.0340
 6444SOL    HW130968   2.306   4.373   0.731  0.1446 -0.2212  0.2360
 6444SOL    HW230969   2.226   4.264   0.779  1.1550 -0.9412 -0.8812
 6445SOL     OW30970   0.210   1.640  10.145 -0.1897 -0.1593  0.3621
 6445SOL    HW130971   0.249   1.569  10.195  1.0360  1.2171  1.3683
 6445SOL    HW230972   0.247   1.715  10.193 -0.3286  0.2822 -0.2257
 6446SOL     OW30973   2.554   2.623  13.059 -0.3362 -0.2359  0.3305
 6446SOL    HW130974   2.643   2.608  13.027 -1.0220 -1.0735 -1.2034
 6446SOL    HW230975   2.526   2.531  13.053  4.1175 -1.4819 -1.1888
 6447SOL     OW30976   1.285   3.797  15.117 -0.1511 -0.3182 -0.5404
 6447SOL    HW130977   1.334   3.750  15.049 -0.5431 -0.7706 -0.5050
 6447SOL    HW230978   1.342   3.874  15.127 -0.0765 -0.2698 -1.3249
 6448SOL     OW30979   3.680   4.394   7.936 -0.0411 -0.2102  0.2096
 6448SOL    HW130980   3.707   4.331   8.002  0.5967  0.7091  0.8221
 6448SOL    HW230981   3.758   4.449   7.940 -1.0210  1.2876 -0.9482
 6449SOL     OW30982   3.428   3.726   4.271 -0.7276 -0.2298  0.0902
 6449SOL    HW130983   3.403   3.777   4.193  0.4484 -0.9932 -0.7873
 6449SOL    HW230984   3.474   3.646   4.246  0.5819  0.2613  0.9796
 6450SOL     OW30985   3.369   0.459   2.085  0.1639  0.5858 -0.0831
 6450SOL    HW130986   3.290   0.418   2.050  0.6913 -0.1126 -0.4596
 6450SOL    HW230987   3.330   0.538   2.123  0.4640  0.7250 -0.0620
 6451SOL     OW30988   4.318   0.618  12.011 -0.2477 -0.0905  0.0898
 6451SOL    HW130989   4.246   0.556  12.027  1.1423 -1.7966 -0.3162
 6451SOL    HW230990   4.376   0.567  11.955  0.3854 -0.5154  1.1464
 6452SOL     OW30991   1.297   2.323   4.162 -0.2728  0.0531 -0.2836
 6452SOL    HW130992   1.302   2.249   4.100 -1.5066  0.1784 -0.5391
 6452SOL    HW230993   1.220   2.294   4.211 -1.6935  3.1859 -0.6458
 6453SOL     OW30994   0.795   0.772   4.064 -0.0450 -0.1199 -0.5235
 6453SOL    HW130995   0.731   0.748   4.132 -1.2458  1.5022 -1.0794
 6453SOL    HW230996   0.738   0.778   3.987 -0.7539  0.9792  0.0849
 6454SOL     OW30997   2.640   1.119   1.989  0.2262  0.7453  0.3041
 6454SOL    HW130998   2.635   1.057   2.061  1.3595  2.0733  1.5340
 6454SOL    HW230999   2.733   1.119   1.965 -0.2491  0.6852 -1.5106
 6455SOL     OW31000   1.646   3.146   4.491  0.1874 -0.0699  0.8814
 6455SOL    HW131001   1.722   3.090   4.474 -1.1914 -1.3371 -1.0849
 6455SOL    HW231002   1.686   3.205   4.555  1.1227  0.2812 -0.0439
 6456SOL     OW31003   1.332   0.986   3.766  0.5637  0.0580 -0.2652
 6456SOL    HW131004   1.407   0.962   3.821  0.7659  0.0375 -0.5440
 6456SOL    HW231005   1.301   0.896   3.751  0.0276  0.3959 -1.1726
 6457SOL     OW31006   2.230   3.161   8.842  0.1346  0.5838 -0.4154
 6457SOL    HW131007   2.188   3.184   8.760 -0.7744 -0.8714 -0.3478
 6457SOL    HW231008   2.211   3.068   8.855  1.3995  0.3529 -0.1787
 6458SOL     OW31009   4.099   1.634   5.952 -0.2575  0.3113  0.1389
 6458SOL    HW131010   4.104   1.550   5.907 -0.2125 -0.8883  2.4268
 6458SOL    HW231011   4.033   1.684   5.903  0.6380 -0.6720 -2.0715
 6459SOL     OW31012   4.568   3.323   2.423  0.2096  0.8246  0.4393
 6459SOL    HW131013   4.527   3.238   2.405 -1.2216  1.1924  1.9224
 6459SOL    HW231014   4.543   3.334   2.515 -0.8688 -0.6128  0.3126
 6460SOL     OW31015   1.741   3.258   5.854 -0.1908 -0.4376 -0.0959
 6460SOL    HW131016   1.751   3.271   5.948 -0.3837  2.6854 -0.5277
 6460SOL    HW231017   1.689   3.333   5.826 -0.9264 -1.2356 -0.8838
 6461SOL     OW31018   2.310   1.858  15.468 -0.2987  0.2957 -0.6202
 6461SOL    HW131019   2.322   1.810  15.550 -1.5481  2.6332  0.9513
 6461SOL    HW231020   2.383   1.827  15.416  0.9936 -0.2307  1.4968
 6462SOL     OW31021   1.893   4.430   5.661 -0.4899 -0.1252  0.1727
 6462SOL    HW131022   1.834   4.399   5.728 -1.6685  1.6956 -0.0345
 6462SOL    HW231023   1.976   4.387   5.680  0.2807  2.0222  1.6905
 6463SOL     OW31024   3.654   4.396  10.801 -0.4271 -0.2256 -0.4303
 6463SOL    HW131025   3.573   4.359  10.766 -1.0038 -0.9477  1.6995
 6463SOL    HW231026   3.725   4.335  10.779 -1.8720 -1.2989 -2.1227
 6464SOL     OW31027   1.583   0.210  14.767 -0.7722  0.6133  0.2740
 6464SOL    HW131028   1.664   0.167  14.739 -0.8524  0.0195  0.9531
 6464SOL    HW231029   1.618   0.273  14.830 -0.3380 -0.9029  1.5533
 6465SOL     OW31030   3.309   0.307   3.076  0.3704 -0.3768 -0.8367
 6465SOL    HW131031   3.367   0.239   3.110 -0.4460  0.3712  2.0413
 6465SOL    HW231032   3.308   0.286   2.982 -1.0582 -1.0691 -0.6653
 6466SOL     OW31033   2.406   0.819   5.575  0.9572 -0.3360 -0.3591
 6466SOL    HW131034   2.338   0.841   5.511  0.8446  0.2960 -0.0235
 6466SOL    HW231035   2.416   0.901   5.623 -0.0867 -0.5754  0.2791
 6467SOL     OW31036   3.944   2.293   4.866  0.4332 -0.2902  0.4958
 6467SOL    HW131037   3.953   2.344   4.786  0.1585 -1.4071 -0.2455
 6467SOL    HW231038   3.851   2.271   4.865  0.6327 -1.0019 -1.3809
 6468SOL     OW31039   0.693   4.203   4.451 -0.2812 -0.0337 -0.1660
 6468SOL    HW131040   0.698   4.244   4.537  0.2196  0.5961 -0.4917
 6468SOL    HW231041   0.723   4.115   4.474 -2.0595 -0.7588 -0.6254
 6469SOL     OW31042   0.758   0.606  12.896  0.2379 -0.3797  0.1554
 6469SOL    HW131043   0.782   0.674  12.960 -0.4524 -2.3540  2.5308
 6469SOL    HW231044   0.696   0.654  12.841 -2.1640 -2.4438  1.0424
 6470SOL     OW31045   0.363   4.231   2.442  0.1931  0.0719  0.1720
 6470SOL    HW131046   0.449   4.216   2.402  0.2614  0.8077  0.0433
 6470SOL    HW231047   0.386   4.221   2.534 -0.3219 -1.6995  0.1017
 6471SOL     OW31048   4.190   1.973   9.348 -0.3748  0.5583 -0.2828
 6471SOL    HW131049   4.216   1.901   9.407  3.2854  0.1800 -2.3290
 6471SOL    HW231050   4.255   2.040   9.371  0.8122 -0.5836 -0.2694
 6472SOL     OW31051   1.614   1.054   5.401  0.1747  0.6279  0.1077
 6472SOL    HW131052   1.672   1.017   5.468 -0.0883  0.9732  0.5360
 6472SOL    HW231053   1.637   1.004   5.324 -1.4341 -0.5390  0.3759
 6473SOL     OW31054   2.548   1.837  14.683  0.0031 -0.0794  0.1809
 6473SOL    HW131055   2.524   1.744  14.690  0.1323 -0.0563  0.8961
 6473SOL    HW231056   2.460   1.873  14.692  0.6810  1.8909 -1.1758
 6474SOL     OW31057   2.671   0.937   7.262  0.1827 -0.0383 -0.0036
 6474SOL    HW131058   2.730   0.939   7.187  2.6968 -0.4149  1.9651
 6474SOL    HW231059   2.591   0.950   7.211 -0.9329 -0.5133  1.6272
 6475SOL     OW31060   2.422   2.371   2.110  0.1277  0.4189 -0.1737
 6475SOL    HW131061   2.496   2.356   2.169  0.8504 -1.2122 -1.5193
 6475SOL    HW231062   2.399   2.279   2.097  0.3818  0.5510 -1.5395
 6476SOL     OW31063   2.099   2.834  16.949 -0.1303  0.2205 -0.3089
 6476SOL    HW131064   2.172   2.893  16.965 -1.5106  2.0704 -0.8693
 6476SOL    HW231065   2.142   2.780  16.882  0.3521 -1.8801  1.6719
 6477SOL     OW31066   4.417   0.534   8.371  0.7000  0.3195 -0.1540
 6477SOL    HW131067   4.508   0.522   8.342  0.2624 -2.4064 -0.3802
 6477SOL    HW231068   4.371   0.553   8.289 -0.3359  0.0527  0.3669
 6478SOL     OW31069   0.486   0.643  14.245  0.1785  0.0941 -0.0391
 6478SOL    HW131070   0.493   0.604  14.158  1.5828  0.9019 -0.2836
 6478SOL    HW231071   0.457   0.734  14.244  0.4359  0.1679 -0.6170
 6479SOL     OW31072   4.198   1.727  10.428  0.0870  0.2538  0.0984
 6479SOL    HW131073   4.172   1.645  10.386  0.5688 -1.5021  3.2959
 6479SOL    HW231074   4.276   1.751  10.378  0.0923 -1.9707 -0.9419
 6480SOL     OW31075   3.560   0.712   7.785 -0.4806 -0.0718 -0.3293
 6480SOL    HW131076   3.520   0.756   7.860  0.3268 -0.4631  0.3241
 6480SOL    HW231077   3.490   0.704   7.719 -1.3724  0.7030  0.5086
 6481SOL     OW31078   1.039   4.708   4.688 -0.0812 -0.6526  0.2521
 6481SOL    HW131079   1.110   4.651   4.717  0.9146  0.2658 -0.3594
 6481SOL    HW231080   0.993   4.717   4.771  1.4223 -0.9967  1.1166
 6482SOL     OW31081   2.626   2.326   3.390  0.1361  0.5575  0.1658
 6482SOL    HW131082   2.623   2.396   3.326 -1.1180 -0.1661 -0.5672
 6482SOL    HW231083   2.717   2.347   3.414  0.2496 -2.9701  2.8924
 6483SOL     OW31084   2.501   3.813  12.588  0.2048  0.3053  0.5312
 6483SOL    HW131085   2.428   3.848  12.639  0.0970  1.0914 -0.1700
 6483SOL    HW231086   2.530   3.882  12.528 -0.4209  1.1544  1.2073
 6484SOL     OW31087   4.445   3.820   6.824 -0.1861  0.9214 -0.2657
 6484SOL    HW131088   4.486   3.854   6.904  1.7900  0.2911 -1.0289
 6484SOL    HW231089   4.376   3.764   6.859  0.2519  1.4448  1.4619
 6485SOL     OW31090   0.649   0.572   1.502 -0.1647  0.2971  0.2530
 6485SOL    HW131091   0.681   0.645   1.448 -1.0072  0.0258 -0.6077
 6485SOL    HW231092   0.714   0.557   1.570 -0.2794  0.7486  0.4636
 6486SOL     OW31093   1.142   4.702   6.881 -0.3740  0.6893  0.0000
 6486SOL    HW131094   1.067   4.711   6.939  0.4648 -0.3828  1.2451
 6486SOL    HW231095   1.136   0.048   6.835  0.1562  0.0587 -1.2188
 6487SOL     OW31096   1.039   1.671  11.523  0.7256 -1.0351 -0.0771
 6487SOL    HW131097   1.005   1.760  11.514 -0.9775 -1.6661  0.1827
 6487SOL    HW231098   1.062   1.669  11.616  2.0162  0.8401 -0.3593
 6488SOL     OW31099   4.073   2.554  11.336  0.0565  0.2074  0.2662
 6488SOL    HW131100   4.102   2.507  11.414  0.2899 -0.5402 -0.2723
 6488SOL    HW231101   4.124   2.636  11.337 -0.2633  0.4176 -0.9809
 6489SOL     OW31102   3.453   3.611   0.515 -0.0721  0.0352  0.5639
 6489SOL    HW131103   3.406   3.527   0.512  1.0091 -0.4960 -1.2670
 6489SOL    HW231104   3.383   3.666   0.551  1.6484  1.3230  1.9612
 6490SOL     OW31105   2.051   1.277   2.571 -0.0305  0.2875 -0.3583
 6490SOL    HW131106   2.094   1.273   2.486  2.6681  0.8234  0.9985
 6490SOL    HW231107   2.128   1.297   2.623 -0.2152  1.0163 -0.3605
 6491SOL     OW31108   2.233   2.744   9.901  0.4717  0.4329  0.0677
 6491SOL    HW131109   2.310   2.714   9.951 -0.1230  0.2666  0.8894
 6491SOL    HW231110   2.206   2.661   9.863  1.1317 -0.6391  1.9138
 6492SOL     OW31111   2.294   1.107   1.349 -0.0511  0.2586 -0.3771
 6492SOL    HW131112   2.217   1.110   1.407  1.9350  0.6162  2.2487
 6492SOL    HW231113   2.273   1.029   1.298 -0.7299 -0.3259  0.7810
 6493SOL     OW31114   1.130   1.094   7.935 -0.4238 -0.2929  0.2519
 6493SOL    HW131115   1.106   1.028   7.870  0.4952 -4.0882  3.7374
 6493SOL    HW231116   1.043   1.131   7.950  0.2396 -0.1131  3.6643
 6494SOL     OW31117   1.270   0.677   2.181 -0.5214  0.1587 -0.0815
 6494SOL    HW131118   1.180   0.673   2.148  0.1675 -1.0743 -1.7738
 6494SOL    HW231119   1.263   0.735   2.257 -0.8298 -0.5897  0.4604
 6495SOL     OW31120   1.324   4.188  10.290  0.1840 -0.0429 -0.5779
 6495SOL    HW131121   1.371   4.107  10.268 -0.9420 -1.2233  1.3375
 6495SOL    HW231122   1.317   4.226  10.203 -0.7298  0.1032 -0.4400
 6496SOL     OW31123   3.404   2.644   2.924  0.2574  0.0402 -0.7387
 6496SOL    HW131124   3.488   2.601   2.909  1.2303  1.9934 -0.8772
 6496SOL    HW231125   3.359   2.565   2.952  1.5365 -0.0948  0.9074
 6497SOL     OW31126   2.374   2.545  14.487 -0.3847  0.4401 -0.0533
 6497SOL    HW131127   2.319   2.594  14.548 -0.8859  0.5195 -0.5706
 6497SOL    HW231128   2.424   2.604  14.431 -0.1468  0.6248  0.3516
 6498SOL     OW31129   0.577   3.302   1.880  0.1789 -0.7768  0.1131
 6498SOL    HW131130   0.589   3.224   1.933 -0.8756 -2.4219 -2.0343
 6498SOL    HW231131   0.572   3.267   1.791 -1.2139  0.7509 -0.4347
 6499SOL     OW31132   4.570   3.989   8.886 -0.3802  0.2408 -0.2647
 6499SOL    HW131133   4.545   3.924   8.951  1.6746  1.2234  1.5425
 6499SOL    HW231134   4.633   3.939   8.833 -1.4714 -1.5926  0.1779
 6500SOL     OW31135   2.908   1.995   2.986  0.2213  0.0772  0.2736
 6500SOL    HW131136   2.952   1.911   2.968  2.3578  0.9983  1.1699
 6500SOL    HW231137   2.891   1.985   3.079 -1.0341 -1.1659 -0.0863
 6501SOL     OW31138   2.483   4.359   1.934 -0.1210  0.4753 -0.3286
 6501SOL    HW131139   2.478   4.343   1.840 -0.4734 -1.5652  0.0259
 6501SOL    HW231140   2.565   4.314   1.955 -0.2757  0.5700  0.5067
 6502SOL     OW31141   2.659   3.750  14.542 -0.2102 -0.2109 -0.0683
 6502SOL    HW131142   2.640   3.831  14.494  1.5069 -0.0153 -0.4317
 6502SOL    HW231143   2.572   3.713  14.557 -0.6189  0.2980 -1.1700
 6503SOL     OW31144   3.830   2.605   7.909  0.1388  0.2372  0.3332
 6503SOL    HW131145   3.746   2.560   7.924  1.0574 -1.7312 -0.3697
 6503SOL    HW231146   3.794   2.668   7.847 -0.7607  1.2854  1.9080
 6504SOL     OW31147   3.436   1.239   8.133 -0.6996 -0.1430  0.3638
 6504SOL    HW131148   3.410   1.231   8.041  0.8905 -2.3696  0.1094
 6504SOL    HW231149   3.458   1.332   8.125 -0.1887 -0.4104 -1.2813
 6505SOL     OW31150   3.867   3.691   9.436 -0.0753  0.0095  0.1689
 6505SOL    HW131151   3.916   3.613   9.409 -2.0480 -1.2227  0.1783
 6505SOL    HW231152   3.933   3.758   9.454  1.1479 -1.2476  0.3307
 6506SOL     OW31153   1.885   2.310   0.811 -1.1490 -0.8592 -0.5297
 6506SOL    HW131154   1.864   2.238   0.753 -2.1190 -1.8220  1.0083
 6506SOL    HW231155   1.826   2.376   0.776 -0.8237 -0.1895  0.1564
 6507SOL     OW31156   4.434   1.818   4.013  0.7591 -0.7519 -0.0030
 6507SOL    HW131157   4.472   1.886   4.068 -2.0677 -0.7789  2.0087
 6507SOL    HW231158   4.373   1.872   3.963 -0.0321  1.9420  3.8677
 6508SOL     OW31159   1.902   2.515  11.290 -0.2142  0.2724 -0.6574
 6508SOL    HW131160   1.888   2.606  11.314  2.9357  0.0373  2.0572
 6508SOL    HW231161   1.981   2.525  11.236  0.1063 -0.4811 -0.3354
 6509SOL     OW31162   2.506   0.956   1.649 -0.0286  0.8216  0.1613
 6509SOL    HW131163   2.510   1.049   1.673  3.6986  0.1619  2.0745
 6509SOL    HW231164   2.568   0.922   1.714 -0.2160 -0.2426 -0.2229
 6510SOL     OW31165   1.144   1.703   0.718 -0.2352  0.5029 -0.6400
 6510SOL    HW131166   1.081   1.675   0.652 -0.6558  1.5998 -0.7128
 6510SOL    HW231167   1.089   1.769   0.760  0.4859  1.7496 -1.6130
 6511SOL     OW31168   1.541   1.636   2.897 -0.1433 -0.0385 -0.3482
 6511SOL    HW131169   1.565   1.717   2.853 -1.2189  1.9290  2.6940
 6511SOL    HW231170   1.489   1.595   2.827 -1.4992  1.9522 -0.5180
 6512SOL     OW31171   3.589   2.314   8.880 -0.1233  0.1692 -0.2372
 6512SOL    HW131172   3.497   2.289   8.890 -0.1297  0.1808 -0.2671
 6512SOL    HW231173   3.604   2.355   8.965 -0.6104  0.0454 -0.0923
 6513SOL     OW31174   0.248   3.478   5.321 -0.1173  0.0542 -0.4784
 6513SOL    HW131175   0.331   3.521   5.337 -0.5416  0.4160  0.7581
 6513SOL    HW231176   0.264   3.401   5.375 -1.9660  0.7595  1.1118
 6514SOL     OW31177   3.641   1.629   2.676 -0.3969  0.2665  0.1754
 6514SOL    HW131178   3.654   1.653   2.768  0.1530  0.8358 -0.0531
 6514SOL    HW231179   3.557   1.584   2.677  0.2337 -0.9201 -0.8780
 6515SOL     OW31180   1.588   0.107   3.055  0.3491 -0.2360 -0.0286
 6515SOL    HW131181   1.523   0.171   3.025  1.3352  0.3227 -0.9472
 6515SOL    HW231182   1.562   0.023   3.017  0.0483  1.5209 -3.6988
 6516SOL     OW31183   2.875   0.846  11.661 -0.1807  1.1227  0.0398
 6516SOL    HW131184   2.941   0.779  11.674 -1.7219 -0.3387  0.2599
 6516SOL    HW231185   2.818   0.806  11.596 -0.8608 -0.5264  1.6671
 6517SOL     OW31186   1.137   3.026   6.106  0.0875  0.4275 -0.3918
 6517SOL    HW131187   1.187   2.999   6.184  1.0086  2.5995 -0.2303
 6517SOL    HW231188   1.057   2.975   6.117 -0.5971  1.3620 -1.1227
 6518SOL     OW31189   1.816   2.338   6.944 -0.2356  0.3678  0.2124
 6518SOL    HW131190   1.809   2.383   7.027  3.6205  1.7206 -0.2140
 6518SOL    HW231191   1.726   2.313   6.924  0.1346  0.7210 -1.8892
 6519SOL     OW31192   2.810   0.338   5.624  0.9603 -0.2666 -0.5306
 6519SOL    HW131193   2.904   0.319   5.629  0.9532 -0.1539  0.1147
 6519SOL    HW231194   2.794   0.348   5.531 -0.4592  0.0172 -0.2505
 6520SOL     OW31195   1.673   1.963  13.548 -0.5012 -0.3619 -0.3827
 6520SOL    HW131196   1.643   1.994  13.633  1.2537  0.3110 -0.0131
 6520SOL    HW231197   1.638   1.874  13.547  1.5765 -1.2264  2.1446
 6521SOL     OW31198   1.133   2.598   6.523 -0.3554 -0.1651  0.2664
 6521SOL    HW131199   1.073   2.673   6.521  0.7859  0.7723  1.3487
 6521SOL    HW231200   1.210   2.640   6.561 -1.0634  2.0074 -0.6858
 6522SOL     OW31201   0.116   1.551   7.810 -0.2890  0.3706 -0.1368
 6522SOL    HW131202   0.077   1.476   7.764 -0.4402  1.4277 -1.7042
 6522SOL    HW231203   0.196   1.563   7.759 -0.3354  0.1790 -0.2551
 6523SOL     OW31204   2.934   1.814   2.190  0.3350 -0.7063  0.2778
 6523SOL    HW131205   2.892   1.762   2.259  0.2438  0.7645  1.3208
 6523SOL    HW231206   2.990   1.748   2.149  1.3291  1.5267 -1.9710
 6524SOL     OW31207   2.842   1.166   6.757 -0.2502  0.1118 -0.8079
 6524SOL    HW131208   2.833   1.089   6.701  0.5239 -0.0749 -0.6711
 6524SOL    HW231209   2.931   1.147   6.788 -0.3376  1.8658  0.4975
 6525SOL     OW31210   2.833   2.824   1.302 -0.0101  0.3134  0.2009
 6525SOL    HW131211   2.800   2.890   1.363 -1.1557 -0.1284  0.0533
 6525SOL    HW231212   2.925   2.848   1.292 -0.2749  0.1444 -2.7178
 6526SOL     OW31213   3.580   2.387   8.629  0.1172 -0.3790  0.6766
 6526SOL    HW131214   3.589   2.347   8.716 -0.0752  0.3529  1.0272
 6526SOL    HW231215   3.668   2.424   8.628 -0.4822  0.7986 -4.0006
 6527SOL     OW31216   3.560   2.500  12.912  0.2881 -0.5815 -0.0610
 6527SOL    HW131217   3.613   2.577  12.892 -0.1957  0.2795  2.0076
 6527SOL    HW231218   3.631   2.435  12.904 -0.5646 -1.4097 -0.9602
 6528SOL     OW31219   0.206   0.775   3.658  0.0129 -0.3999 -0.0080
 6528SOL    HW131220   0.261   0.700   3.681  1.7855  1.1258  0.7783
 6528SOL    HW231221   0.220   0.765   3.564 -1.7174  0.6732 -0.3692
 6529SOL     OW31222   0.413   0.640   7.299  0.0824  0.8724 -0.4639
 6529SOL    HW131223   0.382   0.556   7.330  2.9406  0.1944  0.5622
 6529SOL    HW231224   0.456   0.679   7.375  0.7973  0.8889 -0.8831
 6530SOL     OW31225   2.517   3.549   5.043 -0.1649  0.1562 -0.2626
 6530SOL    HW131226   2.536   3.643   5.038  0.3154  0.0875  0.2222
 6530SOL    HW231227   2.508   3.534   5.137 -1.0091  0.3912 -0.3061
 6531SOL     OW31228   0.290   1.520   7.046 -0.2454 -0.5702 -0.0634
 6531SOL    HW131229   0.234   1.594   7.021  0.1551 -0.1950  0.1472
 6531SOL    HW231230   0.226   1.453   7.070 -1.9368  1.0900  0.0130
 6532SOL     OW31231   0.683   0.475   8.109  0.2930  0.0376 -1.2538
 6532SOL    HW131232   0.610   0.418   8.131  0.0136  0.9268  0.1330
 6532SOL    HW231233   0.649   0.564   8.122  1.4162  0.5050 -1.4662
 6533SOL     OW31234   0.025   3.608   8.529 -0.1921  0.2076 -0.2092
 6533SOL    HW131235   0.103   3.600   8.474 -0.5522  1.9432 -0.9858
 6533SOL    HW231236   0.045   3.552   8.604 -2.0658 -1.3495 -0.8613
 6534SOL     OW31237   2.201   4.671   3.210 -0.3807 -0.4115  0.4738
 6534SOL    HW131238   2.196   4.633   3.298  1.2779  0.5843  0.9948
 6534SOL    HW231239   2.121   4.630   3.176  0.6434 -1.5999 -0.4613
 6535SOL     OW31240   4.402   1.312   3.755  0.1807 -0.2102  0.2518
 6535SOL    HW131241   4.423   1.339   3.844  0.2714  0.4440  0.0322
 6535SOL    HW231242   4.478   1.261   3.725 -0.4759 -1.2701  0.3889
 6536SOL     OW31243   0.321   2.713   6.848 -0.7839 -0.1625  0.3296
 6536SOL    HW131244   0.254   2.645   6.835 -0.7421 -0.0100 -0.7061
 6536SOL    HW231245   0.316   2.760   6.765  1.2767  0.1282  0.3787
 6537SOL     OW31246   0.426   1.590   3.603 -0.2051 -0.6813 -0.0333
 6537SOL    HW131247   0.481   1.653   3.556 -1.5644 -0.5656 -1.4929
 6537SOL    HW231248   0.484   1.551   3.668  0.3739  0.0374 -0.1264
 6538SOL     OW31249   1.977   3.761   5.403 -0.5087  0.4353 -0.0455
 6538SOL    HW131250   2.060   3.800   5.377 -0.1979 -0.1978  0.0224
 6538SOL    HW231251   1.907   3.810   5.358 -0.0518  1.2892  0.1653
 6539SOL     OW31252   1.634   2.147   3.992 -0.7347  0.2944  0.5694
 6539SOL    HW131253   1.538   2.145   3.997 -0.7198 -0.6950  0.4277
 6539SOL    HW231254   1.660   2.056   3.979  0.6917  0.6906  0.7364
 6540SOL     OW31255   4.662   0.448   8.268  0.1729  0.3443 -0.2091
 6540SOL    HW131256   4.689   0.523   8.215 -1.0733  1.1478  0.2948
 6540SOL    HW231257   4.714   0.460   8.348  0.7249  0.1652 -0.5390
 6541SOL     OW31258   3.117   4.380   6.376 -0.2928  0.7858  0.1087
 6541SOL    HW131259   3.134   4.394   6.470 -2.0739  1.2200  0.3653
 6541SOL    HW231260   3.024   4.360   6.366 -0.4660  1.5245  0.1893
 6542SOL     OW31261   3.876   2.475   8.849  0.1981 -0.4069 -0.0706
 6542SOL    HW131262   3.860   2.486   8.942 -0.5253  0.6808 -0.3162
 6542SOL    HW231263   3.862   2.381   8.852  0.8739 -0.4097  2.8139
 6543SOL     OW31264   0.276   0.885   2.830 -0.3305 -0.0621 -0.9299
 6543SOL    HW131265   0.358   0.850   2.796  0.7964  0.0490  1.7060
 6543SOL    HW231266   0.218   0.809   2.824  0.0334 -0.4739  0.7245
 6544SOL     OW31267   3.834   2.013   3.296 -0.6133 -0.1776 -0.0370
 6544SOL    HW131268   3.929   2.003   3.285 -0.5359  1.0136 -0.4287
 6544SOL    HW231269   3.811   2.083   3.236 -1.2299  0.5523  1.0429
 6545SOL     OW31270   4.121   4.024   6.615 -0.2832  0.5673 -0.0554
 6545SOL    HW131271   4.105   3.978   6.697 -1.5552  1.1571  0.0226
 6545SOL    HW231272   4.109   4.113   6.647  0.5694 -0.0484  1.9625
 6546SOL     OW31273   1.766   3.303   6.394  0.9633  0.7831 -0.1540
 6546SOL    HW131274   1.797   3.370   6.455 -1.6126  2.2529 -0.4629
 6546SOL    HW231275   1.796   3.222   6.436  0.9410  0.9198  0.1299
 6547SOL     OW31276   3.977   1.533   9.480 -0.5377  0.1972  0.3425
 6547SOL    HW131277   3.887   1.525   9.450 -1.3063 -0.1927  2.7708
 6547SOL    HW231278   4.001   1.444   9.504 -1.3528  0.0003  0.3953
 6548SOL     OW31279   0.980   2.867   7.949  0.3955 -0.3954  0.2340
 6548SOL    HW131280   0.890   2.836   7.943 -0.5957  1.6793  3.8711
 6548SOL    HW231281   1.011   2.836   8.034  1.3352 -1.0571 -0.3582
 6549SOL     OW31282   0.351   2.851  16.655  0.2700  0.0395  0.2179
 6549SOL    HW131283   0.296   2.832  16.731 -0.7269  2.1987  0.0410
 6549SOL    HW231284   0.308   2.932  16.626 -0.3594 -0.6376 -0.7056
 6550SOL     OW31285   4.342   3.011   2.211  0.3220  0.0532 -0.1312
 6550SOL    HW131286   4.260   3.054   2.187 -0.9588 -2.4857 -0.3217
 6550SOL    HW231287   4.382   2.993   2.126  0.4508  1.9135 -0.4660
 6551SOL     OW31288   3.980   2.172   4.189 -0.4767  0.0282  0.0476
 6551SOL    HW131289   3.995   2.124   4.270  2.9587  2.0374  0.6008
 6551SOL    HW231290   4.016   2.259   4.208 -3.8541  0.9562  2.2165
 6552SOL     OW31291   0.657   1.713   9.535  0.3547 -0.3388  0.6060
 6552SOL    HW131292   0.566   1.742   9.541 -0.8376 -3.2645 -3.4713
 6552SOL    HW231293   0.638   1.667   9.454  0.9777 -0.1399  0.3514
 6553SOL     OW31294   4.519   0.952  16.053  0.1391 -0.5431  0.5515
 6553SOL    HW131295   4.493   1.042  16.073  0.3592  0.0051 -1.6680
 6553SOL    HW231296   4.581   0.973  15.984  0.3664  0.4050  1.0385
 6554SOL     OW31297   4.353   3.662  13.856 -0.2626 -0.4642  0.3856
 6554SOL    HW131298   4.334   3.754  13.874 -1.5404 -0.3599 -1.6499
 6554SOL    HW231299   4.391   3.668  13.769  0.7856  0.3741  0.9022
 6555SOL     OW31300   0.669   2.091   1.550 -0.2707 -0.3387 -0.6113
 6555SOL    HW131301   0.596   2.127   1.601 -2.1341 -2.9024 -1.4583
 6555SOL    HW231302   0.660   1.999   1.572 -2.2992  0.3465  1.3907
 6556SOL     OW31303   4.423   3.977   9.269 -0.0910  0.8096  0.4594
 6556SOL    HW131304   4.423   3.952   9.362 -0.3254 -2.9003 -0.5316
 6556SOL    HW231305   4.337   4.018   9.258 -1.2928 -1.4929  1.1197
 6557SOL     OW31306   0.749   1.316   5.569  0.4892  0.0492  0.1804
 6557SOL    HW131307   0.759   1.225   5.544  0.6277  0.0907  0.0859
 6557SOL    HW231308   0.773   1.364   5.489  2.3983  1.0007  1.3284
 6558SOL     OW31309   0.492   2.813   6.093  0.7128 -0.7784  0.1903
 6558SOL    HW131310   0.421   2.803   6.029  1.2536  0.0671 -0.5491
 6558SOL    HW231311   0.556   2.857   6.037  0.2071 -2.3134 -1.5907
 6559SOL     OW31312   2.917   2.858   6.152  0.5633  0.2379 -0.4946
 6559SOL    HW131313   2.932   2.927   6.217  1.8323  1.4420 -2.0621
 6559SOL    HW231314   2.871   2.910   6.086 -0.6531 -3.4160 -2.4946
 6560SOL     OW31315   0.194   0.473   7.756 -0.3623  0.1764  0.1891
 6560SOL    HW131316   0.243   0.450   7.677 -1.8169  3.3347 -1.6319
 6560SOL    HW231317   0.264   0.450   7.818 -1.5004 -1.9491  0.6899
 6561SOL     OW31318   1.302   1.065   5.419  0.0954 -0.1596  0.2301
 6561SOL    HW131319   1.332   1.009   5.491 -1.0146 -1.2169 -0.1212
 6561SOL    HW231320   1.384   1.069   5.371 -0.8936 -1.6285 -1.5846
 6562SOL     OW31321   3.821   3.518   5.896 -0.2857  0.5332  0.5243
 6562SOL    HW131322   3.799   3.517   5.803 -1.4984 -2.5005  0.8195
 6562SOL    HW231323   3.744   3.549   5.944 -0.6395  0.5901 -0.0733
 6563SOL     OW31324   1.349   4.537   4.124  0.3462  0.2876 -0.3395
 6563SOL    HW131325   1.418   4.579   4.176 -0.6578  1.5845 -0.0518
 6563SOL    HW231326   1.300   4.614   4.093 -0.7394 -1.1470 -2.1382
 6564SOL     OW31327   3.030   1.491   5.257 -0.2082 -0.1071  0.6241
 6564SOL    HW131328   3.062   1.542   5.182  0.2496 -1.3469 -0.0390
 6564SOL    HW231329   3.011   1.562   5.318 -1.9858  0.0085 -0.0750
 6565SOL     OW31330   1.451   2.371   3.229 -0.1481  0.0336 -0.1798
 6565SOL    HW131331   1.482   2.456   3.200  1.9697 -0.8575 -0.4966
 6565SOL    HW231332   1.370   2.402   3.270  0.1106 -2.1080  1.9674
 6566SOL     OW31333   1.505   2.195  17.490 -0.0984  0.0977  0.0013
 6566SOL    HW131334   1.451   2.122  17.460  1.5402 -0.5016 -1.5014
 6566SOL    HW231335   1.439   2.264  17.487 -0.1298  0.1098  0.7956
 6567SOL     OW31336   3.379   4.068   5.680  0.0109 -0.1805 -0.5990
 6567SOL    HW131337   3.451   4.076   5.743  0.1711 -0.0344 -0.8024
 6567SOL    HW231338   3.402   3.983   5.643  0.6302 -0.2078 -0.1543
 6568SOL     OW31339   1.760   2.130   6.304  0.2025  0.2823  0.2844
 6568SOL    HW131340   1.765   2.226   6.298 -2.4177  0.3881 -0.2399
 6568SOL    HW231341   1.699   2.109   6.234 -1.7189 -1.0377  2.3588
 6569SOL     OW31342   2.881   0.150   6.651  0.4097  0.3892 -0.2280
 6569SOL    HW131343   2.872   0.245   6.664 -3.6075  0.1209 -0.9970
 6569SOL    HW231344   2.877   0.148   6.555  1.8100  0.2315 -0.2781
 6570SOL     OW31345   2.428   3.442  16.896  0.1483  0.6154 -0.1907
 6570SOL    HW131346   2.345   3.476  16.930  0.3269  1.7768 -0.9179
 6570SOL    HW231347   2.480   3.435  16.976  2.6116 -1.6910 -2.0003
 6571SOL     OW31348   2.830   2.581   5.228 -0.2105  0.1105  0.3557
 6571SOL    HW131349   2.748   2.531   5.222 -0.9460  1.3011  0.4632
 6571SOL    HW231350   2.872   2.572   5.143 -0.7955  1.1860 -0.0511
 6572SOL     OW31351   0.100   4.012   8.536 -0.1781  0.1640  0.5413
 6572SOL    HW131352   0.038   3.965   8.592 -0.6260 -1.5581 -1.4122
 6572SOL    HW231353   0.179   3.958   8.548  1.3537  1.8328 -2.0522
 6573SOL     OW31354   4.734   3.336   3.123  0.5964  0.1818  0.1780
 6573SOL    HW131355   0.040   3.349   3.038 -0.1605 -0.2999 -0.2853
 6573SOL    HW231356   4.725   3.241   3.136 -0.1651  0.1277 -0.7002
 6574SOL     OW31357   4.703   0.312   0.105  0.1193  0.4134 -0.4141
 6574SOL    HW131358   4.619   0.342   0.071 -0.4575 -1.5227 -0.7237
 6574SOL    HW231359   4.681   0.222   0.129  3.0839  0.2486  1.7149
 6575SOL     OW31360   1.757   2.360   1.886 -0.1598 -0.0528 -0.2231
 6575SOL    HW131361   1.842   2.402   1.886 -1.7222  3.0762 -0.0169
 6575SOL    HW231362   1.714   2.419   1.824 -1.1613 -1.9450 -1.3293
 6576SOL     OW31363   2.864   4.321   2.927 -0.3601 -0.3101  0.1992
 6576SOL    HW131364   2.934   4.348   2.987  0.4768  1.1980 -1.4250
 6576SOL    HW231365   2.812   4.401   2.918 -1.2783 -1.0043 -0.5392
 6577SOL     OW31366   4.424   3.224  15.691 -0.4209  0.4106 -0.1083
 6577SOL    HW131367   4.330   3.218  15.672 -0.8317 -2.3597  2.8792
 6577SOL    HW231368   4.448   3.291  15.627  0.5809 -1.7643 -2.0343
 6578SOL     OW31369   2.033   4.058  15.233  0.2325 -0.3467  0.3285
 6578SOL    HW131370   2.097   4.129  15.239  0.3247 -0.3163 -1.1643
 6578SOL    HW231371   2.087   3.989  15.194 -4.6026 -3.2225 -1.2438
 6579SOL     OW31372   3.279   4.635   3.028 -0.1395  0.3450 -0.6166
 6579SOL    HW131373   3.221   4.630   2.952  1.1809  2.8715 -1.7829
 6579SOL    HW231374   3.364   4.655   2.990  0.0963  2.2886  0.9170
 6580SOL     OW31375   2.611   1.868   1.485  0.3085 -0.0435 -0.0198
 6580SOL    HW131376   2.582   1.806   1.552 -1.5704  0.4188 -0.4180
 6580SOL    HW231377   2.657   1.943   1.522 -0.0641 -0.1495  0.6515
 6581SOL     OW31378   1.126   0.846  15.589 -0.4331  0.1582  0.2774
 6581SOL    HW131379   1.197   0.820  15.529  0.1256  1.7693  0.2241
 6581SOL    HW231380   1.184   0.891  15.651  1.0641 -4.4564  2.1813
 6582SOL     OW31381   4.539   0.233   8.153 -0.5849 -0.0251  1.0173
 6582SOL    HW131382   4.626   0.194   8.146 -0.3949  1.3193 -4.2356
 6582SOL    HW231383   4.575   0.317   8.181  2.6102 -0.4242 -1.9796
 6583SOL     OW31384   4.180   1.149   0.411 -0.5715  0.0086  0.2909
 6583SOL    HW131385   4.198   1.055   0.400  1.9437  0.4056  0.9757
 6583SOL    HW231386   4.268   1.182   0.392 -0.4119  0.9945  2.7542
 6584SOL     OW31387   0.301   4.302   6.307  0.1001 -0.7460 -0.3109
 6584SOL    HW131388   0.240   4.248   6.357 -2.1289  4.0541  2.1600
 6584SOL    HW231389   0.240   4.321   6.235 -0.4590  1.0051  0.6369
 6585SOL     OW31390   3.894   2.906   0.325  0.4205  0.1100 -0.3248
 6585SOL    HW131391   3.880   2.949   0.409 -0.0816 -0.9758  0.1387
 6585SOL    HW231392   3.948   2.830   0.347  1.5153  0.8116 -0.5782
 6586SOL     OW31393   1.686   1.700   1.192 -0.2170  0.1188 -0.3591
 6586SOL    HW131394   1.753   1.735   1.133  1.1588 -1.7383  0.0969
 6586SOL    HW231395   1.610   1.750   1.163 -0.4444 -0.1797 -0.2796
 6587SOL     OW31396   2.150   3.769   6.032  0.8133  0.1151 -0.0135
 6587SOL    HW131397   2.071   3.823   6.023  0.8965  0.0755 -1.0578
 6587SOL    HW231398   2.214   3.838   6.048 -0.0943  0.5615  1.6426
 6588SOL     OW31399   3.626   1.212  16.226  0.0623 -0.3840  0.0165
 6588SOL    HW131400   3.685   1.280  16.194  0.7628 -0.7536  0.5293
 6588SOL    HW231401   3.656   1.210  16.316 -0.1377 -0.9224  0.0701
 6589SOL     OW31402   2.543   3.116  16.929  0.3774  0.2521  0.4736
 6589SOL    HW131403   2.617   3.142  16.874 -1.0834 -0.0038 -1.5985
 6589SOL    HW231404   2.585   3.081  17.007  2.7003 -0.4445 -1.0985
 6590SOL     OW31405   2.636   4.176  10.888  0.1378 -0.2199  0.3409
 6590SOL    HW131406   2.714   4.188  10.942  1.9252 -4.4681 -1.3468
 6590SOL    HW231407   2.656   4.091  10.850 -1.2588  0.1672 -1.2567
 6591SOL     OW31408   3.115   3.363  17.572 -0.5320  0.2112 -0.1041
 6591SOL    HW131409   3.209   3.358  17.588 -0.5052  0.8777 -0.0676
 6591SOL    HW231410   3.084   3.272  17.576 -0.2391  0.0841 -0.9271
 6592SOL     OW31411   4.495   4.650   6.558  0.4290 -0.4764 -0.3821
 6592SOL    HW131412   4.469   0.003   6.539  1.7213 -0.3637 -1.6327
 6592SOL    HW231413   4.428   4.629   6.622 -0.7833 -1.6228 -2.0432
 6593SOL     OW31414   1.237   1.311   6.518 -0.0692 -0.3889  0.3621
 6593SOL    HW131415   1.268   1.327   6.607  1.6702 -1.6298 -0.0203
 6593SOL    HW231416   1.298   1.242   6.491  0.0072  0.1405 -0.7986
 6594SOL     OW31417   1.551   2.849  11.923  0.3253 -0.0313  0.0379
 6594SOL    HW131418   1.591   2.762  11.934 -0.9517 -0.6829 -0.4460
 6594SOL    HW231419   1.593   2.874  11.841 -1.1770  0.1449 -0.6689
 6595SOL     OW31420   4.159   0.962  11.254 -0.4062  0.0207 -0.1146
 6595SOL    HW131421   4.109   1.034  11.293 -0.7505  0.8427 -2.0801
 6595SOL    HW231422   4.101   0.941  11.181  0.8242  1.7786 -1.6329
 6596SOL     OW31423   4.556   0.918   4.154  0.2571 -0.4117 -0.0448
 6596SOL    HW131424   4.566   0.917   4.249 -1.1115 -1.3229  0.0732
 6596SOL    HW231425   4.508   0.999   4.137 -0.1726 -0.3966  1.2346
 6597SOL     OW31426   4.440   0.005  17.708 -0.1757 -0.3447  0.4825
 6597SOL    HW131427   4.434   0.001  17.612 -0.8955 -1.7793  0.5839
 6597SOL    HW231428   4.533   0.001  17.731  0.1579  1.4547 -0.5327
 6598SOL     OW31429   1.804   3.324   9.882 -0.3535 -0.1309  0.0553
 6598SOL    HW131430   1.857   3.308   9.804  0.7367  0.8175  0.6082
 6598SOL    HW231431   1.811   3.419   9.895  0.6493 -0.0174 -1.3521
 6599SOL     OW31432   4.158   0.629   5.861 -0.5759  0.3241  0.5218
 6599SOL    HW131433   4.085   0.626   5.923 -1.1770  0.7868 -0.1633
 6599SOL    HW231434   4.225   0.585   5.913  0.3006 -1.0645 -1.8121
 6600SOL     OW31435   0.689   2.813   8.750  0.4022 -0.4449 -0.3107
 6600SOL    HW131436   0.620   2.878   8.739 -0.1626 -1.3036 -1.8282
 6600SOL    HW231437   0.707   2.825   8.843 -0.0248 -0.4033 -0.2355
 6601SOL     OW31438   4.205   0.743   6.419 -0.0144  0.2009  0.1700
 6601SOL    HW131439   4.174   0.814   6.477  0.3564 -0.6063  1.3551
 6601SOL    HW231440   4.249   0.804   6.360 -0.3083 -1.8145 -2.1115
 6602SOL     OW31441   2.776   2.232  14.875 -0.8139  0.2450  0.2144
 6602SOL    HW131442   2.725   2.312  14.882 -0.2317  0.7802 -1.9172
 6602SOL    HW231443   2.793   2.213  14.968 -1.1336 -0.0822  0.2054
 6603SOL     OW31444   1.426   4.307   8.418  0.0169  0.8490 -0.7439
 6603SOL    HW131445   1.504   4.252   8.412  0.0292  0.9747 -1.7713
 6603SOL    HW231446   1.434   4.335   8.509 -1.1737  0.8473 -0.6340
 6604SOL     OW31447   1.523   0.398   9.535  0.3179  0.3840  0.1775
 6604SOL    HW131448   1.565   0.327   9.486  0.2889  0.4439  0.0656
 6604SOL    HW231449   1.593   0.462   9.549  0.3017  0.3232  0.5516
 6605SOL     OW31450   2.743   0.204   4.658  0.4223  0.7227  0.0327
 6605SOL    HW131451   2.659   0.245   4.638 -0.0622 -1.1728 -1.8300
 6605SOL    HW231452   2.756   0.227   4.750 -1.5166 -0.8044  0.7106
 6606SOL     OW31453   0.815   4.041   2.108  0.2098  0.5875 -0.2796
 6606SOL    HW131454   0.811   4.050   2.013  0.9073  0.0567 -0.3612
 6606SOL    HW231455   0.850   3.954   2.125  0.7844  0.8543 -0.0948
 6607SOL     OW31456   1.320   1.266   6.802  0.2099 -0.1319 -0.3081
 6607SOL    HW131457   1.293   1.179   6.832 -1.4625  0.0704 -1.1980
 6607SOL    HW231458   1.388   1.290   6.864 -1.3234  0.0593  1.2992
 6608SOL     OW31459   0.686   2.127   2.399 -0.1742  0.0534 -0.1612
 6608SOL    HW131460   0.720   2.125   2.309 -1.3317  2.3066 -0.6663
 6608SOL    HW231461   0.767   2.101   2.442 -0.5141 -2.4434 -1.0054
 6609SOL     OW31462   2.577   1.213   7.121 -0.0768  0.4740 -0.4257
 6609SOL    HW131463   2.598   1.285   7.180 -0.0610 -0.9921  1.3758
 6609SOL    HW231464   2.497   1.182   7.164 -0.8946  1.1095 -1.5085
 6610SOL     OW31465   3.670   2.361   4.979  0.0951  0.3880 -0.4415
 6610SOL    HW131466   3.625   2.412   5.047  0.1734  0.7816 -0.6821
 6610SOL    HW231467   3.739   2.420   4.949 -0.6727 -0.2920 -3.5582
 6611SOL     OW31468   2.196   3.284  16.670  0.2415 -0.3438  0.1976
 6611SOL    HW131469   2.263   3.343  16.634 -0.5149  1.3126  1.4827
 6611SOL    HW231470   2.216   3.259  16.760 -0.0518 -2.3250 -0.2861
 6612SOL     OW31471   0.453   0.526   6.090 -0.1551  0.1715 -0.1444
 6612SOL    HW131472   0.489   0.540   6.177  2.5108  1.0150 -1.3797
 6612SOL    HW231473   0.357   0.525   6.093 -0.1127  1.9425  1.5255
 6613SOL     OW31474   1.183   3.613   5.098 -0.4857  0.0730 -0.1602
 6613SOL    HW131475   1.272   3.578   5.106 -0.6049 -0.1616  0.1305
 6613SOL    HW231476   1.181   3.655   5.012  1.2710  0.0950 -0.1925
 6614SOL     OW31477   2.744   0.710   4.968  0.2347  0.3613  0.2737
 6614SOL    HW131478   2.715   0.623   4.940  1.3456 -0.1697  0.7624
 6614SOL    HW231479   2.805   0.680   5.036  1.8085  1.0764 -0.8260
 6615SOL     OW31480   4.316   1.655   1.038  0.7795 -0.5277 -0.5972
 6615SOL    HW131481   4.349   1.658   1.128  0.6700  0.5423 -0.5833
 6615SOL    HW231482   4.332   1.745   1.009 -2.1108 -0.4145 -1.7914
 6616SOL     OW31483   2.785   2.699   2.320  0.5947  0.0815  0.1917
 6616SOL    HW131484   2.818   2.765   2.382 -0.5155  2.0984 -1.3858
 6616SOL    HW231485   2.711   2.746   2.284 -0.7479 -0.9892  1.5392
 6617SOL     OW31486   0.448   0.978   7.978 -0.2142 -0.3954 -0.9964
 6617SOL    HW131487   0.459   0.932   8.061 -1.7363  3.1524  1.1993
 6617SOL    HW231488   0.496   0.921   7.918  0.2098 -0.1454 -0.8952
 6618SOL     OW31489   4.199   2.838   6.111  0.1914 -0.3038 -0.1297
 6618SOL    HW131490   4.148   2.761   6.086 -1.6146  0.9484 -0.3182
 6618SOL    HW231491   4.279   2.808   6.154  0.5618 -0.8177 -1.1907
 6619SOL     OW31492   1.222   2.558   6.899 -0.2993 -0.5024 -0.3917
 6619SOL    HW131493   1.147   2.556   6.840 -1.1771  1.5605  0.6578
 6619SOL    HW231494   1.217   2.650   6.927 -1.3163 -0.1801 -1.6351
 6620SOL     OW31495   0.179   0.668   6.892 -0.2825  0.1518  0.0071
 6620SOL    HW131496   0.225   0.710   6.964  2.6202 -0.5657 -1.4015
 6620SOL    HW231497   0.137   0.594   6.938 -0.6283 -0.4887 -1.3372
 6621SOL     OW31498   2.997   1.900   6.795 -0.1346 -0.2647 -0.6021
 6621SOL    HW131499   2.973   1.885   6.886 -0.5057  0.6730 -0.5424
 6621SOL    HW231500   3.070   1.839   6.785  1.4009  1.5804 -0.5665
 6622SOL     OW31501   4.272   3.385   5.681 -0.4693  0.3906 -0.4475
 6622SOL    HW131502   4.181   3.366   5.658 -0.7811  2.7352 -1.1138
 6622SOL    HW231503   4.261   3.457   5.743  2.1663  0.2461  0.1981
 6623SOL     OW31504   3.570   4.030   8.062 -0.3499 -0.1405 -0.6315
 6623SOL    HW131505   3.503   4.099   8.064 -1.7177 -1.4517 -0.9370
 6623SOL    HW231506   3.521   3.954   8.093  0.3940  0.2130  1.4034
 6624SOL     OW31507   2.942   2.557   1.306  0.0908  0.1129  1.2175
 6624SOL    HW131508   2.903   2.644   1.312 -2.7096 -1.1178  0.7706
 6624SOL    HW231509   2.886   2.510   1.245 -1.5497  2.6765  0.7561
 6625SOL     OW31510   4.242   1.053   5.525  0.1814 -0.0177  0.1265
 6625SOL    HW131511   4.227   1.008   5.608 -1.7692 -1.2822 -0.9151
 6625SOL    HW231512   4.338   1.050   5.525  0.1910  0.2789 -0.5868
 6626SOL     OW31513   4.447   1.824  16.797  0.1326 -0.3461  0.4222
 6626SOL    HW131514   4.506   1.815  16.722  1.3091 -0.9174  1.4100
 6626SOL    HW231515   4.430   1.733  16.819 -0.0630 -0.5106 -0.4080
 6627SOL     OW31516   1.706   3.331   7.111 -0.2809 -0.1865 -0.2521
 6627SOL    HW131517   1.651   3.254   7.122  1.4016 -1.3888 -0.2813
 6627SOL    HW231518   1.744   3.310   7.026 -1.8934 -0.9548 -0.7844
 6628SOL     OW31519   2.513   3.665   8.180  0.3658  0.2807 -0.3887
 6628SOL    HW131520   2.557   3.583   8.201  2.5378  1.7687  0.8259
 6628SOL    HW231521   2.454   3.672   8.255  2.2314 -1.2618  1.2057
 6629SOL     OW31522   0.422   2.492   2.310 -0.2285 -0.5743  0.0586
 6629SOL    HW131523   0.450   2.413   2.264 -0.1321 -1.2326  1.2327
 6629SOL    HW231524   0.506   2.506   2.353  0.1894 -1.4981 -0.4430
 6630SOL     OW31525   2.132   3.007   9.677  0.2852 -0.2820 -0.4867
 6630SOL    HW131526   2.199   2.992   9.611  1.4157  2.1000  0.1277
 6630SOL    HW231527   2.077   2.929   9.665 -1.7421  0.9400  0.9299
 6631SOL     OW31528   1.549   2.157   5.288  0.5434  0.5107 -0.3672
 6631SOL    HW131529   1.576   2.083   5.234  0.0589  0.6198 -0.7537
 6631SOL    HW231530   1.630   2.207   5.301 -0.2037  1.8674 -0.9748
 6632SOL     OW31531   0.159   1.435   8.074 -0.3294  0.1993  0.4699
 6632SOL    HW131532   0.165   1.370   8.005  1.2081 -0.6722  1.4319
 6632SOL    HW231533   0.132   1.512   8.024  2.9686  1.0359  0.0455
 6633SOL     OW31534   3.444   1.250   3.332  0.4625  0.3429 -0.4862
 6633SOL    HW131535   3.478   1.308   3.264 -0.0259 -0.4480 -1.4037
 6633SOL    HW231536   3.521   1.196   3.350  0.8884  0.4213 -2.1635
 6634SOL     OW31537   3.373   0.780   7.241  0.2606  0.1130 -0.6840
 6634SOL    HW131538   3.328   0.775   7.156 -0.1127 -0.8943 -0.4271
 6634SOL    HW231539   3.436   0.845   7.211 -1.5248  2.1074 -0.1529
 6635SOL     OW31540   2.293   0.351   3.000 -0.2724 -0.2315  0.1854
 6635SOL    HW131541   2.384   0.344   2.971 -0.7731 -0.9412 -1.2155
 6635SOL    HW231542   2.260   0.261   2.999 -0.9395  0.0033  0.7006
 6636SOL     OW31543   0.471   3.476   3.991 -0.5164  0.1647 -0.8595
 6636SOL    HW131544   0.529   3.509   3.923  1.7850 -1.1403  0.4761
 6636SOL    HW231545   0.450   3.388   3.961 -0.9038  0.5966 -1.8343
 6637SOL     OW31546   2.330   4.716   6.955 -0.2117  0.3284  0.1258
 6637SOL    HW131547   2.350   4.627   6.983  2.1910  0.7334 -0.3160
 6637SOL    HW231548   2.320   0.035   7.031 -0.7690 -0.0844  0.3586
 6638SOL     OW31549   3.566   1.175   7.453 -0.0577  0.4732  0.3546
 6638SOL    HW131550   3.599   1.164   7.542 -1.4426 -0.7759  0.7193
 6638SOL    HW231551   3.533   1.264   7.468  0.5922  0.6893  0.4869
 6639SOL     OW31552   1.912   3.971   9.502 -0.4140  0.2149  0.7760
 6639SOL    HW131553   1.886   4.037   9.438  0.6982  0.3828  0.5004
 6639SOL    HW231554   1.878   3.898   9.452  1.5334  0.1831 -0.4656
 6640SOL     OW31555   0.246   3.263  17.271 -0.0900 -0.0868 -0.3269
 6640SOL    HW131556   0.152   3.268  17.253 -0.2354 -0.5429  0.2750
 6640SOL    HW231557   0.281   3.232  17.187  0.9616 -2.2907  0.9158
 6641SOL     OW31558   4.542   0.621   8.611  0.2867 -0.1480  0.1077
 6641SOL    HW131559   4.516   0.560   8.680  0.3486 -1.9608 -1.4822
 6641SOL    HW231560   4.496   0.594   8.532  0.1463 -0.8988  0.4391
 6642SOL     OW31561   2.065   2.970   5.976  0.2218 -0.1197  0.0994
 6642SOL    HW131562   2.116   3.027   5.918 -0.9440  1.2346  0.4075
 6642SOL    HW231563   2.061   3.035   6.047  2.6830 -0.1590  0.2808
 6643SOL     OW31564   3.959   1.251   5.522  0.1081 -0.6714  0.2497
 6643SOL    HW131565   3.963   1.164   5.562  0.7875 -1.2652 -1.1096
 6643SOL    HW231566   3.863   1.259   5.516  0.3101  1.1312 -0.5883
 6644SOL     OW31567   1.569   3.294   0.761 -0.1081 -0.1874 -0.3640
 6644SOL    HW131568   1.653   3.301   0.716  0.6080 -4.4401  0.3683
 6644SOL    HW231569   1.517   3.257   0.690 -0.0936  1.1197 -1.0573
 6645SOL     OW31570   2.521   2.436  12.671  0.6060 -0.2313 -0.1767
 6645SOL    HW131571   2.599   2.388  12.697 -0.6866 -2.4619 -0.4504
 6645SOL    HW231572   2.564   2.517  12.642 -1.4854  0.1473 -2.2360
 6646SOL     OW31573   4.475   0.479  11.834  0.2627 -0.0430  0.1620
 6646SOL    HW131574   4.515   0.536  11.768 -2.2362 -0.3211 -1.6086
 6646SOL    HW231575   4.531   0.401  11.827 -0.4856 -0.4574 -1.4072
 6647SOL     OW31576   0.519   3.049   2.179 -0.0816  0.1584 -0.2385
 6647SOL    HW131577   0.579   3.113   2.218  0.0758 -1.9458  2.9454
 6647SOL    HW231578   0.452   3.047   2.247  0.0085 -1.0436 -0.1872
 6648SOL     OW31579   0.240   1.994   7.676 -0.1168  0.3551 -0.0145
 6648SOL    HW131580   0.266   2.063   7.737  1.2773 -0.3174  0.1321
 6648SOL    HW231581   0.208   1.935   7.744 -0.3240 -1.3434 -1.5941
 6649SOL     OW31582   1.537   0.187   5.467  0.1669 -0.0843  0.2414
 6649SOL    HW131583   1.571   0.264   5.422  0.6047 -1.2565 -1.4106
 6649SOL    HW231584   1.443   0.203   5.466  0.3010  0.5866 -2.0870
 6650SOL     OW31585   2.333   4.241  15.259 -0.0599 -0.3238 -0.5783
 6650SOL    HW131586   2.403   4.296  15.295  0.0140 -0.0151 -1.1871
 6650SOL    HW231587   2.299   4.298  15.191  0.1056  0.7717  0.2531
 6651SOL     OW31588   4.559   1.755   8.928  0.2164  0.2974 -0.3292
 6651SOL    HW131589   4.486   1.759   8.866  0.6226  0.3837 -0.7991
 6651SOL    HW231590   4.602   1.826   8.881  2.0162  0.4573  1.5927
 6652SOL     OW31591   0.857   2.574   7.821  0.4945 -0.4148 -0.1190
 6652SOL    HW131592   0.783   2.601   7.767 -0.0595  0.6497  1.1594
 6652SOL    HW231593   0.809   2.521   7.885  0.4850 -0.5465 -0.2374
 6653SOL     OW31594   0.678   4.701  12.168  0.4470 -0.0292  0.0075
 6653SOL    HW131595   0.737   0.030  12.132  0.8611 -1.4434 -1.8992
 6653SOL    HW231596   0.616   0.015  12.219  0.9994  0.6418  0.0009
 6654SOL     OW31597   0.541   1.131   3.410  0.0089 -0.3375 -0.3513
 6654SOL    HW131598   0.459   1.090   3.383 -0.7584 -0.3163  1.8679
 6654SOL    HW231599   0.522   1.221   3.384  1.6156  0.7874  2.3534
 6655SOL     OW31600   4.446   3.935   2.162 -0.2774  0.1351  0.1262
 6655SOL    HW131601   4.471   3.858   2.212  2.1729  1.5046  1.0095
 6655SOL    HW231602   4.352   3.945   2.176 -1.0256 -0.2477 -4.3976
 6656SOL     OW31603   2.040   2.247  10.163 -0.2430  0.0969 -0.0394
 6656SOL    HW131604   2.066   2.287  10.246  0.0754 -1.0340  0.3977
 6656SOL    HW231605   1.955   2.210  10.184 -0.7578  1.0519 -0.4009
 6657SOL     OW31606   2.081   1.389  13.635  0.3751 -0.2333 -0.1070
 6657SOL    HW131607   2.065   1.444  13.558  1.5321  0.7627  0.3697
 6657SOL    HW231608   1.992   1.363  13.659  0.4492 -0.9979 -0.6773
 6658SOL     OW31609   1.251   2.827   5.119 -0.2804  0.3881  0.7089
 6658SOL    HW131610   1.313   2.832   5.192  0.0893  0.5793  0.3817
 6658SOL    HW231611   1.215   2.741   5.140 -2.0691  1.3616  1.6102
 6659SOL     OW31612   3.581   3.037   0.755  0.5304 -0.5919  0.0513
 6659SOL    HW131613   3.569   2.942   0.759 -3.8153 -0.2074 -3.3199
 6659SOL    HW231614   3.582   3.065   0.847  0.9267  3.2718 -1.1323
 6660SOL     OW31615   3.278   0.497   6.594  0.6619 -0.0587  0.6256
 6660SOL    HW131616   3.335   0.519   6.520 -0.4801 -0.9748 -0.5097
 6660SOL    HW231617   3.325   0.538   6.667  0.2715 -1.5194  1.6985
 6661SOL     OW31618   4.618   0.887  14.312 -0.0490 -0.4930 -0.5537
 6661SOL    HW131619   4.655   0.955  14.369 -2.8302 -0.8596  1.6483
 6661SOL    HW231620   4.546   0.848  14.362 -2.0434  1.0780 -2.2092
 6662SOL     OW31621   3.283   4.289  13.692  0.2272 -0.2123 -0.4765
 6662SOL    HW131622   3.243   4.367  13.653 -3.1626 -1.7834 -0.1385
 6662SOL    HW231623   3.369   4.330  13.703  1.0742 -1.3000 -2.9238
 6663SOL     OW31624   2.680   3.773  11.523 -0.0216 -0.1903  0.0486
 6663SOL    HW131625   2.605   3.726  11.562 -1.1699  1.4968 -0.1396
 6663SOL    HW231626   2.667   3.859  11.562  0.2442  0.1620 -0.6483
 6664SOL     OW31627   0.217   3.322   1.646  0.2873  0.1885  0.6330
 6664SOL    HW131628   0.153   3.347   1.580  0.5335  3.6571  1.6718
 6664SOL    HW231629   0.229   3.406   1.690 -0.0670  0.4596  0.2053
 6665SOL     OW31630   4.305   0.511   6.068  0.6220  0.4220 -0.1025
 6665SOL    HW131631   4.331   0.419   6.078  0.6674  0.7283  2.7921
 6665SOL    HW231632   4.354   0.546   6.142 -1.2456  1.6765  0.5590
 6666SOL     OW31633   0.839   2.974   6.377  0.0544  0.1650  0.0851
 6666SOL    HW131634   0.833   3.058   6.423  0.4082  1.2704 -1.8914
 6666SOL    HW231635   0.758   2.928   6.396 -0.8397  2.3937  1.6700
 6667SOL     OW31636   4.059   1.487   1.308  0.1845  0.2675 -0.1258
 6667SOL    HW131637   4.088   1.509   1.219 -1.5315 -0.8776 -0.9690
 6667SOL    HW231638   3.969   1.518   1.313  0.2436  0.3429  0.4461
 6668SOL     OW31639   4.419   4.565   4.643  0.1738 -0.1357 -0.1547
 6668SOL    HW131640   4.416   4.486   4.588  0.3026  0.4933 -1.0660
 6668SOL    HW231641   4.507   4.602   4.637  1.7029 -3.5241  0.9674
 6669SOL     OW31642   0.735   2.475   2.076 -0.0365 -0.7230 -0.4286
 6669SOL    HW131643   0.737   2.518   2.162  0.2059  1.8351 -1.6910
 6669SOL    HW231644   0.667   2.409   2.089  0.0883 -1.0889 -1.6586
 6670SOL     OW31645   0.204   3.520   3.285 -0.0341 -0.1616  0.2621
 6670SOL    HW131646   0.148   3.579   3.235 -0.6575 -1.2513 -0.3183
 6670SOL    HW231647   0.151   3.442   3.297 -1.1802  0.4599 -0.8799
 6671SOL     OW31648   1.616   2.128   1.863  0.6119  0.2580 -0.0905
 6671SOL    HW131649   1.569   2.156   1.785  1.2197 -0.3044 -0.6562
 6671SOL    HW231650   1.679   2.199   1.874  2.5320 -1.1231 -2.0387
 6672SOL     OW31651   0.555   3.442   6.524 -0.4130 -0.2780  0.3487
 6672SOL    HW131652   0.639   3.451   6.569 -0.2234 -1.4488  0.2347
 6672SOL    HW231653   0.519   3.393   6.598  1.1247 -0.2593  1.1228
 6673SOL     OW31654   2.510   2.118   5.698 -0.1102  0.0011 -0.3656
 6673SOL    HW131655   2.451   2.087   5.630  1.1731 -1.6715 -0.7332
 6673SOL    HW231656   2.496   2.213   5.702  1.1904  0.0959  2.0802
 6674SOL     OW31657   4.222   2.688   9.282 -0.2294 -0.3805  0.2984
 6674SOL    HW131658   4.132   2.692   9.314 -0.2049  1.7820  0.1396
 6674SOL    HW231659   4.264   2.715   9.363  0.8333  0.8498 -0.6499
 6675SOL     OW31660   3.464   4.374  13.960 -0.4351  0.2045 -0.4698
 6675SOL    HW131661   3.548   4.345  13.997  0.0361  1.7108 -0.3517
 6675SOL    HW231662   3.480   4.337  13.873  0.8050 -0.7799  0.1763
 6676SOL     OW31663   4.372   3.849   3.642 -0.3900 -1.5222 -0.6139
 6676SOL    HW131664   4.309   3.886   3.704  0.9622 -0.7688  0.3010
 6676SOL    HW231665   4.356   3.755   3.652  1.4551 -2.0870 -2.9693
 6677SOL     OW31666   3.304   0.296  15.279  0.1089 -0.2217  0.2315
 6677SOL    HW131667   3.343   0.245  15.208  4.2001  2.6617  0.4028
 6677SOL    HW231668   3.330   0.387  15.263  0.4148 -0.3677 -0.0986
 6678SOL     OW31669   4.291   4.610   8.334  0.6889 -0.6952 -0.1253
 6678SOL    HW131670   4.361   4.560   8.375  0.8397  1.6118  2.4049
 6678SOL    HW231671   4.341   4.685   8.302 -1.6670  1.1846  0.5552
 6679SOL     OW31672   4.563   0.270   2.898 -0.3250 -0.0992 -0.2630
 6679SOL    HW131673   4.578   0.178   2.922 -1.4003  0.6682  3.2916
 6679SOL    HW231674   4.480   0.246   2.856 -1.0232  1.1629  0.4094
 6680SOL     OW31675   3.109   3.311  13.552  0.3877  0.4074  0.0909
 6680SOL    HW131676   3.140   3.273  13.470 -1.4380  0.5046 -0.6604
 6680SOL    HW231677   3.045   3.242  13.571  1.3561 -0.2542  0.9571
 6681SOL     OW31678   3.363   2.240  17.148 -0.4308  0.2304  0.5320
 6681SOL    HW131679   3.390   2.150  17.164 -0.6571  0.6311  3.1893
 6681SOL    HW231680   3.273   2.223  17.174 -0.4336  0.0479  0.4046
 6682SOL     OW31681   1.735   2.501  14.082 -0.2961  0.2859 -0.5248
 6682SOL    HW131682   1.661   2.503  14.021 -1.0865  1.0603  0.4587
 6682SOL    HW231683   1.809   2.462  14.035  0.0293 -1.1610  1.2001
 6683SOL     OW31684   0.844   3.584   6.244 -0.1483  0.0486 -0.4526
 6683SOL    HW131685   0.844   3.673   6.280  0.1208 -0.2859  0.3705
 6683SOL    HW231686   0.751   3.565   6.249 -0.1262  0.2121  0.6381
 6684SOL     OW31687   3.807   4.178  10.981  0.6943 -0.6342  0.4665
 6684SOL    HW131688   3.718   4.149  10.964  0.6635  0.0486 -0.5170
 6684SOL    HW231689   3.864   4.102  10.968  0.4135 -1.1014  1.9118
 6685SOL     OW31690   0.876   0.304   6.698  0.0787  0.5564  0.8210
 6685SOL    HW131691   0.800   0.310   6.756 -1.4066  1.9511 -1.2697
 6685SOL    HW231692   0.826   0.338   6.624 -2.4258  0.1764  2.3290
 6686SOL     OW31693   4.544   2.911   2.800 -0.2725 -0.1057  0.4618
 6686SOL    HW131694   4.529   2.843   2.735  0.7556 -2.4555  2.7189
 6686SOL    HW231695   4.499   2.880   2.878 -1.1329 -2.9112 -1.1678
 6687SOL     OW31696   3.736   1.412   6.598  0.0550 -0.3994  0.5904
 6687SOL    HW131697   3.831   1.410   6.592  0.0157 -1.1717  0.1599
 6687SOL    HW231698   3.719   1.409   6.504  2.3946  0.8232  0.1364
 6688SOL     OW31699   0.151   1.023   2.479  0.1612 -0.4726  0.4215
 6688SOL    HW131700   0.187   1.063   2.400  1.7023 -2.2165  0.2252
 6688SOL    HW231701   0.126   1.096   2.536 -0.8348 -0.0022 -0.6177
 6689SOL     OW31702   1.787   0.018  16.075  0.5128  0.0452  0.8853
 6689SOL    HW131703   1.863   4.697  16.072 -0.4551 -1.3200  2.4984
 6689SOL    HW231704   1.718   4.692  16.097  0.4143 -0.1999 -0.1166
 6690SOL     OW31705   3.145   1.499   5.926  0.6507  0.0349 -0.5172
 6690SOL    HW131706   3.165   1.516   6.018  0.6389 -0.8826 -0.3494
 6690SOL    HW231707   3.132   1.405   5.921 -0.5921  0.2634 -1.5007
 6691SOL     OW31708   1.306   3.699   4.575  0.3784 -0.9063  0.2295
 6691SOL    HW131709   1.323   3.648   4.654 -1.5138  1.2034  1.9749
 6691SOL    HW231710   1.394   3.690   4.538  0.9065 -0.4681  1.3801
 6692SOL     OW31711   3.964   2.130  15.637  0.1232  0.0828 -0.0216
 6692SOL    HW131712   3.903   2.203  15.639 -0.9996 -0.8133 -1.9089
 6692SOL    HW231713   3.920   2.059  15.684  1.3035  0.4772  1.6718
 6693SOL     OW31714   3.531   3.570   2.250 -0.0272 -0.6850  0.4764
 6693SOL    HW131715   3.618   3.555   2.214 -0.2268  0.3956 -0.4783
 6693SOL    HW231716   3.505   3.481   2.273  0.2078 -0.3657  1.9606
 6694SOL     OW31717   0.432   4.279   1.767 -0.0701  0.0342 -0.4877
 6694SOL    HW131718   0.391   4.234   1.841  0.2564 -1.1946 -1.0629
 6694SOL    HW231719   0.381   4.357   1.744  0.7276  1.0611  1.2362
 6695SOL     OW31720   0.432   0.501  12.717  0.8178 -0.1684  0.2582
 6695SOL    HW131721   0.496   0.561  12.756 -0.7382  0.0984  2.4462
 6695SOL    HW231722   0.359   0.563  12.713  1.3481  0.3148 -1.6572
 6696SOL     OW31723   2.187   2.689   7.281  0.4573 -0.8039 -0.7587
 6696SOL    HW131724   2.134   2.762   7.248 -2.4462 -1.4792  2.4022
 6696SOL    HW231725   2.143   2.684   7.366  0.4449 -2.2170 -0.8496
 6697SOL     OW31726   0.147   0.781   3.148 -0.0204  0.1877 -0.1802
 6697SOL    HW131727   0.194   0.743   3.223 -3.1027 -1.6029  0.8450
 6697SOL    HW231728   0.226   0.817   3.107 -0.0123  0.3302 -0.0411
 6698SOL     OW31729   2.172   2.416   6.669  0.2848  0.3533 -0.1250
 6698SOL    HW131730   2.190   2.432   6.761  0.4201 -1.0233  0.0805
 6698SOL    HW231731   2.259   2.397   6.635  1.5403  2.0576  2.1987
 6699SOL     OW31732   3.450   2.297  12.105  0.7663 -0.6429 -0.4695
 6699SOL    HW131733   3.526   2.330  12.152  2.1613 -0.1497 -3.1149
 6699SOL    HW231734   3.393   2.374  12.107 -0.4440 -1.6225  2.5224
 6700SOL     OW31735   2.087   3.459   5.130 -0.3905  0.9479  0.0874
 6700SOL    HW131736   2.161   3.451   5.190 -1.2200 -0.9699  0.8443
 6700SOL    HW231737   2.026   3.423   5.193  0.0185  0.8675  0.4380
 6701SOL     OW31738   3.627   0.659   5.350 -0.2942 -0.6551 -0.1125
 6701SOL    HW131739   3.594   0.657   5.260 -0.1131  4.1898 -0.2839
 6701SOL    HW231740   3.721   0.673   5.340 -0.0995  0.1390  2.7934
 6702SOL     OW31741   3.089   4.432   3.647 -0.3981 -0.2621  0.0258
 6702SOL    HW131742   3.006   4.388   3.664 -0.1273 -0.2937  1.3348
 6702SOL    HW231743   3.097   4.483   3.728  0.5679  0.1880 -0.3527
 6703SOL     OW31744   3.179   2.374  11.819  0.0678  0.0313  0.1007
 6703SOL    HW131745   3.228   2.415  11.890 -0.0892 -1.0118  0.8106
 6703SOL    HW231746   3.154   2.290  11.858 -1.4275  0.7214  0.6582
 6704SOL     OW31747   0.732   4.469   7.239  0.1474 -0.3124 -0.3397
 6704SOL    HW131748   0.827   4.463   7.236  0.0923 -1.4393  0.0943
 6704SOL    HW231749   0.705   4.496   7.152 -0.2410  0.1685 -0.0712
 6705SOL     OW31750   2.168   3.345   6.852  0.3944 -0.1235  0.0629
 6705SOL    HW131751   2.096   3.375   6.908 -0.6382 -0.3297 -1.1545
 6705SOL    HW231752   2.124   3.345   6.767  1.1065  0.2057 -0.3059
 6706SOL     OW31753   1.684   0.058   1.998 -0.4009 -0.1417  0.4663
 6706SOL    HW131754   1.734   0.113   2.059  1.8716 -1.8310  0.1188
 6706SOL    HW231755   1.607   0.114   1.990  0.8417  1.7052  1.3962
 6707SOL     OW31756   3.427   3.742  12.019  0.0341  0.3439  0.0365
 6707SOL    HW131757   3.423   3.753  12.114  2.6193  0.8978  0.0919
 6707SOL    HW231758   3.495   3.807  12.001 -0.2879  0.3623 -1.1314
 6708SOL     OW31759   3.643   2.826   2.168 -0.5000 -0.5102 -0.0276
 6708SOL    HW131760   3.569   2.768   2.149 -0.7289 -1.5240  3.7955
 6708SOL    HW231761   3.689   2.767   2.229  1.3625  0.0351 -0.9303
 6709SOL     OW31762   0.256   1.740   6.181 -0.4604  0.0009  0.4737
 6709SOL    HW131763   0.339   1.718   6.138 -0.1109  1.0165  0.6484
 6709SOL    HW231764   0.263   1.688   6.261 -0.2086 -1.0178 -0.1997
 6710SOL     OW31765   2.404   2.002  12.029  0.1978 -0.6593 -0.3428
 6710SOL    HW131766   2.399   2.037  11.940 -1.0902  1.7116  0.6745
 6710SOL    HW231767   2.315   2.015  12.059  0.8015 -0.8914  1.5404
 6711SOL     OW31768   1.225   1.933  11.367 -0.4106 -0.4430  1.1768
 6711SOL    HW131769   1.298   1.876  11.391  1.3901  0.8246 -1.3705
 6711SOL    HW231770   1.164   1.878  11.318 -0.5667  1.0827 -0.3292
 6712SOL     OW31771   2.225   1.600  11.936 -0.2043 -0.6335  0.2036
 6712SOL    HW131772   2.224   1.600  11.840 -1.5056 -0.5355  0.2203
 6712SOL    HW231773   2.299   1.657  11.954 -1.6619  1.9809 -2.0133
 6713SOL     OW31774   1.438   1.700   7.880 -0.0101  0.0506  1.1650
 6713SOL    HW131775   1.498   1.628   7.863 -0.1463 -0.0220  0.9903
 6713SOL    HW231776   1.371   1.654   7.929  1.0076 -1.4772  1.1264
 6714SOL     OW31777   3.917   2.917   6.240  0.1278  0.5918  0.2771
 6714SOL    HW131778   3.981   2.977   6.278 -0.2277  1.2077 -0.1068
 6714SOL    HW231779   3.856   2.919   6.313  0.4042 -2.0926  0.6080
 6715SOL     OW31780   3.116   1.902   1.990 -0.3408  0.5316  0.3863
 6715SOL    HW131781   3.080   1.870   2.072  0.8951  0.8682  1.0548
 6715SOL    HW231782   3.205   1.871   2.006 -0.3244  1.1908  1.5588
 6716SOL     OW31783   0.285   2.184   5.464 -0.0752  0.2321 -0.0622
 6716SOL    HW131784   0.354   2.121   5.442 -1.1249 -0.6891 -0.7203
 6716SOL    HW231785   0.233   2.196   5.384 -0.3914 -0.9540 -0.0323
 6717SOL     OW31786   3.049   3.645   8.438 -0.3936  0.4384 -0.3170
 6717SOL    HW131787   3.091   3.633   8.523 -0.6409  2.8984  0.1737
 6717SOL    HW231788   2.998   3.726   8.449 -1.8317 -0.4214 -0.6533
 6718SOL     OW31789   1.148   1.641   5.479  0.2519 -0.5874  0.0079
 6718SOL    HW131790   1.073   1.678   5.432  0.3640 -0.4851 -0.0878
 6718SOL    HW231791   1.103   1.633   5.563  0.8286  1.4847  0.5018
 6719SOL     OW31792   3.345   4.324  15.740  0.3799  0.2235  0.2926
 6719SOL    HW131793   3.320   4.313  15.832  1.4278 -1.0603  0.4211
 6719SOL    HW231794   3.263   4.331  15.692 -0.0230  3.3860  1.4741
 6720SOL     OW31795   3.711   4.505   4.037  0.3347  1.0805  0.0350
 6720SOL    HW131796   3.632   4.506   4.091  0.2698 -0.8360 -0.0034
 6720SOL    HW231797   3.768   4.446   4.086  1.7615  2.3705 -0.0625
 6721SOL     OW31798   1.497   1.171   6.146 -0.5904 -0.2519  0.4904
 6721SOL    HW131799   1.478   1.150   6.055  0.4313 -1.3616  0.5310
 6721SOL    HW231800   1.576   1.119   6.163 -1.2776 -1.4791 -0.0814
 6722SOL     OW31801   0.670   0.917   2.461 -0.9082  0.2032 -0.1932
 6722SOL    HW131802   0.708   0.927   2.548  0.6211  1.8135 -1.0635
 6722SOL    HW231803   0.634   1.003   2.440  1.1898  1.1251 -0.0104
 6723SOL     OW31804   2.690   2.603  10.375  0.2689 -0.1962  0.0162
 6723SOL    HW131805   2.709   2.649  10.456  1.8940  1.2587 -1.1682
 6723SOL    HW231806   2.708   2.671  10.310 -1.0483  2.0283  2.0120
 6724SOL     OW31807   4.032   0.618   6.929  0.4034 -0.5128 -0.7575
 6724SOL    HW131808   4.079   0.671   6.994  1.1240 -0.5177 -1.2662
 6724SOL    HW231809   3.992   0.685   6.874  1.9399  0.1600 -1.0702
 6725SOL     OW31810   2.505   3.113   1.959  0.2392 -0.1200 -0.4240
 6725SOL    HW131811   2.517   3.153   2.046  0.4487 -0.2135 -0.4118
 6725SOL    HW231812   2.413   3.096   1.979  0.5969 -1.0409  0.4079
 6726SOL     OW31813   4.261   1.900   2.669 -0.2337 -0.1333  0.3791
 6726SOL    HW131814   4.260   1.940   2.582  1.1880  1.3889  1.0673
 6726SOL    HW231815   4.177   1.935   2.697 -0.5286  1.0665 -2.0257
 6727SOL     OW31816   1.767   2.321   5.349 -0.2101  0.2401  0.1047
 6727SOL    HW131817   1.840   2.359   5.397  0.5864 -0.5971 -0.4212
 6727SOL    HW231818   1.786   2.360   5.264  0.4974 -1.4839 -0.5430
 6728SOL     OW31819   2.024   3.527   9.645  0.7325  0.0104 -0.1466
 6728SOL    HW131820   1.995   3.442   9.679 -0.2820 -0.4342 -2.1467
 6728SOL    HW231821   2.080   3.553   9.719  0.0043  1.2440 -0.0296
 6729SOL     OW31822   1.421   4.138  15.425 -0.3693  0.1105 -0.2341
 6729SOL    HW131823   1.328   4.155  15.441 -0.2820  0.5924 -0.2334
 6729SOL    HW231824   1.452   4.130  15.516 -0.5749 -0.2895 -0.1976
 6730SOL     OW31825   3.718   0.511   7.711 -0.1482  0.2046 -0.6582
 6730SOL    HW131826   3.775   0.505   7.787 -0.4209 -2.4085 -0.6569
 6730SOL    HW231827   3.663   0.586   7.735 -2.0369 -1.3863  0.0219
 6731SOL     OW31828   3.335   4.473   3.267 -0.4111  0.1569  0.0677
 6731SOL    HW131829   3.338   4.527   3.187  0.0712 -0.5662 -0.3986
 6731SOL    HW231830   3.388   4.528   3.325 -0.0775  0.1404 -0.2223
 6732SOL     OW31831   4.208   4.734   7.747 -0.0251 -0.2219  0.2393
 6732SOL    HW131832   4.225   0.076   7.696  3.0944 -1.3580 -0.4857
 6732SOL    HW231833   4.292   4.691   7.731 -0.4807 -0.7813 -0.6641
 6733SOL     OW31834   0.000   0.597   8.067  0.0789  0.6289  0.1093
 6733SOL    HW131835   4.670   0.664   8.073  0.3288  0.7799  1.1505
 6733SOL    HW231836   0.077   0.652   8.054  0.1647  0.6573  0.7279
 6734SOL     OW31837   3.089   2.402   8.863 -0.1431 -0.1201 -0.5108
 6734SOL    HW131838   3.063   2.484   8.820  0.3265 -0.2847 -1.1063
 6734SOL    HW231839   3.022   2.344   8.826 -0.0939 -0.8121  0.5002
 6735SOL     OW31840   4.638   2.367   3.933  0.1341 -0.1184  0.0653
 6735SOL    HW131841   4.688   2.298   3.890  0.4818 -0.6455  1.3192
 6735SOL    HW231842   4.568   2.387   3.871 -0.4302 -1.4512  0.2763
 6736SOL     OW31843   3.677   1.482   8.218  0.4154 -0.1161  0.1193
 6736SOL    HW131844   3.744   1.423   8.181  2.5342  2.3623  0.0272
 6736SOL    HW231845   3.617   1.486   8.144  1.0942 -1.0990 -0.4844
 6737SOL     OW31846   4.169   4.049  16.735  0.2183 -0.1321  0.2785
 6737SOL    HW131847   4.092   4.029  16.683  0.3080  0.2444  0.0053
 6737SOL    HW231848   4.228   4.099  16.679 -1.6788  2.4213  0.5663
 6738SOL     OW31849   3.688   0.748   9.436  0.4154  0.3274 -0.2695
 6738SOL    HW131850   3.719   0.667   9.476 -2.4738 -1.1195 -0.9703
 6738SOL    HW231851   3.696   0.719   9.346 -2.8448 -0.6824 -0.2201
 6739SOL     OW31852   0.423   2.081   6.793  0.1029 -0.2149 -0.1114
 6739SOL    HW131853   0.356   2.051   6.732  1.6366 -2.3257 -0.7284
 6739SOL    HW231854   0.407   2.176   6.792  0.0002 -0.2281  0.2809
 6740SOL     OW31855   0.004   3.587  16.995 -0.0395  0.3771  0.5515
 6740SOL    HW131856   4.648   3.583  16.976  0.4711  1.6386 -2.3342
 6740SOL    HW231857   0.039   3.512  16.947  0.1286  0.5173  0.4562
 6741SOL     OW31858   2.234   0.544  11.965 -0.1142  0.1991 -0.1461
 6741SOL    HW131859   2.266   0.587  11.886  0.2405 -2.0543 -1.2286
 6741SOL    HW231860   2.312   0.549  12.020 -0.6620 -1.2219  0.7739
 6742SOL     OW31861   4.736   0.761  12.610 -0.0508 -0.6370  0.6540
 6742SOL    HW131862   4.680   0.838  12.615 -1.2290 -1.5041  0.9330
 6742SOL    HW231863   4.672   0.698  12.577 -1.2725  0.8952  0.1336
 6743SOL     OW31864   0.358   2.383   9.028  0.6874  0.8184 -0.1002
 6743SOL    HW131865   0.391   2.335   8.953 -1.9125 -2.6972  0.9960
 6743SOL    HW231866   0.421   2.454   9.040  2.5869 -0.8497 -0.3695
 6744SOL     OW31867   1.458   2.030  12.525 -0.5883  0.3179 -0.3633
 6744SOL    HW131868   1.407   1.951  12.502 -1.8304  1.0721 -0.2079
 6744SOL    HW231869   1.424   2.094  12.462 -1.5064  2.5068  2.3837
 6745SOL     OW31870   2.316   0.193   9.226  0.4415 -0.1190 -0.4426
 6745SOL    HW131871   2.224   0.195   9.200  0.1693  2.2122  0.7387
 6745SOL    HW231872   2.332   0.268   9.283  1.5789 -2.7377  2.6358
 6746SOL     OW31873   0.665   3.214   2.339 -0.3173 -0.3245 -0.5552
 6746SOL    HW131874   0.752   3.244   2.310  1.0717 -2.0007  1.9017
 6746SOL    HW231875   0.690   3.147   2.401  1.1012  1.7459  1.1191
 6747SOL     OW31876   2.098   0.201  16.795 -0.0010 -0.7685 -0.0035
 6747SOL    HW131877   2.127   0.120  16.753 -0.1401 -0.3399 -0.9367
 6747SOL    HW231878   2.070   0.167  16.880 -0.5516 -0.4984 -0.0770
 6748SOL     OW31879   3.541   0.445   1.386 -0.7840 -0.2944  0.5493
 6748SOL    HW131880   3.469   0.393   1.350 -0.7235 -0.4067  0.5928
 6748SOL    HW231881   3.502   0.530   1.363  0.1616 -0.3301 -1.1370
 6749SOL     OW31882   4.444   4.289   0.313 -0.2507  0.2164  0.4300
 6749SOL    HW131883   4.534   4.306   0.286 -0.7939 -1.0677 -2.1404
 6749SOL    HW231884   4.395   4.307   0.233 -0.8674 -2.5492  0.1770
 6750SOL     OW31885   4.571   0.720   4.954 -0.0649  0.1919 -0.7023
 6750SOL    HW131886   4.517   0.721   5.033 -1.5050 -0.5330 -1.6736
 6750SOL    HW231887   4.611   0.633   4.951 -0.7616 -0.1867  1.0904
 6751SOL     OW31888   1.904   2.465   7.233  0.0511 -0.2637  0.4504
 6751SOL    HW131889   1.914   2.560   7.245  1.1985 -0.1925 -1.0921
 6751SOL    HW231890   1.815   2.459   7.269  0.4432  0.8471  1.6037
 6752SOL     OW31891   3.237   3.742  11.827 -0.1131  0.0175 -0.3584
 6752SOL    HW131892   3.302   3.750  11.897  0.3951  0.6575 -0.8910
 6752SOL    HW231893   3.183   3.818  11.850 -0.0727  0.5547 -2.0349
 6753SOL     OW31894   2.526   2.366   7.501  0.7254  0.2579  0.0379
 6753SOL    HW131895   2.600   2.326   7.456  0.3149  1.1395 -1.4370
 6753SOL    HW231896   2.476   2.387   7.421 -0.7991 -1.3435  0.5747
 6754SOL     OW31897   0.343   1.161   7.542  0.2080  0.3192  0.1102
 6754SOL    HW131898   0.319   1.069   7.553  1.4518 -0.2793 -2.0366
 6754SOL    HW231899   0.433   1.150   7.571 -0.4465 -1.5198  1.3693
 6755SOL     OW31900   0.955   4.589  17.057 -0.4381  0.4421 -0.6391
 6755SOL    HW131901   0.922   4.634  16.979 -0.0378 -1.2927 -1.8076
 6755SOL    HW231902   0.988   4.664  17.107 -2.3958  1.9905 -1.6632
 6756SOL     OW31903   0.142   2.137   7.083 -0.1078 -0.3883  0.2246
 6756SOL    HW131904   0.225   2.173   7.116 -0.1769  0.5324 -0.6167
 6756SOL    HW231905   0.168   2.053   7.044 -0.5239  0.7483 -2.4489
 6757SOL     OW31906   3.061   3.014   5.416 -0.3185 -0.7535  0.0798
 6757SOL    HW131907   3.134   3.075   5.413  0.0727 -1.2313 -0.1475
 6757SOL    HW231908   3.103   2.934   5.383 -3.8045 -2.6836  0.2891
 6758SOL     OW31909   1.229   1.521   7.951  0.3393 -0.1670  0.1510
 6758SOL    HW131910   1.242   1.428   7.965  0.8107 -0.1301 -0.0416
 6758SOL    HW231911   1.168   1.520   7.877  1.4323  1.3095 -0.7755
 6759SOL     OW31912   3.894   0.040   6.333  0.0112  0.3146 -0.1111
 6759SOL    HW131913   3.813   4.733   6.310  1.1866 -1.8110 -0.1562
 6759SOL    HW231914   3.863   0.090   6.408 -0.9800 -0.6624  0.1356
 6760SOL     OW31915   4.245   1.443   6.604 -0.6294  0.5999 -0.2996
 6760SOL    HW131916   4.270   1.489   6.524  1.6172  2.0818  1.2855
 6760SOL    HW231917   4.329   1.453   6.647 -0.9297 -0.7754  0.6037
 6761SOL     OW31918   2.546   3.878   1.882 -1.0413  0.1769 -0.2625
 6761SOL    HW131919   2.620   3.934   1.858 -1.3314 -0.0450 -1.6835
 6761SOL    HW231920   2.577   3.799   1.838 -0.9018  0.0099  0.1393
 6762SOL     OW31921   0.770   1.972   7.769 -0.0455 -0.7489 -0.1090
 6762SOL    HW131922   0.824   1.956   7.692  0.5137  0.7083 -0.0108
 6762SOL    HW231923   0.835   2.014   7.825 -0.8627  2.1842 -1.3249
 6763SOL     OW31924   3.073   1.356   8.756  0.0137 -0.1002  0.2276
 6763SOL    HW131925   3.095   1.448   8.773 -0.0256 -0.2565  1.1616
 6763SOL    HW231926   3.136   1.339   8.686  0.0246  0.3643  0.1276
 6764SOL     OW31927   3.053   3.660   7.532 -0.0404  0.3279 -0.7750
 6764SOL    HW131928   3.010   3.595   7.588 -0.7947  2.0532  0.6512
 6764SOL    HW231929   2.975   3.702   7.495  1.2720  0.5478 -3.2722
 6765SOL     OW31930   2.019   2.000   1.512  0.0744 -0.2904  0.0216
 6765SOL    HW131931   1.991   2.029   1.599 -0.0673 -1.5057  0.3903
 6765SOL    HW231932   1.934   1.964   1.487 -0.0869  0.3074 -0.2922
 6766SOL     OW31933   0.451   1.385   3.351 -0.1318  0.1100  0.7572
 6766SOL    HW131934   0.356   1.381   3.336  0.0636 -1.6145 -0.0218
 6766SOL    HW231935   0.453   1.450   3.421 -0.1541 -0.3776  1.2087
 6767SOL     OW31936   3.813   3.515   2.206  0.4327 -0.1739 -0.6098
 6767SOL    HW131937   3.841   3.527   2.297 -2.0870 -0.4073  0.2040
 6767SOL    HW231938   3.897   3.519   2.161 -0.5220  2.1142 -2.2098
 6768SOL     OW31939   0.857   0.228   7.330  0.1586  0.6886 -0.4764
 6768SOL    HW131940   0.849   0.171   7.406  1.0479 -1.1974 -1.7873
 6768SOL    HW231941   0.899   0.303   7.373 -0.1241 -0.3118  1.5157
 6769SOL     OW31942   2.948   2.213  16.148 -0.2139  0.0084  0.0634
 6769SOL    HW131943   3.003   2.146  16.107  0.7452  1.1268 -0.5140
 6769SOL    HW231944   2.889   2.240  16.078  0.9325 -1.6105 -1.5137
 6770SOL     OW31945   1.041   3.091   1.500 -0.4858 -0.2570  0.4591
 6770SOL    HW131946   0.966   3.146   1.478 -0.6716 -0.1061  1.4301
 6770SOL    HW231947   0.999   3.047   1.574  1.4771 -1.1437  1.0504
 6771SOL     OW31948   3.582   2.108   4.968  0.1170  0.5394  0.1104
 6771SOL    HW131949   3.637   2.103   4.890  0.8963 -3.0279  0.8830
 6771SOL    HW231950   3.590   2.204   4.974  1.2283  0.5549 -1.5396
 6772SOL     OW31951   2.259   3.776  11.795 -0.2824  0.2452  0.2833
 6772SOL    HW131952   2.297   3.863  11.793  1.3062 -0.5176 -2.8132
 6772SOL    HW231953   2.281   3.741  11.882  1.1324  0.7364  0.1248
 6773SOL     OW31954   0.884   4.203   6.565 -0.0944  0.2210 -0.3718
 6773SOL    HW131955   0.858   4.294   6.557  0.8107  0.2719 -2.5891
 6773SOL    HW231956   0.958   4.195   6.506  0.1667 -0.2085  0.0071
 6774SOL     OW31957   4.219   4.654   0.978 -0.1566 -0.0177 -0.3754
 6774SOL    HW131958   4.278   4.580   0.992 -0.5072 -0.8179 -3.1583
 6774SOL    HW231959   4.278   4.728   0.964 -0.1037  0.5788  2.9358
 6775SOL     OW31960   2.326   3.616   8.396  0.4714  0.6751 -0.3610
 6775SOL    HW131961   2.354   3.573   8.477 -1.2449 -1.6017 -1.0082
 6775SOL    HW231962   2.296   3.703   8.423 -1.1271 -0.0585  0.2101
 6776SOL     OW31963   4.138   3.388  13.368  0.2709 -0.0252 -0.1462
 6776SOL    HW131964   4.174   3.473  13.391 -1.9948  1.3643 -1.7279
 6776SOL    HW231965   4.214   3.331  13.377  1.4176  1.5041 -0.3425
 6777SOL     OW31966   1.937   2.422   4.186  0.2860 -0.0091 -0.2041
 6777SOL    HW131967   1.898   2.454   4.267  1.3374  1.3368 -0.2297
 6777SOL    HW231968   2.029   2.439   4.204  0.3541 -1.9851  1.4049
 6778SOL     OW31969   4.471   4.025   2.751 -0.4892 -0.1265  0.9035
 6778SOL    HW131970   4.497   4.007   2.841  2.0688  0.0244  0.1710
 6778SOL    HW231971   4.408   3.956   2.730 -0.0592  0.1077 -1.1430
 6779SOL     OW31972   1.921   1.976  17.562 -0.0215 -0.3405 -0.7177
 6779SOL    HW131973   1.885   1.903  17.613 -0.7998  0.5161 -0.0319
 6779SOL    HW231974   1.978   1.930  17.501  1.9268 -2.0943  2.4766
 6780SOL     OW31975   1.624   4.521   9.624 -0.7386  0.2709  0.5749
 6780SOL    HW131976   1.622   4.577   9.701  1.2845  0.6331  0.3902
 6780SOL    HW231977   1.659   4.570   9.549 -0.3619  1.0783  1.2785
 6781SOL     OW31978   0.350   3.881   2.761 -0.4589  0.0806  0.1962
 6781SOL    HW131979   0.372   3.820   2.831 -0.8415  1.0747  1.1850
 6781SOL    HW231980   0.416   3.852   2.698  1.0449  0.9579  1.3620
 6782SOL     OW31981   2.159   3.665   4.287 -0.0754  0.0339 -0.2726
 6782SOL    HW131982   2.071   3.629   4.295 -0.9590  2.3987  0.7146
 6782SOL    HW231983   2.154   3.706   4.201 -0.5851 -2.2458 -1.3311
 6783SOL     OW31984   2.231   3.747   7.096 -0.0865 -0.1041 -0.2575
 6783SOL    HW131985   2.235   3.829   7.146 -0.6616  0.9717 -1.9603
 6783SOL    HW231986   2.143   3.747   7.057  0.2900 -0.6383 -1.0976
 6784SOL     OW31987   0.025   2.332  10.642  0.2332  0.0394  0.8122
 6784SOL    HW131988   4.736   2.424  10.638 -2.3893 -0.8316 -1.6147
 6784SOL    HW231989   0.007   2.306  10.552 -0.3261 -0.2591  1.0119
 6785SOL     OW31990   1.559   1.468   7.800 -0.3047 -0.0701 -0.7191
 6785SOL    HW131991   1.557   1.414   7.721 -1.8647 -0.6737 -0.2660
 6785SOL    HW231992   1.561   1.403   7.870 -0.5883 -1.3797 -1.9290
 6786SOL     OW31993   4.191   3.428  13.694  0.3679  0.0231 -0.2299
 6786SOL    HW131994   4.214   3.351  13.746 -0.6124 -2.0303 -2.8175
 6786SOL    HW231995   4.273   3.477  13.689  2.4579 -3.3551  0.6140
 6787SOL     OW31996   4.338   2.535  17.262 -0.3571  0.1028 -0.1361
 6787SOL    HW131997   4.288   2.547  17.343 -2.0083  1.4955 -1.3716
 6787SOL    HW231998   4.310   2.611  17.212 -0.9727  0.6810  1.0901
 6788SOL     OW31999   1.612   1.569  14.352  0.3400 -0.0444  0.1518
 6788SOL    HW132000   1.628   1.541  14.442  1.0444  1.6838  0.5484
 6788SOL    HW232001   1.590   1.661  14.360  2.7388  0.4902  0.6260
 6789SOL     OW32002   3.371   3.805   3.687  0.1273  0.6210 -0.5485
 6789SOL    HW132003   3.352   3.847   3.604  1.5229  1.2168 -0.5606
 6789SOL    HW232004   3.425   3.875   3.726  1.0522 -1.0141  1.1260
 6790SOL     OW32005   2.295   4.586   7.592 -0.2116  0.1717 -0.1967
 6790SOL    HW132006   2.271   4.660   7.647  1.1287  0.5179 -0.0728
 6790SOL    HW232007   2.271   4.615   7.504  1.4713  1.1236 -0.3494
 6791SOL     OW32008   3.447   4.462   5.375  0.4506 -0.2249 -0.1797
 6791SOL    HW132009   3.495   4.443   5.455  0.4816  2.6846  0.5256
 6791SOL    HW232010   3.421   4.379   5.337  1.9611 -0.4832 -0.6500
 6792SOL     OW32011   0.066   2.459   0.057 -0.1347 -0.1359 -0.6657
 6792SOL    HW132012   0.157   2.472   0.030 -0.1050  0.5383 -0.2599
 6792SOL    HW232013   0.054   2.527   0.123 -1.2051 -0.6337 -0.3638
 6793SOL     OW32014   2.189   4.004   7.275  0.4683 -0.0792  0.0503
 6793SOL    HW132015   2.155   4.023   7.362 -0.4712 -0.4634 -0.2364
 6793SOL    HW232016   2.265   4.061   7.260  0.4620 -0.5067 -1.6591
 6794SOL     OW32017   1.505   4.344   2.739  0.1169 -0.1293 -0.2355
 6794SOL    HW132018   1.534   4.271   2.793  1.8218  1.0184  0.4327
 6794SOL    HW232019   1.478   4.304   2.656  1.3880  0.0785 -0.7552
 6795SOL     OW32020   2.935   1.923  12.894 -0.2811  0.2000  0.0943
 6795SOL    HW132021   2.858   1.980  12.900  0.6167  1.1057  2.6903
 6795SOL    HW232022   2.926   1.858  12.963  0.6348  0.5924  0.5760
 6796SOL     OW32023   0.524   1.921   2.849  0.1143 -0.0118 -0.2943
 6796SOL    HW132024   0.452   1.891   2.905  0.8190 -2.5866 -0.7636
 6796SOL    HW232025   0.489   1.999   2.805 -1.8085  0.2963  1.7742
 6797SOL     OW32026   0.665   3.653   8.913  0.2934  0.3325 -0.5689
 6797SOL    HW132027   0.616   3.733   8.896 -2.6292 -1.5106 -0.7475
 6797SOL    HW232028   0.695   3.673   9.002 -0.8808  0.6477 -0.2362
 6798SOL     OW32029   1.590   3.615   3.305  0.6513 -0.4081  0.2984
 6798SOL    HW132030   1.502   3.596   3.336  0.6775  0.4341  0.8886
 6798SOL    HW232031   1.601   3.705   3.336  1.6235  0.0662 -1.4072
 6799SOL     OW32032   2.641   0.001   3.853  0.4232 -0.6012  0.2226
 6799SOL    HW132033   2.687   0.084   3.856  0.6462 -0.6500 -1.7850
 6799SOL    HW232034   2.711   4.677   3.834  1.5840  0.7074  0.3077
 6800SOL     OW32035   1.771   1.780  13.877  0.1941  0.6268 -0.2141
 6800SOL    HW132036   1.785   1.867  13.838 -0.0469  0.5062 -0.5644
 6800SOL    HW232037   1.815   1.715  13.823 -1.5161 -1.1773  0.5675
 6801SOL     OW32038   0.502   1.302   5.696  0.4726 -0.1711  0.3938
 6801SOL    HW132039   0.530   1.211   5.709  1.4151  0.2977  1.6764
 6801SOL    HW232040   0.588   1.329   5.667 -0.4520  4.0420  1.5499
 6802SOL     OW32041   0.817   0.115   5.507  0.1138 -0.0755  0.2800
 6802SOL    HW132042   0.790   0.023   5.502 -1.6919  0.4193  0.6857
 6802SOL    HW232043   0.838   0.118   5.600 -0.1776  2.7540  0.2584
 6803SOL     OW32044   3.024   1.525   4.525  0.5566 -0.6403 -0.4247
 6803SOL    HW132045   3.090   1.537   4.593 -0.3982  0.2733  0.3242
 6803SOL    HW232046   2.988   1.440   4.550 -1.0166  0.1938  0.1039
 6804SOL     OW32047   0.020   1.703   9.773  0.0676  0.6230  0.1682
 6804SOL    HW132048   4.707   1.774   9.734 -1.9552  0.3414  2.2419
 6804SOL    HW232049   4.726   1.625   9.726  0.3983  0.5363  0.0908
 6805SOL     OW32050   2.296   1.585   4.537 -0.2409 -0.0163  0.6728
 6805SOL    HW132051   2.274   1.603   4.629  1.5082  1.2193  0.8352
 6805SOL    HW232052   2.376   1.535   4.549 -1.0004 -1.1920  0.8108
 6806SOL     OW32053   1.888   3.720  12.600  0.4038 -1.1323  0.4862
 6806SOL    HW132054   1.908   3.628  12.615 -1.1245 -1.6918 -0.8949
 6806SOL    HW232055   1.794   3.714  12.615  0.5335 -2.6087  0.7427
 6807SOL     OW32056   1.644   4.526   7.065 -0.2059 -0.2969  0.2408
 6807SOL    HW132057   1.649   4.475   6.984  1.1236  2.4987 -1.4370
 6807SOL    HW232058   1.577   4.593   7.047  1.7249  1.5783  0.0368
 6808SOL     OW32059   2.330   1.629   1.056  0.1397 -1.0068  0.0963
 6808SOL    HW132060   2.410   1.674   1.030  0.1518 -1.4855 -0.6949
 6808SOL    HW232061   2.333   1.654   1.148 -0.3110 -1.7837  0.3286
 6809SOL     OW32062   4.488   0.584   5.666 -0.1293  0.2259 -0.0473
 6809SOL    HW132063   4.564   0.543   5.624 -1.3412 -2.5221  0.3906
 6809SOL    HW232064   4.515   0.582   5.758 -2.2811 -1.3889  0.5605
 6810SOL     OW32065   0.720   2.114   7.481  0.3276 -0.2403  0.2094
 6810SOL    HW132066   0.776   2.149   7.551  2.1648  3.1883 -2.9652
 6810SOL    HW232067   0.710   2.187   7.420  0.4713  0.7865  1.4255
 6811SOL     OW32068   3.968   1.842   0.962  0.1864  0.2362 -0.1206
 6811SOL    HW132069   3.916   1.887   1.029  2.0247  2.1629 -0.0123
 6811SOL    HW232070   3.936   1.872   0.877 -0.5137 -0.1586  0.0063
 6812SOL     OW32071   3.972   0.852   2.505 -0.4036 -0.2961 -0.1568
 6812SOL    HW132072   3.940   0.806   2.428 -0.4602  2.4302 -1.7675
 6812SOL    HW232073   3.933   0.938   2.488 -0.5229  0.1267  2.1976
 6813SOL     OW32074   0.156   3.542   6.832  0.2263 -0.5941 -0.5530
 6813SOL    HW132075   0.218   3.590   6.886 -2.4292  1.4667  0.6657
 6813SOL    HW232076   0.098   3.615   6.810 -0.2173  0.1005  2.8819
 6814SOL     OW32077   1.189   0.495   4.228 -0.3692  0.3085  0.2602
 6814SOL    HW132078   1.169   0.407   4.260 -1.5371  0.8629  1.0633
 6814SOL    HW232079   1.112   0.515   4.174  1.3382  3.8061 -0.9132
 6815SOL     OW32080   0.431   2.580   4.753  0.1826  0.0042  0.2619
 6815SOL    HW132081   0.479   2.578   4.836  1.5006  0.7501 -0.5011
 6815SOL    HW232082   0.496   2.559   4.687 -1.0953 -2.5274 -0.1922
 6816SOL     OW32083   2.097   0.497   3.244  0.0236 -0.0200 -0.1157
 6816SOL    HW132084   2.059   0.414   3.275 -1.5121  0.6045 -0.3236
 6816SOL    HW232085   2.190   0.475   3.253  0.3812  1.2415 -0.8399
 6817SOL     OW32086   0.171   3.410   1.296 -0.2093  0.1324 -0.0767
 6817SOL    HW132087   0.162   3.499   1.330 -0.4428  0.1576 -0.2034
 6817SOL    HW232088   0.080   3.383   1.285  0.1524 -1.2034  0.2578
 6818SOL     OW32089   4.679   4.327   9.463  1.0502 -0.3531 -0.1163
 6818SOL    HW132090   0.018   4.385   9.459 -0.5323  1.8457  1.0682
 6818SOL    HW232091   4.621   4.383   9.515  2.9774 -0.3399  2.0196
 6819SOL     OW32092   3.788   4.310   6.388  0.4395 -0.2966  0.3473
 6819SOL    HW132093   3.845   4.239   6.415  1.8535  0.6214 -0.2458
 6819SOL    HW232094   3.780   4.344   6.477  0.3777  0.2883  0.1202
 6820SOL     OW32095   1.667   0.133   7.010  0.3414  0.5485  0.4721
 6820SOL    HW132096   1.660   0.089   6.925 -0.9945 -1.9944  1.9002
 6820SOL    HW232097   1.761   0.119   7.020 -0.2551 -2.0486  2.1760
 6821SOL     OW32098   3.875   0.678  15.023  0.0773  0.1414 -0.1873
 6821SOL    HW132099   3.876   0.599  14.969  0.9230 -1.1021  1.6555
 6821SOL    HW232100   3.920   0.654  15.103  0.0951 -1.5645 -0.7129
 6822SOL     OW32101   0.120   1.705  12.465 -0.1118 -0.3244  0.3660
 6822SOL    HW132102   0.124   1.611  12.448  0.1876  0.2413 -2.7498
 6822SOL    HW232103   0.049   1.732  12.406  0.3659  1.8274  0.7565
 6823SOL     OW32104   1.150   0.815   7.343 -0.2400  0.5557 -0.0715
 6823SOL    HW132105   1.209   0.849   7.410  1.3307 -0.8065 -0.7741
 6823SOL    HW232106   1.133   0.733   7.388  2.5094  0.9547  1.7125
 6824SOL     OW32107   4.201   0.899   5.745  0.5815 -0.3002 -0.8760
 6824SOL    HW132108   4.207   0.804   5.737 -1.0106 -0.2220 -3.0297
 6824SOL    HW232109   4.187   0.911   5.839  1.4609 -0.9149 -0.6694
 6825SOL     OW32110   2.929   1.463  13.937 -0.8499 -0.1432 -0.2785
 6825SOL    HW132111   3.011   1.511  13.933 -0.9736  0.1235  0.3191
 6825SOL    HW232112   2.864   1.534  13.935 -1.9613 -1.1725 -0.7087
 6826SOL     OW32113   3.601   2.526   4.662  0.0833  0.1813  0.3695
 6826SOL    HW132114   3.628   2.528   4.570 -0.6073 -0.8472  0.1469
 6826SOL    HW232115   3.555   2.442   4.661 -1.2475  0.9527 -1.3329
 6827SOL     OW32116   0.870   1.844   9.921 -0.0582  0.1972 -0.2475
 6827SOL    HW132117   0.778   1.818   9.920  0.7221 -2.5602 -0.6757
 6827SOL    HW232118   0.915   1.787   9.858 -0.8530 -0.0168 -0.6248
 6828SOL     OW32119   3.351   2.437   3.542 -0.7125 -0.2350  0.0430
 6828SOL    HW132120   3.284   2.501   3.518 -0.6587 -0.3682 -0.4720
 6828SOL    HW232121   3.315   2.407   3.625  3.0303 -1.7451  1.1123
 6829SOL     OW32122   0.948   0.124   3.287  0.0799 -0.2930 -0.1979
 6829SOL    HW132123   0.997   0.074   3.352 -0.8420 -1.8723 -0.6965
 6829SOL    HW232124   0.975   0.078   3.207 -4.4120 -0.8288 -1.4275
 6830SOL     OW32125   0.171   1.371   4.551 -0.1480 -0.2360 -0.1461
 6830SOL    HW132126   0.077   1.389   4.554 -0.1850 -0.2766 -0.9849
 6830SOL    HW232127   0.199   1.414   4.632  1.2987 -2.3646  0.4773
 6831SOL     OW32128   0.214   3.772  17.740  0.2797  0.5262  0.6869
 6831SOL    HW132129   0.195   3.702  17.678  2.0700  0.0714  0.6283
 6831SOL    HW232130   0.307   3.751   0.005  0.1371 -0.2995  0.3715
 6832SOL     OW32131   1.160   0.473  12.954 -0.5710 -0.0860 -0.4083
 6832SOL    HW132132   1.163   0.525  13.034  0.4045  1.1248 -1.2159
 6832SOL    HW232133   1.187   0.385  12.979 -1.5908  0.2385  1.8173
 6833SOL     OW32134   2.444   1.123   9.671  0.1434 -0.2993  0.3288
 6833SOL    HW132135   2.539   1.131   9.681  0.0634  0.1012  0.7767
 6833SOL    HW232136   2.421   1.191   9.735  1.4942 -0.2891  0.8062
 6834SOL     OW32137   2.039   0.433   9.618  0.3763 -0.0317  0.1849
 6834SOL    HW132138   2.058   0.460   9.708 -0.8321 -1.8165  0.9731
 6834SOL    HW232139   2.075   0.509   9.573  1.5781  0.0564  1.3002
 6835SOL     OW32140   3.685   0.700   3.264 -0.1067 -0.1826  0.3866
 6835SOL    HW132141   3.611   0.758   3.250  0.4915  0.6411  0.6668
 6835SOL    HW232142   3.761   0.758   3.268 -0.0819 -0.1634 -0.3376
 6836SOL     OW32143   4.692   2.018  10.582 -0.3647 -0.5478  0.0261
 6836SOL    HW132144   4.666   2.068  10.660 -1.9920  0.1592 -0.9875
 6836SOL    HW232145   4.614   2.014  10.527  0.0041 -0.7268 -0.4749
 6837SOL     OW32146   2.793   2.171  12.357 -0.6137 -0.3162  0.0616
 6837SOL    HW132147   2.773   2.264  12.347  0.6995  0.0123  0.4717
 6837SOL    HW232148   2.710   2.126  12.346 -2.2267  2.3908  1.0127
 6838SOL     OW32149   4.200   3.196   9.822  0.0600 -0.2148  0.1321
 6838SOL    HW132150   4.150   3.256   9.766  0.8120 -0.0419 -0.3475
 6838SOL    HW232151   4.160   3.109   9.824  0.4175 -0.3405  1.3779
 6839SOL     OW32152   2.772   0.245   3.474  0.4948  0.1212 -0.6793
 6839SOL    HW132153   2.682   0.252   3.507  0.6818  0.2040 -0.1901
 6839SOL    HW232154   2.759   0.190   3.396  0.1422 -0.8608  0.0650
 6840SOL     OW32155   0.240   1.890  13.104  0.1148  0.0794  0.0246
 6840SOL    HW132156   0.214   1.962  13.161  1.6934  1.2439 -0.7431
 6840SOL    HW232157   0.283   1.836  13.170 -0.6250 -1.0696 -0.4357
 6841SOL     OW32158   0.436   2.077   4.704 -0.5703 -0.5230  0.4105
 6841SOL    HW132159   0.413   2.031   4.785 -2.9525 -2.2069 -1.2463
 6841SOL    HW232160   0.528   2.098   4.720 -0.4051  0.1029 -1.3936
 6842SOL     OW32161   3.450   0.138  14.716  0.6349  0.4321  0.2448
 6842SOL    HW132162   3.381   0.186  14.670  1.1183  0.2251 -0.6840
 6842SOL    HW232163   3.403   0.061  14.749  0.8360  0.3669  0.3773
 6843SOL     OW32164   4.108   1.493   5.593 -0.6209 -0.3833 -0.3600
 6843SOL    HW132165   4.039   1.444   5.550 -0.8504 -0.4332  0.0651
 6843SOL    HW232166   4.107   1.445   5.676  2.1009 -0.8767 -0.5986
 6844SOL     OW32167   3.519   0.387  13.818  0.1407 -0.0700  0.2745
 6844SOL    HW132168   3.556   0.301  13.840 -0.5574 -0.5479 -0.4331
 6844SOL    HW232169   3.518   0.382  13.723 -0.0098  1.2123  0.2123
 6845SOL     OW32170   2.510   2.853   8.579 -0.2535 -0.1548  0.1182
 6845SOL    HW132171   2.547   2.914   8.643 -1.9236  0.3969  0.5514
 6845SOL    HW232172   2.581   2.864   8.516 -1.7197  4.0531 -0.7579
 6846SOL     OW32173   2.519   3.140   4.907 -0.1713  0.4856 -0.4348
 6846SOL    HW132174   2.506   3.107   4.996  0.0781  0.6151 -0.3481
 6846SOL    HW232175   2.575   3.215   4.927  1.3608 -0.4575 -1.1081
 6847SOL     OW32176   2.991   2.063   5.782 -0.9053  0.2393  0.1653
 6847SOL    HW132177   2.998   2.018   5.698 -0.9475 -1.3712  1.0396
 6847SOL    HW232178   2.898   2.052   5.801  0.0458 -0.4497  4.2719
 6848SOL     OW32179   1.246   3.994   7.246 -0.1008 -0.1696  0.3745
 6848SOL    HW132180   1.321   3.954   7.289  0.1750  0.5645  0.5649
 6848SOL    HW232181   1.287   4.076   7.217  0.2035  0.2275  1.9533
 6849SOL     OW32182   2.623   2.154   1.014  0.1420  0.1266 -0.4120
 6849SOL    HW132183   2.708   2.137   0.974  0.7259  0.5298  0.6601
 6849SOL    HW232184   2.580   2.207   0.947 -1.4248  0.7061  1.0186
 6850SOL     OW32185   4.542   0.545   6.245  0.2785  0.6456  0.0723
 6850SOL    HW132186   4.573   0.598   6.319  0.6016  0.8976 -0.2443
 6850SOL    HW232187   4.594   0.466   6.262 -1.7324 -0.3101  1.7558
 6851SOL     OW32188   3.683   0.313  14.723  0.2544 -0.1555 -0.0052
 6851SOL    HW132189   3.632   0.394  14.722 -0.7984 -0.8430 -2.7188
 6851SOL    HW232190   3.622   0.243  14.701 -0.1918  0.4601 -0.7201
 6852SOL     OW32191   0.912   1.392   1.681 -0.4972  0.3831 -0.4649
 6852SOL    HW132192   0.946   1.404   1.769  0.9539 -0.7985 -0.8657
 6852SOL    HW232193   0.937   1.301   1.666 -1.1096  0.2650 -0.8117
 6853SOL     OW32194   3.968   3.790   6.178 -0.2922  1.1034 -0.0944
 6853SOL    HW132195   3.962   3.769   6.085  1.4641 -1.0241  0.2756
 6853SOL    HW232196   3.879   3.812   6.206  0.4200  1.8813  1.5337
 6854SOL     OW32197   3.645   3.530   9.464  0.1440 -0.2540  0.1476
 6854SOL    HW132198   3.731   3.572   9.460  0.1074 -0.1953 -0.0048
 6854SOL    HW232199   3.654   3.459   9.401  1.1927  0.6579 -0.7272
 6855SOL     OW32200   2.425   0.214   2.001  0.0136 -0.0383  0.4119
 6855SOL    HW132201   2.428   0.309   2.008  0.3063 -0.0702  0.7536
 6855SOL    HW232202   2.362   0.198   1.931  0.6777 -0.1048 -0.1712
 6856SOL     OW32203   2.445   2.252  11.692 -0.5422 -0.3279  0.4394
 6856SOL    HW132204   2.431   2.280  11.602 -1.9529  1.7537  1.3147
 6856SOL    HW232205   2.503   2.324  11.717 -2.4072  2.1652 -2.4243
 6857SOL     OW32206   4.628   1.806  15.375 -0.1549  0.7354  0.0525
 6857SOL    HW132207   4.715   1.772  15.356  0.1002  0.9009  0.9242
 6857SOL    HW232208   4.654   1.882  15.426  0.0383  0.4330  0.4002
 6858SOL     OW32209   0.367   0.894   3.899 -0.1321  0.3565  0.1297
 6858SOL    HW132210   0.301   0.833   3.865 -2.7543  2.6365  1.1080
 6858SOL    HW232211   0.339   0.977   3.861 -0.1731  0.1867 -0.2104
 6859SOL     OW32212   0.326   1.726   7.682  0.2593 -0.3550 -0.4248
 6859SOL    HW132213   0.306   1.819   7.669  1.4774 -0.0067  0.1105
 6859SOL    HW232214   0.353   1.729   7.774 -0.1821 -1.3447 -0.2584
 6860SOL     OW32215   1.872   3.272  15.513  0.2584 -0.4075  0.3171
 6860SOL    HW132216   1.909   3.323  15.440 -1.1110 -1.4746 -1.1215
 6860SOL    HW232217   1.946   3.212  15.523  1.7899  1.8119  2.2657
 6861SOL     OW32218   1.511   1.730   7.517  0.2451 -0.0045  0.0336
 6861SOL    HW132219   1.560   1.652   7.543  2.6218  1.5650  0.3199
 6861SOL    HW232220   1.418   1.710   7.516 -0.1798  1.9023  1.2389
 6862SOL     OW32221   1.552   3.083   3.984  0.0753 -0.0812  0.3933
 6862SOL    HW132222   1.592   3.000   4.010  1.1091  0.2384 -0.2087
 6862SOL    HW232223   1.462   3.076   4.018 -0.3468  2.2885 -0.2456
 6863SOL     OW32224   4.653   2.718   9.052 -0.2181  0.3371 -0.2166
 6863SOL    HW132225   4.564   2.754   9.053 -0.0735  0.7457 -1.9993
 6863SOL    HW232226   4.680   2.736   9.142  0.8533  0.3781 -0.5443
 6864SOL     OW32227   2.697   3.266  13.894 -0.0257 -0.7908 -0.1042
 6864SOL    HW132228   2.622   3.241  13.839 -1.1515 -0.6174  1.3463
 6864SOL    HW232229   2.757   3.291  13.824 -1.3088  2.1980 -0.1396
 6865SOL     OW32230   1.178   3.166   3.134  0.1492  0.3002 -0.0838
 6865SOL    HW132231   1.128   3.154   3.054 -1.2005 -0.7641  0.9191
 6865SOL    HW232232   1.242   3.094   3.135 -0.6031 -0.3729 -1.2362
 6866SOL     OW32233   2.503   0.581  12.122  0.4358 -0.2992 -0.0699
 6866SOL    HW132234   2.567   0.633  12.074 -0.4694  0.1216 -0.8006
 6866SOL    HW232235   2.495   0.638  12.199  1.1379  1.1373 -1.0614
 6867SOL     OW32236   4.098   1.626   3.298 -0.7011 -0.6045  0.0924
 6867SOL    HW132237   4.048   1.668   3.367 -0.2755  1.5171 -0.8859
 6867SOL    HW232238   4.050   1.669   3.228  1.0692 -0.3459 -0.9818
 6868SOL     OW32239   3.256   1.964   1.329 -0.3153 -0.4859 -0.6319
 6868SOL    HW132240   3.212   1.889   1.368 -1.8878  0.6144 -0.2569
 6868SOL    HW232241   3.346   1.942   1.355  0.2250  1.7967 -0.5131
 6869SOL     OW32242   4.061   0.328   5.526  0.7026  0.8177 -0.3903
 6869SOL    HW132243   4.156   0.318   5.535  0.3932 -0.8994  0.8738
 6869SOL    HW232244   4.042   0.239   5.498 -2.4744  1.3975 -0.0259
 6870SOL     OW32245   0.801   3.977   1.799 -0.1159  0.6707 -0.6076
 6870SOL    HW132246   0.720   3.984   1.750  1.0914  1.4580 -2.4805
 6870SOL    HW232247   0.830   3.889   1.775 -0.3996  1.1884 -2.8478
 6871SOL     OW32248   0.908   3.836   0.097  0.2380  0.4336 -0.4373
 6871SOL    HW132249   0.914   3.747   0.132  1.1611  0.3803 -0.7294
 6871SOL    HW232250   0.914   3.888   0.177  0.9139  1.3907 -1.1153
 6872SOL     OW32251   3.116   3.753  12.222  0.0919  0.3834 -0.4388
 6872SOL    HW132252   3.212   3.754  12.227  0.1888 -1.1202 -1.9747
 6872SOL    HW232253   3.090   3.820  12.285  0.8734  0.1148  0.1793
 6873SOL     OW32254   2.130   2.327   0.217  0.2469  0.1026  0.3282
 6873SOL    HW132255   2.080   2.357   0.292 -1.2996 -0.1377 -0.6142
 6873SOL    HW232256   2.075   2.252   0.194  1.1236 -0.6244  0.5909
 6874SOL     OW32257   1.992   0.314  10.248  0.0251 -0.5104 -0.0182
 6874SOL    HW132258   1.958   0.256  10.316 -0.3242 -0.4580 -0.1459
 6874SOL    HW232259   1.906   0.353  10.228  1.3681  1.7602 -1.3570
 6875SOL     OW32260   4.728   0.966   9.420  0.2993 -0.8221 -0.2908
 6875SOL    HW132261   0.010   0.924   9.503 -0.3318 -1.3655 -0.4198
 6875SOL    HW232262   0.022   0.905   9.354 -0.3712  1.1686 -2.4554
 6876SOL     OW32263   3.830   0.418   4.180  0.5784 -0.0244  0.1702
 6876SOL    HW132264   3.788   0.490   4.227  1.7538 -0.0625  1.3110
 6876SOL    HW232265   3.791   0.429   4.094  3.1712  0.1773 -0.9696
 6877SOL     OW32266   4.633   1.215   1.228 -0.7786  0.5221  0.5474
 6877SOL    HW132267   4.581   1.206   1.149 -4.0128  1.7916  2.5479
 6877SOL    HW232268   4.653   1.308   1.220  0.7470  0.2179  0.7537
 6878SOL     OW32269   3.887   4.308   5.926  0.0379 -0.0593 -0.0444
 6878SOL    HW132270   3.869   4.246   5.997  2.5433  0.0207  0.6647
 6878SOL    HW232271   3.937   4.374   5.974 -1.0987  1.8905 -1.5244
 6879SOL     OW32272   1.202   4.123   4.940  0.4982 -0.3265  0.2505
 6879SOL    HW132273   1.181   4.037   4.902 -0.8269  0.0395  0.1472
 6879SOL    HW232274   1.167   4.181   4.874  0.2972 -2.4032 -1.4702
 6880SOL     OW32275   2.906   2.954   2.455 -0.2618  0.2579  0.2472
 6880SOL    HW132276   2.836   2.981   2.515 -0.3947 -0.7249  0.5328
 6880SOL    HW232277   2.966   3.027   2.471  0.0800 -0.2062  1.0595
 6881SOL     OW32278   1.166   4.136  16.739 -0.5964  0.2147 -0.6447
 6881SOL    HW132279   1.138   4.227  16.740 -0.7426  0.1766 -1.9149
 6881SOL    HW232280   1.206   4.136  16.826  0.3498 -3.5161 -1.0728
 6882SOL     OW32281   4.301   0.803  15.954 -0.8359 -0.1206  0.2288
 6882SOL    HW132282   4.277   0.864  15.884  0.6925  1.6770  1.2787
 6882SOL    HW232283   4.365   0.852  16.006 -1.3936  1.9756 -1.0960
 6883SOL     OW32284   4.346   2.234  15.974  0.5681 -0.0828  0.4077
 6883SOL    HW132285   4.280   2.175  15.937 -0.8259  1.1199  0.9872
 6883SOL    HW232286   4.422   2.178  15.986 -0.0820 -0.6993  1.7426
 6884SOL     OW32287   4.086   1.165   1.664  0.8374  0.8777 -0.6535
 6884SOL    HW132288   4.102   1.076   1.697  0.1150  1.4416  1.2565
 6884SOL    HW232289   4.162   1.212   1.700  0.4698  0.4761  0.6555
 6885SOL     OW32290   0.552   0.611   4.594 -0.1647  0.0738  0.9730
 6885SOL    HW132291   0.588   0.613   4.682 -0.4670 -2.6331  1.1555
 6885SOL    HW232292   0.571   0.701   4.570 -2.5947  0.2426 -0.3710
 6886SOL     OW32293   3.631   1.272   4.550  0.5316  0.3482  0.3886
 6886SOL    HW132294   3.706   1.228   4.510  0.1569  0.6739 -0.6787
 6886SOL    HW232295   3.627   1.240   4.640 -2.6569 -0.5782 -0.0788
 6887SOL     OW32296   0.647   1.320  11.878 -0.2808  0.4139  0.9497
 6887SOL    HW132297   0.714   1.322  11.810  0.0769  2.1350  1.3453
 6887SOL    HW232298   0.705   1.330  11.954  0.7130 -2.2589  0.5371
 6888SOL     OW32299   2.795   4.042   1.823 -0.3683 -0.2262  0.0109
 6888SOL    HW132300   2.807   4.089   1.740  0.4927  2.0872  1.4699
 6888SOL    HW232301   2.888   4.023   1.835 -0.2798  1.6627  2.2098
 6889SOL     OW32302   2.956   0.809   8.368  0.0333  0.6868 -0.4918
 6889SOL    HW132303   2.998   0.767   8.293 -1.5340 -0.3459 -0.8069
 6889SOL    HW232304   3.008   0.779   8.442 -2.2720 -0.8810  0.4996
 6890SOL     OW32305   4.293   4.237  14.096  0.3055  0.5149  0.4700
 6890SOL    HW132306   4.271   4.279  14.013 -1.2637  1.1196  1.2082
 6890SOL    HW232307   4.339   4.162  14.058 -0.0858  0.0756  0.8689
 6891SOL     OW32308   2.366   2.554  15.556  0.1018  0.3942 -0.4518
 6891SOL    HW132309   2.312   2.489  15.513  1.3200 -1.2631  0.5157
 6891SOL    HW232310   2.387   2.606  15.478 -0.3526 -0.7437 -1.3239
 6892SOL     OW32311   1.084   0.455   8.629 -0.6141 -0.3814 -0.3421
 6892SOL    HW132312   1.107   0.544   8.604 -1.5667  0.1031  0.4889
 6892SOL    HW232313   1.173   0.422   8.640 -0.8026 -1.6081 -2.4204
 6893SOL     OW32314   4.009   0.518   3.195  0.0883  0.3071 -0.0221
 6893SOL    HW132315   3.976   0.517   3.284  1.5760  0.4738  0.5315
 6893SOL    HW232316   4.080   0.581   3.207  0.8153 -0.0926 -2.1344
 6894SOL     OW32317   0.832   3.213   6.094 -0.2593 -0.3840 -0.3041
 6894SOL    HW132318   0.898   3.205   6.163  0.3410 -1.4410 -0.9898
 6894SOL    HW232319   0.751   3.206   6.144 -1.0596  1.5881 -1.3628
 6895SOL     OW32320   3.066   3.191  10.901  0.0457  0.3314  0.1421
 6895SOL    HW132321   3.067   3.207  10.995 -2.1494  0.4749  0.1580
 6895SOL    HW232322   3.118   3.111  10.911  1.5018  1.5308  2.2139
 6896SOL     OW32323   3.181   0.873   4.519  0.5464  0.0647 -0.4123
 6896SOL    HW132324   3.095   0.877   4.478  0.0207 -1.7533  0.5087
 6896SOL    HW232325   3.235   0.841   4.447  0.2114  1.6529 -1.3625
 6897SOL     OW32326   0.498   1.343   7.838  0.4127  0.2859 -0.6602
 6897SOL    HW132327   0.568   1.356   7.773 -0.4391 -0.1219 -1.6590
 6897SOL    HW232328   0.500   1.419   7.896  0.5147 -0.1600 -0.0678
 6898SOL     OW32329   4.183   1.509  16.989 -0.3444  0.3188 -0.1588
 6898SOL    HW132330   4.254   1.512  16.925 -0.3848  1.9949 -0.1306
 6898SOL    HW232331   4.230   1.531  17.069  0.3803  0.1950 -0.5581
 6899SOL     OW32332   0.226   4.584   1.872 -0.3489  1.0289  0.0588
 6899SOL    HW132333   0.171   4.625   1.939 -2.8548  1.5916 -2.3118
 6899SOL    HW232334   0.206   4.491   1.880  0.1399  0.7522 -2.0446
 6900SOL     OW32335   3.759   4.323   9.117 -0.1124  0.8376  0.7139
 6900SOL    HW132336   3.704   4.356   9.045 -2.3414  0.0506  2.0716
 6900SOL    HW232337   3.770   4.397   9.177  2.6769  1.5398 -0.6560
 6901SOL     OW32338   1.662   3.607   7.731  0.0994  0.4939  0.9488
 6901SOL    HW132339   1.677   3.513   7.738 -0.1605  0.3751 -0.0624
 6901SOL    HW232340   1.727   3.625   7.663 -0.3987  0.1468  0.3786
 6902SOL     OW32341   1.554   3.177  12.105  0.0205  0.1333  0.3599
 6902SOL    HW132342   1.487   3.196  12.038 -0.7059  0.6102  1.2287
 6902SOL    HW232343   1.515   3.102  12.148 -1.0296 -0.2493 -1.2485
 6903SOL     OW32344   3.295   0.200   0.765 -0.1984  0.5227 -0.4835
 6903SOL    HW132345   3.317   0.293   0.758 -0.4265  0.6641  0.7345
 6903SOL    HW232346   3.317   0.174   0.676 -3.1185  0.1772 -1.1093
 6904SOL     OW32347   4.469   2.997   1.981 -0.9806  0.1320 -0.5642
 6904SOL    HW132348   4.476   2.902   1.987 -1.1003  0.2869  2.5366
 6904SOL    HW232349   4.563   3.016   1.980 -0.2536 -3.3856  0.5716
 6905SOL     OW32350   4.185   3.237   0.801  0.2647 -0.1422  0.1932
 6905SOL    HW132351   4.145   3.290   0.869  0.3730 -0.8549  0.8159
 6905SOL    HW232352   4.252   3.301   0.779 -0.9876  1.1048  0.0473
 6906SOL     OW32353   3.707   1.861   8.241 -0.5952  0.3426 -0.4323
 6906SOL    HW132354   3.714   1.945   8.196  0.9677  0.6217  0.3259
 6906SOL    HW232355   3.611   1.857   8.236 -0.5370  0.5194 -1.6219
 6907SOL     OW32356   0.217   0.783  17.350 -0.2699 -0.4009 -0.4212
 6907SOL    HW132357   0.134   0.796  17.305 -0.4024 -0.0371 -0.0733
 6907SOL    HW232358   0.191   0.754  17.438  0.1812 -0.4111 -0.2909
 6908SOL     OW32359   4.432   1.560   2.365  0.2557  0.3688 -0.0796
 6908SOL    HW132360   4.507   1.614   2.390 -0.4170  0.3607  1.9348
 6908SOL    HW232361   4.371   1.565   2.439  1.0410  1.1422  0.5183
 6909SOL     OW32362   2.266   2.793  13.753 -0.2385  0.4177  0.0499
 6909SOL    HW132363   2.171   2.797  13.753 -0.3335 -2.1329  1.9696
 6909SOL    HW232364   2.279   2.850  13.677 -0.7625  0.7614  0.2201
 6910SOL     OW32365   1.002   2.142   6.675 -0.0222  0.3733  0.3162
 6910SOL    HW132366   0.918   2.169   6.711 -0.5806 -2.2041  1.0025
 6910SOL    HW232367   1.018   2.067   6.733  2.1714 -0.2820 -1.1530
 6911SOL     OW32368   4.620   1.699   0.932 -0.3593  0.0147 -0.2763
 6911SOL    HW132369   4.564   1.776   0.939  0.4002  0.5625 -0.2178
 6911SOL    HW232370   4.695   1.729   0.880 -0.6853  2.3433  0.5999
 6912SOL     OW32371   3.842   1.833   8.589 -0.1437  0.1220 -0.3357
 6912SOL    HW132372   3.818   1.895   8.659  0.1554 -1.9281  1.5753
 6912SOL    HW232373   3.758   1.816   8.545  0.9359 -2.3182 -1.4440
 6913SOL     OW32374   4.694   0.890   3.340  0.3262  0.3492  0.2927
 6913SOL    HW132375   0.009   0.885   3.261 -1.3134 -0.6191 -0.7321
 6913SOL    HW232376   4.611   0.917   3.303  0.1701  0.4499  0.7091
 6914SOL     OW32377   3.097   2.532   2.814  0.2641  0.5510  0.0558
 6914SOL    HW132378   3.089   2.487   2.730  2.6235  2.0877 -0.9746
 6914SOL    HW232379   3.158   2.472   2.856  1.1688  3.4722  2.8837
 6915SOL     OW32380   4.492   3.580  12.003  0.1893  0.3215 -0.2567
 6915SOL    HW132381   4.472   3.659  11.954  1.5446  0.5764 -0.3678
 6915SOL    HW232382   4.405   3.557  12.037  0.1969  1.8870  0.8522
 6916SOL     OW32383   0.282   1.296   7.317  0.1861  0.7036 -0.4978
 6916SOL    HW132384   0.343   1.367   7.294  2.3844 -1.9169 -2.7384
 6916SOL    HW232385   0.318   1.254   7.395 -0.8560  0.5935 -0.0782
 6917SOL     OW32386   2.403   0.870  10.260  0.6319  0.0614 -0.0457
 6917SOL    HW132387   2.369   0.825  10.182  0.8908  0.7261 -0.5463
 6917SOL    HW232388   2.344   0.837  10.327  0.0660  0.3973 -0.3792
 6918SOL     OW32389   0.152   0.488   2.558  0.1948  0.1996  0.3380
 6918SOL    HW132390   0.103   0.466   2.637  0.9684 -1.6225  0.3125
 6918SOL    HW232391   0.096   0.558   2.526 -0.0903 -1.6259 -3.2145
 6919SOL     OW32392   3.228   1.555   4.693  0.5616 -0.7947 -0.0228
 6919SOL    HW132393   3.322   1.576   4.688  0.5132  0.2759  4.1059
 6919SOL    HW232394   3.206   1.533   4.783 -0.3385  0.5532  0.0715
 6920SOL     OW32395   2.041   4.516   7.013  0.9778 -0.0923  0.3682
 6920SOL    HW132396   2.008   4.458   6.944 -0.3138  1.9304 -0.7003
 6920SOL    HW232397   2.127   4.476   7.027  0.0416 -2.3709 -0.4602
 6921SOL     OW32398   1.546   2.803  10.723  0.0966  0.1902  0.7232
 6921SOL    HW132399   1.603   2.734  10.757 -0.9836 -1.4287 -0.7692
 6921SOL    HW232400   1.496   2.820  10.802 -1.3753  2.8377 -0.7849
 6922SOL     OW32401   2.309   0.209  15.813 -0.2284 -0.2175 -0.4049
 6922SOL    HW132402   2.302   0.118  15.784 -1.9936  0.1381 -1.1349
 6922SOL    HW232403   2.246   0.207  15.886  0.9757  0.2907  0.6423
 6923SOL     OW32404   1.743   4.548   6.346  0.6889 -0.2924  0.1011
 6923SOL    HW132405   1.674   4.573   6.284  2.2779 -0.7153 -1.8384
 6923SOL    HW232406   1.823   4.567   6.298  0.3547  0.9919  0.0487
 6924SOL     OW32407   4.048   2.553   6.505 -0.7037  0.6982  0.0268
 6924SOL    HW132408   3.987   2.608   6.456  0.6444  2.0131 -0.1673
 6924SOL    HW232409   3.989   2.484   6.535  0.9712 -0.1572  1.3923
 6925SOL     OW32410   0.340   0.502  13.100 -0.2595  0.2640 -0.3098
 6925SOL    HW132411   0.382   0.481  13.016  0.1400 -1.1718  0.2365
 6925SOL    HW232412   0.338   0.597  13.099 -1.2437  0.2446  0.3838
 6926SOL     OW32413   1.747   2.611   7.537  0.1075  0.1853 -0.1051
 6926SOL    HW132414   1.757   2.681   7.601  2.2101  1.2135 -1.5460
 6926SOL    HW232415   1.733   2.534   7.591  0.7136  0.2891  0.1954
 6927SOL     OW32416   2.397   0.418   5.380  0.4121 -0.5755 -0.0444
 6927SOL    HW132417   2.444   0.334   5.378 -0.7925 -1.2692  0.3355
 6927SOL    HW232418   2.382   0.427   5.474  1.4809  0.2390  0.0463
 6928SOL     OW32419   2.099   1.652   7.543 -0.0900  0.0210  0.0707
 6928SOL    HW132420   2.183   1.613   7.517 -0.2906 -0.1386 -0.3447
 6928SOL    HW232421   2.068   1.571   7.583  0.9727  0.8443  2.5261
 6929SOL     OW32422   2.602   4.667   3.094  0.1454 -0.0250  0.1619
 6929SOL    HW132423   2.632   4.592   3.146 -2.3146 -2.5743 -2.1385
 6929SOL    HW232424   2.526   4.626   3.053  1.3458 -1.3795 -0.7318
 6930SOL     OW32425   3.424   1.529   8.782  0.5063  0.8071 -0.0615
 6930SOL    HW132426   3.496   1.498   8.726  1.0935  0.4487  0.8855
 6930SOL    HW232427   3.390   1.612   8.749 -1.1756 -0.0595 -0.4797
 6931SOL     OW32428   2.013   3.951   5.647 -0.5297  0.8113  0.0491
 6931SOL    HW132429   2.016   3.866   5.603 -0.4430  0.5777  0.4981
 6931SOL    HW232430   2.103   3.980   5.664 -0.0342 -1.7381  1.7925
 6932SOL     OW32431   4.175   0.527   2.591  0.4177  0.4223 -0.8113
 6932SOL    HW132432   4.236   0.460   2.559  0.1315 -0.6533  0.8613
 6932SOL    HW232433   4.092   0.479   2.593  0.4653  0.2653 -2.1538
 6933SOL     OW32434   1.611   0.860   7.033  0.3824  0.2151  0.3695
 6933SOL    HW132435   1.608   0.923   6.962  2.2642 -1.4965 -1.2276
 6933SOL    HW232436   1.579   0.910   7.108  1.0112 -0.4420  1.0817
 6934SOL     OW32437   3.953   1.212   6.292  0.3051 -0.3331  0.0994
 6934SOL    HW132438   4.025   1.155   6.317 -0.3634 -0.0644  2.6542
 6934SOL    HW232439   3.958   1.200   6.197  0.3203  2.0210 -0.2037
 6935SOL     OW32440   1.439   3.390   6.568  0.2401  0.1135 -0.4947
 6935SOL    HW132441   1.482   3.365   6.650 -0.2769 -1.0084 -0.5744
 6935SOL    HW232442   1.356   3.426   6.598 -0.4014 -0.3065 -1.7638
 6936SOL     OW32443   1.583   4.729   0.394  0.1752 -0.9889  0.5080
 6936SOL    HW132444   1.595   0.084   0.373  0.4634 -1.3327 -0.8220
 6936SOL    HW232445   1.615   4.726   0.484 -1.1310 -1.2106  0.9588
 6937SOL     OW32446   3.867   1.821   4.889 -0.2491  0.2092  0.5435
 6937SOL    HW132447   3.941   1.877   4.865 -1.8856  1.4574 -1.5949
 6937SOL    HW232448   3.793   1.857   4.840 -2.0284 -3.2329  0.6931
 6938SOL     OW32449   3.581   1.511   5.907  0.7423 -0.2284 -0.3707
 6938SOL    HW132450   3.553   1.573   5.974 -0.6280 -3.1768  1.7475
 6938SOL    HW232451   3.538   1.435   5.945  2.1609 -0.3711  0.9449
 6939SOL     OW32452   1.757   3.803   7.918 -0.2223  0.2418 -0.4288
 6939SOL    HW132453   1.803   3.873   7.870  0.4540 -0.0319 -0.1756
 6939SOL    HW232454   1.734   3.736   7.854 -2.1884 -0.6704  1.2262
 6940SOL     OW32455   1.913   3.777   7.029 -0.3108  0.3513 -0.7591
 6940SOL    HW132456   1.847   3.838   6.996 -0.9083  0.6375  0.9854
 6940SOL    HW232457   1.888   3.766   7.120  0.0080 -1.0397 -0.8445
 6941SOL     OW32458   0.243   1.824  17.260 -0.1150  0.5459  0.1430
 6941SOL    HW132459   0.329   1.815  17.300 -0.4515  0.3831  0.8303
 6941SOL    HW232460   0.240   1.738  17.219 -2.1387  1.0093 -0.6930
 6942SOL     OW32461   1.634   3.802  14.112  0.0734  0.3897 -0.1735
 6942SOL    HW132462   1.680   3.728  14.072 -1.4429 -0.1035 -1.0172
 6942SOL    HW232463   1.596   3.769  14.193  0.5143  0.4265  0.0449
 6943SOL     OW32464   1.190   1.314   2.569 -0.1749  0.7104 -0.4195
 6943SOL    HW132465   1.179   1.265   2.651 -0.3081  0.9081 -0.3201
 6943SOL    HW232466   1.158   1.251   2.504  0.5087 -0.5566  0.4818
 6944SOL     OW32467   1.811   3.048   6.488  0.4400  0.5461  0.4263
 6944SOL    HW132468   1.822   2.979   6.422  0.8055  0.1417  0.9127
 6944SOL    HW232469   1.788   2.993   6.563 -2.8649  0.1201 -0.8949
 6945SOL     OW32470   3.953   4.496  15.292  0.2636 -0.2011 -0.3859
 6945SOL    HW132471   3.916   4.572  15.247  3.4137  1.0436 -0.8731
 6945SOL    HW232472   3.895   4.471  15.364  3.2702 -1.2874  1.6813
 6946SOL     OW32473   4.480   2.304   2.170 -0.1331 -0.3664 -0.2378
 6946SOL    HW132474   4.496   2.349   2.253 -0.8475  0.9443 -0.8094
 6946SOL    HW232475   4.397   2.340   2.138  0.5936  0.1276 -1.5434
 6947SOL     OW32476   2.729   1.651   8.160 -0.3950 -0.1689  0.3316
 6947SOL    HW132477   2.759   1.566   8.129 -0.9613  0.6529 -2.4070
 6947SOL    HW232478   2.635   1.640   8.151 -0.4502  1.0961 -0.5822
 6948SOL     OW32479   1.730   1.243  11.245  0.0719 -0.1013  0.2544
 6948SOL    HW132480   1.756   1.203  11.328 -0.9871 -0.0901  0.5955
 6948SOL    HW232481   1.705   1.333  11.265 -1.3990 -0.0748 -1.6942
 6949SOL     OW32482   2.424   0.225  12.623 -0.0112  0.2697 -0.3495
 6949SOL    HW132483   2.380   0.308  12.641 -1.8346 -0.7373 -0.1278
 6949SOL    HW232484   2.482   0.243  12.697 -0.1664 -2.2481  0.3905
 6950SOL     OW32485   0.546   0.672   2.437 -0.0740 -0.3788 -0.0063
 6950SOL    HW132486   0.461   0.705   2.410 -0.1142  0.0815  0.6738
 6950SOL    HW232487   0.606   0.746   2.425  2.1970 -2.0829  0.7208
 6951SOL     OW32488   3.744   2.075   4.752 -0.6022 -0.7229  0.8707
 6951SOL    HW132489   3.838   2.058   4.758 -0.1801  0.6583 -2.0640
 6951SOL    HW232490   3.733   2.131   4.675  0.1535 -1.3967  0.2717
 6952SOL     OW32491   1.935   2.405   2.508 -0.8096 -0.2033  0.0238
 6952SOL    HW132492   1.947   2.379   2.599 -2.4645 -1.8373 -0.2178
 6952SOL    HW232493   1.849   2.368   2.488 -0.2159 -3.0015  2.5710
 6953SOL     OW32494   3.276   2.205   4.854 -0.6005  0.1468  0.1568
 6953SOL    HW132495   3.356   2.221   4.806 -1.1591  1.9877 -0.1393
 6953SOL    HW232496   3.242   2.288   4.889  0.1527  0.1566  0.8763
 6954SOL     OW32497   0.247   2.822  15.020  0.2998 -0.3392  0.3770
 6954SOL    HW132498   0.164   2.775  15.027  0.4803 -0.7524 -0.2747
 6954SOL    HW232499   0.237   2.891  15.086 -2.5963 -2.5730  2.2615
 6955SOL     OW32500   0.131   2.529  14.547 -0.6898 -0.1947  0.3795
 6955SOL    HW132501   0.139   2.623  14.533 -1.8789  0.0196  1.1157
 6955SOL    HW232502   0.209   2.521  14.601 -0.9974  1.6864  1.0953
 6956SOL     OW32503   3.067   2.680  12.474  0.0498 -0.0016  0.2187
 6956SOL    HW132504   3.154   2.641  12.481 -0.1870 -0.5800 -0.0152
 6956SOL    HW232505   3.068   2.716  12.386  1.4301 -0.1562  0.1793
 6957SOL     OW32506   0.641   1.148  15.877 -0.1087  0.1719  0.0909
 6957SOL    HW132507   0.734   1.140  15.899  0.0520 -0.7281 -0.9299
 6957SOL    HW232508   0.624   1.077  15.815 -2.5515  1.5633 -0.8131
 6958SOL     OW32509   2.511   4.051  12.468 -0.3433  0.4464 -0.3333
 6958SOL    HW132510   2.496   4.130  12.519 -0.1072 -0.4383  1.1031
 6958SOL    HW232511   2.540   4.091  12.386  0.2138 -1.0331 -0.8580
 6959SOL     OW32512   0.077   2.493  16.377  0.2618 -0.0503  0.2658
 6959SOL    HW132513   0.067   2.587  16.369  0.0009  0.0235  1.4168
 6959SOL    HW232514   4.729   2.459  16.351  0.9350 -0.6760 -1.1435
 6960SOL     OW32515   4.178   0.313   5.254 -0.0136 -0.1472  0.3567
 6960SOL    HW132516   4.221   0.272   5.178 -0.5899 -1.0877  0.5430
 6960SOL    HW232517   4.164   0.241   5.316 -0.3441 -0.3719  0.0226
 6961SOL     OW32518   3.608   0.982   9.560  0.3346  0.7844  0.7645
 6961SOL    HW132519   3.630   0.948   9.646 -2.9136  0.5955  1.5226
 6961SOL    HW232520   3.635   0.911   9.502 -3.3900 -0.2810  0.3092
 6962SOL     OW32521   1.832   3.634   3.184  0.1812 -0.3636  0.4197
 6962SOL    HW132522   1.749   3.619   3.229  0.5373  1.4410  1.6722
 6962SOL    HW232523   1.800   3.692   3.116  1.4610  0.2340  0.3291
 6963SOL     OW32524   2.493   1.287   6.483 -0.1492 -0.2304 -0.1455
 6963SOL    HW132525   2.585   1.309   6.494  0.0695 -1.1014 -0.2789
 6963SOL    HW232526   2.443   1.349   6.536 -1.6362 -2.9186  1.6247
 6964SOL     OW32527   3.671   0.752   5.052 -0.3305 -0.3161  0.0216
 6964SOL    HW132528   3.650   0.846   5.053 -0.4398 -0.3336 -0.9620
 6964SOL    HW232529   3.747   0.740   5.109  1.1683  2.4699 -1.3680
 6965SOL     OW32530   1.649   2.326  16.619  0.9658 -0.2693  0.2316
 6965SOL    HW132531   1.615   2.414  16.602  2.6833 -0.1078 -2.3811
 6965SOL    HW232532   1.701   2.310  16.540 -0.8408 -0.6305 -0.8641
 6966SOL     OW32533   0.762   1.813   2.117 -0.1887  0.3530  0.1338
 6966SOL    HW132534   0.710   1.838   2.041  1.0407 -2.5031 -1.6162
 6966SOL    HW232535   0.810   1.896   2.118 -3.1583  2.0907 -4.4931
 6967SOL     OW32536   1.602   2.988   8.436 -0.1347 -0.3040 -0.7418
 6967SOL    HW132537   1.524   2.992   8.381 -0.5210 -0.9643 -0.2519
 6967SOL    HW232538   1.628   3.078   8.417  1.9071 -0.1652  2.7186
 6968SOL     OW32539   2.971   3.940   7.638  0.3448 -0.1626  0.4303
 6968SOL    HW132540   2.914   3.905   7.570  0.5401  1.7642 -0.7396
 6968SOL    HW232541   3.046   3.957   7.581 -2.3727 -1.3531 -3.4593
 6969SOL     OW32542   2.591   0.440   7.350  0.3368  0.0142 -0.6279
 6969SOL    HW132543   2.605   0.530   7.381  4.1031 -0.9265  0.3322
 6969SOL    HW232544   2.673   0.426   7.303  0.3301 -0.6596 -0.4327
 6970SOL     OW32545   3.826   0.175  16.121  0.1577 -0.6442  0.1943
 6970SOL    HW132546   3.853   0.265  16.141 -1.6557  0.2379 -1.2894
 6970SOL    HW232547   3.735   0.185  16.150  1.4123  1.6070  3.3547
 6971SOL     OW32548   1.204   3.729   2.029 -0.4971 -0.4464  0.1831
 6971SOL    HW132549   1.212   3.638   2.057 -1.0941 -0.7800 -0.7757
 6971SOL    HW232550   1.291   3.769   2.035 -0.7415  0.6879 -4.0366
 6972SOL     OW32551   1.057   0.861  16.575 -0.2761 -0.7757  0.4661
 6972SOL    HW132552   1.089   0.919  16.644  0.5248  0.6351 -1.1090
 6972SOL    HW232553   1.028   0.928  16.514  2.2176  1.4308  1.6994
 6973SOL     OW32554   2.661   3.398   8.936 -0.3367 -0.4904  0.6584
 6973SOL    HW132555   2.584   3.396   8.992  0.4021  1.1974  1.7479
 6973SOL    HW232556   2.631   3.336   8.870 -0.2112  0.6065 -0.4380
 6974SOL     OW32557   1.204   2.486   3.910 -0.2656  0.0364 -0.3445
 6974SOL    HW132558   1.270   2.510   3.846  0.3137  1.4007  0.7716
 6974SOL    HW232559   1.223   2.392   3.919 -1.5679 -0.1729  0.3229
 6975SOL     OW32560   2.124   0.037   6.761 -0.0975 -0.2853  0.3211
 6975SOL    HW132561   2.067   0.106   6.794  0.3217 -0.5548  1.6012
 6975SOL    HW232562   2.196   0.033   6.824 -0.5309 -2.9255  0.6714
 6976SOL     OW32563   1.821   0.260   4.087 -0.7123 -0.6681  0.0382
 6976SOL    HW132564   1.852   0.262   4.177 -0.9632  0.9496  0.0877
 6976SOL    HW232565   1.728   0.242   4.097 -0.5485 -0.8348  1.2071
 6977SOL     OW32566   4.410   4.067   7.370 -0.2822  0.6501 -0.3038
 6977SOL    HW132567   4.447   4.051   7.283  1.3352 -0.7421  0.6292
 6977SOL    HW232568   4.487   4.083   7.425  0.2297 -1.1497 -0.4935
 6978SOL     OW32569   3.983   4.233   7.479 -0.0222  0.4776 -0.1786
 6978SOL    HW132570   3.942   4.303   7.427  0.6069  0.8311 -0.1920
 6978SOL    HW232571   3.943   4.251   7.564  0.5575  1.2245 -0.0700
 6979SOL     OW32572   1.024   3.264   2.428  0.1086  0.0781 -0.9717
 6979SOL    HW132573   1.080   3.311   2.366  1.7429 -3.5598 -2.2404
 6979SOL    HW232574   0.958   3.228   2.369  0.3991  0.3257 -1.4507
 6980SOL     OW32575   0.081   2.219  10.124 -0.4963 -0.7003 -0.2028
 6980SOL    HW132576   0.100   2.164  10.200  1.7886  1.2928  0.6652
 6980SOL    HW232577   4.737   2.261  10.151  1.4851  3.1890 -0.2253
 6981SOL     OW32578   4.054   1.317   3.168  0.0627  1.0965 -0.2224
 6981SOL    HW132579   4.061   1.227   3.136  2.4397  0.7305  1.3475
 6981SOL    HW232580   4.132   1.356   3.127 -0.0529  0.1332 -1.3568
 6982SOL     OW32581   3.445   2.695   3.299  0.0722 -0.3610  0.3859
 6982SOL    HW132582   3.372   2.686   3.238 -1.2014  2.1854  1.5179
 6982SOL    HW232583   3.493   2.763   3.253  1.1092 -2.1345 -1.1193
 6983SOL     OW32584   3.779   2.195   0.123  0.0744  0.2198 -0.2782
 6983SOL    HW132585   3.741   2.108   0.129  0.0835  0.1042 -1.8800
 6983SOL    HW232586   3.702   2.247   0.147 -1.6211 -1.2664 -2.4816
 6984SOL     OW32587   2.521   3.169  15.297  0.0429  0.6670 -0.1502
 6984SOL    HW132588   2.437   3.208  15.272  0.6255  1.3397 -1.0335
 6984SOL    HW232589   2.501   3.076  15.285 -1.5019  0.9590  0.0761
 6985SOL     OW32590   1.662   1.954   7.500  0.7448 -0.7926  0.3230
 6985SOL    HW132591   1.749   1.958   7.539  0.5567 -0.8918  0.7508
 6985SOL    HW232592   1.623   1.879   7.546 -0.7463  0.6784  1.4375
 6986SOL     OW32593   1.278   2.776   6.007 -0.1322 -0.2451 -0.2832
 6986SOL    HW132594   1.316   2.693   5.979 -3.7377 -1.7589 -0.7504
 6986SOL    HW232595   1.227   2.742   6.081  3.1281 -3.0215  0.6860
 6987SOL     OW32596   2.324   1.152   4.013  0.2193 -0.3919  0.1114
 6987SOL    HW132597   2.238   1.165   3.973 -0.2609  0.0168  1.2799
 6987SOL    HW232598   2.369   1.234   3.993 -0.1421 -0.2787 -0.2418
 6988SOL     OW32599   4.392   3.547   7.516  0.0652  0.1592  0.0910
 6988SOL    HW132600   4.396   3.494   7.436  2.5957  1.0892 -0.3748
 6988SOL    HW232601   4.399   3.636   7.481  0.4218  1.5052  3.5822
 6989SOL     OW32602   3.907   0.303  15.348 -0.1770 -0.1568 -0.0972
 6989SOL    HW132603   3.992   0.262  15.363 -0.3126 -0.1814  0.6459
 6989SOL    HW232604   3.848   0.232  15.376  1.1009 -0.8103  0.9169
 6990SOL     OW32605   4.353   3.251   7.589  0.8396 -0.3037  0.6170
 6990SOL    HW132606   4.349   3.218   7.679  0.6129 -0.2798  0.6154
 6990SOL    HW232607   4.436   3.225   7.549 -0.4721 -2.1830 -0.9321
 6991SOL     OW32608   3.000   0.387  11.090  0.6173  0.2714 -0.8770
 6991SOL    HW132609   3.018   0.321  11.157  0.0704 -0.7266 -1.7140
 6991SOL    HW232610   3.089   0.411  11.068  1.0857  0.1099  0.7940
 6992SOL     OW32611   3.121   0.776   8.124 -0.6805 -0.1530 -0.4299
 6992SOL    HW132612   3.051   0.793   8.062 -1.7015  1.6618  1.2005
 6992SOL    HW232613   3.151   0.866   8.141  1.0562 -0.7865 -0.1559
 6993SOL     OW32614   3.032   3.587  12.008  0.0384 -0.6199 -0.0076
 6993SOL    HW132615   3.080   3.633  11.939 -0.7370  2.0379  1.2602
 6993SOL    HW232616   3.050   3.640  12.085  0.9665 -0.9369 -0.0045
 6994SOL     OW32617   2.430   4.007   3.873  0.1509  0.0953  0.7551
 6994SOL    HW132618   2.478   3.931   3.906  1.8126  0.9159  0.2499
 6994SOL    HW232619   2.370   3.950   3.825  0.5751 -0.8618  1.3680
 6995SOL     OW32620   1.662   4.254   6.989  0.3216  0.1870 -0.3684
 6995SOL    HW132621   1.665   4.269   7.084  1.5100  0.8013 -0.5062
 6995SOL    HW232622   1.722   4.181   6.975 -0.0805 -0.2282  0.0713
 6996SOL     OW32623   0.040   2.338  13.449  0.1379 -0.2707 -0.5714
 6996SOL    HW132624   0.030   2.426  13.485 -1.5742  0.3174 -2.4297
 6996SOL    HW232625   4.689   2.330  13.413 -0.9722  0.3764  2.0525
 6997SOL     OW32626   1.936   3.789   6.308 -0.3248 -0.0292 -0.4281
 6997SOL    HW132627   1.935   3.884   6.321  2.0382 -0.1040  0.3360
 6997SOL    HW232628   1.910   3.792   6.216  3.0731 -2.3973 -1.5080
 6998SOL     OW32629   4.045   3.535   4.157 -0.6282  0.8561  0.0371
 6998SOL    HW132630   4.129   3.491   4.142 -0.0324  1.2784  2.0347
 6998SOL    HW232631   4.069   3.627   4.145  2.6247  0.3881  2.6896
 6999SOL     OW32632   2.515   1.162   0.178 -0.2504 -0.0874 -0.2496
 6999SOL    HW132633   2.514   1.213   0.260 -0.5775 -1.1699  0.4141
 6999SOL    HW232634   2.539   1.236   0.123  0.5107  0.1159  0.3631
 7000SOL     OW32635   4.534   1.800   1.764 -0.1058 -0.0286 -0.7371
 7000SOL    HW132636   4.623   1.771   1.781 -1.6727 -4.1226  0.5624
 7000SOL    HW232637   4.481   1.751   1.827 -0.9442 -0.3700 -1.7095
 7001SOL     OW32638   2.186   1.287   8.111 -0.3708 -0.0773  0.2739
 7001SOL    HW132639   2.272   1.284   8.070 -0.0388  1.5720  0.8422
 7001SOL    HW232640   2.172   1.196   8.137 -0.4510 -0.6234 -1.6688
 7002SOL     OW32641   3.216   1.634   9.422  0.0395  0.1671 -0.1874
 7002SOL    HW132642   3.309   1.652   9.434  0.2687 -0.1956 -1.5166
 7002SOL    HW232643   3.207   1.614   9.329  1.1490  0.5440 -0.3758
 7003SOL     OW32644   4.172   1.034  16.703  0.0042 -0.2018  0.2454
 7003SOL    HW132645   4.103   1.095  16.728  0.9925  1.2877 -0.6748
 7003SOL    HW232646   4.126   0.998  16.627 -1.0947 -0.0184  0.8265
 7004SOL     OW32647   3.672   0.930   1.766 -0.1371 -0.4292 -0.2646
 7004SOL    HW132648   3.591   0.956   1.721 -0.2676 -1.9114 -0.8860
 7004SOL    HW232649   3.640   0.860   1.824  1.4618 -0.8369  0.1188
 7005SOL     OW32650   4.686   1.755   3.867 -0.1672 -0.5902  0.0087
 7005SOL    HW132651   4.592   1.742   3.863 -0.0716  0.0448 -3.5816
 7005SOL    HW232652   4.718   1.674   3.826 -0.0120 -0.5719  0.0913
 7006SOL     OW32653   4.531   3.297   3.576  0.3745  0.5896  0.3354
 7006SOL    HW132654   4.619   3.260   3.582  0.1857 -0.0470 -0.8850
 7006SOL    HW232655   4.527   3.344   3.659  0.2107 -0.2636  0.7999
 7007SOL     OW32656   1.262   1.873   0.394  0.9569 -0.3754 -0.7072
 7007SOL    HW132657   1.283   1.874   0.487 -0.4596  3.3493 -0.4297
 7007SOL    HW232658   1.325   1.940   0.367 -0.4091  0.6797 -1.3119
 7008SOL     OW32659   3.920   3.881   2.637 -0.4704  0.0490  0.3616
 7008SOL    HW132660   3.972   3.849   2.562 -1.1870 -0.7757  0.2198
 7008SOL    HW232661   3.853   3.927   2.586  2.1215  2.4928 -0.8690
 7009SOL     OW32662   2.122   3.161  15.537  0.2223  0.9335 -0.1457
 7009SOL    HW132663   2.151   3.224  15.603 -2.2380  0.6787  1.1692
 7009SOL    HW232664   2.164   3.079  15.563 -0.3947  0.5980 -0.1967
 7010SOL     OW32665   3.061   1.491   6.747 -0.1614  0.4927 -0.2227
 7010SOL    HW132666   3.135   1.465   6.801  1.0042 -0.1708 -2.1287
 7010SOL    HW232667   3.097   1.556   6.687 -0.1906  0.3584 -0.3852
 7011SOL     OW32668   1.954   2.300   5.672 -0.0176 -0.0525  0.3559
 7011SOL    HW132669   1.874   2.252   5.649 -0.9526  1.7809 -0.1981
 7011SOL    HW232670   1.919   2.388   5.656 -0.4963 -0.3548 -0.2618
 7012SOL     OW32671   0.067   1.395   2.004  0.1194 -0.1921 -0.2612
 7012SOL    HW132672   0.091   1.330   1.939  1.2891 -0.1897  0.1671
 7012SOL    HW232673   4.710   1.384   2.012  0.1800 -0.2017  0.4508
 7013SOL     OW32674   2.159   1.248   5.313  0.3231  0.4818 -0.4432
 7013SOL    HW132675   2.170   1.326   5.259  0.9783  1.8003  1.5779
 7013SOL    HW232676   2.194   1.276   5.398 -0.2398 -0.9877  0.2905
 7014SOL     OW32677   2.863   3.958   3.920  0.3676  0.4118  0.1861
 7014SOL    HW132678   2.773   3.930   3.938  0.5365 -2.0479 -2.7308
 7014SOL    HW232679   2.847   4.025   3.853  2.3149 -1.9058 -2.5944
 7015SOL     OW32680   1.091   0.007   8.210  0.6186 -0.0970  0.8488
 7015SOL    HW132681   1.080   4.660   8.252 -0.9772 -1.1812 -1.7658
 7015SOL    HW232682   1.131   0.058   8.281 -0.1174  1.3204  0.2688
 7016SOL     OW32683   0.472   0.712   2.729 -0.1372 -0.0867 -0.1136
 7016SOL    HW132684   0.437   0.712   2.640  0.5023  3.6141 -0.3712
 7016SOL    HW232685   0.565   0.697   2.710 -0.1623 -0.6649  0.2280
 7017SOL     OW32686   1.273   1.094   2.153 -0.5912 -0.0243 -0.0389
 7017SOL    HW132687   1.342   1.036   2.123 -0.6340  1.0485 -2.2220
 7017SOL    HW232688   1.229   1.106   2.069  0.6410 -1.4134 -0.8710
 7018SOL     OW32689   3.667   0.451  16.372 -0.5570 -0.3689 -0.6466
 7018SOL    HW132690   3.617   0.520  16.416  0.8696 -0.9693  1.8953
 7018SOL    HW232691   3.721   0.502  16.312 -0.2789 -1.2815 -1.1763
 7019SOL     OW32692   1.419   1.826   2.702  0.1745 -0.2532 -0.1568
 7019SOL    HW132693   1.409   1.747   2.648  4.3511 -0.4810 -0.6044
 7019SOL    HW232694   1.471   1.882   2.644  3.0564 -1.5185  1.2241
 7020SOL     OW32695   3.892   4.120   9.221  0.4587 -0.3454  0.4834
 7020SOL    HW132696   3.836   4.074   9.159 -2.2523  1.3358  1.7105
 7020SOL    HW232697   3.839   4.199   9.226  0.6893 -0.2723  1.8087
 7021SOL     OW32698   0.393   2.652   8.031  0.2128  0.6377  0.5414
 7021SOL    HW132699   0.443   2.611   8.102  2.5283  2.0822 -0.2452
 7021SOL    HW232700   0.315   2.597   8.034  1.9431 -1.9633 -2.3591
 7022SOL     OW32701   0.124   2.743   2.022  0.0951 -0.3108 -0.1564
 7022SOL    HW132702   0.182   2.748   2.097 -1.7472  3.1687  1.0661
 7022SOL    HW232703   0.137   2.656   1.985  0.3165  0.4187 -1.8185
 7023SOL     OW32704   3.902   2.853  13.952  0.0872  0.7848  0.0385
 7023SOL    HW132705   3.965   2.792  13.913  1.7762  1.6547  1.3914
 7023SOL    HW232706   3.828   2.794  13.965  0.9835 -0.0460  1.3398
 7024SOL     OW32707   1.057   4.420  16.671 -0.0657 -0.0375  0.2166
 7024SOL    HW132708   1.037   4.475  16.595  0.6059  0.9045  0.7214
 7024SOL    HW232709   1.114   4.475  16.725  1.7538 -0.1958 -1.5313
 7025SOL     OW32710   2.246   1.231   4.486  0.2826  0.1225 -0.2959
 7025SOL    HW132711   2.322   1.289   4.476  1.4247 -1.3472 -0.2298
 7025SOL    HW232712   2.185   1.259   4.419  2.0734 -1.3486 -2.5533
 7026SOL     OW32713   4.452   3.671  13.606  0.0077 -0.3173  0.1645
 7026SOL    HW132714   4.411   3.649  13.522  2.5033  0.3395 -1.2362
 7026SOL    HW232715   4.534   3.704  13.569 -0.9506  2.5802  0.6401
 7027SOL     OW32716   4.243   2.096   5.398  0.2762 -0.2252 -0.2175
 7027SOL    HW132717   4.269   2.016   5.351 -0.5234 -0.1589 -0.7690
 7027SOL    HW232718   4.258   2.071   5.489 -2.7041  0.0148  0.3501
 7028SOL     OW32719   3.072   2.212   1.988  0.3009  0.2241 -0.3889
 7028SOL    HW132720   3.006   2.256   1.934  2.4265  0.2852 -2.9346
 7028SOL    HW232721   3.049   2.120   1.981 -2.0748  0.9174 -2.1230
 7029SOL     OW32722   1.001   2.648  13.011  0.2438 -0.7866 -0.1968
 7029SOL    HW132723   0.966   2.662  13.098  0.7017  0.0279 -0.1433
 7029SOL    HW232724   0.978   2.728  12.965  3.0910 -0.8725 -1.7972
 7030SOL     OW32725   1.433   2.825   6.842 -0.0273 -0.3281  0.2606
 7030SOL    HW132726   1.481   2.776   6.909 -0.1478 -1.3598 -0.4109
 7030SOL    HW232727   1.364   2.873   6.888 -1.4355 -2.0050 -0.1213
 7031SOL     OW32728   3.071   3.587  13.915  0.8104 -0.1266 -0.2005
 7031SOL    HW132729   2.993   3.583  13.970  0.1692  1.7888 -0.9944
 7031SOL    HW232730   3.132   3.586  13.989  1.2441  0.5597 -0.5503
 7032SOL     OW32731   1.282   3.313   8.700 -0.4634 -0.1591 -0.1624
 7032SOL    HW132732   1.320   3.246   8.756  2.3512  0.9342 -0.7641
 7032SOL    HW232733   1.273   3.276   8.612 -2.2248 -1.5631  0.6062
 7033SOL     OW32734   3.117   2.474   2.541 -0.1439  0.6328  0.3916
 7033SOL    HW132735   3.116   2.569   2.525 -1.2178  0.5742  0.0959
 7033SOL    HW232736   3.200   2.456   2.497 -1.5876 -5.0225  0.0235
 7034SOL     OW32737   0.712   3.555   7.593  0.3732  0.8814  0.3973
 7034SOL    HW132738   0.675   3.525   7.510 -0.7271  0.8225  0.9014
 7034SOL    HW232739   0.635   3.570   7.648 -0.8270  0.3125 -1.1247
 7035SOL     OW32740   1.200   2.622   1.226  0.2638 -0.7138  0.1872
 7035SOL    HW132741   1.263   2.553   1.205 -0.9278 -2.0006  0.8227
 7035SOL    HW232742   1.253   2.667   1.291  1.1994  0.8515 -1.6667
 7036SOL     OW32743   0.937   3.891   5.447 -0.2869  0.3036 -0.3931
 7036SOL    HW132744   0.912   3.935   5.528  1.7199 -0.0806  0.4304
 7036SOL    HW232745   0.953   3.973   5.401 -0.7587  0.4884 -0.2310
 7037SOL     OW32746   0.185   2.670   9.677 -0.2875  0.3572  0.4491
 7037SOL    HW132747   0.113   2.732   9.665 -0.9610 -0.0318  2.5171
 7037SOL    HW232748   0.267   2.714   9.699 -0.0580 -0.0032  0.3155
 7038SOL     OW32749   2.004   2.575  12.092  0.1982  0.3524 -0.1077
 7038SOL    HW132750   1.980   2.563  12.000  0.4767  0.0266 -0.1349
 7038SOL    HW232751   1.938   2.516  12.129  1.7357 -0.9292  0.5440
 7039SOL     OW32752   0.315   3.564   1.771 -0.3998 -0.1254 -0.2547
 7039SOL    HW132753   0.376   3.537   1.840  0.0127  2.9189  0.5328
 7039SOL    HW232754   0.235   3.589   1.817 -0.0207 -0.4680  0.5905
 7040SOL     OW32755   4.146   0.108   1.309  0.1999 -0.1731  0.7152
 7040SOL    HW132756   4.239   0.087   1.308  0.0592 -0.8438  2.1699
 7040SOL    HW232757   4.146   0.161   1.229 -2.2128 -0.7692  0.3066
 7041SOL     OW32758   0.055   3.400  10.603 -0.1493 -0.3861 -0.5767
 7041SOL    HW132759   0.081   3.338  10.671 -0.2870 -0.4415 -0.5766
 7041SOL    HW232760   0.120   3.377  10.537 -0.9533  0.4376 -1.6553
 7042SOL     OW32761   4.097   3.763   4.473 -0.1651 -1.0487  0.0577
 7042SOL    HW132762   4.065   3.678   4.443 -1.2090 -0.2312 -1.1316
 7042SOL    HW232763   4.022   3.813   4.505  0.3330 -0.5723  0.4864
 7043SOL     OW32764   4.602   3.084  11.483  0.4659 -0.3927 -0.1932
 7043SOL    HW132765   4.672   3.019  11.480  0.5978 -0.1849 -1.6849
 7043SOL    HW232766   4.606   3.107  11.576 -1.7619  0.1938 -0.2368
 7044SOL     OW32767   1.721   2.040  12.446 -0.1637 -0.7568 -0.8309
 7044SOL    HW132768   1.745   1.953  12.413 -2.6763 -1.2478 -1.3530
 7044SOL    HW232769   1.625   2.034  12.451 -0.0247 -3.3572 -0.9939
 7045SOL     OW32770   3.445   4.699  13.322 -0.0992  0.2331 -0.0917
 7045SOL    HW132771   3.518   0.023  13.324 -0.1308  0.2855 -0.8841
 7045SOL    HW232772   3.483   4.626  13.272 -0.7729 -0.4748  0.4296
 7046SOL     OW32773   1.074   3.398   4.860  0.6885 -0.0267  0.1525
 7046SOL    HW132774   1.165   3.374   4.849  0.0111 -1.3110 -2.6928
 7046SOL    HW232775   1.044   3.378   4.771  0.7036  1.6711 -0.2476
 7047SOL     OW32776   3.222   0.184   5.476 -0.4065 -0.3724 -1.0367
 7047SOL    HW132777   3.228   0.224   5.390 -0.0940  1.2671 -0.2595
 7047SOL    HW232778   3.182   0.245   5.538 -2.7340 -0.2140 -2.7181
 7048SOL     OW32779   4.535   3.640   6.622 -0.4622 -0.1055  0.0143
 7048SOL    HW132780   4.522   3.722   6.669  2.8453  1.4223 -1.7369
 7048SOL    HW232781   4.494   3.576   6.681  2.1642 -1.1135  0.7610
 7049SOL     OW32782   4.126   3.160   1.425  0.5209  0.3627  1.0014
 7049SOL    HW132783   4.220   3.179   1.422  0.3784  0.7988 -0.6001
 7049SOL    HW232784   4.115   3.134   1.333 -1.3773 -0.2242  1.4112
 7050SOL     OW32785   4.471   0.497   0.986 -0.1738  0.4889 -0.0709
 7050SOL    HW132786   4.448   0.434   0.917 -1.7217  0.3312  0.5863
 7050SOL    HW232787   4.432   0.573   0.943 -2.3789  0.3095  1.6318
 7051SOL     OW32788   0.369   0.329   2.481 -0.0326  0.2268  0.1328
 7051SOL    HW132789   0.291   0.380   2.502  0.1557  0.5622  0.0083
 7051SOL    HW232790   0.334   0.261   2.423  3.1099 -1.4202  0.1291
 7052SOL     OW32791   3.525   0.429   9.360  0.0270  0.0196 -0.0052
 7052SOL    HW132792   3.489   0.468   9.281  0.6675 -1.1854 -0.8943
 7052SOL    HW232793   3.468   0.475   9.421 -1.9056  0.4971 -2.1785
 7053SOL     OW32794   1.318   4.519   7.216  0.4916  0.3267  0.5938
 7053SOL    HW132795   1.402   4.534   7.260  0.4829 -0.1819  0.7847
 7053SOL    HW232796   1.257   4.586   7.246  0.8985  0.4976  1.0476
 7054SOL     OW32797   3.001   3.895  13.398  0.0186  0.3024  0.6859
 7054SOL    HW132798   2.930   3.952  13.370 -0.5332 -0.7830 -0.1233
 7054SOL    HW232799   3.036   3.940  13.475  0.3720 -1.8340  1.7783
 7055SOL     OW32800   1.188   1.613   9.404 -0.2795  0.2259 -0.2083
 7055SOL    HW132801   1.280   1.610   9.428 -0.4133  1.0069  0.4061
 7055SOL    HW232802   1.178   1.708   9.405 -1.6986  0.0627  1.2244
 7056SOL     OW32803   3.030   3.806  10.486 -0.8215  0.5657 -0.3914
 7056SOL    HW132804   2.979   3.871  10.534 -3.4447 -1.7708 -0.0169
 7056SOL    HW232805   3.092   3.779  10.553 -1.6237 -0.2940  0.0113
 7057SOL     OW32806   1.474   3.120  10.504 -0.3356  0.9245  0.1911
 7057SOL    HW132807   1.543   3.057  10.522  0.0456  0.4299 -2.8974
 7057SOL    HW232808   1.459   3.154  10.592 -1.2858  2.9826 -0.7827
 7058SOL     OW32809   3.381   1.158   7.862 -0.1489  0.5964  0.3150
 7058SOL    HW132810   3.317   1.212   7.817  0.1190  0.6725  0.0238
 7058SOL    HW232811   3.333   1.076   7.872  0.1165  0.1280 -2.3123
 7059SOL     OW32812   2.247   4.507   9.173  0.2865  0.6441  0.9431
 7059SOL    HW132813   2.287   4.559   9.104 -1.1168 -0.7806 -0.9415
 7059SOL    HW232814   2.282   4.419   9.166  2.1168  1.6247 -1.9001
 7060SOL     OW32815   1.738   3.085   1.348 -0.8579 -0.0704  0.0694
 7060SOL    HW132816   1.687   3.063   1.270 -1.0346  0.4749  0.0327
 7060SOL    HW232817   1.816   3.122   1.307  0.4594 -3.2210 -0.2360
 7061SOL     OW32818   1.455   2.013   8.387 -0.5410 -0.1493  0.4193
 7061SOL    HW132819   1.371   1.979   8.416 -0.5333 -1.1532 -0.7505
 7061SOL    HW232820   1.428   2.094   8.345  3.2631  0.5979 -0.6037
 7062SOL     OW32821   3.264   2.685   4.625  0.7087 -0.1353  0.0651
 7062SOL    HW132822   3.287   2.773   4.595  1.4387  0.5105  2.5263
 7062SOL    HW232823   3.209   2.708   4.699 -0.5725  2.0859 -1.5842
 7063SOL     OW32824   0.227   0.867   6.625 -0.0198  0.0507 -0.2928
 7063SOL    HW132825   0.210   0.945   6.678  2.0025  0.0851  0.2934
 7063SOL    HW232826   0.140   0.839   6.594  0.1327  0.7652 -1.3294
 7064SOL     OW32827   2.723   0.674  10.492  0.9023 -0.2283 -0.1678
 7064SOL    HW132828   2.755   0.618  10.422 -2.1331  1.5505 -2.9527
 7064SOL    HW232829   2.789   0.744  10.497  0.2601  0.1738  3.0203
 7065SOL     OW32830   0.137   4.145   6.981 -0.1636  0.3188  0.5819
 7065SOL    HW132831   0.094   4.229   6.970 -1.0311 -0.1811  0.2251
 7065SOL    HW232832   0.071   4.086   6.946  0.0494  0.3521  0.1199
 7066SOL     OW32833   1.280   3.921   3.450 -0.2925 -0.0143 -0.1862
 7066SOL    HW132834   1.279   3.899   3.357  1.4070 -1.6330  0.1925
 7066SOL    HW232835   1.358   3.977   3.451 -1.7808  2.0430  0.0885
 7067SOL     OW32836   1.615   2.608   6.148 -0.1684  0.3732 -1.1544
 7067SOL    HW132837   1.617   2.652   6.063 -1.5223 -2.7690 -2.7965
 7067SOL    HW232838   1.531   2.563   6.147 -0.4994  0.9337  1.4647
 7068SOL     OW32839   4.200   3.040   2.631 -0.1202 -0.6398 -0.3866
 7068SOL    HW132840   4.199   2.949   2.661 -2.1414  0.1466  1.9683
 7068SOL    HW232841   4.200   3.094   2.710  0.8035 -0.4607 -0.5080
 7069SOL     OW32842   0.277   4.599   4.315 -0.2489  0.0734 -0.2612
 7069SOL    HW132843   0.360   4.556   4.335 -0.7765 -0.8370 -0.0401
 7069SOL    HW232844   0.269   4.646   4.398  0.7736 -0.1607 -0.0284
 7070SOL     OW32845   4.367   1.544  13.996 -0.0159 -0.6479  0.1236
 7070SOL    HW132846   4.278   1.557  13.964 -0.0418  2.2387  1.4213
 7070SOL    HW232847   4.372   1.585  14.082 -0.1599  1.8913 -1.1017
 7071SOL     OW32848   1.456   3.655   2.368 -0.4752  0.4857  0.2540
 7071SOL    HW132849   1.544   3.624   2.346 -0.4265  1.0155 -0.2968
 7071SOL    HW232850   1.484   3.694   2.451 -0.5391  0.5204  0.2588
 7072SOL     OW32851   1.427   1.293   8.197 -0.1328 -0.4857  0.0342
 7072SOL    HW132852   1.373   1.279   8.119  0.3754  0.1226 -0.4335
 7072SOL    HW232853   1.510   1.278   8.152 -1.3303  0.0134 -2.3532
 7073SOL     OW32854   0.583   2.395   8.228  0.2448 -0.1103 -0.2795
 7073SOL    HW132855   0.586   2.486   8.259  0.8624  0.6291 -2.4366
 7073SOL    HW232856   0.491   2.378   8.247 -0.0648  1.3864 -0.4374
 7074SOL     OW32857   2.436   0.809   8.312  0.1521  0.2310 -0.0572
 7074SOL    HW132858   2.469   0.825   8.224  0.2777 -0.4151 -0.1256
 7074SOL    HW232859   2.417   0.898   8.342  0.6652 -0.7949  3.3466
 7075SOL     OW32860   4.524   2.728   7.040  0.7086  0.4803 -0.0865
 7075SOL    HW132861   4.536   2.677   6.960 -0.3338  2.5432 -1.5686
 7075SOL    HW232862   4.432   2.754   7.029  0.7999  0.2886 -1.2823
 7076SOL     OW32863   4.018   2.600  15.532  0.1601 -0.4259  0.0891
 7076SOL    HW132864   4.045   2.640  15.615  1.1489 -0.0043 -0.4464
 7076SOL    HW232865   4.071   2.656  15.476  1.2869 -1.1719  0.4060
 7077SOL     OW32866   4.136   0.180  14.391  0.4313 -0.1824 -0.1290
 7077SOL    HW132867   4.193   0.104  14.402  2.1995  1.3267  1.0761
 7077SOL    HW232868   4.164   0.233  14.465 -0.3285  0.1671 -0.0904
 7078SOL     OW32869   0.892   1.647  13.410  0.3941  0.0405  0.5232
 7078SOL    HW132870   0.896   1.693  13.494 -0.6281 -0.8711  1.0885
 7078SOL    HW232871   0.982   1.663  13.383  0.9586 -4.0031  0.0085
 7079SOL     OW32872   1.666   0.257   6.612 -0.0512 -0.3852  0.2870
 7079SOL    HW132873   1.649   0.180   6.666 -1.8192 -1.6392 -2.0771
 7079SOL    HW232874   1.638   0.225   6.527 -1.2182 -0.8897  0.8690
 7080SOL     OW32875   0.698   0.864   7.863  0.2596  0.0069  0.1332
 7080SOL    HW132876   0.750   0.786   7.880  0.8335 -0.2821 -2.9585
 7080SOL    HW232877   0.737   0.937   7.912  0.4374 -0.9819  1.4779
 7081SOL     OW32878   2.107   0.663   2.550 -0.0543 -0.3075  0.0213
 7081SOL    HW132879   2.093   0.757   2.537  2.7764 -0.2947 -2.6190
 7081SOL    HW232880   2.022   0.619   2.543 -1.4473  2.4425 -0.5068
 7082SOL     OW32881   2.867   1.235  14.432 -0.4375  0.4165  0.2565
 7082SOL    HW132882   2.885   1.243  14.339  0.3832 -0.4802  0.3294
 7082SOL    HW232883   2.948   1.190  14.457 -0.4538 -0.5635 -1.5182
 7083SOL     OW32884   3.766   4.465   2.110  0.0902  0.6222 -0.4551
 7083SOL    HW132885   3.701   4.523   2.071 -0.1032  0.1397 -0.8461
 7083SOL    HW232886   3.826   4.457   2.036  0.6149  0.4105 -0.0056
 7084SOL     OW32887   3.747   4.434  13.384 -0.6214  0.1600 -0.0690
 7084SOL    HW132888   3.682   4.488  13.340 -2.0427 -2.3884 -1.0747
 7084SOL    HW232889   3.684   4.364  13.399 -1.2673  1.3123  2.4850
 7085SOL     OW32890   0.610   0.348   7.505 -0.0339 -0.3951 -0.2331
 7085SOL    HW132891   0.675   0.317   7.569 -1.4836  0.8585  1.8257
 7085SOL    HW232892   0.659   0.334   7.424  0.6396  1.7385 -0.1803
 7086SOL     OW32893   3.458   1.085   1.685 -0.3376 -0.0413 -0.3637
 7086SOL    HW132894   3.403   1.071   1.608 -0.9079  1.4107 -0.2196
 7086SOL    HW232895   3.400   1.070   1.759  1.3176 -0.6869  0.7830
 7087SOL     OW32896   3.625   0.114   2.151 -0.1825 -0.0033  0.7688
 7087SOL    HW132897   3.629   0.105   2.056 -2.6120  0.7701  0.6065
 7087SOL    HW232898   3.619   0.209   2.161  0.0674  0.0603  0.3190
 7088SOL     OW32899   1.304   3.261   6.967  0.1049  0.3072  0.4534
 7088SOL    HW132900   1.246   3.291   7.037 -0.4612 -1.7752  0.8696
 7088SOL    HW232901   1.354   3.340   6.947  0.9077 -0.8399 -2.0914
 7089SOL     OW32902   0.983   3.599   0.223 -0.0374  0.0843  0.5738
 7089SOL    HW132903   1.026   3.533   0.169 -2.2356  1.1700 -2.5226
 7089SOL    HW232904   1.056   3.610   0.284 -0.3063  1.2881  0.6791
 7090SOL     OW32905   4.361   1.463   5.547 -0.0921 -0.1285 -0.3795
 7090SOL    HW132906   4.388   1.549   5.578  0.3410 -1.3109  2.5490
 7090SOL    HW232907   4.268   1.465   5.566  0.1836  1.3271  0.8659
 7091SOL     OW32908   2.488   1.419   0.363 -1.0894 -0.6617 -0.0112
 7091SOL    HW132909   2.526   1.436   0.277  1.0197 -0.3645  0.9989
 7091SOL    HW232910   2.431   1.495   0.376  0.9785  0.9478 -0.5577
 7092SOL     OW32911   4.248   1.576   4.541  0.2205 -0.5439 -0.7779
 7092SOL    HW132912   4.163   1.576   4.584 -0.2392  2.1779 -1.7045
 7092SOL    HW232913   4.293   1.647   4.586  0.3608  0.8832 -3.1665
 7093SOL     OW32914   3.393   2.817   7.825 -0.0675  0.5367 -0.3233
 7093SOL    HW132915   3.348   2.857   7.900  0.0195  0.5375 -0.2723
 7093SOL    HW232916   3.341   2.841   7.748 -0.3154 -0.6621 -0.5248
 7094SOL     OW32917   3.257   3.575   4.417 -0.4823 -0.2727  0.4188
 7094SOL    HW132918   3.302   3.645   4.369  0.9533 -1.6655 -0.2851
 7094SOL    HW232919   3.315   3.502   4.393 -0.6599 -1.3085  3.1496
 7095SOL     OW32920   4.286   3.239   3.294  0.3099 -0.0358 -0.1650
 7095SOL    HW132921   4.328   3.187   3.226 -1.1990  0.7128 -1.6807
 7095SOL    HW232922   4.299   3.192   3.376 -1.6905 -0.8084 -0.2863
 7096SOL     OW32923   3.524   4.164   1.452 -0.2321 -0.2645 -0.2872
 7096SOL    HW132924   3.463   4.222   1.497 -1.0802 -1.5010  0.1754
 7096SOL    HW232925   3.515   4.079   1.496  0.6724 -0.6222 -0.7815
 7097SOL     OW32926   3.228   1.558   0.617 -0.0953  0.0086 -0.2143
 7097SOL    HW132927   3.170   1.565   0.693  0.6167  3.1067  0.0695
 7097SOL    HW232928   3.170   1.595   0.551 -1.2008  1.3710  1.5076
 7098SOL     OW32929   1.457   1.858   1.177  0.4254 -0.3254  0.8543
 7098SOL    HW132930   1.374   1.811   1.183 -0.9468  2.0089  0.1976
 7098SOL    HW232931   1.468   1.883   1.269  1.3478  2.1580  0.0477
 7099SOL     OW32932   1.151   2.532   2.238 -0.0733 -0.2859  0.1346
 7099SOL    HW132933   1.062   2.548   2.270  0.3179  3.4148 -0.7133
 7099SOL    HW232934   1.195   2.609   2.274 -0.9910  2.1887 -4.0826
 7100SOL     OW32935   1.575   3.878   7.063 -0.0270 -0.5000  1.2733
 7100SOL    HW132936   1.617   3.793   7.048 -0.6085 -0.2531 -1.9021
 7100SOL    HW232937   1.624   3.922   6.993 -1.8750  0.9867  0.9193
 7101SOL     OW32938   0.365   1.982   1.868 -0.2628  0.4584 -0.6291
 7101SOL    HW132939   0.318   2.009   1.947 -0.8313  1.0999 -1.1945
 7101SOL    HW232940   0.294   1.978   1.804  2.1424 -0.1256 -3.2584
 7102SOL     OW32941   3.379   1.592   1.401  0.1385 -0.1622 -0.0649
 7102SOL    HW132942   3.469   1.562   1.412  0.3007  0.0802 -0.7636
 7102SOL    HW232943   3.373   1.620   1.310 -3.2963 -0.7605 -0.0436
 7103SOL     OW32944   1.537   3.676   0.695  0.4247 -0.4132  0.4046
 7103SOL    HW132945   1.510   3.764   0.723 -0.4304 -0.6774  0.4185
 7103SOL    HW232946   1.505   3.684   0.605  0.9562  1.1370  0.3645
 7104SOL     OW32947   3.038   0.650   7.897  0.3495 -0.5801  0.5117
 7104SOL    HW132948   3.067   0.610   7.814 -2.3750 -1.9272  0.2314
 7104SOL    HW232949   3.052   0.578   7.959 -2.1408 -2.8423 -1.5737
 7105SOL     OW32950   4.672   4.494  15.656  0.3897 -0.0842 -0.0416
 7105SOL    HW132951   4.605   4.543  15.608 -1.4065  0.5735  3.1360
 7105SOL    HW232952   4.632   4.411  15.682 -1.0613  0.6353  0.0490
 7106SOL     OW32953   0.833   0.444   8.686 -0.4708 -0.2821  0.1067
 7106SOL    HW132954   0.791   0.501   8.622  1.6562  0.8901 -0.2579
 7106SOL    HW232955   0.924   0.434   8.657 -0.5936 -2.0679  0.3397
 7107SOL     OW32956   0.907   3.978  11.017 -0.1818 -0.6785  0.4027
 7107SOL    HW132957   0.970   3.922  10.970  2.6467  0.9948  2.2043
 7107SOL    HW232958   0.958   4.058  11.026  1.2781 -1.3627 -1.6841
 7108SOL     OW32959   0.086   3.678   5.989  0.2223 -0.0849  0.5287
 7108SOL    HW132960   0.126   3.723   5.915 -0.9133 -0.4886 -0.3311
 7108SOL    HW232961   0.160   3.645   6.041 -0.0877 -1.1427  0.3054
 7109SOL     OW32962   1.237   4.260   7.238 -0.2514 -0.1419 -0.4585
 7109SOL    HW132963   1.305   4.322   7.211 -0.7917  1.3214  1.5452
 7109SOL    HW232964   1.166   4.317   7.209 -0.0233 -0.1483 -1.0443
 7110SOL     OW32965   2.938   3.890   9.193 -0.2199 -1.1011 -0.5025
 7110SOL    HW132966   2.965   3.914   9.104 -1.1813  2.3828  0.1355
 7110SOL    HW232967   3.009   3.918   9.250 -1.8464 -1.9170  1.9451
 7111SOL     OW32968   3.823   3.891   3.028 -0.4232  0.5959  0.3153
 7111SOL    HW132969   3.886   3.825   2.998  0.0336  0.6252  1.1958
 7111SOL    HW232970   3.876   3.941   3.090 -1.8893  3.8283 -1.0149
 7112SOL     OW32971   2.174   0.884   1.239 -0.1529  0.5501  0.6855
 7112SOL    HW132972   2.169   0.862   1.333 -0.3848 -0.0888  0.5259
 7112SOL    HW232973   2.227   0.813   1.204  2.3486  1.9105  1.6851
 7113SOL     OW32974   1.097   0.252  14.802  0.0868  0.4914 -0.2477
 7113SOL    HW132975   1.152   0.202  14.862  0.8009  0.1258 -1.1862
 7113SOL    HW232976   1.154   0.266  14.726  0.7894  2.0329  0.5766
 7114SOL     OW32977   0.603   4.242   2.252  0.0211 -0.6306 -0.4118
 7114SOL    HW132978   0.673   4.267   2.192  0.0800  0.9353  0.2809
 7114SOL    HW232979   0.527   4.251   2.194 -0.8164 -0.6887  0.6755
 7115SOL     OW32980   0.937   1.328  12.871  0.2203  0.2037  0.1006
 7115SOL    HW132981   0.905   1.270  12.940 -0.4910 -0.3006 -0.6526
 7115SOL    HW232982   0.992   1.264  12.824  2.1381 -0.8921  3.8638
 7116SOL     OW32983   1.749   3.965   2.758  0.3541  0.3985 -0.3058
 7116SOL    HW132984   1.748   4.051   2.716  1.6604  0.2092 -0.7253
 7116SOL    HW232985   1.662   3.957   2.798 -0.5250  0.8660 -2.1394
 7117SOL     OW32986   2.492   1.111  17.604  0.1729 -0.5674  0.3534
 7117SOL    HW132987   2.495   1.118  17.508  0.4630 -2.4567  0.2257
 7117SOL    HW232988   2.577   1.152  17.622  0.1735 -1.3467  2.0724
 7118SOL     OW32989   0.977   0.992   7.472 -0.3881  0.0919  0.0508
 7118SOL    HW132990   0.937   0.907   7.459  0.4246 -0.3637  0.4943
 7118SOL    HW232991   1.061   0.989   7.427 -0.2746 -2.2130  0.4062
 7119SOL     OW32992   4.055   4.462   4.239 -0.5344  0.3274 -0.3020
 7119SOL    HW132993   4.081   4.506   4.320  1.3495 -0.6629 -0.3750
 7119SOL    HW232994   4.021   4.543   4.200 -1.2029  1.0387  1.7461
 7120SOL     OW32995   3.538   0.871   7.030  0.3192  0.1425 -0.0282
 7120SOL    HW132996   3.598   0.798   7.043 -0.8516 -0.8543 -0.1717
 7120SOL    HW232997   3.598   0.945   7.021  1.6255 -0.7788  1.1779
 7121SOL     OW32998   3.653   2.537   2.914 -0.5670 -0.0339 -0.0764
 7121SOL    HW132999   3.723   2.557   2.853 -0.8625  0.7468 -0.1611
 7121SOL    HW233000   3.691   2.587   2.986  0.0139 -1.3762  0.5544
 7122SOL     OW33001   2.903   4.735   1.939 -0.4163 -0.1002  0.1976
 7122SOL    HW133002   2.899   0.012   2.034 -1.5537 -1.7129  0.3997
 7122SOL    HW233003   2.864   4.648   1.933 -0.6013  0.1913 -2.5697
 7123SOL     OW33004   4.109   2.094   3.931 -0.1517  0.2407  0.2599
 7123SOL    HW133005   4.053   2.131   4.000  0.8831  0.1285  1.1653
 7123SOL    HW233006   4.116   2.005   3.967 -2.3685  1.3122  3.3232
 7124SOL     OW33007   4.477   2.754   3.044  0.4987  0.0272  0.3012
 7124SOL    HW133008   4.547   2.714   3.094  1.7330 -0.0011 -1.4438
 7124SOL    HW233009   4.446   2.679   2.992 -2.7492  0.9357  0.9422
 7125SOL     OW33010   3.712   1.629   6.826 -0.9109 -0.3378  0.5807
 7125SOL    HW133011   3.692   1.536   6.836  0.6078 -0.7208  0.0941
 7125SOL    HW233012   3.804   1.611   6.806 -1.1216  0.4754 -1.1814
 7126SOL     OW33013   4.327   0.564  14.975 -0.0306 -0.2593 -0.5896
 7126SOL    HW133014   4.407   0.513  14.989 -0.2845 -0.6594 -0.5943
 7126SOL    HW233015   4.256   0.500  14.976 -0.6985  0.4595 -1.5605
 7127SOL     OW33016   0.966   2.986  13.276 -0.0010  0.1262 -0.0186
 7127SOL    HW133017   1.044   2.930  13.275 -0.5982 -0.6870 -0.6853
 7127SOL    HW233018   0.901   2.917  13.283 -0.1230  0.3841  1.4470
 7128SOL     OW33019   1.137   2.932   8.347 -0.2251 -0.3423  0.1999
 7128SOL    HW133020   1.097   2.855   8.306  1.9544 -1.8499  0.9027
 7128SOL    HW233021   1.061   2.974   8.385 -0.7452 -0.7616 -0.3630
 7129SOL     OW33022   4.129   3.361   1.023  0.2576  0.1495  0.2614
 7129SOL    HW133023   4.184   3.436   1.047  1.7557 -0.8642  0.0462
 7129SOL    HW233024   4.048   3.410   1.012  0.1017 -0.2688 -0.5078
 7130SOL     OW33025   3.075   1.623   2.071  0.1636  0.3509  0.1722
 7130SOL    HW133026   3.150   1.615   2.012  0.7248  1.1468  0.7778
 7130SOL    HW233027   3.012   1.558   2.039 -1.9915  1.4750  2.1357
 7131SOL     OW33028   0.900   1.669   7.530  0.1738 -0.8951  0.0609
 7131SOL    HW133029   0.914   1.632   7.443  1.5346 -0.4299  0.0928
 7131SOL    HW233030   0.807   1.691   7.523  0.3055 -0.4248 -0.2270
 7132SOL     OW33031   4.560   2.316  13.803 -0.2392 -0.0211  0.0556
 7132SOL    HW133032   4.648   2.347  13.824  1.3027 -3.3263 -1.4981
 7132SOL    HW233033   4.502   2.368  13.859  0.2607  0.5561  0.0395
 7133SOL     OW33034   1.523   1.316   3.591 -0.3838  0.6128  0.2510
 7133SOL    HW133035   1.558   1.293   3.505 -0.3799  1.4197  0.0439
 7133SOL    HW233036   1.603   1.317   3.644  0.7000  0.0002 -1.3878
 7134SOL     OW33037   2.872   1.790   7.416 -0.1033  0.3890  0.5918
 7134SOL    HW133038   2.916   1.842   7.483  0.6065  0.8951 -0.2686
 7134SOL    HW233039   2.951   1.754   7.375 -0.0136  1.3665 -0.1013
 7135SOL     OW33040   0.705   4.323   5.258  0.1517  0.4106 -0.2432
 7135SOL    HW133041   0.695   4.252   5.322 -0.7523  0.3852 -0.4097
 7135SOL    HW233042   0.634   4.293   5.200  2.8843 -0.4272 -3.1629
 7136SOL     OW33043   3.384   4.736   2.239  0.3658  0.9007  0.5370
 7136SOL    HW133044   3.469   0.015   2.196  0.9831  0.3513  1.5368
 7136SOL    HW233045   3.323   0.052   2.190  0.2981 -0.4332 -0.8497
 7137SOL     OW33046   3.613   1.411  16.888  0.5868  0.0502  0.2869
 7137SOL    HW133047   3.654   1.473  16.828 -0.5549 -0.4010 -0.9758
 7137SOL    HW233048   3.557   1.360  16.828  0.4629 -0.3260  0.7241
 7138SOL     OW33049   3.779   1.965   9.167 -0.3673  0.0421  0.6496
 7138SOL    HW133050   3.838   2.039   9.155  0.6091 -0.9589 -0.7569
 7138SOL    HW233051   3.707   2.024   9.191  0.4082 -0.4772  4.1879
 7139SOL     OW33052   0.923   2.948   9.300  0.2430 -0.2777  0.1798
 7139SOL    HW133053   0.833   2.959   9.271 -0.0162  0.4240  1.2680
 7139SOL    HW233054   0.898   2.916   9.387 -1.6372 -0.2840 -0.3725
 7140SOL     OW33055   0.336   1.883  10.251  0.4115 -0.0056  0.0656
 7140SOL    HW133056   0.267   1.948  10.260  2.4760  1.9000  2.0539
 7140SOL    HW233057   0.399   1.929  10.196 -0.8410  1.3096 -0.2528
 7141SOL     OW33058   2.295   4.505  15.103  0.0354  0.4562 -0.0880
 7141SOL    HW133059   2.339   4.575  15.151 -0.0012  0.9161 -0.7246
 7141SOL    HW233060   2.294   4.541  15.014 -1.0519 -0.8478 -0.6121
 7142SOL     OW33061   2.615   4.049   7.709  0.4261 -0.3034  1.1766
 7142SOL    HW133062   2.668   4.031   7.787  3.3315 -0.4641 -0.8343
 7142SOL    HW233063   2.595   3.959   7.684 -0.9447 -0.3381  2.4063
 7143SOL     OW33064   0.180   0.077   6.586  0.2522 -0.3043 -0.0726
 7143SOL    HW133065   0.195   0.043   6.498  0.0650 -1.8830  0.5144
 7143SOL    HW233066   0.089   0.103   6.572  0.5517  0.8080  0.0126
 7144SOL     OW33067   0.088   1.792   0.757 -0.1254 -0.1778 -0.0640
 7144SOL    HW133068   0.129   1.860   0.811  1.7063 -2.2433  1.2021
 7144SOL    HW233069   0.149   1.718   0.759  1.3015  1.0832  4.2737
 7145SOL     OW33070   1.330   0.268   0.167 -0.1031  0.4021  0.2145
 7145SOL    HW133071   1.410   0.216   0.179 -0.8038 -1.2019 -2.0887
 7145SOL    HW233072   1.347   0.284   0.074  1.4175 -0.7696  0.2925
 7146SOL     OW33073   0.775   0.160  10.837  0.1795  0.3865  0.4253
 7146SOL    HW133074   0.731   0.076  10.850 -0.4291  0.7458  0.7010
 7146SOL    HW233075   0.729   0.176  10.754 -2.4298  1.9868  2.1468
 7147SOL     OW33076   3.488   3.938  16.190  0.3220 -0.4701  0.1087
 7147SOL    HW133077   3.439   3.976  16.117  0.6174 -1.3459 -0.5437
 7147SOL    HW233078   3.547   3.882  16.140  2.1894  1.1386  0.5168
 7148SOL     OW33079   2.610   1.221   4.681 -0.0412  0.1573  0.4994
 7148SOL    HW133080   2.589   1.305   4.640 -1.3964 -0.3465  0.1611
 7148SOL    HW233081   2.599   1.240   4.774  0.7649  1.5409  0.3140
 7149SOL     OW33082   2.518   3.629   5.794 -0.1712 -0.3259 -0.0256
 7149SOL    HW133083   2.527   3.662   5.883  3.6727  1.7008 -1.1283
 7149SOL    HW233084   2.446   3.569   5.816 -0.8887  0.2969 -0.7060
 7150SOL     OW33085   3.407   4.187   0.354  0.3034  0.3860 -0.0420
 7150SOL    HW133086   3.497   4.171   0.383  0.0758 -0.0566  0.4127
 7150SOL    HW233087   3.414   4.151   0.266  1.0645  2.3626 -0.7934
 7151SOL     OW33088   2.939   0.522  11.353 -0.3479  0.0224  0.2527
 7151SOL    HW133089   2.937   0.522  11.258  0.3485 -0.5915  0.2405
 7151SOL    HW233090   2.946   0.433  11.387 -2.3624  0.1840  1.0824
 7152SOL     OW33091   1.273   0.579   1.132  0.0606  0.4917  0.1574
 7152SOL    HW133092   1.267   0.604   1.225 -2.1195  0.6696 -0.0287
 7152SOL    HW233093   1.260   0.484   1.138  0.1519  0.3964 -1.2564
 7153SOL     OW33094   1.058   3.463   3.038  0.2674  0.0685  0.2803
 7153SOL    HW133095   0.972   3.497   3.013  1.0753  1.9428 -0.0161
 7153SOL    HW233096   1.111   3.519   2.981  0.3760 -0.3072  0.0165
 7154SOL     OW33097   2.233   3.103   6.413  0.7467 -0.2535  0.3174
 7154SOL    HW133098   2.317   3.057   6.421  0.8992  0.1274  0.8775
 7154SOL    HW233099   2.183   3.024   6.430  0.5406  0.2115  1.8106
 7155SOL     OW33100   1.334   0.366   8.700 -0.7138 -0.3650  0.1380
 7155SOL    HW133101   1.331   0.447   8.751 -0.7579  0.1429 -0.6731
 7155SOL    HW233102   1.419   0.324   8.715  0.0376  0.7178 -1.1483
 7156SOL     OW33103   0.599   1.300   5.197  0.1704 -0.3348 -0.1147
 7156SOL    HW133104   0.566   1.235   5.259  0.5562 -1.0026 -0.6111
 7156SOL    HW233105   0.517   1.332   5.159  0.9403 -1.8822 -3.0718
 7157SOL     OW33106   3.919   2.636   6.277  0.2863  0.5148  0.1361
 7157SOL    HW133107   3.965   2.713   6.244  0.9505  0.1458  0.2012
 7157SOL    HW233108   3.834   2.646   6.233  0.3920  0.1971 -0.1382
 7158SOL     OW33109   1.649   1.831   7.753  0.0873 -0.4204  0.1297
 7158SOL    HW133110   1.605   1.916   7.751  0.5032 -0.2490 -1.7706
 7158SOL    HW233111   1.586   1.783   7.806 -0.5351  2.4542  2.0234
 7159SOL     OW33112   1.923   3.509  16.869  0.4489 -0.7664  0.2758
 7159SOL    HW133113   1.882   3.461  16.798  1.2568 -1.7311  0.4637
 7159SOL    HW233114   1.862   3.510  16.942  0.3404 -2.2403  0.1952
 7160SOL     OW33115   1.714   2.577  14.361 -0.4003 -0.5476  0.2462
 7160SOL    HW133116   1.706   2.550  14.270 -0.1065  1.2966 -0.3260
 7160SOL    HW233117   1.748   2.500  14.407  1.4310  0.3958  0.4709
 7161SOL     OW33118   3.504   2.567   2.503 -0.0517  0.2522 -0.1707
 7161SOL    HW133119   3.479   2.648   2.459  0.1368  1.7863  2.5127
 7161SOL    HW233120   3.436   2.505   2.477 -0.3484  0.1090  0.9395
 7162SOL     OW33121   4.465   3.563   5.603 -0.4394  0.0376 -0.5399
 7162SOL    HW133122   4.528   3.533   5.670  0.0300 -1.8923 -1.8257
 7162SOL    HW233123   4.391   3.507   5.626  0.2437 -1.0260 -0.8892
 7163SOL     OW33124   1.240   1.495  17.386  0.1629 -0.0499  0.5352
 7163SOL    HW133125   1.159   1.445  17.381  0.4628 -0.2283 -3.1114
 7163SOL    HW233126   1.303   1.443  17.335 -0.2065 -0.5847  0.6213
 7164SOL     OW33127   0.127   4.679   3.542 -0.2344  0.4885  0.4521
 7164SOL    HW133128   0.073   4.701   3.466  0.3875 -0.0623 -0.1482
 7164SOL    HW233129   0.077   4.625   3.603  2.1324 -1.7090  0.4796
 7165SOL     OW33130   0.153   2.587   8.441  0.7745 -0.6201 -0.0236
 7165SOL    HW133131   0.081   2.606   8.380  1.6372  0.5950 -0.6576
 7165SOL    HW233132   0.146   2.644   8.517  0.7468 -1.3279  0.5041
 7166SOL     OW33133   3.056   0.674   0.301 -0.1223  0.1979  0.1359
 7166SOL    HW133134   3.144   0.642   0.283 -0.2679 -1.2088  1.9899
 7166SOL    HW233135   3.043   0.768   0.290 -0.7448 -0.1203 -1.9868
 7167SOL     OW33136   2.140   0.259   2.509 -0.4892  0.4567 -0.4417
 7167SOL    HW133137   2.093   0.329   2.463  2.3038  1.4209 -1.7975
 7167SOL    HW233138   2.088   0.247   2.588 -0.2037  0.7253 -0.2143
 7168SOL     OW33139   2.792   3.210  12.910  0.0944 -0.1044  0.3853
 7168SOL    HW133140   2.863   3.149  12.931  0.5735 -0.2415 -1.6470
 7168SOL    HW233141   2.826   3.273  12.846  2.6615 -0.8062  1.0689
 7169SOL     OW33142   4.106   0.059   9.315  0.2991 -0.4281  0.6013
 7169SOL    HW133143   4.131   0.018   9.398 -1.8683 -0.6229  1.1619
 7169SOL    HW233144   4.169   0.016   9.258 -2.8254 -2.0536 -1.6071
 7170SOL     OW33145   0.517   1.604   1.810 -0.3265 -0.2476  0.2460
 7170SOL    HW133146   0.544   1.514   1.794  3.0462  0.5928  1.0365
 7170SOL    HW233147   0.432   1.578   1.846 -1.1794  1.1128 -0.7650
 7171SOL     OW33148   2.378   1.282  15.363 -0.0436 -0.2786 -0.1743
 7171SOL    HW133149   2.348   1.217  15.299  1.9846 -0.0917 -1.3151
 7171SOL    HW233150   2.452   1.245  15.410  0.8352 -1.7802 -2.7448
 7172SOL     OW33151   2.296   2.947  12.308  0.0078  0.0079 -0.3006
 7172SOL    HW133152   2.216   2.903  12.338 -1.1446  1.7059 -0.8837
 7172SOL    HW233153   2.364   2.893  12.348 -0.6371 -0.4724  0.1644
 7173SOL     OW33154   4.030   0.478   7.201  0.2326  0.0119 -0.0912
 7173SOL    HW133155   4.052   0.432   7.120  0.7087 -0.4150  0.2843
 7173SOL    HW233156   3.992   0.406   7.251 -2.6607  0.9004 -0.9885
 7174SOL     OW33157   1.792   1.080   6.095 -0.1772  0.2032  0.3340
 7174SOL    HW133158   1.807   1.156   6.152  0.2940 -0.3981  0.9986
 7174SOL    HW233159   1.735   1.023   6.147 -0.2367 -0.4968 -0.5070
 7175SOL     OW33160   4.035   3.466   8.057 -0.0512 -1.0301  0.2114
 7175SOL    HW133161   4.105   3.512   8.105  0.6633 -1.2730 -0.6004
 7175SOL    HW233162   4.082   3.415   7.991  0.7349 -0.0786  0.0288
 7176SOL     OW33163   0.311   2.773   3.383 -0.2545 -0.2784 -0.1118
 7176SOL    HW133164   0.378   2.824   3.339 -0.1310  1.2545  1.8782
 7176SOL    HW233165   0.363   2.727   3.449 -0.2215  1.5262  1.1119
 7177SOL     OW33166   3.493   4.339  15.356 -0.2234 -0.1724 -0.2712
 7177SOL    HW133167   3.404   4.313  15.332 -0.2672 -0.2485 -0.0272
 7177SOL    HW233168   3.511   4.412  15.297 -2.0169  3.1736  3.3144
 7178SOL     OW33169   1.247   2.566  12.475 -0.3373  0.0199 -0.4582
 7178SOL    HW133170   1.330   2.518  12.483  0.1026  0.8605 -0.0493
 7178SOL    HW233171   1.218   2.580  12.565  0.6698  2.2564 -0.4812
 7179SOL     OW33172   0.180   1.492   2.921  0.2769 -0.0256  0.4177
 7179SOL    HW133173   0.216   1.442   2.847 -0.3854  0.1398 -0.0130
 7179SOL    HW233174   0.182   1.577   2.878  2.3442 -0.6328 -0.6957
 7180SOL     OW33175   4.439   2.664  15.089 -0.1455 -0.3595 -0.2086
 7180SOL    HW133176   4.526   2.704  15.083 -0.8503  1.8372  3.8350
 7180SOL    HW233177   4.416   2.685  15.180 -0.6507  0.9158 -0.6320
 7181SOL     OW33178   3.364   0.638   6.147  0.1003 -0.0265  0.3589
 7181SOL    HW133179   3.319   0.722   6.159  0.0872  0.1498 -1.0268
 7181SOL    HW233180   3.430   0.651   6.079 -2.1527  0.7865 -1.6648
 7182SOL     OW33181   2.059   1.931   0.775  0.3497 -0.3856  0.3066
 7182SOL    HW133182   2.024   2.020   0.779 -1.5955 -1.0789 -1.0394
 7182SOL    HW233183   2.008   1.885   0.842 -1.5647 -0.9736 -1.5756
 7183SOL     OW33184   0.264   4.186   4.981  0.2163 -0.0477  0.4286
 7183SOL    HW133185   0.208   4.252   5.021  0.4329  1.5969 -1.9973
 7183SOL    HW233186   0.203   4.112   4.980  0.4137 -0.2145  1.9267
 7184SOL     OW33187   1.875   0.730  17.056 -0.2273 -0.1722 -0.1286
 7184SOL    HW133188   1.940   0.790  17.018 -1.1709  0.6452 -0.4486
 7184SOL    HW233189   1.908   0.643  17.034 -2.3397 -0.8229 -0.6834
 7185SOL     OW33190   4.493   0.540  13.709  0.1135 -0.4025  0.2851
 7185SOL    HW133191   4.481   0.479  13.782  1.2498  1.3901  1.9392
 7185SOL    HW233192   4.588   0.551  13.712  0.1017  0.0080 -0.9064
 7186SOL     OW33193   4.279   2.366   5.367  0.5404  0.7018  0.0695
 7186SOL    HW133194   4.267   2.272   5.371 -1.0626  0.9467  0.7969
 7186SOL    HW233195   4.206   2.400   5.315 -1.0258 -2.4297  0.2443
 7187SOL     OW33196   3.306   0.086   8.847 -0.5370  0.1229 -0.1048
 7187SOL    HW133197   3.254   0.013   8.813 -1.7826  2.5507 -3.3802
 7187SOL    HW233198   3.285   0.063   8.938  1.0936 -0.4060  0.1417
 7188SOL     OW33199   3.533   3.881   2.278 -0.2649 -0.0585 -0.4872
 7188SOL    HW133200   3.599   3.950   2.281 -0.3974 -0.0432  2.2307
 7188SOL    HW233201   3.572   3.817   2.337 -0.2728  1.7115  1.4119
 7189SOL     OW33202   3.539   2.049   0.589  0.6732  0.3130  0.0209
 7189SOL    HW133203   3.475   2.052   0.660  1.3711  1.1296  0.6195
 7189SOL    HW233204   3.523   1.957   0.570  0.4362  0.5344 -0.8656
 7190SOL     OW33205   2.962   0.143   4.109 -0.7773  0.3074 -0.5785
 7190SOL    HW133206   2.911   0.069   4.143  0.0067  0.0457  0.0480
 7190SOL    HW233207   3.051   0.107   4.118 -0.1704  2.5267  2.1561
 7191SOL     OW33208   0.681   2.465   8.950  0.3331  0.2722 -0.0515
 7191SOL    HW133209   0.617   2.400   8.920  0.7136 -0.0399 -0.2018
 7191SOL    HW233210   0.730   2.468   8.868 -0.8262  0.8743 -0.7145
 7192SOL     OW33211   0.705   3.212   0.969  0.0842 -0.4711 -0.2314
 7192SOL    HW133212   0.750   3.134   1.001  2.7871  0.5454 -1.4642
 7192SOL    HW233213   0.698   3.198   0.875 -0.3287  0.4126 -0.3317
 7193SOL     OW33214   0.339   2.016   5.011 -0.2160  0.0241 -0.3544
 7193SOL    HW133215   0.422   2.057   5.033  0.1604 -0.9417  0.0419
 7193SOL    HW233216   0.330   1.964   5.091  0.2783 -0.3400 -0.5384
 7194SOL     OW33217   1.273   4.579   5.439 -0.1929 -0.1240  0.0169
 7194SOL    HW133218   1.328   4.515   5.393  0.3066 -0.8474  1.6049
 7194SOL    HW233219   1.219   4.596   5.362  1.1636  1.6229 -0.5511
 7195SOL     OW33220   0.205   1.417   3.192 -0.6668 -0.0982 -0.4083
 7195SOL    HW133221   0.247   1.498   3.220 -0.0785 -0.7831  0.6731
 7195SOL    HW233222   0.197   1.438   3.099  0.4732 -2.6926 -1.0802
 7196SOL     OW33223   4.729   2.518   7.735 -0.1985 -0.2964  0.5208
 7196SOL    HW133224   4.641   2.534   7.702 -0.2856 -0.8570  0.4908
 7196SOL    HW233225   4.699   2.456   7.801 -0.1376 -0.9831 -0.0994
 7197SOL     OW33226   2.687   2.469   6.035  0.4579 -0.3931  0.1803
 7197SOL    HW133227   2.771   2.435   6.068  0.0705 -0.8541  0.6866
 7197SOL    HW233228   2.692   2.442   5.944  2.2568 -1.5210  0.6000
 7198SOL     OW33229   0.095   2.652   7.500 -0.0138 -0.2689 -0.0394
 7198SOL    HW133230   0.063   2.731   7.543  1.2224  1.0166 -1.5168
 7198SOL    HW233231   0.057   2.589   7.562  0.7486 -2.0315 -1.3623
 7199SOL     OW33232   4.404   2.165   4.900  0.1041  0.1007  0.2009
 7199SOL    HW133233   4.366   2.081   4.874 -1.9300  0.9000  0.5924
 7199SOL    HW233234   4.350   2.224   4.847  0.8383  1.3091  0.7788
 7200SOL     OW33235   2.696   1.399   7.259 -0.6308  0.2558  0.1929
 7200SOL    HW133236   2.786   1.383   7.289 -0.4178  2.7653  0.9164
 7200SOL    HW233237   2.692   1.494   7.269  1.9083  0.4349 -0.3383
 7201SOL     OW33238   1.420   0.356   5.717 -0.1165 -0.0476  0.2854
 7201SOL    HW133239   1.488   0.289   5.724  0.7559  0.7836 -0.2276
 7201SOL    HW233240   1.347   0.297   5.701  0.5030 -1.4609  2.6128
 7202SOL     OW33241   3.773   0.748   6.071 -0.0895  0.4522  0.0967
 7202SOL    HW133242   3.789   0.776   5.981  2.2897  4.0118  1.6655
 7202SOL    HW233243   3.850   0.700   6.101 -1.1677 -0.9456  0.6121
 7203SOL     OW33244   3.088   1.526  14.342  0.1599  0.0326 -0.3571
 7203SOL    HW133245   3.116   1.618  14.333  2.6427 -0.9276 -2.5390
 7203SOL    HW233246   3.004   1.544  14.385 -0.5341  1.1904 -2.2054
 7204SOL     OW33247   1.627   1.173   2.184  0.0576  0.2244 -0.1537
 7204SOL    HW133248   1.609   1.119   2.261 -0.1227 -0.0757 -0.4035
 7204SOL    HW233249   1.688   1.117   2.136 -0.2244  0.1260 -0.4020
 7205SOL     OW33250   2.104   3.139  13.360 -0.0383  0.4036 -0.0374
 7205SOL    HW133251   2.197   3.117  13.364 -0.6245 -1.6499  2.6971
 7205SOL    HW233252   2.086   3.104  13.448 -0.8111 -2.2535 -1.2550
 7206SOL     OW33253   1.563   0.168   2.711  0.3712 -0.1963 -0.3727
 7206SOL    HW133254   1.652   0.133   2.712  0.9085  1.1270 -0.6964
 7206SOL    HW233255   1.511   0.094   2.741  1.2611 -1.0940 -1.0571
 7207SOL     OW33256   0.374   4.706   8.914  0.3308  0.4578  0.2187
 7207SOL    HW133257   0.368   4.724   9.008  0.4785 -2.0906  0.7008
 7207SOL    HW233258   0.437   4.634   8.907 -0.2891 -0.1653  1.0717
 7208SOL     OW33259   4.381   1.992   7.213 -0.5528 -0.0098  0.0745
 7208SOL    HW133260   4.361   1.959   7.125 -2.1200 -0.1377  0.4914
 7208SOL    HW233261   4.477   1.989   7.206 -0.5155 -1.6442  1.3377
 7209SOL     OW33262   4.693   1.004   5.542  0.2480  0.6119  0.0980
 7209SOL    HW133263   4.633   0.941   5.582  1.5353 -0.1651  0.8073
 7209SOL    HW233264   4.644   1.087   5.546  0.8029  0.8741  1.4218
 7210SOL     OW33265   3.731   0.225  17.227  0.3073  0.2719 -0.6516
 7210SOL    HW133266   3.681   0.202  17.305  2.0812 -1.8807 -0.1360
 7210SOL    HW233267   3.688   0.177  17.156 -1.8212  1.6448 -0.2792
 7211SOL     OW33268   1.546   0.113   8.901 -0.5706 -0.0043 -0.5633
 7211SOL    HW133269   1.620   0.056   8.920  0.0082  0.7180 -0.6647
 7211SOL    HW233270   1.572   0.174   8.832 -2.0391 -0.8427 -1.8651
 7212SOL     OW33271   4.288   3.216  13.896  0.0799 -0.2299  0.1738
 7212SOL    HW133272   4.356   3.282  13.886 -0.5487 -0.1199 -3.1131
 7212SOL    HW233273   4.345   3.147  13.930 -1.2675 -1.1140  0.6557
 7213SOL     OW33274   2.899   2.997   7.406  0.5963 -0.1509 -0.4954
 7213SOL    HW133275   2.931   3.082   7.436 -1.8429  0.8073 -0.5987
 7213SOL    HW233276   2.813   3.022   7.373  0.0760 -1.3182 -0.0327
 7214SOL     OW33277   3.280   1.396   5.326 -0.2292  0.5456  0.0478
 7214SOL    HW133278   3.185   1.406   5.325 -0.2745  0.2671  2.6055
 7214SOL    HW233279   3.312   1.480   5.292  0.6067 -0.4053 -1.5596
 7215SOL     OW33280   4.571   3.400   8.684  0.4206 -0.4998 -0.0569
 7215SOL    HW133281   4.538   3.325   8.733 -0.1116  0.4148  0.9837
 7215SOL    HW233282   4.654   3.368   8.648  0.8808 -0.7889  1.2369
 7216SOL     OW33283   1.731   4.162   9.781 -0.7565  0.2098  0.0878
 7216SOL    HW133284   1.666   4.172   9.711 -2.2863  2.5249  1.8368
 7216SOL    HW233285   1.679   4.144   9.859 -1.0767 -1.7649 -0.5826
 7217SOL     OW33286   2.952   4.092   3.263 -0.3204 -0.9075  0.3206
 7217SOL    HW133287   2.896   4.084   3.186 -1.6032  1.8095  0.9851
 7217SOL    HW233288   2.933   4.012   3.312 -1.5730 -1.1270 -0.5088
 7218SOL     OW33289   4.613   3.625   8.817 -0.1159  0.6167  0.1315
 7218SOL    HW133290   4.608   3.589   8.906 -1.7858  1.2263  0.2828
 7218SOL    HW233291   4.606   3.553   8.755  1.0603  0.1118  0.5740
 7219SOL     OW33292   4.478   3.990   1.597 -0.1898 -0.4808 -0.8867
 7219SOL    HW133293   4.529   3.985   1.678  1.8572  1.1699 -2.0308
 7219SOL    HW233294   4.400   3.974   1.649  0.1480 -0.0128 -0.2271
 7220SOL     OW33295   2.295   4.007   3.530  0.0788 -0.4601  0.6335
 7220SOL    HW133296   2.287   4.030   3.438 -2.9284 -0.8858  0.7791
 7220SOL    HW233297   2.242   4.075   3.571 -2.0954 -1.2100 -0.9378
 7221SOL     OW33298   1.541   1.494   6.902 -0.0357  0.2153  0.2386
 7221SOL    HW133299   1.548   1.584   6.932  1.0840  1.0996 -2.7116
 7221SOL    HW233300   1.554   1.506   6.808 -0.6648 -1.7556 -0.1093
 7222SOL     OW33301   2.701   1.014   7.519 -0.1634  0.3895 -0.0613
 7222SOL    HW133302   2.692   0.977   7.432  1.2566 -1.7874  0.7099
 7222SOL    HW233303   2.764   1.085   7.511 -1.9294  1.8496 -1.0099
 7223SOL     OW33304   1.574   2.234   6.888 -0.0464  0.5246  0.3076
 7223SOL    HW133305   1.491   2.192   6.909  0.6704 -1.1268 -0.1706
 7223SOL    HW233306   1.538   2.323   6.888  0.9652  0.9365  1.2390
 7224SOL     OW33307   3.037   1.618   1.713 -0.8041  1.0194 -0.1625
 7224SOL    HW133308   3.002   1.537   1.674  0.6862 -0.2909  1.2292
 7224SOL    HW233309   2.977   1.630   1.787  1.6713 -0.8606  2.1304
 7225SOL     OW33310   3.214   4.737  11.159 -0.4920 -0.9276  0.1127
 7225SOL    HW133311   3.138   0.055  11.178 -1.0579 -1.7091  0.1785
 7225SOL    HW233312   3.284   0.063  11.156 -0.8525 -0.5582 -0.3724
 7226SOL     OW33313   2.240   1.484   4.913  0.0804 -0.1058 -1.0790
 7226SOL    HW133314   2.314   1.535   4.880 -0.9439  1.8196 -0.3965
 7226SOL    HW233315   2.177   1.537   4.962 -1.0825 -1.3406 -1.2635
 7227SOL     OW33316   2.114   2.308   3.137  0.0895 -0.1045  0.2430
 7227SOL    HW133317   2.120   2.338   3.046 -2.4732 -3.3179 -0.9624
 7227SOL    HW233318   2.167   2.375   3.180 -0.1681 -0.3466  0.9263
 7228SOL     OW33319   3.215   2.367   7.187  0.7389 -0.5351  0.9543
 7228SOL    HW133320   3.143   2.429   7.186  1.5582  0.4327  1.0675
 7228SOL    HW233321   3.249   2.390   7.101 -2.0684  1.6784  0.4572
 7229SOL     OW33322   1.250   0.104   8.637  0.6102  0.5772 -0.0187
 7229SOL    HW133323   1.281   0.191   8.661  0.9815  0.6765 -0.8390
 7229SOL    HW233324   1.158   0.124   8.620  0.0516 -2.3008 -0.4978
 7230SOL     OW33325   4.281   2.581   7.159 -0.0689  0.2338  0.3608
 7230SOL    HW133326   4.368   2.544   7.147  1.1612  3.7352 -1.4056
 7230SOL    HW233327   4.291   2.648   7.227 -2.8370 -0.4656  1.4678
 7231SOL     OW33328   1.110   1.111   2.773  0.2633  0.2703  0.3744
 7231SOL    HW133329   1.066   1.056   2.708  1.1019 -0.9400  0.8461
 7231SOL    HW233330   1.075   1.081   2.857  0.6322 -2.7392 -0.5435
 7232SOL     OW33331   2.623   4.470   4.804  0.0189  0.4319  0.1290
 7232SOL    HW133332   2.588   4.501   4.887 -0.8514  0.3803 -0.2127
 7232SOL    HW233333   2.606   4.376   4.812 -1.8778  0.8418  0.9042
 7233SOL     OW33334   1.088   1.174   5.714 -0.0734  0.4649 -0.0974
 7233SOL    HW133335   1.056   1.181   5.624 -2.5557  0.6141  0.8125
 7233SOL    HW233336   1.107   1.081   5.726  0.8632  0.6978  0.2685
 7234SOL     OW33337   2.603   4.559   5.311  0.2256  0.3291 -0.0762
 7234SOL    HW133338   2.689   4.523   5.336  0.2094  2.2428  2.7958
 7234SOL    HW233339   2.592   4.608   5.392  1.4298 -0.2987  0.4761
 7235SOL     OW33340   2.960   3.387   6.380 -0.0727 -1.1477 -0.3630
 7235SOL    HW133341   2.934   3.442   6.455  0.0531 -2.4689  0.6437
 7235SOL    HW233342   3.012   3.321   6.426  1.7014  0.1755 -0.4315
 7236SOL     OW33343   1.618   2.736   5.434 -0.5802 -0.4238  0.1345
 7236SOL    HW133344   1.579   2.680   5.501 -3.2974 -0.4179 -1.4847
 7236SOL    HW233345   1.685   2.783   5.484 -0.1896  0.8021 -1.5354
 7237SOL     OW33346   3.810   2.266  16.936  0.2965 -0.2328 -0.2139
 7237SOL    HW133347   3.802   2.317  17.016 -0.5976  1.7426 -1.5832
 7237SOL    HW233348   3.749   2.305  16.874 -1.2135 -2.2731  0.0015
 7238SOL     OW33349   4.509   0.375   4.858 -0.3829 -0.2522 -0.0991
 7238SOL    HW133350   4.526   0.415   4.773 -0.0399  1.8544  0.9410
 7238SOL    HW233351   4.427   0.411   4.891  0.3388 -0.5276  1.9955
 7239SOL     OW33352   1.977   2.880  17.531  0.7244  0.0480  0.2864
 7239SOL    HW133353   1.916   2.872  17.605 -0.4525  3.6078 -0.2609
 7239SOL    HW233354   1.913   2.885  17.461 -0.6834  2.6543  1.7304
 7240SOL     OW33355   2.592   0.802   0.258 -0.4831  0.1034  0.6780
 7240SOL    HW133356   2.672   0.829   0.214  0.6727 -3.3891  0.6324
 7240SOL    HW233357   2.588   0.874   0.321 -0.1744  0.2656  0.5098
 7241SOL     OW33358   2.974   0.257   5.241 -0.0241  0.3338  0.0713
 7241SOL    HW133359   2.895   0.270   5.293 -1.0132 -0.4028 -1.2491
 7241SOL    HW233360   3.026   0.227   5.316  0.3602  0.8022 -0.0070
 7242SOL     OW33361   0.075   0.184  10.573  0.1649 -0.4101  0.3933
 7242SOL    HW133362   0.013   0.111  10.567 -1.6209  1.2117 -0.7396
 7242SOL    HW233363   0.152   0.145  10.615 -0.3623 -1.1343  0.6901
 7243SOL     OW33364   1.677   0.155   1.225  0.3367 -0.5225 -0.5985
 7243SOL    HW133365   1.633   0.165   1.309  0.5462  0.0899 -0.5657
 7243SOL    HW233366   1.708   0.065   1.212 -1.2844 -0.6732 -3.3825
 7244SOL     OW33367   3.900   4.250   7.776 -0.4039 -0.2319 -0.0150
 7244SOL    HW133368   3.963   4.202   7.830  0.2182  3.6869  2.7383
 7244SOL    HW233369   3.912   4.338   7.812 -1.6695  0.3703 -1.0766
 7245SOL     OW33370   2.173   0.022   6.131  0.2162 -0.1534  0.2126
 7245SOL    HW133371   2.169   0.038   6.225  1.2335 -1.1682  0.4192
 7245SOL    HW233372   2.153   0.112   6.103 -1.3830 -0.8586 -0.9098
 7246SOL     OW33373   1.589   0.535   3.182 -0.1606 -0.2977 -0.0700
 7246SOL    HW133374   1.530   0.560   3.253  0.2558 -0.1450  0.2238
 7246SOL    HW233375   1.626   0.461   3.231  1.1137  0.3526 -0.0519
 7247SOL     OW33376   1.955   2.438   4.846 -0.1275  0.3640 -0.0515
 7247SOL    HW133377   1.889   2.472   4.906 -1.6001  0.3192 -1.6464
 7247SOL    HW233378   1.950   2.500   4.773 -0.6873 -0.5967 -0.8321
 7248SOL     OW33379   3.522   2.530   8.316  0.1678  0.1607 -0.2381
 7248SOL    HW133380   3.560   2.618   8.323 -0.9702  0.7169 -1.1216
 7248SOL    HW233381   3.586   2.478   8.268 -1.6828 -1.5841 -0.7723
 7249SOL     OW33382   2.794   0.608   5.305  0.0366  0.0666 -0.0634
 7249SOL    HW133383   2.839   0.648   5.379  2.9163  0.4819 -2.0216
 7249SOL    HW233384   2.867   0.615   5.243  0.6103  1.5272  0.7960
 7250SOL     OW33385   2.933   1.783   4.528  0.0382 -0.3490 -0.1304
 7250SOL    HW133386   2.904   1.796   4.619  2.4316  0.1241  0.5859
 7250SOL    HW233387   2.942   1.688   4.522  1.2559 -0.2053 -0.6207
 7251SOL     OW33388   3.281   3.540  13.276 -0.1053 -0.1908 -0.2429
 7251SOL    HW133389   3.373   3.514  13.278  0.2807  1.2498  0.9005
 7251SOL    HW233390   3.246   3.466  13.227 -0.1003  0.5385 -1.3490
 7252SOL     OW33391   1.756   0.815   2.643 -0.1966  0.3253 -0.8441
 7252SOL    HW133392   1.676   0.863   2.665 -0.6376 -0.7807  0.0013
 7252SOL    HW233393   1.793   0.795   2.730 -1.9050  0.8002 -0.0133
 7253SOL     OW33394   2.329   1.034   5.249  0.5127 -0.6730  0.3078
 7253SOL    HW133395   2.265   1.105   5.245  1.5483  0.2726  0.4839
 7253SOL    HW233396   2.294   0.990   5.327  0.1284 -2.9706 -1.1745
 7254SOL     OW33397   0.476   4.335  15.664  0.1052 -0.6944  0.4862
 7254SOL    HW133398   0.563   4.373  15.677  0.4928 -1.9308  1.4512
 7254SOL    HW233399   0.440   4.389  15.593  0.8624  0.8946  1.3059
 7255SOL     OW33400   0.051   4.152   5.652  0.0938 -0.0797 -0.4135
 7255SOL    HW133401   0.040   4.157   5.747 -0.2564 -1.3088 -0.3968
 7255SOL    HW233402   0.039   4.242   5.620  0.5775  0.4507  0.8823
 7256SOL     OW33403   2.193   0.755  10.396  0.3649 -0.0043  0.2307
 7256SOL    HW133404   2.195   0.798  10.482  0.9653  0.5328 -0.0541
 7256SOL    HW233405   2.180   0.663  10.421  0.2731  0.1125  0.6076
 7257SOL     OW33406   4.422   4.732  15.656  0.2914  0.5134  0.0515
 7257SOL    HW133407   4.478   0.012  15.580  0.5730  1.6466  0.5287
 7257SOL    HW233408   4.386   4.647  15.631 -0.0132 -0.0439  2.4185
 7258SOL     OW33409   0.640   0.553   3.691  0.6845  0.0753 -0.8539
 7258SOL    HW133410   0.618   0.608   3.766 -1.2423  1.3999 -2.3844
 7258SOL    HW233411   0.653   0.615   3.619  2.3227 -0.6444 -1.1671
 7259SOL     OW33412   2.841   3.674   9.063  0.0996  0.4272  0.3916
 7259SOL    HW133413   2.904   3.722   9.117  0.4498  3.0975 -2.3857
 7259SOL    HW233414   2.826   3.605   9.128 -0.1546 -0.2566 -0.3888
 7260SOL     OW33415   1.391   4.524  15.906 -0.0209 -0.0755 -0.0096
 7260SOL    HW133416   1.387   4.451  15.844  0.3639  1.5724 -1.9661
 7260SOL    HW233417   1.305   4.563  15.889 -0.4909 -0.8516  0.5972
 7261SOL     OW33418   3.877   1.320  10.275  0.6312  1.0035 -0.1113
 7261SOL    HW133419   3.873   1.400  10.222  2.0337  0.0033 -1.7025
 7261SOL    HW233420   3.913   1.262  10.208  0.2072 -0.5127  0.9721
 7262SOL     OW33421   3.717   2.717   8.646  0.4820  0.2037  0.3795
 7262SOL    HW133422   3.675   2.758   8.721 -0.7287  0.6666 -0.5430
 7262SOL    HW233423   3.636   2.712   8.594  0.9760  1.8116 -0.5383
 7263SOL     OW33424   3.329   1.670   5.214 -0.7586  0.2831  0.1273
 7263SOL    HW133425   3.290   1.721   5.286 -1.1745  1.1277 -0.6938
 7263SOL    HW233426   3.326   1.733   5.143  0.7894  1.4794  1.1199
 7264SOL     OW33427   1.881   1.133  13.307  0.4573 -0.0706  0.1739
 7264SOL    HW133428   1.793   1.147  13.341  0.0689 -0.2684 -0.7690
 7264SOL    HW233429   1.931   1.207  13.341 -0.5823 -0.0616  1.6995
 7265SOL     OW33430   0.598   4.091   0.184 -0.1235 -0.1908 -0.4597
 7265SOL    HW133431   0.538   4.148   0.231 -1.4762 -3.3835  1.6975
 7265SOL    HW233432   0.538   4.022   0.154 -0.6667 -0.3086  0.8982
 7266SOL     OW33433   0.630   4.416   4.287 -0.5115  0.1675 -0.0927
 7266SOL    HW133434   0.592   4.458   4.364  0.1739 -1.7557  1.2837
 7266SOL    HW233435   0.660   4.334   4.325 -4.0697 -0.7698  0.6817
 7267SOL     OW33436   0.310   3.708   7.640 -0.1358 -0.0179  0.0515
 7267SOL    HW133437   0.386   3.738   7.590 -2.7683  2.0678 -2.7039
 7267SOL    HW233438   0.358   3.645   7.695  1.3380 -1.5968 -2.9838
 7268SOL     OW33439   4.541   0.103  14.106 -0.2939 -0.3826  0.2084
 7268SOL    HW133440   4.491   0.093  14.025 -0.7284  2.0521  0.1761
 7268SOL    HW233441   4.525   0.191  14.140 -2.6605 -0.9952  0.6553
 7269SOL     OW33442   3.469   2.607   5.861  0.0402 -0.2301 -0.9596
 7269SOL    HW133443   3.477   2.513   5.880 -2.1945 -0.0980  0.5461
 7269SOL    HW233444   3.391   2.628   5.912  0.6028  0.0838 -0.2276
 7270SOL     OW33445   2.377   2.143   0.316 -0.6155 -0.1834 -0.1330
 7270SOL    HW133446   2.419   2.092   0.386  2.4398  0.8037 -1.2342
 7270SOL    HW233447   2.347   2.076   0.255 -1.0177 -0.9819  0.9360
 7271SOL     OW33448   0.299   4.423   4.667 -0.0129  0.4720 -0.3988
 7271SOL    HW133449   0.217   4.415   4.618 -2.1015  0.5926  3.0922
 7271SOL    HW233450   0.319   4.329   4.676  0.5156  0.6560  0.3576
 7272SOL     OW33451   2.695   4.494   2.841 -0.0962 -0.0451  0.3630
 7272SOL    HW133452   2.613   4.500   2.792  1.1336  0.8101 -1.5642
 7272SOL    HW233453   2.715   4.585   2.864  0.8391 -0.5309  1.5000
 7273SOL     OW33454   2.598   3.213   6.039 -0.2059 -0.2879 -0.1888
 7273SOL    HW133455   2.645   3.292   6.012 -1.3539  0.9966  1.5736
 7273SOL    HW233456   2.587   3.230   6.133 -1.0647  0.1581 -0.3732
 7274SOL     OW33457   3.662   2.752   7.768  0.5109 -0.1202 -1.0238
 7274SOL    HW133458   3.575   2.787   7.787  0.7479 -0.0912 -0.0082
 7274SOL    HW233459   3.699   2.837   7.741  0.2406  1.0845  2.3628
 7275SOL     OW33460   2.093   2.535   9.797 -0.2278 -0.3547  0.1102
 7275SOL    HW133461   2.019   2.476   9.806 -0.9822  0.0382 -3.4392
 7275SOL    HW233462   2.165   2.476   9.777 -0.5231 -0.5148 -0.4689
 7276SOL     OW33463   0.858   2.456   8.745  0.8036  0.1457  0.6714
 7276SOL    HW133464   0.925   2.469   8.812 -1.2064 -1.1092  2.9397
 7276SOL    HW233465   0.864   2.369   8.705 -3.3713  0.4929 -0.7613
 7277SOL     OW33466   0.792   4.676   1.635 -0.3119 -0.3836 -0.5077
 7277SOL    HW133467   0.859   4.690   1.569  0.1496 -0.8849 -0.1428
 7277SOL    HW233468   0.841   4.616   1.691 -1.1463 -0.8034 -0.2304
 7278SOL     OW33469   1.507   1.552   4.268  0.3306 -0.5759  0.4633
 7278SOL    HW133470   1.437   1.602   4.309 -0.9604 -2.2812  0.3743
 7278SOL    HW233471   1.573   1.619   4.254  0.1240 -0.5329 -0.3141
 7279SOL     OW33472   1.588   4.310   7.696 -0.2213  0.0408  0.0043
 7279SOL    HW133473   1.630   4.282   7.777 -0.8575 -0.7357  0.0627
 7279SOL    HW233474   1.623   4.247   7.633  0.5151  0.8491 -0.3948
 7280SOL     OW33475   1.795   3.138  13.560 -0.3845 -0.1721 -0.3400
 7280SOL    HW133476   1.782   3.131  13.465  1.3571  0.8053 -0.6359
 7280SOL    HW233477   1.702   3.131  13.583 -0.4704  1.1353 -0.3201
 7281SOL     OW33478   1.835   2.943  16.874 -0.0984  0.1829  0.1370
 7281SOL    HW133479   1.802   2.960  16.962 -0.5525  0.1880 -0.0361
 7281SOL    HW233480   1.918   2.914  16.911 -0.7790 -2.3263 -0.2844
 7282SOL     OW33481   0.854   0.561   1.688 -0.5366 -0.5034 -0.3168
 7282SOL    HW133482   0.908   0.640   1.689 -0.3449 -0.6246 -1.7372
 7282SOL    HW233483   0.854   0.532   1.780 -3.0174 -0.1220 -0.2126
 7283SOL     OW33484   2.950   2.255   4.482 -0.7578 -0.3188 -0.0819
 7283SOL    HW133485   3.038   2.292   4.487 -0.3069 -1.2565 -1.3322
 7283SOL    HW233486   2.907   2.297   4.557  1.1608  1.2758  0.1138
 7284SOL     OW33487   1.288   2.755   2.345 -0.1740  0.2244 -0.0098
 7284SOL    HW133488   1.343   2.752   2.423 -1.4095 -3.0504  0.7408
 7284SOL    HW233489   1.215   2.802   2.387 -0.2164 -0.2312  0.4300
 7285SOL     OW33490   0.355   3.711   8.502 -0.4321  0.0682 -0.2652
 7285SOL    HW133491   0.317   3.634   8.461  0.6639  0.1684 -1.4664
 7285SOL    HW233492   0.375   3.678   8.590 -0.0874 -0.5711 -0.5945
 7286SOL     OW33493   0.503   1.178   3.781 -0.2399  0.0040  0.0384
 7286SOL    HW133494   0.527   1.242   3.848 -2.0417 -0.2538  0.9188
 7286SOL    HW233495   0.415   1.152   3.807 -0.3804  1.0581  0.6233
 7287SOL     OW33496   1.614   2.724   7.029 -0.0583 -0.1885  0.1171
 7287SOL    HW133497   1.622   2.691   7.119  1.0332  1.1375  0.4960
 7287SOL    HW233498   1.662   2.807   7.027  1.8532 -1.3155 -0.1410
 7288SOL     OW33499   1.714   0.863  16.689  0.0326 -0.3366 -0.0644
 7288SOL    HW133500   1.807   0.882  16.675 -0.0070 -0.6538 -0.7632
 7288SOL    HW233501   1.695   0.896  16.777 -1.8957 -2.2076  0.2252
 7289SOL     OW33502   1.725   3.537   5.782  0.1558 -0.5313 -0.3942
 7289SOL    HW133503   1.804   3.539   5.728 -0.6745 -0.8641 -1.6158
 7289SOL    HW233504   1.663   3.536   5.709 -0.0464 -1.5915 -0.2107
 7290SOL     OW33505   2.086   3.391   1.341 -0.2660  0.0395 -0.1964
 7290SOL    HW133506   2.159   3.446   1.313 -0.8231  0.9242  0.0863
 7290SOL    HW233507   2.102   3.381   1.435  0.8419  1.2766 -0.2454
 7291SOL     OW33508   1.316   0.282  17.651 -0.2920  0.1221 -0.5455
 7291SOL    HW133509   1.240   0.263  17.595 -0.4607  2.5359 -1.1635
 7291SOL    HW233510   1.335   0.370  17.617  0.2395 -0.2228 -1.1514
 7292SOL     OW33511   1.513   2.177   7.392  0.8149 -0.2760 -0.2768
 7292SOL    HW133512   1.501   2.192   7.486  0.1326 -2.2357 -0.0478
 7292SOL    HW233513   1.589   2.120   7.403 -0.5497 -1.8880  0.8459
 7293SOL     OW33514   0.641   1.789   3.901  0.4493  0.2796  0.2072
 7293SOL    HW133515   0.683   1.734   3.967 -1.6268  0.1156  1.3828
 7293SOL    HW233516   0.549   1.767   3.915 -0.2185  2.1466 -1.1588
 7294SOL     OW33517   4.437   3.451   3.348  0.2268  0.0500  0.1959
 7294SOL    HW133518   4.370   3.386   3.330 -1.0462  1.1497  0.9606
 7294SOL    HW233519   4.466   3.404   3.426  0.1295 -1.9590 -0.9822
 7295SOL     OW33520   3.131   3.160   3.641 -0.1110  0.6087  0.4055
 7295SOL    HW133521   3.160   3.074   3.613 -4.2917 -0.8997  0.7684
 7295SOL    HW233522   3.213   3.207   3.657 -0.2358  0.8905  0.2180
 7296SOL     OW33523   0.689   2.668   0.966  0.3318 -0.0560  0.5411
 7296SOL    HW133524   0.650   2.620   1.040 -3.6269  1.5729 -0.5159
 7296SOL    HW233525   0.642   2.750   0.960 -1.7704 -1.5170 -2.7941
 7297SOL     OW33526   1.632   1.247   3.817  0.7374  0.4827 -0.0206
 7297SOL    HW133527   1.661   1.161   3.787  0.0992 -0.2909  1.5823
 7297SOL    HW233528   1.610   1.218   3.905  0.5319  0.1481 -0.1806
 7298SOL     OW33529   1.963   3.198  16.979  0.0893  0.0952 -0.2227
 7298SOL    HW133530   1.922   3.215  16.894 -1.7815  0.5131  0.7577
 7298SOL    HW233531   2.058   3.201  16.968  0.1867 -2.5588 -0.1019
 7299SOL     OW33532   2.902   1.943  11.116 -1.0590 -0.0492  0.1112
 7299SOL    HW133533   2.865   1.890  11.046  2.0577 -2.0805  0.0407
 7299SOL    HW233534   2.990   1.961  11.082 -0.8987  1.1932  1.1698
 7300SOL     OW33535   0.902   3.696  12.499  1.1954  0.2445 -0.5401
 7300SOL    HW133536   0.835   3.671  12.562  0.4643  0.9825 -1.0037
 7300SOL    HW233537   0.862   3.781  12.480  1.6780  0.3848 -0.9297
 7301SOL     OW33538   2.169   2.642  14.913 -0.2109  0.5659  0.8578
 7301SOL    HW133539   2.095   2.594  14.876 -0.1204 -1.3033  3.1262
 7301SOL    HW233540   2.132   2.650  15.001 -0.3226  0.4389  0.8209
 7302SOL     OW33541   1.085   3.274  10.082 -0.2152  0.1842 -0.3198
 7302SOL    HW133542   1.062   3.362  10.052 -0.5871  0.5380  0.9992
 7302SOL    HW233543   1.180   3.280  10.067 -0.1547 -0.3627 -0.1499
 7303SOL     OW33544   2.256   4.005   2.992 -0.5650  0.0999  0.2130
 7303SOL    HW133545   2.339   4.025   2.950 -1.4511  0.0852 -1.5432
 7303SOL    HW233546   2.193   4.039   2.929 -1.4715 -0.0395  1.0430
 7304SOL     OW33547   2.838   0.462   2.943 -0.0973  0.3176  0.1888
 7304SOL    HW133548   2.793   0.421   2.869  1.4107  0.4578 -0.8004
 7304SOL    HW233549   2.879   0.385   2.983  3.2222  1.0799 -1.7315
 7305SOL     OW33550   1.061   3.114   4.404 -0.0745  0.1842  0.1062
 7305SOL    HW133551   1.115   3.072   4.336 -0.6567 -0.7075  0.2008
 7305SOL    HW233552   1.006   3.041   4.431  0.0569 -0.2034 -0.6690
 7306SOL     OW33553   4.271   2.641  12.545  0.0370  0.3648  0.3641
 7306SOL    HW133554   4.324   2.566  12.571 -0.4361 -0.1982 -0.3162
 7306SOL    HW233555   4.294   2.655  12.453  0.0413  0.5847  0.3984
 7307SOL     OW33556   2.158   2.369   3.873  0.4583 -0.2882 -0.2143
 7307SOL    HW133557   2.227   2.389   3.810 -0.0183  0.8834 -0.3752
 7307SOL    HW233558   2.203   2.344   3.954 -0.3354 -0.3372  0.2096
 7308SOL     OW33559   1.748   1.935   1.496  0.1383 -0.0010  0.9228
 7308SOL    HW133560   1.669   1.885   1.477 -1.1942  2.6210 -0.4597
 7308SOL    HW233561   1.703   2.019   1.505  0.6475  0.3646  0.1133
 7309SOL     OW33562   2.421   1.018   4.691  0.0869 -0.3300  0.3007
 7309SOL    HW133563   2.486   1.088   4.685 -0.5169  0.2584  0.5717
 7309SOL    HW233564   2.447   0.963   4.765 -0.1254  0.7263  1.1660
 7310SOL     OW33565   4.708   2.667  11.179  0.3514 -0.0811  0.7677
 7310SOL    HW133566   4.717   2.593  11.120 -1.5211  0.5786 -0.3247
 7310SOL    HW233567   0.008   2.740  11.130 -0.0149 -0.7175 -0.4630
 7311SOL     OW33568   3.212   3.949   5.997 -0.0472 -0.0228  0.7998
 7311SOL    HW133569   3.139   4.007   5.980  1.2138  1.4492  0.4255
 7311SOL    HW233570   3.286   4.010   6.000 -1.1560  1.5037 -3.2894
 7312SOL     OW33571   4.379   0.759   4.765  0.2224 -0.7019  0.1168
 7312SOL    HW133572   4.298   0.766   4.817 -0.1384  0.5912 -0.6402
 7312SOL    HW233573   4.443   0.764   4.836  0.8493  0.2577 -0.5226
 7313SOL     OW33574   3.090   0.564   4.739  0.0995 -0.3697  0.4144
 7313SOL    HW133575   2.995   0.578   4.735  0.0843 -1.2635 -2.2884
 7313SOL    HW233576   3.101   0.495   4.804 -1.2051 -1.3684 -0.4274
 7314SOL     OW33577   4.120   2.424   4.183 -0.2348  0.3158 -0.4109
 7314SOL    HW133578   4.195   2.454   4.132  1.1113 -0.0540  1.3424
 7314SOL    HW233579   4.128   2.481   4.260  0.0269 -0.3816  0.0747
 7315SOL     OW33580   3.378   2.778   3.934  0.0171  0.3361 -0.7915
 7315SOL    HW133581   3.285   2.757   3.941  0.6113 -2.0781 -0.2051
 7315SOL    HW233582   3.404   2.755   3.845  2.8859  1.7139 -0.3081
 7316SOL     OW33583   1.939   1.951   2.198 -0.4010 -0.5638 -0.0537
 7316SOL    HW133584   1.861   1.962   2.143  1.1001  1.2284 -1.8580
 7316SOL    HW233585   1.997   1.960   2.122 -0.6255  2.3482  0.1395
 7317SOL     OW33586   2.068   1.688  17.684 -0.2543 -1.0913 -0.1913
 7317SOL    HW133587   2.130   1.615  17.679  0.5845 -0.2684 -1.6884
 7317SOL    HW233588   2.035   1.693  17.595 -1.2729 -1.5264  0.1697
 7318SOL     OW33589   0.054   0.622   4.083  0.4686  0.0855  0.1832
 7318SOL    HW133590   0.044   0.611   3.988  1.4325  2.3545 -0.1840
 7318SOL    HW233591   0.057   0.717   4.078 -0.3822  0.2052  2.0568
 7319SOL     OW33592   1.686   4.142   2.222 -0.1471 -1.0057  0.5402
 7319SOL    HW133593   1.671   4.126   2.129 -2.5579  1.2768  0.5490
 7319SOL    HW233594   1.767   4.194   2.223 -0.8744  0.2501 -3.4029
 7320SOL     OW33595   4.411   1.648   3.291 -1.1194 -0.0404 -0.0949
 7320SOL    HW133596   4.453   1.566   3.262 -0.0584  0.9662 -1.4059
 7320SOL    HW233597   4.316   1.633   3.298 -0.8109 -1.8471  0.1760
 7321SOL     OW33598   2.243   2.680   7.868 -0.3819  0.5175  0.3527
 7321SOL    HW133599   2.303   2.626   7.817 -2.7122 -0.7702 -1.0182
 7321SOL    HW233600   2.284   2.666   7.954  0.3865  0.5398 -0.0092
 7322SOL     OW33601   3.671   0.231  16.713 -0.0647 -0.2135 -0.0942
 7322SOL    HW133602   3.763   0.213  16.730 -0.6475 -0.9995  2.2442
 7322SOL    HW233603   3.620   0.175  16.771  0.6844 -1.5419 -0.7127
 7323SOL     OW33604   4.258   2.692   0.588  0.0409  0.5142  0.1505
 7323SOL    HW133605   4.165   2.702   0.567 -1.1438 -2.9343  3.5769
 7323SOL    HW233606   4.248   2.648   0.673 -0.9195  0.2755 -0.0812
 7324SOL     OW33607   2.112   3.129   0.095 -0.3135 -0.1518  0.0703
 7324SOL    HW133608   2.178   3.198   0.104 -1.1588  0.6649  0.0829
 7324SOL    HW233609   2.161   3.082   0.028 -1.6676 -1.8887  0.3100
 7325SOL     OW33610   2.931   1.778   9.019 -0.2906  0.7211 -0.5943
 7325SOL    HW133611   2.893   1.734   9.095 -1.5897 -0.7740 -2.1153
 7325SOL    HW233612   3.014   1.809   9.055  0.1707  0.4674 -1.4587
 7326SOL     OW33613   3.454   4.053  13.627  0.1310 -0.0103  0.0463
 7326SOL    HW133614   3.465   3.958  13.635  0.0245 -0.2564 -2.9188
 7326SOL    HW233615   3.436   4.089  13.714  1.4393  1.8123 -0.4377
 7327SOL     OW33616   1.570   3.390   0.359  0.6461  0.1984  0.2763
 7327SOL    HW133617   1.628   3.448   0.408  0.5132  0.1736  0.4611
 7327SOL    HW233618   1.625   3.311   0.368  1.1004  0.4990  0.1661
 7328SOL     OW33619   3.751   2.904   3.643 -0.2807  0.0748 -0.0141
 7328SOL    HW133620   3.814   2.868   3.706  0.4322  1.9622  0.3412
 7328SOL    HW233621   3.713   2.973   3.697 -0.8615 -1.6179  1.7581
 7329SOL     OW33622   3.697   2.127   8.516 -0.4141 -0.3367 -0.2091
 7329SOL    HW133623   3.782   2.142   8.474 -1.6444 -0.9516 -2.9084
 7329SOL    HW233624   3.679   2.221   8.524  0.6688 -0.0641 -0.9253
 7330SOL     OW33625   1.060   3.453   8.234  0.2845 -0.2251  0.7933
 7330SOL    HW133626   0.968   3.431   8.252 -0.4095  0.1976 -2.2066
 7330SOL    HW233627   1.039   3.530   8.181 -0.4410 -1.5811 -0.8601
 7331SOL     OW33628   2.764   3.058   2.668 -0.0528 -0.0194  0.3326
 7331SOL    HW133629   2.800   3.141   2.636  0.0372  0.5256  1.8583
 7331SOL    HW233630   2.792   3.049   2.759  4.5793  1.2263 -0.9602
 7332SOL     OW33631   3.639   2.802   5.918 -0.0462 -0.1929  0.7829
 7332SOL    HW133632   3.568   2.740   5.902  0.6473 -0.5910 -0.6893
 7332SOL    HW233633   3.593   2.886   5.910  0.3162 -0.1967 -1.4183
 7333SOL     OW33634   3.305   1.858   4.626 -0.4345  0.1543  0.3684
 7333SOL    HW133635   3.233   1.921   4.632  0.4188  1.1390  0.3668
 7333SOL    HW233636   3.257   1.775   4.625 -1.3408  0.6813  0.0263
 7334SOL     OW33637   3.943   3.474  13.549 -0.2161  0.5921 -0.9424
 7334SOL    HW133638   4.013   3.429  13.597  0.4914  0.2896 -2.2520
 7334SOL    HW233639   3.975   3.468  13.459 -1.8381 -3.1176 -1.2402
 7335SOL     OW33640   4.291   1.865   8.774 -0.0838  0.1945  0.1868
 7335SOL    HW133641   4.314   1.918   8.698  0.4239 -0.1801  0.0775
 7335SOL    HW233642   4.199   1.891   8.780 -0.4135 -1.0426  0.5722
 7336SOL     OW33643   0.578   0.328   1.405 -0.4202 -0.0128  0.6589
 7336SOL    HW133644   0.610   0.417   1.422 -0.9134  0.2207  0.3494
 7336SOL    HW233645   0.599   0.278   1.484  0.6501  2.2789  1.8377
 7337SOL     OW33646   0.744   0.308   3.235 -0.1404  0.6059 -0.1042
 7337SOL    HW133647   0.831   0.271   3.251 -0.1100  0.2431 -1.0554
 7337SOL    HW233648   0.753   0.335   3.144  1.0934  0.7158  0.0475
 7338SOL     OW33649   1.297   2.592   8.964 -0.3427 -0.1136 -0.3189
 7338SOL    HW133650   1.361   2.572   9.031  1.0884  1.3253 -1.2439
 7338SOL    HW233651   1.334   2.674   8.930 -0.8224 -0.7816 -2.4599
 7339SOL     OW33652   4.356   3.162   6.060  0.2812  0.2101  1.3305
 7339SOL    HW133653   4.398   3.214   6.127  0.1328  0.3658  1.3038
 7339SOL    HW233654   4.412   3.188   5.986 -0.2063 -1.3749  0.3951
 7340SOL     OW33655   0.963   1.178  13.580  0.5254 -0.6709  0.0259
 7340SOL    HW133656   0.990   1.243  13.645 -1.4015 -0.7348  0.8682
 7340SOL    HW233657   1.011   1.103  13.615 -3.7523 -2.6882  1.4778
 7341SOL     OW33658   2.092   3.277   8.352 -0.1209  0.2090  0.4613
 7341SOL    HW133659   2.065   3.353   8.300  3.3434  0.3534 -1.1602
 7341SOL    HW233660   2.134   3.226   8.282 -1.3364 -0.2530  0.0646
 7342SOL     OW33661   0.177   3.972   5.496  0.0426 -0.0276 -0.4556
 7342SOL    HW133662   0.143   4.039   5.555  1.3456  2.0421 -2.0621
 7342SOL    HW233663   0.100   3.918   5.478 -0.0991  0.2879 -0.7826
 7343SOL     OW33664   1.001   2.927  15.659 -0.2656  0.0496  0.8023
 7343SOL    HW133665   0.942   2.946  15.732  0.1631 -1.8650  1.6449
 7343SOL    HW233666   0.950   2.952  15.582  0.3833 -0.6071  0.1644
 7344SOL     OW33667   3.701   3.180   2.658 -0.1062  0.6122  0.0238
 7344SOL    HW133668   3.628   3.184   2.720 -0.5569 -1.0810 -0.4075
 7344SOL    HW233669   3.667   3.119   2.592 -0.3315  0.5034  0.2413
 7345SOL     OW33670   1.222   3.979  10.980  0.0879  0.2538  0.1767
 7345SOL    HW133671   1.261   3.969  11.067  2.6909  0.2015 -0.9905
 7345SOL    HW233672   1.285   4.038  10.938  0.9892 -0.7177  0.1911
 7346SOL     OW33673   3.797   3.767  16.450  0.4096 -0.4608  0.0797
 7346SOL    HW133674   3.814   3.797  16.361 -2.6207 -0.8667 -0.6422
 7346SOL    HW233675   3.771   3.675  16.439  0.0518 -0.3235 -0.2423
 7347SOL     OW33676   2.729   4.658   8.151 -0.2134 -0.1758  0.6600
 7347SOL    HW133677   2.640   4.673   8.184 -0.3713  1.6060 -0.5842
 7347SOL    HW233678   2.719   4.565   8.133 -0.6099 -0.0625  0.2869
 7348SOL     OW33679   2.734   1.563   0.992  0.8140 -0.7915 -0.5380
 7348SOL    HW133680   2.664   1.627   0.979  0.4908 -0.9760  0.2915
 7348SOL    HW233681   2.685   1.490   1.030 -0.9700 -0.7172 -2.7370
 7349SOL     OW33682   2.934   2.710   2.957 -0.2911 -0.1247  0.2089
 7349SOL    HW133683   2.859   2.663   2.921  0.2596 -1.5428  0.9347
 7349SOL    HW233684   2.994   2.657   2.905  1.6063  1.7684  0.4787
 7350SOL     OW33685   1.306   0.957   8.196 -0.1185 -0.0263  0.4702
 7350SOL    HW133686   1.364   1.014   8.246  0.6635  0.1286 -0.6147
 7350SOL    HW233687   1.225   1.006   8.181  0.5834  0.9012 -0.2610
 7351SOL     OW33688   4.536   2.582   5.480  0.0057 -0.3001  0.4173
 7351SOL    HW133689   4.545   2.530   5.401 -0.0377 -0.2789  0.3982
 7351SOL    HW233690   4.517   2.516   5.547  0.6346 -1.7037 -0.8157
 7352SOL     OW33691   3.568   3.282  13.968 -0.0690 -0.8877  0.5533
 7352SOL    HW133692   3.656   3.244  13.965 -0.2525 -1.4175  1.8515
 7352SOL    HW233693   3.523   3.198  13.956 -1.4789 -0.0722  0.0843
 7353SOL     OW33694   1.143   0.021   7.273  0.2841 -0.0880 -0.1970
 7353SOL    HW133695   1.223   0.062   7.240  1.1638 -1.3955  0.2678
 7353SOL    HW233696   1.161   0.030   7.367 -0.9734  0.2496  0.0116
 7354SOL     OW33697   3.104   1.249   8.080  0.5172 -0.1998 -0.9833
 7354SOL    HW133698   3.187   1.202   8.071  1.3948  0.7777  2.0448
 7354SOL    HW233699   3.070   1.199   8.154 -0.1957  1.4107 -0.2366
 7355SOL     OW33700   3.641   1.124   8.374  0.2781 -0.7869 -0.5382
 7355SOL    HW133701   3.651   1.135   8.279 -0.8130  1.6107 -0.3850
 7355SOL    HW233702   3.680   1.037   8.375 -1.1774 -1.4351 -0.2126
 7356SOL     OW33703   2.776   1.212   0.316  0.6687 -0.2573 -0.4117
 7356SOL    HW133704   2.742   1.151   0.251  1.1768 -0.8530 -0.1154
 7356SOL    HW233705   2.829   1.163   0.379  3.0160  2.2886 -0.3917
 7357SOL     OW33706   2.406   2.915   6.751 -0.0619  0.0789  0.1856
 7357SOL    HW133707   2.407   3.004   6.785 -0.9147  0.2693 -0.2923
 7357SOL    HW233708   2.344   2.869   6.807 -1.6658  0.5964 -1.1696
 7358SOL     OW33709   3.895   1.165   4.990 -0.0478  0.2591  0.1456
 7358SOL    HW133710   3.884   1.115   5.071 -0.6484  1.4833  0.8208
 7358SOL    HW233711   3.866   1.253   5.013  0.5853  0.2452  1.0089
 7359SOL     OW33712   3.293   4.650   2.530 -0.5839 -0.2151  0.0554
 7359SOL    HW133713   3.281   4.705   2.452 -1.5367 -1.1144 -0.4363
 7359SOL    HW233714   3.296   4.564   2.490 -0.4636 -0.2190  0.0748
 7360SOL     OW33715   2.303   2.289  11.467  0.2590  0.1449 -0.8107
 7360SOL    HW133716   2.261   2.373  11.452 -1.9142 -1.2673 -2.6355
 7360SOL    HW233717   2.233   2.228  11.441 -0.9897  0.9371  0.7034
 7361SOL     OW33718   0.234   3.297   7.577 -0.1379 -0.0548 -0.4135
 7361SOL    HW133719   0.158   3.292   7.636  0.5226 -0.9563  0.3598
 7361SOL    HW233720   0.243   3.392   7.569 -0.9075  0.0173 -0.4435
 7362SOL     OW33721   3.813   4.730  15.193 -0.0511  0.2426 -0.1792
 7362SOL    HW133722   3.737   4.707  15.140  1.9435 -2.1584 -2.0426
 7362SOL    HW233723   3.767   0.043  15.259 -0.2034  3.1433 -2.5487
 7363SOL     OW33724   4.696   3.042   2.500  0.2411  0.0429  0.3421
 7363SOL    HW133725   4.604   3.042   2.476  0.1972  1.6409  0.4889
 7363SOL    HW233726   0.007   3.065   2.421 -3.4340  0.6126 -1.7278
 7364SOL     OW33727   3.580   3.260   8.155 -0.1109 -0.1362 -0.3959
 7364SOL    HW133728   3.654   3.320   8.145 -0.2685 -0.3222 -2.5551
 7364SOL    HW233729   3.552   3.267   8.064 -2.0841 -1.7023  0.0864
 7365SOL     OW33730   4.570   4.444   4.025  0.6395 -0.1113 -0.4428
 7365SOL    HW133731   4.508   4.479   4.089  0.6513  0.5731 -0.8074
 7365SOL    HW233732   4.655   4.464   4.065  0.5821 -1.0046  0.1277
 7366SOL     OW33733   4.575   4.244   2.648 -0.4670  0.1295 -0.2876
 7366SOL    HW133734   4.508   4.283   2.592 -1.4582  1.4226  1.8508
 7366SOL    HW233735   4.543   4.154   2.657 -0.1651  0.1812  1.2927
 7367SOL     OW33736   0.120   4.073   6.180 -0.3308  0.1808 -0.2188
 7367SOL    HW133737   0.175   3.999   6.204 -0.9714  0.1257  1.0740
 7367SOL    HW233738   0.088   4.113   6.261  0.1621  1.9781 -0.9136
 7368SOL     OW33739   1.726   2.008   6.842 -0.3175  0.2288  0.5730
 7368SOL    HW133740   1.696   2.094   6.872 -1.9767  0.0819 -0.6246
 7368SOL    HW233741   1.740   2.024   6.748 -2.5478  4.2902  0.9097
 7369SOL     OW33742   1.888   3.480  12.752  0.4097  0.0708  0.4673
 7369SOL    HW133743   1.915   3.489  12.844  1.6877 -1.7067  0.2800
 7369SOL    HW233744   1.845   3.395  12.755  1.2189 -0.3154  0.9589
 7370SOL     OW33745   1.357   0.360   8.077  0.5388 -0.0744 -0.1943
 7370SOL    HW133746   1.428   0.364   8.013  0.7434 -2.6870 -0.1259
 7370SOL    HW233747   1.374   0.434   8.135 -0.6179  0.3564 -0.4025
 7371SOL     OW33748   4.716   2.372   6.463 -0.6943  0.0017 -0.1084
 7371SOL    HW133749   4.723   2.331   6.377  0.5955  1.6121 -0.7682
 7371SOL    HW233750   0.062   2.418   6.469 -1.1921  1.0199 -1.0217
 7372SOL     OW33751   0.727   0.048  13.917  0.4956  0.1284 -0.2912
 7372SOL    HW133752   0.701   0.137  13.893 -2.3576 -0.6834 -0.1916
 7372SOL    HW233753   0.816   0.039  13.884  1.0955  0.0598  1.3297
 7373SOL     OW33754   0.349   1.066  10.978 -0.2291  0.5777  0.1734
 7373SOL    HW133755   0.254   1.069  10.978 -0.2396  0.2071  0.2469
 7373SOL    HW233756   0.364   0.976  10.949  1.0565  1.1104 -0.8185
 7374SOL     OW33757   0.584   1.088   1.468  0.7099  0.1261  0.3977
 7374SOL    HW133758   0.570   1.181   1.487  0.0480 -0.0544  0.7944
 7374SOL    HW233759   0.680   1.082   1.468  0.4851 -3.2170 -1.7970
 7375SOL     OW33760   0.350   3.617   6.459  0.5002 -0.1971  0.1644
 7375SOL    HW133761   0.286   3.600   6.389  1.4095 -1.6236 -0.3116
 7375SOL    HW233762   0.367   3.528   6.487 -0.4678  0.1404  1.8106
 7376SOL     OW33763   3.818   0.038   3.301 -0.1087  0.6343  0.0408
 7376SOL    HW133764   3.842   4.737   3.385 -0.0580 -0.9693 -0.7046
 7376SOL    HW233765   3.840   4.700   3.245  0.4381 -0.2470  1.4529
 7377SOL     OW33766   1.721   0.490   6.731 -0.0742  0.3374 -0.1571
 7377SOL    HW133767   1.670   0.525   6.805  0.4490  1.2231 -0.2165
 7377SOL    HW233768   1.665   0.417   6.703  0.1338 -1.2014  3.4104
 7378SOL     OW33769   0.309   4.696   4.800 -0.1674 -0.4787  0.4232
 7378SOL    HW133770   0.314   4.711   4.706 -3.9002 -1.1698  0.1208
 7378SOL    HW233771   0.235   4.639   4.820 -2.3795  2.8089  1.6218
 7379SOL     OW33772   3.443   1.560  12.142 -0.0881  0.4064 -0.0480
 7379SOL    HW133773   3.480   1.624  12.081  0.1302 -0.6678 -1.0357
 7379SOL    HW233774   3.472   1.592  12.227  0.1942  0.5307 -0.1885
 7380SOL     OW33775   0.020   3.637  15.245  0.1874 -0.2878  0.7107
 7380SOL    HW133776   4.727   3.621  15.334  0.3017  3.3746  1.4076
 7380SOL    HW233777   0.076   3.560  15.232 -0.9789 -1.0228  0.0622
 7381SOL     OW33778   2.547   3.383   0.209 -0.7090 -0.3534 -0.6263
 7381SOL    HW133779   2.637   3.386   0.178 -0.4680  0.3279  0.1476
 7381SOL    HW233780   2.539   3.437   0.288  2.4881  2.0226 -1.9138
 7382SOL     OW33781   1.512   3.461   3.647  0.1455 -0.2954  0.0344
 7382SOL    HW133782   1.567   3.529   3.607 -1.1989  1.9156  1.9555
 7382SOL    HW233783   1.581   3.404   3.681  1.7013  0.8663 -1.1341
 7383SOL     OW33784   0.393   4.420   5.759 -0.0317  0.9164  0.8223
 7383SOL    HW133785   0.433   4.430   5.845 -0.9794  0.5832  1.3075
 7383SOL    HW233786   0.454   4.355   5.724 -0.7492 -0.3381  1.9109
 7384SOL     OW33787   3.179   3.732  16.793  0.2816 -0.6346 -0.3022
 7384SOL    HW133788   3.190   3.820  16.758 -0.3538 -1.0241 -1.4688
 7384SOL    HW233789   3.104   3.709  16.737 -1.5472  0.0221  1.8507
 7385SOL     OW33790   2.716   3.446   6.232  0.1513  0.2367 -0.3724
 7385SOL    HW133791   2.658   3.393   6.286  0.8829 -0.0599  0.1183
 7385SOL    HW233792   2.797   3.435   6.282 -0.2629  0.6704  0.3773
 7386SOL     OW33793   1.998   0.026   6.516  0.6456  0.0962 -0.2806
 7386SOL    HW133794   2.053   0.030   6.594  0.2656 -1.5766  0.0698
 7386SOL    HW233795   1.936   4.698   6.548 -0.4750  1.5628  0.5232
 7387SOL     OW33796   0.570   3.085  12.204  0.4037  0.5665  0.4876
 7387SOL    HW133797   0.577   3.171  12.246 -0.7517  0.2323  1.3918
 7387SOL    HW233798   0.619   3.086  12.122 -2.1534  0.7777 -1.0365
 7388SOL     OW33799   1.836   2.531   6.498 -0.0595 -0.3091  0.4722
 7388SOL    HW133800   1.814   2.615   6.537  1.9021  0.3058  0.2474
 7388SOL    HW233801   1.777   2.470   6.542 -1.7254 -0.0620 -1.3844
 7389SOL     OW33802   4.612   3.629   1.352  0.3813 -0.3944  0.0257
 7389SOL    HW133803   4.617   3.713   1.306  0.5981  0.0628  0.8937
 7389SOL    HW233804   4.583   3.568   1.284  4.6045 -1.1663 -1.0553
 7390SOL     OW33805   1.303   0.096   2.125 -0.6272  0.0159  0.1788
 7390SOL    HW133806   1.353   0.173   2.099  0.1472 -1.0452 -1.4667
 7390SOL    HW233807   1.288   0.052   2.041  0.6099  0.4872 -0.2817
 7391SOL     OW33808   3.555   2.991   6.139  0.1781  0.1583 -0.0472
 7391SOL    HW133809   3.543   2.919   6.077  0.5899 -1.1621  1.3957
 7391SOL    HW233810   3.479   3.045   6.120  1.3386  0.4925 -3.7403
 7392SOL     OW33811   2.333   3.955  15.314 -0.3927  0.1075 -0.3247
 7392SOL    HW133812   2.296   3.984  15.397 -3.0403 -0.8651 -1.1581
 7392SOL    HW233813   2.346   4.039  15.270  2.4531 -1.7268 -3.0018
 7393SOL     OW33814   2.109   1.059   2.902 -0.2624  0.2220 -0.4326
 7393SOL    HW133815   2.061   1.071   2.984  0.0465  0.6697 -0.3190
 7393SOL    HW233816   2.200   1.040   2.926  0.2970  0.1834 -2.6110
 7394SOL     OW33817   0.821   2.772  13.217  0.0033  0.3716 -0.1123
 7394SOL    HW133818   0.780   2.776  13.303 -0.8118 -2.5694 -0.3787
 7394SOL    HW233819   0.764   2.710  13.172  0.7573 -0.1326 -0.3866
 7395SOL     OW33820   0.765   2.619   4.828 -0.4353  0.2153  0.8088
 7395SOL    HW133821   0.763   2.641   4.922 -1.9194 -2.2241  1.3326
 7395SOL    HW233822   0.752   2.708   4.795 -4.7583 -0.8216 -0.1887
 7396SOL     OW33823   3.797   2.210   9.249 -0.0612  0.1470 -0.0234
 7396SOL    HW133824   3.868   2.249   9.300  1.1325 -2.1165  0.0489
 7396SOL    HW233825   3.767   2.283   9.195  1.7195  1.8257  1.2849
 7397SOL     OW33826   1.875   2.068   4.550 -0.1426  0.3307  1.1044
 7397SOL    HW133827   1.917   2.018   4.619  0.4820 -0.2128  0.3199
 7397SOL    HW233828   1.853   2.005   4.482  0.3890 -1.9642  3.0582
 7398SOL     OW33829   3.452   2.519  12.670 -0.5213 -0.0063  0.6000
 7398SOL    HW133830   3.480   2.482  12.754  1.6288  0.0599 -0.0863
 7398SOL    HW233831   3.497   2.469  12.603  0.3508  1.5676  0.0177
 7399SOL     OW33832   4.214   4.531   2.929 -0.0154  0.3517 -0.0686
 7399SOL    HW133833   4.241   4.478   2.854  0.0992 -0.8241  0.8169
 7399SOL    HW233834   4.139   4.484   2.964  1.0993 -1.0816  0.3713
 7400SOL     OW33835   2.956   1.084   8.256  0.0509 -0.0816 -0.2306
 7400SOL    HW133836   2.986   1.008   8.305  0.0314 -0.9313 -1.5343
 7400SOL    HW233837   2.914   1.137   8.324 -5.6047 -2.5296 -1.7930
 7401SOL     OW33838   0.635   0.356   0.564  0.1703 -0.6893 -0.1156
 7401SOL    HW133839   0.651   0.276   0.615  2.5462 -0.1276  0.0049
 7401SOL    HW233840   0.549   0.340   0.524 -1.1806  1.0199  2.0407
 7402SOL     OW33841   0.415   2.782   3.685 -0.4855  0.1766 -0.1439
 7402SOL    HW133842   0.351   2.711   3.699  1.3016 -1.4807 -0.3991
 7402SOL    HW233843   0.364   2.862   3.677  1.1935  1.3416  1.0531
 7403SOL     OW33844   3.778   2.684   2.352 -0.0779 -0.3718  0.4939
 7403SOL    HW133845   3.741   2.619   2.411  2.3878 -1.4713  0.8240
 7403SOL    HW233846   3.841   2.730   2.406 -0.6319  0.8308  0.1264
 7404SOL     OW33847   3.597   3.528   9.087  0.4989  0.1212  0.3770
 7404SOL    HW133848   3.531   3.468   9.120  2.9903 -2.7304  0.1517
 7404SOL    HW233849   3.646   3.467   9.032  0.3029 -1.3496  1.8551
 7405SOL     OW33850   3.169   4.244   9.557  0.2619  0.0989 -0.1819
 7405SOL    HW133851   3.118   4.260   9.477 -0.0540  1.7770  0.3720
 7405SOL    HW233852   3.257   4.234   9.521  0.9705 -0.8601  1.8652
 7406SOL     OW33853   3.891   3.455   5.372 -0.1145  0.5389 -0.3175
 7406SOL    HW133854   3.928   3.372   5.403 -1.2445  0.2012  0.1007
 7406SOL    HW233855   3.959   3.494   5.317 -1.0807 -1.4118 -2.8259
 7407SOL     OW33856   0.001   2.146  16.196  0.2473 -0.0326 -0.3439
 7407SOL    HW133857   4.703   2.229  16.229 -0.1967 -1.1200  1.9614
 7407SOL    HW233858   4.721   2.100  16.278 -1.1033  0.4032 -0.3865
 7408SOL     OW33859   2.680   4.423   9.283 -0.2869 -0.0540  0.0743
 7408SOL    HW133860   2.626   4.415   9.361 -1.2797 -0.0010 -0.6006
 7408SOL    HW233861   2.684   4.519   9.282 -3.2648  0.0546 -1.7137
 7409SOL     OW33862   1.370   0.345  15.405 -0.3321  0.1572 -0.2645
 7409SOL    HW133863   1.426   0.277  15.442  0.8389  1.4595  0.3319
 7409SOL    HW233864   1.409   0.421  15.448  0.8756 -0.3829 -0.3958
 7410SOL     OW33865   1.036   1.572   6.525 -0.2213 -0.6922 -0.3544
 7410SOL    HW133866   1.009   1.519   6.600  0.1109 -2.0302 -1.1809
 7410SOL    HW233867   0.989   1.652   6.549 -0.1527 -0.4549 -1.0121
 7411SOL     OW33868   3.080   3.215   3.345  0.3262  0.2942  0.1053
 7411SOL    HW133869   3.125   3.130   3.337 -4.6240 -2.2351 -0.9808
 7411SOL    HW233870   3.003   3.211   3.288  0.6092 -1.1061 -0.1930
 7412SOL     OW33871   1.796   0.442   9.306 -0.7270  0.7075  0.4024
 7412SOL    HW133872   1.772   0.483   9.389 -4.7148  0.5034 -0.6663
 7412SOL    HW233873   1.822   0.521   9.258 -4.1756 -0.3174 -3.2247
 7413SOL     OW33874   3.652   1.242   9.053 -0.5047  0.4634 -0.9154
 7413SOL    HW133875   3.740   1.206   9.046 -0.4034  0.5901 -0.2628
 7413SOL    HW233876   3.671   1.312   8.991 -0.0502 -0.4567 -1.8053
 7414SOL     OW33877   3.470   0.678   4.037 -0.1264 -0.3709 -0.2543
 7414SOL    HW133878   3.523   0.756   4.053  1.4311 -1.3096 -0.8106
 7414SOL    HW233879   3.407   0.684   4.109 -0.8633  0.7338 -0.9821
 7415SOL     OW33880   3.914   1.394   9.234 -0.1467  0.3285  0.3786
 7415SOL    HW133881   3.850   1.465   9.227 -1.6819 -0.9596  1.1078
 7415SOL    HW233882   3.996   1.429   9.202  0.5082  1.0023  2.7834
 7416SOL     OW33883   2.320   2.426   8.539 -0.2400 -0.1496 -0.6413
 7416SOL    HW133884   2.292   2.369   8.611  0.2956 -0.1817 -0.4575
 7416SOL    HW233885   2.413   2.407   8.537 -0.6687 -2.2800 -1.1251
 7417SOL     OW33886   0.399   3.301  11.037 -0.1440 -0.4531  0.1571
 7417SOL    HW133887   0.443   3.386  11.028 -0.6498 -0.0945  1.0913
 7417SOL    HW233888   0.307   3.310  11.014  0.4746  0.2908 -2.0161
 7418SOL     OW33889   1.352   2.705   0.482  0.1585  1.1621 -0.5656
 7418SOL    HW133890   1.258   2.712   0.466 -0.5557 -0.3298  2.9336
 7418SOL    HW233891   1.387   2.655   0.408  0.1480 -0.9476  0.8894
 7419SOL     OW33892   1.680   0.331   3.338 -0.2219  0.5222 -0.4405
 7419SOL    HW133893   1.704   0.336   3.430  1.3900  0.2457 -0.8409
 7419SOL    HW233894   1.654   0.239   3.334  1.2516  0.0313  1.2915
 7420SOL     OW33895   0.658   3.195   0.696 -0.0927  0.3354 -0.1477
 7420SOL    HW133896   0.565   3.199   0.672 -0.2350  1.8112  0.6211
 7420SOL    HW233897   0.679   3.288   0.708  1.9164 -0.0334 -0.8603
 7421SOL     OW33898   2.572   2.945  16.410  0.3387  0.5469  0.2977
 7421SOL    HW133899   2.520   3.021  16.436  2.1629  2.2738 -1.0848
 7421SOL    HW233900   2.653   2.987  16.380  1.1953 -0.4250  1.2518
 7422SOL     OW33901   1.418   0.894  10.679 -0.5584 -0.0751  0.2413
 7422SOL    HW133902   1.399   0.840  10.756  1.7901 -0.0133  0.8799
 7422SOL    HW233903   1.411   0.982  10.714  1.3974 -1.0802  3.1516
 7423SOL     OW33904   4.158   3.064   6.235  0.4363 -0.1762 -0.2826
 7423SOL    HW133905   4.150   2.984   6.183  2.4418  0.4879 -1.6296
 7423SOL    HW233906   4.201   3.108   6.161 -1.5996 -0.2269 -1.5003
 7424SOL     OW33907   3.555   0.912   4.167 -0.2627 -0.1090 -0.0831
 7424SOL    HW133908   3.481   0.964   4.200 -0.2489  0.8003 -1.4913
 7424SOL    HW233909   3.556   0.851   4.240  0.1555  1.3953  1.1790
 7425SOL     OW33910   0.094   0.044  11.650  0.4089 -0.2000 -0.6995
 7425SOL    HW133911   0.106   0.132  11.616 -0.1124  0.2594  0.3098
 7425SOL    HW233912   0.170   4.737  11.614 -1.4404 -3.8640 -0.0697
 7426SOL     OW33913   2.344   3.840  12.820  0.3109 -0.2281  0.4634
 7426SOL    HW133914   2.251   3.856  12.806  0.3419  0.9855  1.6527
 7426SOL    HW233915   2.350   3.857  12.914 -1.8517  1.1826  0.3416
 7427SOL     OW33916   3.831   4.106  14.267  0.0301  0.0305  0.3928
 7427SOL    HW133917   3.926   4.120  14.267  0.1234 -0.5977  0.7726
 7427SOL    HW233918   3.797   4.148  14.188  0.4981 -0.4170 -0.0494
 7428SOL     OW33919   3.201   3.286   9.566 -0.2835  0.1605 -0.1362
 7428SOL    HW133920   3.253   3.223   9.617  1.9084  2.5541  0.6345
 7428SOL    HW233921   3.261   3.361   9.565 -0.0141 -0.0594 -0.4508
 7429SOL     OW33922   2.867   2.613   4.604  0.1131 -0.4942  0.3713
 7429SOL    HW133923   2.895   2.670   4.676  0.4591  0.2690 -0.3672
 7429SOL    HW233924   2.921   2.641   4.530  0.5842  1.0526  1.3012
 7430SOL     OW33925   0.658   3.180   8.220 -0.2592 -0.6822 -0.3936
 7430SOL    HW133926   0.710   3.240   8.274 -0.2831  0.6430 -1.8250
 7430SOL    HW233927   0.603   3.138   8.285 -0.7118  1.2865  0.5145
 7431SOL     OW33928   1.224   4.673  14.313 -0.3549  0.0593  0.2934
 7431SOL    HW133929   1.245   4.588  14.353 -0.6476 -0.2903 -0.2891
 7431SOL    HW233930   1.296   4.684  14.251 -3.0208  1.3759 -2.5180
 7432SOL     OW33931   2.847   1.719   1.892  0.3434  0.7861 -0.1969
 7432SOL    HW133932   2.787   1.735   1.965 -1.2318 -1.1222 -1.0823
 7432SOL    HW233933   2.919   1.776   1.920  1.0816  0.6379 -1.7522
 7433SOL     OW33934   2.519   1.116  10.064  0.3921 -0.0788 -0.0502
 7433SOL    HW133935   2.430   1.117  10.028  0.9409  3.0201 -1.3417
 7433SOL    HW233936   2.531   1.196  10.115  1.8553  1.4092 -2.7088
 7434SOL     OW33937   3.282   0.057   1.187  0.1582 -0.9137  0.6384
 7434SOL    HW133938   3.358   0.004   1.166  1.3199  1.0083 -0.0672
 7434SOL    HW233939   3.226   0.050   1.110 -0.3229 -0.7840  0.9708
 7435SOL     OW33940   4.482   1.560   6.176  0.3083 -0.2977 -0.2664
 7435SOL    HW133941   4.417   1.598   6.117  0.0761  0.6458  0.5956
 7435SOL    HW233942   4.553   1.602   6.129 -1.2849 -1.2361 -3.5160
 7436SOL     OW33943   3.910   4.526   8.994 -0.5157 -0.1954 -0.5178
 7436SOL    HW133944   4.002   4.508   9.015 -0.6320  1.2427  1.2179
 7436SOL    HW233945   3.883   4.436   8.975 -1.1517 -0.5853  2.1747
 7437SOL     OW33946   1.208   3.354   0.979 -0.1940 -0.0769 -0.1759
 7437SOL    HW133947   1.114   3.358   0.960 -0.0696 -1.2347 -1.0191
 7437SOL    HW233948   1.255   3.409   0.916  0.2101  1.4055  1.4171
 7438SOL     OW33949   3.445   4.541   1.010  0.2110  0.2824  0.1419
 7438SOL    HW133950   3.431   4.456   1.052 -3.4037 -0.0326 -1.7007
 7438SOL    HW233951   3.497   4.585   1.077 -0.5328  2.2696 -0.6092
 7439SOL     OW33952   2.543   1.030   5.738  0.0319 -0.0963 -0.0191
 7439SOL    HW133953   2.488   1.107   5.748  0.1177 -0.2476  1.5518
 7439SOL    HW233954   2.601   1.072   5.674 -0.1077 -0.0485 -0.1155
 7440SOL     OW33955   2.532   0.360   2.299 -0.2217  0.3324  0.2569
 7440SOL    HW133956   2.521   0.324   2.387 -1.4426 -0.7539 -0.3391
 7440SOL    HW233957   2.538   0.277   2.252 -1.6894 -1.2975  2.9613
 7441SOL     OW33958   2.615   0.042  15.007 -0.4728  0.0355  0.2710
 7441SOL    HW133959   2.672   0.115  14.985 -0.8788  0.0134 -0.8492
 7441SOL    HW233960   2.673   4.709  15.035 -0.2306 -0.3317 -1.2009
 7442SOL     OW33961   1.375   2.827   8.839  0.1324 -0.3596 -0.1539
 7442SOL    HW133962   1.363   2.906   8.787  0.7543 -1.2379 -1.6140
 7442SOL    HW233963   1.453   2.862   8.882 -0.7653 -1.0860  2.0973
 7443SOL     OW33964   0.579   0.693   4.226  0.4068  0.1934  0.2897
 7443SOL    HW133965   0.504   0.751   4.239  1.0788  0.9378  0.8445
 7443SOL    HW233966   0.540   0.621   4.176  0.7001  0.0910  0.2074
 7444SOL     OW33967   2.669   1.578   4.910 -0.8053 -0.5626  0.0854
 7444SOL    HW133968   2.715   1.651   4.869 -1.2655  0.9079  2.1915
 7444SOL    HW233969   2.729   1.548   4.978 -0.3263 -0.2406 -0.2005
 7445SOL     OW33970   2.162   4.298   8.799  0.3797  0.3201 -0.2823
 7445SOL    HW133971   2.108   4.282   8.876 -1.3843  2.1880 -1.1434
 7445SOL    HW233972   2.248   4.318   8.836  0.6298  1.8769 -1.6866
 7446SOL     OW33973   3.565   4.711   0.715 -0.6277 -0.1772  0.3021
 7446SOL    HW133974   3.497   4.657   0.755 -1.0857  0.6446  0.6395
 7446SOL    HW233975   3.644   4.692   0.765  0.5627 -1.8338 -2.2493
 7447SOL     OW33976   1.913   0.699  12.210 -0.1437  0.2606 -0.7967
 7447SOL    HW133977   1.910   0.633  12.279  1.7000  0.7352 -0.2558
 7447SOL    HW233978   1.822   0.729  12.214 -0.5773 -0.9518 -1.8902
 7448SOL     OW33979   0.194   2.627   3.736 -0.0314 -0.1759 -0.2734
 7448SOL    HW133980   0.219   2.564   3.804  0.7851 -1.0687 -1.4104
 7448SOL    HW233981   0.163   2.571   3.665  1.0951 -2.4816  1.0690
 7449SOL     OW33982   0.862   1.755   1.830  0.4420 -0.1101 -0.0547
 7449SOL    HW133983   0.796   1.707   1.881 -0.8934  1.4529 -0.2835
 7449SOL    HW233984   0.825   1.747   1.742  0.4015  0.0392 -0.0525
 7450SOL     OW33985   2.562   2.046   7.266  0.3521 -0.3296 -0.2899
 7450SOL    HW133986   2.603   1.991   7.199 -0.9760 -1.8958  0.1828
 7450SOL    HW233987   2.480   2.005   7.294 -0.9201 -0.0789 -3.7088
 7451SOL     OW33988   4.626   1.791   4.620  0.0002  0.1953 -0.1629
 7451SOL    HW133989   4.601   1.764   4.708 -0.0571 -0.0174 -0.2434
 7451SOL    HW233990   4.720   1.804   4.630 -0.1818 -1.6033  3.8112
 7452SOL     OW33991   1.511   0.557  12.488 -0.8171 -0.1749  0.3921
 7452SOL    HW133992   1.488   0.490  12.553  0.9778 -1.5229 -0.3248
 7452SOL    HW233993   1.437   0.547  12.429 -0.5226  2.0384 -0.3368
 7453SOL     OW33994   3.866   0.286  16.463 -0.1038  0.0793 -0.3764
 7453SOL    HW133995   3.921   0.326  16.395  2.3258 -1.3335  0.7296
 7453SOL    HW233996   3.780   0.323  16.444  0.1401  0.8285 -0.0370
 7454SOL     OW33997   3.948   1.946   5.173  0.0136  0.5850 -0.3649
 7454SOL    HW133998   3.951   1.955   5.078  2.8268  0.1974 -0.3059
 7454SOL    HW233999   4.035   1.920   5.204 -0.8830  1.4659  2.8734
 7455SOL     OW34000   0.875   3.410   1.322  0.7341 -0.3487  0.2131
 7455SOL    HW134001   0.844   3.328   1.361 -1.3845 -0.3796 -1.5227
 7455SOL    HW234002   0.797   3.441   1.277 -0.8174 -0.8023  2.5956
 7456SOL     OW34003   2.005   1.956   6.119 -0.2327  0.3251  0.3643
 7456SOL    HW134004   2.033   1.937   6.030 -0.6229  2.3598 -0.1972
 7456SOL    HW234005   2.077   2.009   6.153  0.6894 -1.0330  0.4743
 7457SOL     OW34006   0.651   4.639   3.623 -0.3208  0.3705 -0.7341
 7457SOL    HW134007   0.558   4.622   3.638 -0.1336 -0.5974 -0.6549
 7457SOL    HW234008   0.656   4.667   3.531 -2.4091  0.3304 -0.8487
 7458SOL     OW34009   3.383   3.419   6.933  0.4218  0.7300  0.0697
 7458SOL    HW134010   3.331   3.478   6.988 -0.5704  0.3270 -0.4509
 7458SOL    HW234011   3.448   3.377   6.989 -0.8965  1.0492  1.8403
 7459SOL     OW34012   2.415   2.564  13.737  0.3974  0.4197 -0.3855
 7459SOL    HW134013   2.355   2.621  13.785  1.6217 -0.2752  1.9719
 7459SOL    HW234014   2.411   2.600  13.648 -0.7694  1.5575  0.1146
 7460SOL     OW34015   0.227   4.554   6.981  0.1883  0.0670 -0.2892
 7460SOL    HW134016   0.181   4.627   6.939 -0.0883  0.4102  0.6137
 7460SOL    HW234017   0.154   4.498   7.007 -0.3894  1.3573  0.8668
 7461SOL     OW34018   2.995   1.517   2.469 -0.3516  0.1230 -0.1671
 7461SOL    HW134019   3.069   1.576   2.481 -0.0282 -0.5651  1.1809
 7461SOL    HW234020   2.978   1.513   2.563 -2.6991  0.8488 -0.5562
 7462SOL     OW34021   0.123   4.720   0.368 -0.7770  0.1672  0.2030
 7462SOL    HW134022   0.169   4.638   0.385  1.2014  0.9867 -1.1890
 7462SOL    HW234023   0.109   0.009   0.459  0.6835  0.3709  0.3816
 7463SOL     OW34024   0.747   2.987   1.253 -0.5373  0.4078  0.8273
 7463SOL    HW134025   0.832   2.956   1.224 -0.4551  0.2459  1.2339
 7463SOL    HW234026   0.722   2.898   1.279  0.8115 -0.3175 -0.3929
 7464SOL     OW34027   3.721   4.027  11.671 -0.0937 -0.1216  0.2930
 7464SOL    HW134028   3.725   4.118  11.698 -1.8150  0.1450 -0.3807
 7464SOL    HW234029   3.789   4.020  11.604 -1.4153  0.8764 -1.1421
 7465SOL     OW34030   1.965   1.820   4.854 -0.0068 -0.0555  0.2151
 7465SOL    HW134031   1.927   1.905   4.875 -0.8559 -0.6641  1.1044
 7465SOL    HW234032   2.057   1.834   4.877  0.2153  0.1421 -0.8028
 7466SOL     OW34033   0.721   3.222   3.134 -0.3980  0.0121  0.6374
 7466SOL    HW134034   0.800   3.252   3.180  0.9380 -0.1186 -1.5836
 7466SOL    HW234035   0.762   3.223   3.048  2.3183 -0.9559  1.8878
 7467SOL     OW34036   0.374   3.609  16.093  0.3070  0.3065  0.4897
 7467SOL    HW134037   0.392   3.517  16.114 -0.7809  0.4335  2.0202
 7467SOL    HW234038   0.461   3.648  16.081  0.5513 -0.1888  0.6416
 7468SOL     OW34039   3.094   2.935   4.534 -0.7068  0.4276  0.0011
 7468SOL    HW134040   3.063   3.025   4.521  0.7683  1.0014  0.3056
 7468SOL    HW234041   3.116   2.939   4.628 -0.5031 -0.5164 -0.0072
 7469SOL     OW34042   4.624   4.284   6.590  0.9177 -0.0330 -0.0026
 7469SOL    HW134043   4.692   4.297   6.523  1.7426 -0.2113  0.7944
 7469SOL    HW234044   4.554   4.341   6.560  2.3219  1.4545 -0.4520
 7470SOL     OW34045   1.505   2.515   1.395 -0.0683 -0.1620 -0.2045
 7470SOL    HW134046   1.531   2.607   1.398  1.5959 -0.5976 -1.3313
 7470SOL    HW234047   1.520   2.493   1.303  0.3501 -1.7372  0.2445
 7471SOL     OW34048   0.079   0.921   4.000  0.0966  0.2909  0.2579
 7471SOL    HW134049   0.092   0.974   4.078 -1.8900 -2.6014  2.5562
 7471SOL    HW234050   0.037   0.990   3.948 -2.1150 -0.6354  0.7908
 7472SOL     OW34051   2.786   3.799   6.084 -0.1076  0.5638  0.1054
 7472SOL    HW134052   2.780   3.892   6.104 -1.9324  0.6305 -0.7919
 7472SOL    HW234053   2.850   3.772   6.150 -0.8544 -2.2445 -0.3292
 7473SOL     OW34054   3.998   1.130  11.384 -0.0229 -0.2061  0.1572
 7473SOL    HW134055   4.077   1.182  11.397  0.3025 -0.2585 -1.6040
 7473SOL    HW234056   3.942   1.207  11.379 -0.4585 -0.4847  0.8126
 7474SOL     OW34057   1.127   0.238   1.429 -0.1910 -0.4607 -0.7494
 7474SOL    HW134058   1.119   0.288   1.510  1.2862 -1.2662 -0.1176
 7474SOL    HW234059   1.035   0.211   1.428  0.4590 -2.8076  1.2480
 7475SOL     OW34060   0.508   2.326  10.925 -0.2198  0.5981  0.2865
 7475SOL    HW134061   0.582   2.360  10.975  1.8010 -0.7691 -1.7583
 7475SOL    HW234062   0.490   2.233  10.930 -0.5488  0.5847 -0.9752
 7476SOL     OW34063   0.477   2.767  17.580  0.4239 -0.3251  0.1267
 7476SOL    HW134064   0.544   2.801  17.520  0.2828  1.1190  0.8077
 7476SOL    HW234065   0.492   2.807  17.665  1.0620 -1.1718  0.4134
 7477SOL     OW34066   3.267   0.928   7.722  0.1496  0.0118 -0.1505
 7477SOL    HW134067   3.178   0.933   7.687  0.6967 -2.5113 -1.9012
 7477SOL    HW234068   3.328   0.906   7.651  0.4852 -1.8643  0.7246
 7478SOL     OW34069   1.241   0.763   6.691 -0.0911  0.2574  0.2032
 7478SOL    HW134070   1.146   0.774   6.695 -0.2573 -1.5012  1.0084
 7478SOL    HW234071   1.267   0.781   6.601 -1.3036 -1.6660 -0.5112
 7479SOL     OW34072   1.568   2.820   3.429 -0.2736 -0.5696  0.3585
 7479SOL    HW134073   1.586   2.903   3.385  1.4449 -0.2179  1.6943
 7479SOL    HW234074   1.554   2.836   3.522 -0.6690 -1.0049  0.3730
 7480SOL     OW34075   1.658   2.768  15.721 -0.2729 -0.0783 -0.5397
 7480SOL    HW134076   1.633   2.817  15.642  2.7848  0.3880 -1.2451
 7480SOL    HW234077   1.703   2.835  15.773  0.2982 -0.4458 -0.5685
 7481SOL     OW34078   2.422   3.695   2.334 -0.6108 -0.3103  0.1035
 7481SOL    HW134079   2.466   3.735   2.409  0.0509 -2.7416  1.0179
 7481SOL    HW234080   2.483   3.621   2.323 -0.5512  0.0024 -1.6224
 7482SOL     OW34081   2.900   3.718   8.089  0.1015  0.3520 -0.0716
 7482SOL    HW134082   2.946   3.748   8.010  1.7809 -0.7225  0.4825
 7482SOL    HW234083   2.939   3.773   8.158 -1.4426  0.5187  0.6644
 7483SOL     OW34084   0.298   1.641   4.883 -0.3757  0.1736  0.4855
 7483SOL    HW134085   0.314   1.713   4.822 -1.6087 -0.5577 -0.6957
 7483SOL    HW234086   0.344   1.572   4.836  2.5057  2.5677 -0.2268
 7484SOL     OW34087   0.799   2.850   9.527  0.5373 -0.0912 -0.1064
 7484SOL    HW134088   0.704   2.842   9.520  0.5356  0.0278 -0.2366
 7484SOL    HW234089   0.805   2.871   9.620  1.9467 -0.7280 -0.0552
 7485SOL     OW34090   2.059   4.668   5.685  0.0364  0.5676  0.4106
 7485SOL    HW134091   2.074   4.579   5.656  1.1656  0.6695  0.6911
 7485SOL    HW234092   1.966   4.670   5.710  0.0812 -2.5612  0.7497
 7486SOL     OW34093   2.995   1.585  11.056  0.7010 -0.5115  0.1171
 7486SOL    HW134094   3.076   1.552  11.096  0.5620  1.2290  1.8523
 7486SOL    HW234095   2.946   1.504  11.065  1.3030 -0.8546  0.3774
 7487SOL     OW34096   0.114   3.302   2.871 -0.7100  0.1270 -0.7484
 7487SOL    HW134097   0.037   3.251   2.846 -1.5496  0.3287  1.4490
 7487SOL    HW234098   0.185   3.261   2.821 -0.0929  1.2422 -0.7682
 7488SOL     OW34099   2.267   2.063   8.846 -0.4130 -0.5098  0.2921
 7488SOL    HW134100   2.318   1.985   8.823 -1.0614 -0.8091 -0.1349
 7488SOL    HW234101   2.294   2.073   8.937 -0.4073  1.2224  0.1009
 7489SOL     OW34102   4.315   1.368   9.498 -0.8793 -0.0793  0.0516
 7489SOL    HW134103   4.329   1.274   9.486  1.0543  0.4443 -1.7688
 7489SOL    HW234104   4.220   1.361   9.484 -0.7060 -2.1314 -0.1315
 7490SOL     OW34105   2.599   2.644   8.291 -0.6544  0.4005 -0.3485
 7490SOL    HW134106   2.517   2.594   8.295 -0.1923 -0.2394  1.2243
 7490SOL    HW234107   2.656   2.602   8.226 -1.0970  0.2320 -0.6275
 7491SOL     OW34108   0.322   4.289  15.057 -0.3166 -0.1867 -0.1834
 7491SOL    HW134109   0.254   4.274  14.993 -0.8420  1.7630 -0.1081
 7491SOL    HW234110   0.401   4.255  15.015 -0.2278  2.7074 -2.3624
 7492SOL     OW34111   0.550   3.181   9.327 -0.2202  0.5158 -0.3750
 7492SOL    HW134112   0.621   3.245   9.314  1.2717 -0.4414  3.1928
 7492SOL    HW234113   0.478   3.240   9.304 -1.3809 -0.7957 -0.1035
 7493SOL     OW34114   0.723   0.770   8.235 -0.1335  0.3913  0.1527
 7493SOL    HW134115   0.807   0.730   8.257  0.4339  1.5887  0.2127
 7493SOL    HW234116   0.754   0.857   8.209 -0.6313  1.1202  2.0289
 7494SOL     OW34117   0.368   0.861   4.217 -0.5025 -0.5284 -0.3032
 7494SOL    HW134118   0.301   0.927   4.198  0.3276  0.4201  0.0625
 7494SOL    HW234119   0.430   0.891   4.150 -0.9058  2.1339  0.5222
 7495SOL     OW34120   4.618   3.235   7.555  0.3693 -0.0798  0.0744
 7495SOL    HW134121   4.669   3.218   7.476 -0.3761  0.2868 -0.4995
 7495SOL    HW234122   4.675   3.292   7.605  3.3445 -1.7294 -1.4797
 7496SOL     OW34123   1.708   2.685   1.535  0.1379 -0.1501  0.0804
 7496SOL    HW134124   1.699   2.623   1.608 -1.2663 -0.3590 -0.2827
 7496SOL    HW234125   1.726   2.765   1.583 -0.1884  1.9161 -3.2323
 7497SOL     OW34126   1.153   1.100  10.299 -0.1759  0.1291 -0.1430
 7497SOL    HW134127   1.121   1.101  10.209 -2.0597  2.6590  0.5534
 7497SOL    HW234128   1.239   1.058  10.290 -0.1813  0.0355  0.2476
 7498SOL     OW34129   2.767   2.541   8.680  0.3204  0.1690 -0.0116
 7498SOL    HW134130   2.709   2.536   8.757  3.4186 -0.3254  2.2864
 7498SOL    HW234131   2.852   2.564   8.718  0.1605 -3.5869  2.5916
 7499SOL     OW34132   0.202   2.402   9.958 -0.4279 -0.1148  0.2977
 7499SOL    HW134133   0.133   2.438   9.902  2.2019  2.0109 -1.5635
 7499SOL    HW234134   0.156   2.339  10.014  0.0254 -0.4318  0.3109
 7500SOL     OW34135   2.819   1.535   5.508  0.0840  0.3141  0.4284
 7500SOL    HW134136   2.880   1.563   5.576  1.4334 -1.8092  0.0796
 7500SOL    HW234137   2.754   1.499   5.568  0.3638 -1.6868 -0.4940
 7501SOL     OW34138   2.128   4.522   9.899 -0.1667 -0.0068 -0.0899
 7501SOL    HW134139   2.146   4.478   9.817  1.2501 -2.7570  1.7074
 7501SOL    HW234140   2.070   4.588   9.860 -1.2030 -1.1958 -0.5727
 7502SOL     OW34141   1.802   2.406  11.658  1.5748 -0.6394 -0.3751
 7502SOL    HW134142   1.786   2.500  11.654  1.3072 -0.6796 -0.2723
 7502SOL    HW234143   1.837   2.399  11.747  2.0051 -0.7919 -0.5571
 7503SOL     OW34144   0.298   2.472  11.643  0.7477  0.1594  0.2241
 7503SOL    HW134145   0.291   2.566  11.630  1.2334  0.3250  1.2178
 7503SOL    HW234146   0.381   2.467  11.689  1.3120  0.7797 -0.7172
 7504SOL     OW34147   3.255   1.512   0.270 -0.0847 -0.2751 -0.3726
 7504SOL    HW134148   3.302   1.594   0.285  0.8024 -1.4645  3.4366
 7504SOL    HW234149   3.299   1.447   0.325  2.0802 -0.5904 -2.4712
 7505SOL     OW34150   3.749   1.347   4.238  0.0205  0.8169 -0.5800
 7505SOL    HW134151   3.837   1.365   4.272 -0.2620  0.1649  0.5029
 7505SOL    HW234152   3.755   1.254   4.261 -1.7860  1.3247  1.9510
 7506SOL     OW34153   0.326   3.322   9.940 -0.1323 -0.0997 -0.3405
 7506SOL    HW134154   0.372   3.364  10.012  1.6136 -0.7882 -1.0686
 7506SOL    HW234155   0.236   3.312   9.972  1.0977  1.2094  3.4731
 7507SOL     OW34156   1.584   0.187   5.843 -0.3460  1.0047  0.0357
 7507SOL    HW134157   1.518   0.124   5.871 -0.7839  1.0519 -0.9089
 7507SOL    HW234158   1.649   0.119   5.826 -0.2447  1.3547 -1.0084
 7508SOL     OW34159   2.458   0.402   3.762 -0.2341 -0.0815  0.6017
 7508SOL    HW134160   2.368   0.425   3.735  0.2257  1.5017  0.4415
 7508SOL    HW234161   2.474   0.347   3.685  0.3484  1.9395 -0.7294
 7509SOL     OW34162   1.155   3.624  17.244 -0.0629  0.1225 -0.5273
 7509SOL    HW134163   1.231   3.680  17.231  0.1402 -0.2163 -0.7843
 7509SOL    HW234164   1.098   3.697  17.268 -2.5377 -1.5181 -1.4191
 7510SOL     OW34165   1.514   0.772  11.401  0.1236  0.2817  0.2786
 7510SOL    HW134166   1.578   0.701  11.392 -2.2121 -1.8179  0.2197
 7510SOL    HW234167   1.495   0.784  11.308  0.7716  2.3529  0.4280
 7511SOL     OW34168   2.039   0.963  15.438 -0.5614 -0.4145 -0.1839
 7511SOL    HW134169   2.088   0.918  15.369 -0.3890  0.3364 -0.5458
 7511SOL    HW234170   2.056   1.053  15.411 -0.9161 -0.7152 -1.4120
 7512SOL     OW34171   3.552   4.658   1.227  0.4937 -0.2978 -0.1037
 7512SOL    HW134172   3.628   4.701   1.266  0.7160 -0.6836 -0.1195
 7512SOL    HW234173   3.525   4.596   1.294 -0.3824 -1.8463 -1.9221
 7513SOL     OW34174   2.873   2.939  10.397 -0.2249  0.1867  0.5810
 7513SOL    HW134175   2.843   3.018  10.444  0.8585  1.7739 -1.4079
 7513SOL    HW234176   2.886   2.887  10.477 -0.7751  0.4977  0.8808
 7514SOL     OW34177   3.247   1.790  11.918 -0.1961 -0.1300 -0.6545
 7514SOL    HW134178   3.320   1.743  11.958  0.0665 -0.0459 -1.0385
 7514SOL    HW234179   3.174   1.782  11.980  0.3319  0.9719  0.1009
 7515SOL     OW34180   1.788   4.636   1.172 -0.5331  0.4518 -0.3324
 7515SOL    HW134181   1.878   4.611   1.191 -0.0825  0.9731 -1.7926
 7515SOL    HW234182   1.751   4.569   1.229  1.8757  0.5772  1.3538
 7516SOL     OW34183   4.606   0.557   1.538 -0.0371  0.6336 -0.2917
 7516SOL    HW134184   4.651   0.637   1.512  0.6067 -0.6348 -3.0323
 7516SOL    HW234185   4.515   0.567   1.510  0.0701 -0.1739 -0.9322
 7517SOL     OW34186   1.146   3.040   1.266  0.0118 -0.7229  0.0246
 7517SOL    HW134187   1.096   2.959   1.250  0.0332 -0.9717  1.1726
 7517SOL    HW234188   1.087   3.067   1.337 -0.8084 -0.4718 -0.7517
 7518SOL     OW34189   4.230   2.770   4.850 -0.4861 -0.1187 -0.3573
 7518SOL    HW134190   4.279   2.689   4.867  0.7451  0.5924 -0.4709
 7518SOL    HW234191   4.173   2.785   4.925  1.2693 -1.3741  1.2356
 7519SOL     OW34192   2.590   1.381   2.602 -0.3324  0.0634 -0.3574
 7519SOL    HW134193   2.495   1.394   2.604 -0.4347 -1.3493  3.4498
 7519SOL    HW234194   2.612   1.312   2.664  2.3164  1.3811  0.1808
 7520SOL     OW34195   1.593   3.277   9.705 -0.3891 -0.7337  0.2268
 7520SOL    HW134196   1.588   3.358   9.656  5.3164 -0.4097  0.1947
 7520SOL    HW234197   1.658   3.294   9.773 -1.1624 -0.3155  0.8579
 7521SOL     OW34198   2.291   3.929  12.368  0.4886  0.3608  0.1004
 7521SOL    HW134199   2.229   3.961  12.433  0.9511 -0.5432  0.9902
 7521SOL    HW234200   2.368   3.959  12.416  1.1587 -0.6857 -0.3227
 7522SOL     OW34201   2.912   3.897   5.158 -0.2388  0.0342 -0.2591
 7522SOL    HW134202   2.940   3.985   5.186 -1.7931  0.4861 -0.1327
 7522SOL    HW234203   2.838   3.894   5.219 -0.2631  0.4590 -0.2625
 7523SOL     OW34204   3.521   1.933   3.209 -0.3138  0.1008 -0.6873
 7523SOL    HW134205   3.590   1.909   3.271 -0.7317  0.2049 -0.1856
 7523SOL    HW234206   3.509   2.023   3.240  2.1192  0.7904 -1.7812
 7524SOL     OW34207   1.344   1.285   5.680 -0.1607  0.0463 -0.1552
 7524SOL    HW134208   1.370   1.294   5.589 -0.7785 -2.5743 -0.5857
 7524SOL    HW234209   1.255   1.250   5.671 -0.6818  1.1754  0.6277
 7525SOL     OW34210   1.662   2.217   1.560 -0.0076  0.7004  0.0899
 7525SOL    HW134211   1.589   2.279   1.563  0.3675  1.0527  1.7481
 7525SOL    HW234212   1.736   2.277   1.551 -1.0849  1.7882 -1.5877
 7526SOL     OW34213   4.023   3.014   3.129 -0.3026 -0.3124 -0.7283
 7526SOL    HW134214   4.073   2.968   3.197  0.7079  2.2401  0.2812
 7526SOL    HW234215   3.978   3.078   3.184  0.2798  0.6318 -1.3472
 7527SOL     OW34216   0.688   3.864   0.511 -0.3595  0.0663  0.2771
 7527SOL    HW134217   0.702   3.895   0.600 -0.2180  1.1321 -0.1203
 7527SOL    HW234218   0.598   3.895   0.495 -1.1134 -2.0449  0.3979
 7528SOL     OW34219   4.078   2.008  13.626 -0.0001 -0.1013  0.0061
 7528SOL    HW134220   4.020   1.995  13.701  1.1720  0.7420  1.0758
 7528SOL    HW234221   4.155   1.973  13.672 -0.4724 -2.0779 -0.7229
 7529SOL     OW34222   4.642   2.099   6.528 -0.1783  0.1257  0.3139
 7529SOL    HW134223   4.709   2.047   6.485 -0.0719  1.6163 -1.3402
 7529SOL    HW234224   4.685   2.184   6.542 -2.0499  1.2569 -0.7095
 7530SOL     OW34225   0.659   0.351   7.158 -0.8598  0.1483  0.0960
 7530SOL    HW134226   0.685   0.426   7.212  0.2151 -1.0037  1.1805
 7530SOL    HW234227   0.730   0.297   7.191 -0.0220  2.4773  2.1232
 7531SOL     OW34228   4.332   4.584   1.809 -0.0368 -0.2686  0.3398
 7531SOL    HW134229   4.243   4.614   1.828  1.1097  1.3196  3.2912
 7531SOL    HW234230   4.367   4.666   1.774  1.3746 -0.8669  0.3505
 7532SOL     OW34231   0.472   1.786   9.042 -0.0748  0.2776  0.6142
 7532SOL    HW134232   0.450   1.820   9.128 -0.9765  0.1106  0.4457
 7532SOL    HW234233   0.442   1.854   8.982  0.4154 -0.1304 -0.1100
 7533SOL     OW34234   2.052   0.001   1.290  0.4624 -0.7695  0.5149
 7533SOL    HW134235   2.069   4.677   1.362  1.8209 -1.0887 -0.0860
 7533SOL    HW234236   2.050   0.086   1.335  1.2803 -1.4286  1.8065
 7534SOL     OW34237   2.131   2.982   3.314 -0.5298  0.1770 -0.2173
 7534SOL    HW134238   2.219   3.013   3.297 -0.3384 -0.1291  0.2003
 7534SOL    HW234239   2.153   2.908   3.371  1.2202  0.4590 -0.5441
 7535SOL     OW34240   0.475   0.620   1.847 -0.0702  0.2025  0.1877
 7535SOL    HW134241   0.555   0.572   1.828  2.6335  3.9523  2.3015
 7535SOL    HW234242   0.428   0.620   1.763 -2.1058 -0.4209  1.3049
 7536SOL     OW34243   4.153   3.243   3.876 -0.4959 -0.3957 -0.2518
 7536SOL    HW134244   4.243   3.223   3.904 -0.8176 -1.4813  0.0228
 7536SOL    HW234245   4.176   3.269   3.787  0.2806  2.6178  0.8031
 7537SOL     OW34246   1.650   3.798   8.184 -0.1056 -0.1928 -0.5087
 7537SOL    HW134247   1.670   3.805   8.091 -2.0205 -2.9834 -1.1472
 7537SOL    HW234248   1.719   3.735   8.203 -1.5581 -2.1378 -1.6678
 7538SOL     OW34249   0.953   1.703   5.308  0.3162  0.4834  0.4394
 7538SOL    HW134250   0.997   1.654   5.239 -2.3881  0.3209 -1.1760
 7538SOL    HW234251   0.862   1.686   5.283 -0.0911 -0.1229  2.4083
 7539SOL     OW34252   4.313   3.036   0.955 -0.1200  0.6320  0.1816
 7539SOL    HW134253   4.264   3.092   0.895 -1.7466 -0.6487  0.2991
 7539SOL    HW234254   4.401   3.050   0.921 -0.0697 -0.6434 -0.2414
 7540SOL     OW34255   1.742   4.686   9.408  0.6711  0.1337 -0.1265
 7540SOL    HW134256   1.663   4.689   9.354  0.3940 -1.9179  0.1708
 7540SOL    HW234257   1.814   4.685   9.344  0.5550  1.8760 -0.2935
 7541SOL     OW34258   3.707   2.885   8.074 -0.0984 -0.3045  0.4151
 7541SOL    HW134259   3.764   2.958   8.051 -1.9949  0.6574 -1.2396
 7541SOL    HW234260   3.760   2.812   8.042 -0.3564 -0.5304  0.5049
 7542SOL     OW34261   2.572   4.575  12.677 -0.3116 -0.1260 -0.1219
 7542SOL    HW134262   2.505   4.598  12.741  1.3785  1.9194  0.9027
 7542SOL    HW234263   2.639   4.635  12.711 -1.5969  0.1330  1.9309
 7543SOL     OW34264   4.421   3.103   9.041 -0.0075 -0.6612 -0.0601
 7543SOL    HW134265   4.442   3.128   8.951  1.6108  1.5950  0.9636
 7543SOL    HW234266   4.331   3.081   9.015  0.5899 -0.6265 -2.1746
 7544SOL     OW34267   0.923   3.231   2.956 -0.6491 -0.3557 -0.4006
 7544SOL    HW134268   0.938   3.238   2.862 -0.6140  0.3971 -0.3406
 7544SOL    HW234269   0.989   3.285   2.999 -0.2448  0.7853 -2.4739
 7545SOL     OW34270   1.008   0.013   7.839 -0.2808  0.7556 -0.7011
 7545SOL    HW134271   0.940   4.684   7.846  0.8291 -0.3182 -0.0295
 7545SOL    HW234272   1.001   0.064   7.919 -1.6766  0.5252 -0.6687
 7546SOL     OW34273   2.677   3.840   9.264 -0.8472 -0.5895  0.1753
 7546SOL    HW134274   2.772   3.850   9.253 -1.4679  2.5827 -2.1913
 7546SOL    HW234275   2.673   3.751   9.231  1.8694 -0.9620  0.8123
 7547SOL     OW34276   4.698   1.156  15.809  0.7241 -0.1080 -0.2263
 7547SOL    HW134277   4.643   1.232  15.790  0.8627 -0.2347 -1.1494
 7547SOL    HW234278   4.732   1.187  15.893  0.5632 -0.1622 -0.1427
 7548SOL     OW34279   2.311   0.089  12.900 -0.7090 -0.0401 -0.3291
 7548SOL    HW134280   2.380   0.155  12.896 -0.9099  0.1189 -1.1764
 7548SOL    HW234281   2.270   0.082  12.814 -1.3496 -1.8562  0.1104
 7549SOL     OW34282   2.066   0.198   7.957 -0.2327  0.9113 -0.0618
 7549SOL    HW134283   2.049   0.284   7.997  1.8836  0.5152  1.6881
 7549SOL    HW234284   2.017   0.139   8.015 -1.8013  2.1182 -0.1481
 7550SOL     OW34285   1.199   2.893  14.601 -0.0533 -0.4049  0.1749
 7550SOL    HW134286   1.231   2.965  14.654  1.9157 -1.3131  0.2230
 7550SOL    HW234287   1.275   2.884  14.544 -1.0168  0.4377 -1.2426
 7551SOL     OW34288   2.189   4.470   1.023 -0.0811 -0.2238  0.3845
 7551SOL    HW134289   2.222   4.423   0.946  0.1082 -3.1487  2.2637
 7551SOL    HW234290   2.104   4.427   1.032 -0.0178  0.3114  3.3959
 7552SOL     OW34291   4.117   3.744   1.654 -0.5522 -0.3459 -0.4498
 7552SOL    HW134292   4.063   3.681   1.700  1.7207 -1.5798  0.5208
 7552SOL    HW234293   4.075   3.742   1.568 -1.2156 -1.4491 -0.0936
 7553SOL     OW34294   4.505   0.866   5.654  0.4214  0.1564 -0.4244
 7553SOL    HW134295   4.492   0.771   5.659  0.1601  0.1628 -0.9853
 7553SOL    HW234296   4.487   0.901   5.741 -1.6440 -1.1411 -0.3202
 7554SOL     OW34297   1.885   1.926   8.086  0.1150  0.3380 -0.0335
 7554SOL    HW134298   1.975   1.907   8.111  0.3493  1.8966  0.3072
 7554SOL    HW234299   1.867   1.879   8.005 -0.2612 -0.5677  0.5778
 7555SOL     OW34300   2.632   0.014   1.563  0.1966 -0.0250  0.2328
 7555SOL    HW134301   2.589   4.704   1.634  0.6041  1.7318  1.6372
 7555SOL    HW234302   2.615   4.696   1.486 -0.9779  1.1407 -0.3424
 7556SOL     OW34303   4.623   0.330   7.591  0.6876 -0.1273 -0.3663
 7556SOL    HW134304   4.635   0.311   7.684  2.3101  1.0287 -0.3509
 7556SOL    HW234305   4.639   0.425   7.589  0.0165  0.0310  1.4374
 7557SOL     OW34306   4.712   2.337  10.374 -0.1180 -0.3001 -0.1569
 7557SOL    HW134307   4.647   2.333  10.303 -0.5496 -1.4767  0.3059
 7557SOL    HW234308   0.002   2.425  10.350 -0.8379  0.6854  2.6086
 7558SOL     OW34309   4.349   1.194  16.074 -0.2001 -0.2135 -0.0103
 7558SOL    HW134310   4.268   1.166  16.116 -1.5634  2.5303 -0.8230
 7558SOL    HW234311   4.392   1.244  16.143 -3.4874  1.4251  0.8518
 7559SOL     OW34312   2.832   0.889  12.548  0.0134 -0.6537  0.1496
 7559SOL    HW134313   2.863   0.906  12.637 -0.3407 -2.3281  0.5957
 7559SOL    HW234314   2.763   0.826  12.570  0.3208 -1.0015  0.1169
 7560SOL     OW34315   4.223   0.037   2.204 -0.0475  0.2536 -0.3987
 7560SOL    HW134316   4.242   0.131   2.205  0.8464  0.0593  0.2777
 7560SOL    HW234317   4.162   0.037   2.130 -1.9817 -1.0818  1.1912
 7561SOL     OW34318   1.418   0.807  12.609  0.1470  0.0097 -0.2139
 7561SOL    HW134319   1.392   0.738  12.670 -0.4999 -0.5294 -1.1099
 7561SOL    HW234320   1.332   0.834  12.578  0.2582 -0.8174 -1.2481
 7562SOL     OW34321   3.799   1.156   6.696  0.1977 -0.3458  0.1770
 7562SOL    HW134322   3.772   1.112   6.616 -4.2120 -1.8117  2.4473
 7562SOL    HW234323   3.783   1.247   6.670 -2.9271 -0.8733  0.2238
 7563SOL     OW34324   4.377   3.918   4.154 -0.1580  0.6091  0.2450
 7563SOL    HW134325   4.288   3.927   4.190  0.5958  1.8634  1.7853
 7563SOL    HW234326   4.396   3.999   4.108 -0.7832  0.5705 -0.0921
 7564SOL     OW34327   3.165   3.623   3.399 -0.9966  0.2982  0.3736
 7564SOL    HW134328   3.211   3.540   3.416 -0.3680  0.2245 -1.6799
 7564SOL    HW234329   3.106   3.629   3.474  0.1311  0.5753  1.2259
 7565SOL     OW34330   2.463   1.255  14.074 -0.3322  0.3964 -0.3144
 7565SOL    HW134331   2.436   1.307  14.149 -0.4585 -0.0540 -0.0429
 7565SOL    HW234332   2.536   1.206  14.112 -0.9726  0.3309  0.8123
 7566SOL     OW34333   3.320   3.602   5.450 -0.3103 -0.0873  0.3371
 7566SOL    HW134334   3.334   3.515   5.487  0.5912 -0.6140 -1.2502
 7566SOL    HW234335   3.355   3.594   5.361  0.1706  1.3636  0.3926
 7567SOL     OW34336   0.071   0.437  15.183  0.3907 -0.6561  0.0458
 7567SOL    HW134337   0.120   0.473  15.258 -0.9090  0.1298  0.5090
 7567SOL    HW234338   0.058   0.510  15.123  0.5291  0.4483  1.3461
 7568SOL     OW34339   2.775   0.543   6.011  0.1859  0.2155 -0.2038
 7568SOL    HW134340   2.793   0.551   5.918  0.3716 -0.6929 -0.2461
 7568SOL    HW234341   2.783   0.449   6.024 -1.5476 -0.1568 -2.0037
 7569SOL     OW34342   3.302   3.512   2.881 -0.2331 -0.7065 -0.1280
 7569SOL    HW134343   3.232   3.572   2.855  0.6780  0.7821  0.7937
 7569SOL    HW234344   3.269   3.487   2.968  0.9395 -0.1232  0.4858
 7570SOL     OW34345   1.474   0.660   8.602 -0.0820  0.2220  0.1256
 7570SOL    HW134346   1.449   0.696   8.687  0.8765  1.0004  0.0830
 7570SOL    HW234347   1.496   0.739   8.552 -0.1304  1.1550  1.5920
 7571SOL     OW34348   1.044   2.809   4.009  0.6467 -0.7199  0.0346
 7571SOL    HW134349   1.018   2.884   4.062  1.2561 -0.5527  0.0913
 7571SOL    HW234350   1.090   2.763   4.080 -1.9203 -1.2048  1.3938
 7572SOL     OW34351   0.742   0.775   7.062 -0.4115  0.4742 -0.6196
 7572SOL    HW134352   0.685   0.821   7.124 -1.0308  0.4088 -1.1484
 7572SOL    HW234353   0.787   0.851   7.024 -0.6054  0.9575  0.1165
 7573SOL     OW34354   0.106   4.350   7.307  0.2043 -0.0603 -0.2805
 7573SOL    HW134355   0.066   4.369   7.222  0.1438 -1.3278 -0.5350
 7573SOL    HW234356   0.045   4.373   7.377 -0.8732 -0.4010 -1.1067
 7574SOL     OW34357   2.610   1.644  17.634 -0.3426  0.4496 -0.3022
 7574SOL    HW134358   2.686   1.662  17.689  1.7867  0.0152 -3.1098
 7574SOL    HW234359   2.640   1.602  17.553  1.1276 -0.6153  0.7832
 7575SOL     OW34360   3.576   0.241   8.757 -0.0434 -0.5612 -0.2694
 7575SOL    HW134361   3.656   0.220   8.708 -1.1654 -2.5702 -1.2506
 7575SOL    HW234362   3.515   0.171   8.735  0.9093 -1.3450 -0.4213
 7576SOL     OW34363   0.123   4.440   6.120 -0.2549  0.1554 -0.1633
 7576SOL    HW134364   0.110   4.530   6.089 -0.7099  0.5234  1.1064
 7576SOL    HW234365   0.125   4.389   6.039  0.4451  2.6168 -1.7070
 7577SOL     OW34366   3.439   4.654   9.979 -0.5311 -0.2982  0.2008
 7577SOL    HW134367   3.390   4.573   9.968  1.1398 -1.3161  0.2466
 7577SOL    HW234368   3.451   4.665   9.885 -2.8305 -2.1048 -0.3016
 7578SOL     OW34369   1.846   1.896   5.181 -0.0283 -0.0915  0.1816
 7578SOL    HW134370   1.763   1.922   5.142 -0.2921 -0.4761  0.4912
 7578SOL    HW234371   1.891   1.980   5.172  1.0580 -0.7393 -0.5157
 7579SOL     OW34372   1.462   3.463   8.358  0.3271  0.0622  0.1292
 7579SOL    HW134373   1.512   3.523   8.414 -0.1086  1.6283 -1.1584
 7579SOL    HW234374   1.434   3.521   8.286  0.2855 -1.7662 -1.3393
 7580SOL     OW34375   2.281   0.064   5.578  0.2312  0.2601  0.0636
 7580SOL    HW134376   2.205   0.010   5.599  0.7254 -1.9156 -3.6005
 7580SOL    HW234377   2.247   0.143   5.620  1.9323  0.4491  1.0918
 7581SOL     OW34378   3.853   2.158  11.307  0.0286  0.2831 -0.4623
 7581SOL    HW134379   3.858   2.174  11.401  0.2836  2.5127 -0.8774
 7581SOL    HW234380   3.867   2.063  11.307 -2.4122 -0.0720 -2.6526
 7582SOL     OW34381   2.067   1.818   3.784 -0.2106  0.3461  0.2565
 7582SOL    HW134382   2.112   1.736   3.806 -0.2594  0.3994  0.5435
 7582SOL    HW234383   2.118   1.838   3.705  1.3765 -1.7374  0.7283
 7583SOL     OW34384   1.441   4.650   2.772  0.1018 -0.7927  0.9228
 7583SOL    HW134385   1.369   4.684   2.824 -1.9900 -1.4132 -1.5400
 7583SOL    HW234386   1.437   4.554   2.770  1.3226 -0.8477  1.4032
 7584SOL     OW34387   0.349   3.364  12.122 -0.0972  0.3175 -0.4667
 7584SOL    HW134388   0.384   3.321  12.200 -0.7225  0.2200 -0.2453
 7584SOL    HW234389   0.431   3.369  12.073 -0.4811 -0.3492 -1.1643
 7585SOL     OW34390   3.778   3.353   9.878  0.2399  0.1111  0.4356
 7585SOL    HW134391   3.798   3.388   9.965  0.3263 -1.5239  1.0677
 7585SOL    HW234392   3.684   3.359   9.862  0.3454  0.7552  0.0591
 7586SOL     OW34393   4.144   3.031   4.450  0.1944 -0.3037  0.1074
 7586SOL    HW134394   4.073   3.024   4.514  0.6294 -0.1842  0.6051
 7586SOL    HW234395   4.187   2.947   4.465  0.4627 -0.3678 -1.0323
 7587SOL     OW34396   4.435   0.492   7.849  0.5001 -0.3826 -0.1011
 7587SOL    HW134397   4.469   0.579   7.828  0.7008 -0.2664  0.6972
 7587SOL    HW234398   4.508   0.458   7.900 -0.1398 -2.4711 -0.5965
 7588SOL     OW34399   2.511   4.039  13.945  0.0050  0.0575 -0.6108
 7588SOL    HW134400   2.514   3.996  13.859  0.8848 -1.2831  0.1070
 7588SOL    HW234401   2.472   3.976  14.005 -1.2339 -0.7131 -2.2272
 7589SOL     OW34402   0.861   4.698   3.804  0.3378 -0.4144  0.2799
 7589SOL    HW134403   0.789   4.674   3.745  0.6235  2.2934 -1.1820
 7589SOL    HW234404   0.816   0.014   3.870  0.5968 -0.5981  0.6053
 7590SOL     OW34405   0.352   4.243   1.241  0.2257  0.4598 -0.9517
 7590SOL    HW134406   0.335   4.317   1.298  2.3324 -0.0324  0.3178
 7590SOL    HW234407   0.447   4.250   1.234  0.1851  2.5806  0.6926
 7591SOL     OW34408   2.377   4.201  11.546  0.7798  0.2759 -0.0701
 7591SOL    HW134409   2.362   4.287  11.585 -2.4546  0.1735 -1.0380
 7591SOL    HW234410   2.392   4.154  11.628  0.8101  1.2552  0.4818
 7592SOL     OW34411   0.828   2.401   5.775  0.0067  0.4413 -0.2369
 7592SOL    HW134412   0.760   2.412   5.842  0.2174  0.4533 -0.0260
 7592SOL    HW234413   0.806   2.314   5.741 -0.2532  0.6576 -0.6316
 7593SOL     OW34414   3.942   0.630  12.362 -0.0051 -0.0387 -0.2587
 7593SOL    HW134415   3.988   0.706  12.326 -0.2691  0.7203  1.0198
 7593SOL    HW234416   3.995   0.612  12.439 -0.4029 -3.5563 -0.8016
 7594SOL     OW34417   0.374   3.678  11.084  0.2602 -0.0483 -0.1380
 7594SOL    HW134418   0.343   3.764  11.057  1.3877  0.7443  1.0713
 7594SOL    HW234419   0.464   3.692  11.055 -0.7211  0.1129 -3.0449
 7595SOL     OW34420   1.327   3.869  14.705 -0.5591  0.0588 -0.5034
 7595SOL    HW134421   1.305   3.961  14.718 -1.3677 -0.2186  0.0706
 7595SOL    HW234422   1.250   3.826  14.741 -0.3848  0.1618 -0.0086
 7596SOL     OW34423   1.355   4.729   4.570  0.2872 -0.8101  0.7163
 7596SOL    HW134424   1.269   0.031   4.553 -0.0147 -1.9865 -0.4899
 7596SOL    HW234425   1.350   4.699   4.660  0.9465  0.7384  1.2739
 7597SOL     OW34426   4.272   4.127   5.631  0.3061  0.5635  0.0871
 7597SOL    HW134427   4.201   4.091   5.684 -0.7269 -1.7031 -2.7967
 7597SOL    HW234428   4.314   4.048   5.599 -0.6116  1.0900 -2.4451
 7598SOL     OW34429   0.992   2.562  14.667 -0.5263  0.2401  0.3097
 7598SOL    HW134430   0.926   2.551  14.735  0.1023 -2.0714  0.5577
 7598SOL    HW234431   1.072   2.537  14.715  0.4797  3.8974  0.5031
 7599SOL     OW34432   0.555   3.336   2.896 -0.0628 -0.6509  0.2524
 7599SOL    HW134433   0.572   3.304   2.985  0.9659 -1.4344 -0.2191
 7599SOL    HW234434   0.498   3.269   2.859 -0.9633  0.9573 -1.2522
 7600SOL     OW34435   3.067   3.778   1.772  0.0212 -0.4935  0.2168
 7600SOL    HW134436   3.015   3.739   1.703  1.3105  0.6974 -1.4284
 7600SOL    HW234437   3.067   3.869   1.742  2.2443 -0.0620  1.4488
 7601SOL     OW34438   2.395   1.954   3.050 -0.0640 -0.3529 -0.0723
 7601SOL    HW134439   2.302   1.951   3.073 -0.0670  1.7872  0.1718
 7601SOL    HW234440   2.426   1.889   3.114 -0.3811 -1.1767 -0.7563
 7602SOL     OW34441   0.177   1.212   6.136 -0.2112  0.0030 -0.2189
 7602SOL    HW134442   0.132   1.283   6.092  1.2341  1.7350  1.1049
 7602SOL    HW234443   0.206   1.150   6.068  1.0207 -1.3863  1.5659
 7603SOL     OW34444   3.584   2.345  16.773  0.2120  0.1358  0.5731
 7603SOL    HW134445   3.506   2.304  16.810 -1.7317  2.0660 -1.3358
 7603SOL    HW234446   3.593   2.311  16.684 -0.4129  0.8286  0.2516
 7604SOL     OW34447   4.516   3.561   7.244 -0.1479  0.3454 -0.2179
 7604SOL    HW134448   4.599   3.595   7.278 -0.3435 -0.4745  1.0820
 7604SOL    HW234449   4.470   3.644   7.236  0.3629  0.6951  0.4950
 7605SOL     OW34450   3.398   3.216   3.995 -0.2387 -0.2089  0.2640
 7605SOL    HW134451   3.364   3.286   4.051 -2.1514  1.1650 -2.6229
 7605SOL    HW234452   3.328   3.153   4.013  0.8306 -1.9910 -1.9328
 7606SOL     OW34453   0.550   0.919   7.221  0.3559 -0.3630  0.0567
 7606SOL    HW134454   0.543   0.938   7.315 -0.1212  0.1670 -0.0820
 7606SOL    HW234455   0.536   1.005   7.182  2.4457 -0.6643 -1.3751
 7607SOL     OW34456   2.217   4.095   2.698 -0.0288 -0.1674 -0.1496
 7607SOL    HW134457   2.279   4.137   2.638 -1.3215  3.2391  0.9486
 7607SOL    HW234458   2.175   4.026   2.648  1.6726 -2.2729  1.2976
 7608SOL     OW34459   2.216   0.121   6.373  0.2511 -0.3311  0.3387
 7608SOL    HW134460   2.176   0.201   6.337 -0.7337 -1.2646 -0.6599
 7608SOL    HW234461   2.149   0.076   6.424  1.1995 -1.2157  0.8057
 7609SOL     OW34462   0.496   3.674  12.813  0.2602  0.4884  0.3919
 7609SOL    HW134463   0.495   3.626  12.896  2.3173 -2.0016 -1.0148
 7609SOL    HW234464   0.420   3.731  12.824 -0.7457 -0.6334 -0.8028
 7610SOL     OW34465   2.419   2.044  14.989 -0.2191 -0.1301 -0.3079
 7610SOL    HW134466   2.427   2.138  14.999  1.0755 -0.4867  2.1244
 7610SOL    HW234467   2.499   2.018  15.035 -0.4877 -1.5956 -0.6374
 7611SOL     OW34468   3.796   4.603  10.900 -0.2238 -0.4561  0.0782
 7611SOL    HW134469   3.758   4.600  10.988  1.1157 -1.2534  0.6324
 7611SOL    HW234470   3.746   4.535  10.856 -1.4839  2.5034 -3.0877
 7612SOL     OW34471   0.998   4.243   7.874  0.0448  0.0687  0.2329
 7612SOL    HW134472   0.979   4.287   7.791  0.5571  4.2979  2.3498
 7612SOL    HW234473   1.071   4.182   7.863 -0.8038 -1.0112  0.5853
 7613SOL     OW34474   2.939   3.554  14.192  0.0960  0.0159 -0.1054
 7613SOL    HW134475   2.867   3.616  14.203 -1.1172 -1.5931  0.8282
 7613SOL    HW234476   2.974   3.545  14.280  3.3037 -1.1848 -1.4718
 7614SOL     OW34477   0.414   3.977   1.894 -0.0152  0.8116 -0.2768
 7614SOL    HW134478   0.466   3.903   1.925 -0.1053 -0.5260 -3.2485
 7614SOL    HW234479   0.454   3.989   1.808  0.8361  0.6415  0.0929
 7615SOL     OW34480   4.689   1.057   7.735 -0.2205 -0.3242 -0.1355
 7615SOL    HW134481   4.729   0.979   7.774 -0.9576 -0.0968  1.0695
 7615SOL    HW234482   4.621   1.021   7.679  0.0336 -1.0765  0.0328
 7616SOL     OW34483   1.165   0.256   5.103  0.7057  0.2953  0.1679
 7616SOL    HW134484   1.117   0.317   5.047 -0.1607  1.0565  1.7639
 7616SOL    HW234485   1.096   0.220   5.159 -0.0020  0.7927 -0.3740
 7617SOL     OW34486   3.895   3.201   8.786  0.1056 -0.1373 -0.0569
 7617SOL    HW134487   3.851   3.124   8.824  1.4393  0.7245  3.2530
 7617SOL    HW234488   3.956   3.222   8.857 -1.3819 -0.1025  1.2138
 7618SOL     OW34489   0.051   4.231   2.118 -0.0518  0.1555 -0.3546
 7618SOL    HW134490   4.736   4.151   2.125  2.2377 -1.4544 -1.7275
 7618SOL    HW234491   0.032   4.280   2.198 -1.7026 -0.2186 -0.5086
 7619SOL     OW34492   0.144   2.151   8.828 -0.4428  0.1469 -0.3332
 7619SOL    HW134493   0.114   2.216   8.891  0.5501  0.5035 -0.2369
 7619SOL    HW234494   0.137   2.194   8.743 -4.0238  0.0070 -0.1045
 7620SOL     OW34495   3.788   3.001   8.939 -0.1762 -0.0532 -0.5781
 7620SOL    HW134496   3.724   2.962   8.879 -0.5724  1.0322 -0.8582
 7620SOL    HW234497   3.722   3.047   8.990  0.5802  0.1046  0.2609
 7621SOL     OW34498   2.738   1.530   3.429  0.1129  0.4101 -0.3116
 7621SOL    HW134499   2.732   1.445   3.385  0.1054 -0.7528  1.8698
 7621SOL    HW234500   2.671   1.576   3.380  0.2902  0.3644 -0.5946
 7622SOL     OW34501   3.864   3.088   8.008  0.0975  0.7957  0.4971
 7622SOL    HW134502   3.855   3.135   8.091  2.2326 -0.8778  1.6666
 7622SOL    HW234503   3.950   3.123   7.983  0.4736 -2.8917 -3.2891
 7623SOL     OW34504   0.849   4.543   4.899 -0.0423  0.2990 -0.3464
 7623SOL    HW134505   0.860   4.450   4.920 -1.4618  0.5726  1.6949
 7623SOL    HW234506   0.833   4.583   4.985 -1.5963 -1.0198 -0.0032
 7624SOL     OW34507   2.438   1.000  10.563 -0.3664  0.1122 -0.4617
 7624SOL    HW134508   2.398   1.063  10.622 -1.5584  0.2661 -1.4404
 7624SOL    HW234509   2.362   0.943  10.551  0.3483 -0.6705 -1.3416
 7625SOL     OW34510   2.942   0.874   6.264 -0.4961  0.6445 -0.3068
 7625SOL    HW134511   2.963   0.959   6.304 -0.0521  0.6517 -0.5561
 7625SOL    HW234512   2.847   0.875   6.258 -0.4804  0.9060 -0.5353
 7626SOL     OW34513   1.740   3.555   2.481  0.6426  0.1629 -0.0110
 7626SOL    HW134514   1.769   3.512   2.401 -1.7913 -2.2138  0.3690
 7626SOL    HW234515   1.811   3.615   2.501 -0.1039  1.3024 -0.7967
 7627SOL     OW34516   3.932   2.802   7.280  0.2508 -0.3010  0.0736
 7627SOL    HW134517   3.994   2.873   7.265 -0.1145  0.2396  1.1398
 7627SOL    HW234518   3.926   2.794   7.375 -0.0826 -0.6282  0.0258
 7628SOL     OW34519   2.290   2.824   1.818  0.2336  0.1697  0.1795
 7628SOL    HW134520   2.378   2.801   1.847 -0.2919  0.7923  2.2444
 7628SOL    HW234521   2.269   2.901   1.870 -1.4815  0.2245 -0.5719
 7629SOL     OW34522   2.117   0.753   1.481 -0.4712  0.4983 -0.1543
 7629SOL    HW134523   2.025   0.740   1.504 -0.4060 -0.7338 -0.5594
 7629SOL    HW234524   2.144   0.664   1.458  0.2713  0.7582 -0.3030
 7630SOL     OW34525   3.137   0.960   9.520  0.5585  0.6600  0.1660
 7630SOL    HW134526   3.191   1.021   9.570  1.5804  0.3295 -0.5264
 7630SOL    HW234527   3.087   0.933   9.596  0.0898  0.4068 -0.2298
 7631SOL     OW34528   4.562   1.586  16.395  0.2109 -0.4307  0.5110
 7631SOL    HW134529   4.637   1.587  16.454  0.4769  0.0786  0.1656
 7631SOL    HW234530   4.570   1.669  16.347 -1.4961 -1.2203 -1.1618
 7632SOL     OW34531   4.689   2.172   7.469 -0.4623 -1.0847  0.3560
 7632SOL    HW134532   4.719   2.229   7.398  0.0640 -0.9005  0.7274
 7632SOL    HW234533   0.016   2.103   7.457 -0.3514 -0.3276 -3.3866
 7633SOL     OW34534   3.266   2.927   7.608 -0.3949 -0.1258  0.2342
 7633SOL    HW134535   3.314   2.981   7.545  1.4875  0.5493  2.2259
 7633SOL    HW234536   3.232   3.001   7.658  0.6569  0.4094  0.1751
 7634SOL     OW34537   3.436   0.802   6.673  0.0894  0.0794 -0.2666
 7634SOL    HW134538   3.395   0.855   6.604 -3.1846 -1.1155  0.7511
 7634SOL    HW234539   3.512   0.768   6.625 -0.1974  1.2423 -1.5448
 7635SOL     OW34540   1.044   1.825   3.698  0.3017  0.5823 -0.2150
 7635SOL    HW134541   1.004   1.773   3.629 -0.8840  0.1246  0.8036
 7635SOL    HW234542   0.975   1.890   3.715 -2.4180 -1.7110 -2.3840
 7636SOL     OW34543   2.013   3.588   8.697 -0.1221  0.3964 -0.2507
 7636SOL    HW134544   1.993   3.585   8.791  2.1910  0.7452  0.2664
 7636SOL    HW234545   1.934   3.551   8.659  0.0663 -1.7307  1.4730
 7637SOL     OW34546   3.685   2.182   6.696  0.3168  0.2011 -0.2244
 7637SOL    HW134547   3.736   2.150   6.770  0.6013 -1.5668 -1.1745
 7637SOL    HW234548   3.611   2.213   6.748 -0.9576  1.5204 -2.7914
 7638SOL     OW34549   2.535   2.737   1.919  0.0915 -0.3908 -0.3408
 7638SOL    HW134550   2.603   2.680   1.955  0.7368  0.9909  0.6460
 7638SOL    HW234551   2.586   2.772   1.846  0.4744  2.1679  1.1392
 7639SOL     OW34552   3.872   0.833   6.869 -0.4695  0.1156 -0.4181
 7639SOL    HW134553   3.812   0.798   6.935  2.0080 -2.2050  0.5895
 7639SOL    HW234554   3.902   0.909   6.919  0.4955 -0.7615  0.3271
 7640SOL     OW34555   3.403   2.528  13.507  0.2390  0.2078  0.5107
 7640SOL    HW134556   3.436   2.470  13.438  1.0462 -0.9609  1.8606
 7640SOL    HW234557   3.310   2.507  13.499  0.9812 -2.4515 -1.4707
 7641SOL     OW34558   4.671   0.227   3.669  0.7716  0.7086  0.1045
 7641SOL    HW134559   0.029   0.230   3.671  0.8039  0.8579 -3.0767
 7641SOL    HW234560   4.654   0.212   3.577 -2.4543  0.4121  0.7672
 7642SOL     OW34561   0.938   2.604   4.447  0.2582  0.1692  0.3307
 7642SOL    HW134562   1.029   2.617   4.419  0.0871  1.2372  0.2903
 7642SOL    HW234563   0.930   2.692   4.482  1.3729 -0.9074  3.3894
 7643SOL     OW34564   1.340   0.479   6.446 -0.2856  0.0864  0.5134
 7643SOL    HW134565   1.253   0.518   6.438  0.3177  1.5223  0.8339
 7643SOL    HW234566   1.329   0.419   6.372 -1.1919 -0.4919  1.1120
 7644SOL     OW34567   3.708   3.907   1.276 -0.0106  0.0688 -0.5440
 7644SOL    HW134568   3.771   3.938   1.341  1.6439 -0.3005 -1.9895
 7644SOL    HW234569   3.742   3.936   1.192 -1.0002  1.6676 -0.4029
 7645SOL     OW34570   1.094   1.151   4.929 -0.4251  0.4660  0.1930
 7645SOL    HW134571   1.185   1.179   4.937 -0.0866 -0.1013 -1.8104
 7645SOL    HW234572   1.071   1.147   5.022  0.7699 -0.4900  0.4504
 7646SOL     OW34573   2.726   0.075   4.938  0.1982 -0.4280  0.4804
 7646SOL    HW134574   2.769   4.728   4.942  1.0887 -0.1317 -3.2073
 7646SOL    HW234575   2.639   0.071   4.978 -0.6041  0.1850 -1.2256
 7647SOL     OW34576   1.572   3.918   5.874  0.4016 -0.1503  0.2068
 7647SOL    HW134577   1.663   3.948   5.878  0.6955 -0.8222 -1.4317
 7647SOL    HW234578   1.571   3.833   5.920  2.3647 -0.2529  0.0576
 7648SOL     OW34579   0.835   1.211   3.389  0.2263  0.5387  0.0560
 7648SOL    HW134580   0.909   1.238   3.444 -0.0472  0.7185  0.3384
 7648SOL    HW234581   0.760   1.214   3.448  0.4528 -0.9432  0.4299
 7649SOL     OW34582   2.441   3.678  11.626  0.2005  0.0343  0.1564
 7649SOL    HW134583   2.408   3.734  11.696 -2.0511  0.0498 -0.9075
 7649SOL    HW234584   2.359   3.627  11.625 -1.1978  2.2470  1.1718
 7650SOL     OW34585   3.152   2.501  14.927  0.0967  0.1978 -0.0889
 7650SOL    HW134586   3.093   2.433  14.893  0.0911  0.1993 -0.0821
 7650SOL    HW234587   3.223   2.475  14.868  0.9548 -0.2025  1.1393
 7651SOL     OW34588   0.754   4.345   2.037 -0.0312  0.4427  0.2864
 7651SOL    HW134589   0.769   4.313   1.948  0.8540  0.4521  0.4267
 7651SOL    HW234590   0.745   4.440   2.028  1.5221  0.4151 -1.6556
 7652SOL     OW34591   0.068   1.026   1.885  0.4955 -0.2114  0.1863
 7652SOL    HW134592   0.061   0.934   1.913  1.4615  0.3347  2.1614
 7652SOL    HW234593   0.003   1.062   1.945  0.1761  0.7098 -0.7029
 7653SOL     OW34594   1.386   2.717   6.582 -0.2167 -0.1563  0.6077
 7653SOL    HW134595   1.431   2.767   6.514 -0.4862  0.6234  1.0011
 7653SOL    HW234596   1.405   2.757   6.666  1.0878  1.9803 -0.6980
 7654SOL     OW34597   1.522   2.870   6.380  0.0731  0.3457  0.0391
 7654SOL    HW134598   1.585   2.879   6.309  0.7128 -0.6209  0.4838
 7654SOL    HW234599   1.500   2.960   6.405  0.5588  1.1304 -2.3633
 7655SOL     OW34600   2.337   3.051   5.582  0.4194  0.0839  0.0980
 7655SOL    HW134601   2.414   3.073   5.635 -0.1912  0.0372  0.9985
 7655SOL    HW234602   2.371   3.026   5.496 -2.6096 -0.2798 -1.0103
 7656SOL     OW34603   3.293   0.237   3.657  0.1874 -0.4500  0.1605
 7656SOL    HW134604   3.202   0.243   3.630  0.2902 -0.5158 -0.2001
 7656SOL    HW234605   3.287   0.266   3.748 -2.1534  2.0061 -0.7783
 7657SOL     OW34606   2.355   0.305  16.803 -0.0396  0.3176  0.5615
 7657SOL    HW134607   2.266   0.331  16.780 -0.7435  0.7399  3.8115
 7657SOL    HW234608   2.356   0.210  16.815  0.6906  0.1987 -0.4072
 7658SOL     OW34609   2.739   2.756   7.050  0.1861  0.1673  0.5999
 7658SOL    HW134610   2.646   2.740   7.063  0.3076 -1.9711 -1.1430
 7658SOL    HW234611   2.778   2.668   7.052 -0.6788 -0.1517  3.1043
 7659SOL     OW34612   0.399   4.492   3.122  0.2658  0.0657 -0.1283
 7659SOL    HW134613   0.322   4.466   3.173  0.7840 -1.1759  0.0195
 7659SOL    HW234614   0.397   4.588   3.124  1.4150  0.1652 -3.7751
 7660SOL     OW34615   1.916   2.978   1.962 -0.2386 -0.5492  0.8486
 7660SOL    HW134616   1.954   2.899   2.000 -2.5139 -2.2782 -0.4346
 7660SOL    HW234617   1.826   2.949   1.949  0.1417 -0.7335 -1.5170
 7661SOL     OW34618   3.898   1.358   7.749 -0.1943 -0.7066  0.5944
 7661SOL    HW134619   3.890   1.313   7.833  0.4831 -0.4482  0.7995
 7661SOL    HW234620   3.971   1.311   7.708  1.6469  1.3110  1.5662
 7662SOL     OW34621   3.557   2.253   6.911  0.0870 -0.4188 -0.0935
 7662SOL    HW134622   3.589   2.189   6.975 -0.3150 -0.0857  0.4404
 7662SOL    HW234623   3.609   2.330   6.936 -0.4288  0.1707 -0.8548
 7663SOL     OW34624   1.963   3.456   6.993  0.6160 -0.1007 -0.0749
 7663SOL    HW134625   1.897   3.480   6.927 -0.2045 -0.4162  0.6296
 7663SOL    HW234626   2.014   3.537   7.002 -0.2014  0.6292 -1.8672
 7664SOL     OW34627   4.547   2.405   2.420 -0.0696  0.4640 -0.5140
 7664SOL    HW134628   4.582   2.362   2.497 -3.8269 -0.1341  0.8486
 7664SOL    HW234629   4.576   2.496   2.428  0.7197  0.0320  1.4865
 7665SOL     OW34630   1.771   4.560   5.974  0.4455 -0.5423  0.4303
 7665SOL    HW134631   1.802   4.475   5.945 -0.8597 -0.7392 -0.3628
 7665SOL    HW234632   1.680   4.532   5.987  0.4132  0.1552  1.7429
 7666SOL     OW34633   1.260   0.791   3.997  0.2963 -0.1803 -0.0366
 7666SOL    HW134634   1.242   0.700   3.974  0.4171 -0.3882  0.6798
 7666SOL    HW234635   1.178   0.839   3.987 -1.0808 -2.9130 -1.4601
 7667SOL     OW34636   4.138   3.368   6.309 -0.2620  0.1316  0.3808
 7667SOL    HW134637   4.173   3.279   6.319 -0.8541  0.2012  2.9490
 7667SOL    HW234638   4.143   3.381   6.214  0.5508  1.2014  0.5807
 7668SOL     OW34639   0.284   0.257   5.547 -0.5551 -0.2661 -0.7395
 7668SOL    HW134640   0.301   0.163   5.548 -0.8251 -0.3107  0.1172
 7668SOL    HW234641   0.312   0.271   5.457  0.3712 -0.9609 -0.5595
 7669SOL     OW34642   0.287   3.878  12.807  0.2230 -0.2356  0.0014
 7669SOL    HW134643   0.219   3.817  12.780 -1.3558  1.5143  0.0761
 7669SOL    HW234644   0.255   3.962  12.777  0.4212  0.4040  1.5766
 7670SOL     OW34645   2.184   1.104  12.610 -0.3071  0.4605 -0.2432
 7670SOL    HW134646   2.203   1.197  12.602  3.7438 -0.3886 -0.5600
 7670SOL    HW234647   2.259   1.081  12.665 -0.7218  0.5753  0.3752
 7671SOL     OW34648   3.350   4.486   2.331 -0.4899 -0.2979 -0.1907
 7671SOL    HW134649   3.300   4.444   2.261 -0.9702  0.5796 -0.3764
 7671SOL    HW234650   3.365   4.565   2.280  1.3142 -1.7873 -1.9566
 7672SOL     OW34651   4.028   4.051   4.721 -0.2321 -0.1104  0.7937
 7672SOL    HW134652   4.097   4.099   4.675  0.4849 -2.6544 -0.7413
 7672SOL    HW234653   4.076   4.002   4.787 -1.7120 -0.9220  1.2565
 7673SOL     OW34654   1.414   2.196   2.142  0.2566  0.3345 -0.0946
 7673SOL    HW134655   1.371   2.121   2.101  1.2807 -0.6548  0.6212
 7673SOL    HW234656   1.494   2.194   2.088  0.6039 -0.5201  0.4634
 7674SOL     OW34657   3.842   3.713  10.206 -0.2617 -0.2710 -0.2900
 7674SOL    HW134658   3.802   3.764  10.136  2.1464  0.4664 -1.1404
 7674SOL    HW234659   3.845   3.778  10.276  1.6160  0.3052 -0.9182
 7675SOL     OW34660   0.804   1.221   7.512 -0.0170  0.0524  0.2435
 7675SOL    HW134661   0.781   1.229   7.419  3.6492 -2.5005 -0.8721
 7675SOL    HW234662   0.878   1.161   7.508  0.6442  0.9104 -0.6855
 7676SOL     OW34663   3.150   0.037   0.935 -0.1023  0.2480 -0.0519
 7676SOL    HW134664   3.086   0.107   0.951  2.1285  2.5567 -1.3115
 7676SOL    HW234665   3.205   0.085   0.874  0.7653 -0.8129 -0.1001
 7677SOL     OW34666   2.684   0.393   0.518  0.5784 -0.6634  0.1609
 7677SOL    HW134667   2.701   0.456   0.448 -1.1374 -0.3590  0.0044
 7677SOL    HW234668   2.670   0.312   0.468 -2.9379  0.1816 -0.2865
 7678SOL     OW34669   3.384   1.711   0.879 -0.3542  0.1115 -0.1027
 7678SOL    HW134670   3.436   1.787   0.902  2.1560 -1.3658 -0.8067
 7678SOL    HW234671   3.442   1.636   0.892  2.1117  2.5152  2.5497
 7679SOL     OW34672   1.688   1.200   7.796  0.0171  0.1059 -0.2727
 7679SOL    HW134673   1.597   1.212   7.768  0.4801 -1.4319 -2.5093
 7679SOL    HW234674   1.727   1.154   7.721  1.5217 -2.1421  1.9069
 7680SOL     OW34675   1.930   3.922  11.297  0.4029  0.3097  0.1770
 7680SOL    HW134676   1.991   3.962  11.359 -1.0012  2.5687  0.0779
 7680SOL    HW234677   1.917   3.835  11.334  0.3727 -0.0123 -0.6005
 7681SOL     OW34678   4.392   3.003   8.377 -0.2808  0.3998  0.3501
 7681SOL    HW134679   4.399   2.998   8.472  3.7282 -0.2102  0.0428
 7681SOL    HW234680   4.300   3.029   8.382 -1.1106 -2.3788 -0.2105
 7682SOL     OW34681   0.472   1.158  13.326 -0.7410  0.2063  0.7156
 7682SOL    HW134682   0.556   1.193  13.357 -0.5767 -0.4098  0.9553
 7682SOL    HW234683   0.444   1.107  13.402  1.1499 -0.0819  1.2254
 7683SOL     OW34684   2.811   2.653   6.277  0.3522  0.0347 -0.2080
 7683SOL    HW134685   2.838   2.740   6.247  1.7665 -0.3726 -0.0942
 7683SOL    HW234686   2.838   2.595   6.206 -1.0412 -1.2564  0.3072
 7684SOL     OW34687   4.734   0.051   4.992 -0.0483 -0.3557 -0.4012
 7684SOL    HW134688   0.033   0.131   4.954  1.0628  0.2847  2.0221
 7684SOL    HW234689   0.071   0.028   5.046 -1.2929 -0.6754  1.1928
 7685SOL     OW34690   4.359   0.840   8.293 -0.1431  0.6346  0.2442
 7685SOL    HW134691   4.272   0.811   8.318  0.6609  1.4213  3.9585
 7685SOL    HW234692   4.365   0.930   8.325 -0.8137  0.5652  0.5631
 7686SOL     OW34693   4.231   0.830   2.511 -0.2107 -0.5772 -0.8427
 7686SOL    HW134694   4.151   0.876   2.488 -0.3776 -0.2315  0.4099
 7686SOL    HW234695   4.204   0.752   2.561 -0.7162  0.7462  0.9440
 7687SOL     OW34696   0.622   0.337   5.981  0.1922  0.1741 -0.1445
 7687SOL    HW134697   0.638   0.278   6.055  1.0559  0.0701 -0.4077
 7687SOL    HW234698   0.565   0.407   6.013  0.1429 -0.0353  0.2283
 7688SOL     OW34699   2.786   2.490   2.560  0.1080 -0.0987 -0.1613
 7688SOL    HW134700   2.882   2.486   2.557  0.1084  0.2629 -0.5235
 7688SOL    HW234701   2.770   2.400   2.530 -0.0492  0.4816 -1.7960
 7689SOL     OW34702   4.095   3.753   8.674  0.7695  0.2878 -0.3506
 7689SOL    HW134703   4.176   3.796   8.644  1.6105 -1.4068 -0.5376
 7689SOL    HW234704   4.129   3.664   8.685 -1.0458 -0.3902 -0.3554
 7690SOL     OW34705   0.003   1.590   6.399 -0.3817 -0.0694  0.8984
 7690SOL    HW134706   0.095   1.591   6.371 -1.2466  3.0898 -1.8982
 7690SOL    HW234707   4.702   1.597   6.312 -0.3664  1.8147  1.0406
 7691SOL     OW34708   2.585   1.899   2.387  0.2963  0.1509  0.5222
 7691SOL    HW134709   2.639   1.821   2.402 -0.9108 -0.4410  1.7256
 7691SOL    HW234710   2.638   1.937   2.317 -1.6051 -0.7334 -1.3865
 7692SOL     OW34711   0.864   3.956   6.121 -0.4234 -0.2456  0.0732
 7692SOL    HW134712   0.936   3.922   6.067 -0.7226 -0.6576 -0.0737
 7692SOL    HW234713   0.821   4.012   6.057 -0.5752 -1.3562 -0.8060
 7693SOL     OW34714   4.449   2.060   8.068  0.4372  0.2648 -0.6155
 7693SOL    HW134715   4.508   2.006   8.120  0.8823  0.9136 -0.4581
 7693SOL    HW234716   4.373   2.002   8.067 -0.2730  1.1917 -0.9730
 7694SOL     OW34717   0.865   2.956   1.700 -0.0447  0.2996 -0.3097
 7694SOL    HW134718   0.795   2.908   1.656  0.2372 -1.7831  1.4800
 7694SOL    HW234719   0.811   3.005   1.761 -2.0034 -0.4775 -1.4171
 7695SOL     OW34720   1.302   3.884   8.993 -0.4468 -1.0245  0.1116
 7695SOL    HW134721   1.280   3.973   8.966 -0.9820 -0.9449  0.7963
 7695SOL    HW234722   1.376   3.857   8.938  0.3839 -0.1385  0.7791
 7696SOL     OW34723   1.043   1.573   4.340  0.2422 -0.3961  0.2219
 7696SOL    HW134724   1.046   1.656   4.294  0.9264  0.5584  1.9907
 7696SOL    HW234725   1.089   1.513   4.280 -0.2665  1.0992 -1.6581
 7697SOL     OW34726   3.819   0.305   3.231  0.0828  0.2560  0.4334
 7697SOL    HW134727   3.900   0.333   3.189 -0.0098 -0.1387 -0.0153
 7697SOL    HW234728   3.855   0.223   3.265 -2.8588 -1.2963 -0.1983
 7698SOL     OW34729   0.836   3.835   6.370 -0.1168 -0.0337  0.3352
 7698SOL    HW134730   0.851   3.904   6.305 -0.5112 -0.8822 -0.6593
 7698SOL    HW234731   0.750   3.835   6.412 -0.6125  2.3524 -0.6443
 7699SOL     OW34732   2.552   0.439   8.118  0.4886 -0.3811 -0.4052
 7699SOL    HW134733   2.611   0.476   8.184 -2.3202  0.5136  1.5655
 7699SOL    HW234734   2.599   0.356   8.126  1.0305  0.1057  1.4593
 7700SOL     OW34735   4.541   0.446   5.216 -0.1059  0.4709  0.1410
 7700SOL    HW134736   4.628   0.436   5.179 -0.2146  0.7568 -0.1845
 7700SOL    HW234737   4.499   0.366   5.185 -1.6253  1.4995 -0.4382
 7701SOL     OW34738   2.027   4.098   7.461 -0.5662 -0.1882 -0.2021
 7701SOL    HW134739   1.947   4.064   7.423 -0.6649  1.1747 -1.2367
 7701SOL    HW234740   1.991   4.168   7.515  0.8909  0.3870  0.0481
 7702SOL     OW34741   2.186   0.923   5.792 -0.2210 -0.6150 -0.3640
 7702SOL    HW134742   2.204   1.000   5.737 -0.1900 -0.3843 -0.0343
 7702SOL    HW234743   2.121   0.960   5.852 -0.4156 -2.2248  0.4144
 7703SOL     OW34744   4.704   0.401   7.875 -0.4397 -0.1603 -0.3821
 7703SOL    HW134745   4.733   0.456   7.947 -2.1836 -0.5720  0.6489
 7703SOL    HW234746   0.044   0.412   7.821  0.0069 -2.9635 -0.3368
 7704SOL     OW34747   3.146   0.498   7.698  0.3161 -0.3114  0.4387
 7704SOL    HW134748   3.229   0.539   7.674  1.2249 -2.4316 -0.0679
 7704SOL    HW234749   3.123   0.445   7.622 -0.5723 -1.6156  1.6073
 7705SOL     OW34750   4.666   0.731   6.425  0.3004 -0.1346  0.1031
 7705SOL    HW134751   4.714   0.687   6.496  0.1779 -0.8605 -0.2576
 7705SOL    HW234752   4.734   0.772   6.373 -1.1614  2.2771  0.1146
 7706SOL     OW34753   3.031   2.816  13.050 -0.1206  0.7048  0.7241
 7706SOL    HW134754   3.042   2.893  13.107  0.7170  0.6764  0.5988
 7706SOL    HW234755   3.098   2.755  13.081  1.0870  1.7900  0.2761
 7707SOL     OW34756   1.948   4.346   2.166  0.2899 -0.2358 -0.2397
 7707SOL    HW134757   2.017   4.409   2.145  1.8067 -1.1211  2.1108
 7707SOL    HW234758   1.936   4.302   2.082  1.2969  0.5499 -0.7921
 7708SOL     OW34759   2.934   3.088   5.133  0.5971  0.2651  0.2852
 7708SOL    HW134760   3.013   3.058   5.089  0.8907  0.0936  0.9240
 7708SOL    HW234761   2.885   3.006   5.140  0.3849  0.3640 -0.0510
 7709SOL     OW34762   4.207   3.874  14.384  0.2815 -0.1932 -0.0773
 7709SOL    HW134763   4.214   3.866  14.479  0.0121 -1.1122 -0.1322
 7709SOL    HW234764   4.122   3.831  14.367 -0.9103  1.4012  1.9241
 7710SOL     OW34765   4.186   4.269   4.566 -0.1017 -0.3656 -0.3177
 7710SOL    HW134766   4.177   4.336   4.498 -0.9556 -1.0740 -0.8977
 7710SOL    HW234767   4.135   4.312   4.635  0.8144  1.5674 -0.8348
 7711SOL     OW34768   0.533   4.287   8.660 -0.4998 -0.0299  0.0717
 7711SOL    HW134769   0.576   4.202   8.669  2.0295  1.2970  0.7381
 7711SOL    HW234770   0.487   4.278   8.743  1.8538 -0.1220  1.3678
 7712SOL     OW34771   4.409   1.294   6.407 -0.6939  0.3126 -0.1182
 7712SOL    HW134772   4.419   1.389   6.400  0.7121  0.1011 -0.9652
 7712SOL    HW234773   4.363   1.282   6.490  1.6616  0.6844  1.2381
 7713SOL     OW34774   2.693   3.409   0.592 -0.4422 -0.1094 -0.2541
 7713SOL    HW134775   2.657   3.458   0.518  1.7311  0.6541 -0.8220
 7713SOL    HW234776   2.736   3.481   0.638 -2.7598  2.5858 -2.3079
 7714SOL     OW34777   1.524   4.340  17.020 -0.0893 -0.7739  0.6813
 7714SOL    HW134778   1.497   4.391  17.096  1.1372 -1.4381  1.5692
 7714SOL    HW234779   1.619   4.341  17.037  0.1398  2.3513 -0.7588
 7715SOL     OW34780   1.807   1.595   7.347 -0.0989  0.6713  0.2503
 7715SOL    HW134781   1.800   1.613   7.254  2.1797 -1.7596 -0.3950
 7715SOL    HW234782   1.842   1.681   7.370 -0.1790  1.1231 -1.3101
 7716SOL     OW34783   4.663   3.151   2.753 -0.6674 -0.1149 -0.4920
 7716SOL    HW134784   4.615   3.069   2.767 -0.5722 -0.3945 -1.7775
 7716SOL    HW234785   4.687   3.140   2.661  4.4251  3.5847  0.4219
 7717SOL     OW34786   4.374   3.803   4.510 -0.2675  0.1357 -0.1990
 7717SOL    HW134787   4.345   3.890   4.482  0.3884  0.6342  0.6681
 7717SOL    HW234788   4.309   3.742   4.474  0.5933 -1.1307  0.3915
 7718SOL     OW34789   3.724   0.228   1.067 -0.0586 -0.2614  0.3684
 7718SOL    HW134790   3.794   0.265   1.014 -0.4996  1.1301  0.7611
 7718SOL    HW234791   3.688   0.161   1.008  0.2964 -0.8215  0.7842
 7719SOL     OW34792   4.351   4.664   1.290  0.5057  0.1697 -0.1901
 7719SOL    HW134793   4.434   4.661   1.242  0.6314 -0.7596  0.1042
 7719SOL    HW234794   4.342   4.576   1.325  0.6966  0.0904 -0.3420
 7720SOL     OW34795   1.036   2.835   3.729  0.4584 -0.3706  0.3782
 7720SOL    HW134796   1.054   2.840   3.823  0.4726  0.4058  0.3333
 7720SOL    HW234797   0.969   2.903   3.724  1.4664  0.6581  0.6335
 7721SOL     OW34798   0.758   3.472   8.660  0.2221  0.6261 -0.2222
 7721SOL    HW134799   0.668   3.476   8.692  0.4759  0.3182  0.5115
 7721SOL    HW234800   0.789   3.393   8.704 -0.7243 -0.6154 -1.7836
 7722SOL     OW34801   3.180   4.569   2.054  0.5396  0.1144  0.3971
 7722SOL    HW134802   3.112   4.588   1.989 -0.1689  0.1818  1.1488
 7722SOL    HW234803   3.235   4.644   2.035  2.9315 -1.9451 -0.7953
 7723SOL     OW34804   3.886   4.011   3.683  0.5850  0.1650  0.4014
 7723SOL    HW134805   3.865   4.019   3.777 -2.7515 -2.2950 -0.1389
 7723SOL    HW234806   3.806   3.975   3.645 -0.3391  1.2498  1.3202
 7724SOL     OW34807   0.465   1.202   6.023 -0.2366  0.3994  0.5938
 7724SOL    HW134808   0.549   1.193   5.978 -0.2040  4.1608 -0.1426
 7724SOL    HW234809   0.488   1.170   6.110 -1.1455 -0.7680  0.3970
 7725SOL     OW34810   0.289   1.779  15.171 -0.1224  0.2468  0.0301
 7725SOL    HW134811   0.280   1.874  15.162 -1.0016 -0.0044 -1.9306
 7725SOL    HW234812   0.377   1.766  15.205 -0.3053  2.5906  1.3731
 7726SOL     OW34813   2.469   2.910  15.279 -0.9087 -0.1829 -0.2612
 7726SOL    HW134814   2.415   2.831  15.286  0.0682 -0.8029  0.1939
 7726SOL    HW234815   2.471   2.927  15.185 -1.9535 -1.3874 -0.5046
 7727SOL     OW34816   3.135   1.853   7.669 -0.0068  0.1315  0.1836
 7727SOL    HW134817   3.196   1.788   7.636 -1.0912  0.6410 -2.8277
 7727SOL    HW234818   3.202   1.919   7.691 -1.1442  2.2806 -2.7584
 7728SOL     OW34819   2.327   3.558   7.339  0.3565  0.1423 -0.5475
 7728SOL    HW134820   2.235   3.583   7.328  0.9824  2.2573 -1.1054
 7728SOL    HW234821   2.372   3.642   7.334  0.4120  0.2815  2.6703
 7729SOL     OW34822   4.557   2.946  11.019 -0.4158 -0.4772  0.3878
 7729SOL    HW134823   4.651   2.936  11.031 -0.1429  0.8109 -0.6824
 7729SOL    HW234824   4.518   2.903  11.095 -0.5957 -0.3891  0.3454
 7730SOL     OW34825   3.783   1.796   1.977 -0.3291  0.0413 -0.1714
 7730SOL    HW134826   3.701   1.808   2.024  1.1456 -0.8976  2.6581
 7730SOL    HW234827   3.768   1.710   1.938  1.7203 -0.0990 -0.6558
 7731SOL     OW34828   2.461   1.345  13.568  0.0762  0.1876 -0.0825
 7731SOL    HW134829   2.430   1.379  13.652 -0.5305  2.2998 -1.1542
 7731SOL    HW234830   2.384   1.292  13.550  0.0004  0.7037 -1.2622
 7732SOL     OW34831   1.734   4.635   8.950 -0.2206 -0.2035 -0.6120
 7732SOL    HW134832   1.825   4.661   8.960 -0.4277  0.7716 -1.2056
 7732SOL    HW234833   1.716   4.580   9.026 -0.3218  0.1002 -0.4139
 7733SOL     OW34834   0.128   1.344  12.153  0.0479 -0.4998  0.5137
 7733SOL    HW134835   0.071   1.319  12.081 -1.6931  3.2693  0.5498
 7733SOL    HW234836   0.066   1.377  12.218  0.6118 -0.7280  1.1595
 7734SOL     OW34837   3.790   1.637   1.680 -0.3499  0.2000 -0.0237
 7734SOL    HW134838   3.884   1.621   1.690 -0.5699 -0.7973  0.4787
 7734SOL    HW234839   3.750   1.602   1.760 -0.9820  1.0837  0.0444
 7735SOL     OW34840   1.519   1.254   6.393  0.4536 -0.3300  0.2091
 7735SOL    HW134841   1.502   1.231   6.301 -2.4216  0.8374  0.4677
 7735SOL    HW234842   1.457   1.191   6.430  1.3592 -0.0812  2.1118
 7736SOL     OW34843   4.147   1.325   3.722  0.2995 -0.2469 -0.7597
 7736SOL    HW134844   4.167   1.333   3.629  2.1835 -2.0761 -0.5036
 7736SOL    HW234845   4.236   1.302   3.747  0.4297 -1.2331 -2.1632
 7737SOL     OW34846   2.763   0.081   9.722  0.1766 -0.5462 -0.1969
 7737SOL    HW134847   2.691   0.139   9.699  1.9347  1.5344 -0.3814
 7737SOL    HW234848   2.803   0.073   9.635 -1.7696 -1.7459 -0.9932
 7738SOL     OW34849   1.136   0.318   4.681  0.2713  0.4596  0.4703
 7738SOL    HW134850   1.092   0.324   4.765 -0.7576  0.6426 -0.0836
 7738SOL    HW234851   1.222   0.346   4.713  0.2212 -0.8581  1.7971
 7739SOL     OW34852   2.191   3.064  17.554  0.2841  0.8365 -0.3553
 7739SOL    HW134853   2.239   3.061  17.471  1.3447 -0.4761  0.3062
 7739SOL    HW234854   2.122   2.999  17.552  2.1297 -1.1618  1.1424
 7740SOL     OW34855   1.472   3.526   6.308 -0.3047 -0.2686 -0.3215
 7740SOL    HW134856   1.461   3.514   6.403 -0.3434 -0.6895 -0.3797
 7740SOL    HW234857   1.566   3.544   6.305 -0.1066 -0.9085  1.7725
 7741SOL     OW34858   4.636   4.202   0.105  0.0408  0.3020 -0.2371
 7741SOL    HW134859   4.656   4.191   0.198 -0.7813  1.1992  0.0493
 7741SOL    HW234860   4.661   4.112   0.086  1.3110  0.9474 -1.6002
 7742SOL     OW34861   3.382   2.021   0.814 -0.0621 -0.5711 -0.9563
 7742SOL    HW134862   3.316   2.054   0.876  1.6375  1.3733 -0.2025
 7742SOL    HW234863   3.438   1.973   0.876 -1.4373  0.3834  1.0365
 7743SOL     OW34864   1.742   3.146   2.701  0.2798 -0.2224 -0.3296
 7743SOL    HW134865   1.806   3.148   2.630 -0.2825 -1.9236 -0.8790
 7743SOL    HW234866   1.665   3.156   2.645  0.7408 -1.0250 -1.1040
 7744SOL     OW34867   1.874   3.870   6.615 -0.9656  0.2234 -0.5798
 7744SOL    HW134868   1.962   3.886   6.580 -1.1330  0.4785 -0.8817
 7744SOL    HW234869   1.816   3.906   6.549 -1.6318 -1.1375 -0.7451
 7745SOL     OW34870   0.734   2.161   8.247  0.3125 -0.4398 -0.6796
 7745SOL    HW134871   0.658   2.105   8.233 -1.6319  1.3327  2.7432
 7745SOL    HW234872   0.685   2.242   8.265  0.7183 -0.1952 -0.6840
 7746SOL     OW34873   2.045   0.737   0.897 -0.2786 -0.3506 -0.4126
 7746SOL    HW134874   2.068   0.696   0.980  0.5157  0.9698  0.0154
 7746SOL    HW234875   2.132   0.775   0.882  0.2360 -1.0633  0.7630
 7747SOL     OW34876   1.282   2.961   8.584 -0.3788  0.0621  0.8452
 7747SOL    HW134877   1.231   2.956   8.503  0.2697  4.3790  0.1662
 7747SOL    HW234878   1.202   2.966   8.636  0.5208 -2.8721  2.5450
 7748SOL     OW34879   0.087   3.679   5.227  0.5448 -0.2239 -0.1364
 7748SOL    HW134880   0.138   3.610   5.269  2.3872  0.1870 -1.6960
 7748SOL    HW234881   0.083   3.640   5.140  0.0429  1.4885 -0.8810
 7749SOL     OW34882   0.861   0.309  14.129 -0.1157  0.1332  0.6678
 7749SOL    HW134883   0.894   0.389  14.089 -1.3542  0.3746  0.1047
 7749SOL    HW234884   0.919   0.239  14.099  0.3020  0.7665  0.0087
 7750SOL     OW34885   0.309   2.744   5.885  0.4037  0.1028 -0.4418
 7750SOL    HW134886   0.329   2.765   5.794  0.5600 -1.9010 -0.8631
 7750SOL    HW234887   0.347   2.656   5.890 -0.4019 -0.1422  1.2035
 7751SOL     OW34888   3.156   2.706   8.496 -0.1492  0.4386 -0.6405
 7751SOL    HW134889   3.146   2.710   8.401  2.1416 -0.5346 -0.9190
 7751SOL    HW234890   3.201   2.790   8.508  3.2789 -1.6523  1.1239
 7752SOL     OW34891   3.935   1.725   8.079 -0.4574  0.2315 -0.3354
 7752SOL    HW134892   3.951   1.804   8.026  0.3724  0.2077 -0.1198
 7752SOL    HW234893   3.865   1.770   8.126 -0.6868  0.2981 -0.7445
 7753SOL     OW34894   2.472   2.346   2.471 -0.1590 -0.3501  0.1385
 7753SOL    HW134895   2.486   2.430   2.514  0.9148 -0.8274  0.7311
 7753SOL    HW234896   2.549   2.333   2.416  1.5460 -1.7413  2.8274
 7754SOL     OW34897   3.988   2.682   5.548  0.1783 -0.1608 -0.6221
 7754SOL    HW134898   4.000   2.589   5.568  2.0357  0.1904 -0.1014
 7754SOL    HW234899   3.956   2.719   5.630 -0.0095 -3.8350  0.9944
 7755SOL     OW34900   3.365   2.412   8.479 -0.5787  0.4243 -0.1427
 7755SOL    HW134901   3.433   2.418   8.546 -0.3663 -1.1417 -0.2268
 7755SOL    HW234902   3.412   2.467   8.417 -1.7377  0.5082 -0.9363
 7756SOL     OW34903   1.744   1.087   1.730  0.6922  0.2487 -0.1035
 7756SOL    HW134904   1.707   1.175   1.735  0.6187  0.2327 -0.3480
 7756SOL    HW234905   1.839   1.092   1.744  0.6319  4.1332 -0.9115
 7757SOL     OW34906   3.926   2.322   6.573 -0.0016 -0.0400  0.5372
 7757SOL    HW134907   3.922   2.276   6.489  0.2225 -0.8078  0.9409
 7757SOL    HW234908   3.851   2.279   6.613 -1.2038 -0.4514 -2.1673
 7758SOL     OW34909   2.043   0.692   7.391 -0.1811  0.3395 -0.2306
 7758SOL    HW134910   2.135   0.664   7.393 -0.4739 -0.6826 -0.9564
 7758SOL    HW234911   2.027   0.768   7.334 -1.0435  0.7927  0.6252
 7759SOL     OW34912   1.776   1.882  11.535 -0.6670 -0.0774  0.1415
 7759SOL    HW134913   1.777   1.941  11.610  1.1660  2.8198 -2.1752
 7759SOL    HW234914   1.727   1.941  11.477 -0.1527 -1.0841 -1.3060
 7760SOL     OW34915   1.702   4.540   1.420  0.2492  0.6595 -0.3071
 7760SOL    HW134916   1.720   4.495   1.502 -0.1853  1.8997  0.4760
 7760SOL    HW234917   1.707   4.629   1.456 -1.5505  0.9948 -0.8832
 7761SOL     OW34918   0.482   3.129   6.556 -0.2355 -0.7986  0.3677
 7761SOL    HW134919   0.550   3.078   6.600  0.0518  0.1332  1.0012
 7761SOL    HW234920   0.429   3.163   6.629  1.9572  1.3312  0.9364
 7762SOL     OW34921   2.463   0.256   3.510 -0.0003 -0.0992 -0.5842
 7762SOL    HW134922   2.429   0.277   3.423 -0.2249 -0.5051 -0.5932
 7762SOL    HW234923   2.440   0.164   3.520  1.9514 -0.3693  1.5348
 7763SOL     OW34924   1.665   2.437   4.663 -0.0196 -0.4727 -0.0412
 7763SOL    HW134925   1.750   2.397   4.644  0.2368  1.3036 -2.6495
 7763SOL    HW234926   1.675   2.461   4.755 -0.1811  0.7325 -0.3478
 7764SOL     OW34927   0.640   0.802   1.303  0.2156  0.1565  0.4276
 7764SOL    HW134928   0.589   0.866   1.354 -1.1393 -0.6061  0.0419
 7764SOL    HW234929   0.575   0.767   1.241  1.5123  1.2505 -1.5250
 7765SOL     OW34930   1.359   0.177   8.272 -0.0147 -0.1329  0.6654
 7765SOL    HW134931   1.355   0.229   8.192 -3.7810 -0.1373  0.8157
 7765SOL    HW234932   1.358   0.243   8.341  0.2477 -0.9692  1.4643
 7766SOL     OW34933   4.551   0.971   7.521  0.1644 -0.0821 -0.3366
 7766SOL    HW134934   4.632   0.945   7.478  2.0186  4.1012  0.6307
 7766SOL    HW234935   4.482   0.946   7.459 -0.9942  0.9172  0.5565
 7767SOL     OW34936   1.044   2.050   9.568  0.4733 -0.0583  0.4408
 7767SOL    HW134937   1.030   2.096   9.650  1.6843 -1.7618  1.6095
 7767SOL    HW234938   0.996   1.969   9.587  0.9534 -0.5005 -0.2028
 7768SOL     OW34939   1.355   4.577   0.384  0.1650  0.0208  0.9786
 7768SOL    HW134940   1.437   4.624   0.368 -0.7238  1.6804  1.2703
 7768SOL    HW234941   1.303   4.637   0.329 -0.8604 -0.6891  1.1788
 7769SOL     OW34942   3.618   3.150   1.010 -0.2346  0.7913  0.9931
 7769SOL    HW134943   3.540   3.204   1.001 -1.9458 -1.5145  1.9880
 7769SOL    HW234944   3.671   3.204   1.069 -1.5244  2.8340  0.2785
 7770SOL     OW34945   4.114   1.786  12.611 -0.0222 -0.0596 -0.2893
 7770SOL    HW134946   4.172   1.854  12.644  2.8821 -1.8800 -1.6959
 7770SOL    HW234947   4.165   1.728  12.555 -0.5476  1.5369 -2.4164
 7771SOL     OW34948   3.195   3.544   8.930  0.8099 -0.0519 -0.8560
 7771SOL    HW134949   3.127   3.482   8.903 -0.0197 -0.0103  1.2374
 7771SOL    HW234950   3.231   3.570   8.845 -1.3066  0.3307 -1.6419
 7772SOL     OW34951   3.848   0.787  11.202 -0.3106  0.1655 -0.1617
 7772SOL    HW134952   3.922   0.753  11.252  0.4707 -1.0826 -2.1555
 7772SOL    HW234953   3.797   0.709  11.183 -0.5037 -0.1705  1.8090
 7773SOL     OW34954   3.177   1.911   8.031 -0.3039 -0.4634 -0.1303
 7773SOL    HW134955   3.122   1.974   8.078  2.5393  0.7213  1.5748
 7773SOL    HW234956   3.202   1.945   7.946  0.9192  3.8324  1.9519
 7774SOL     OW34957   2.093   3.083   5.723 -0.2662  0.6373  0.3739
 7774SOL    HW134958   2.017   3.137   5.704 -1.3876 -1.0178  0.1366
 7774SOL    HW234959   2.143   3.112   5.646 -0.6124  0.5356  0.1122
 7775SOL     OW34960   2.077   1.626   3.207 -0.2686 -0.0257  0.4562
 7775SOL    HW134961   2.122   1.693   3.156  1.1438 -0.8542  0.6061
 7775SOL    HW234962   2.082   1.551   3.147 -1.3708 -1.0065  1.6264
 7776SOL     OW34963   2.744   2.451   2.200 -0.3376 -0.2661  0.4309
 7776SOL    HW134964   2.750   2.389   2.273 -0.4808 -0.5788  0.1773
 7776SOL    HW234965   2.773   2.529   2.246  3.2701 -0.7928 -0.8932
 7777SOL     OW34966   4.264   1.346   6.100  0.5962  0.0965 -0.3508
 7777SOL    HW134967   4.207   1.371   6.173  0.3047 -1.0947 -0.1674
 7777SOL    HW234968   4.349   1.357   6.141 -0.5987 -0.5447  2.3078
 7778SOL     OW34969   0.312   0.570   8.234 -0.6268 -0.1477  0.1389
 7778SOL    HW134970   0.276   0.636   8.292  0.2682 -1.2325  1.9531
 7778SOL    HW234971   0.335   0.625   8.159 -0.7758 -1.4949 -0.9160
 7779SOL     OW34972   4.440   2.320   1.803 -0.2379  0.0504  0.4388
 7779SOL    HW134973   4.412   2.389   1.863 -1.9298 -0.3470  0.1177
 7779SOL    HW234974   4.353   2.301   1.768  0.3738 -2.1022  0.0524
 7780SOL     OW34975   1.226   1.698   3.226  0.1554  0.0347  0.2110
 7780SOL    HW134976   1.295   1.750   3.185  0.0975 -0.2077 -0.1922
 7780SOL    HW234977   1.150   1.755   3.239  0.9063  1.0059  0.3294
 7781SOL     OW34978   2.956   2.649   8.055 -1.0036 -0.1695  0.3945
 7781SOL    HW134979   2.988   2.692   7.976  3.6875 -0.7559  1.9927
 7781SOL    HW234980   2.998   2.702   8.122 -0.0854 -0.9140  0.4096
 7782SOL     OW34981   3.137   3.166   6.998 -0.3861 -0.3320  0.1805
 7782SOL    HW134982   3.089   3.083   6.997 -1.5910  0.3628  1.0876
 7782SOL    HW234983   3.097   3.213   7.071  2.6088  1.2383  0.8064
 7783SOL     OW34984   4.169   4.056   3.058 -0.2199 -0.6054  0.1205
 7783SOL    HW134985   4.263   4.058   3.040 -0.6049 -1.4212 -1.9356
 7783SOL    HW234986   4.160   3.969   3.096  0.6755 -1.9381 -2.7014
 7784SOL     OW34987   0.973   2.473   1.443 -0.3095  0.0906 -0.0833
 7784SOL    HW134988   0.898   2.413   1.444 -0.2052 -0.0492 -0.5238
 7784SOL    HW234989   1.027   2.434   1.374  2.4474 -0.2553  2.2937
 7785SOL     OW34990   0.711   4.172  17.502 -0.2600 -0.3709 -0.3875
 7785SOL    HW134991   0.631   4.120  17.494 -0.9330  0.7229 -0.8319
 7785SOL    HW234992   0.753   4.145  17.584 -1.8941 -1.0783  0.2203
 7786SOL     OW34993   2.419   3.040  16.677 -0.0481 -0.5833 -0.1752
 7786SOL    HW134994   2.427   3.085  16.593 -0.4938 -1.2154 -0.5497
 7786SOL    HW234995   2.495   3.072  16.727  0.3090  1.6281 -2.1472
 7787SOL     OW34996   4.455   3.761   5.189  0.6393  0.3399 -0.2303
 7787SOL    HW134997   4.470   3.753   5.095 -0.9532 -0.5339 -0.4146
 7787SOL    HW234998   4.436   3.669   5.208 -1.4476  0.5996 -1.0126
 7788SOL     OW34999   1.101   1.555   5.123 -0.1534  0.4732  0.1209
 7788SOL    HW135000   1.146   1.485   5.170  0.4223 -0.1926 -1.3963
 7788SOL    HW235001   1.100   1.536   5.029  5.2435  0.7576 -0.0165
 7789SOL     OW35002   2.841   4.223   2.685 -0.0388 -0.0249 -0.0376
 7789SOL    HW135003   2.789   4.297   2.655  1.6181  1.4766  0.8058
 7789SOL    HW235004   2.861   4.258   2.772  3.5685  0.1571 -0.9174
 7790SOL     OW35005   1.783   0.798   2.370  0.2123 -0.3351  0.3459
 7790SOL    HW135006   1.738   0.821   2.451  1.6582  1.2604  0.6874
 7790SOL    HW235007   1.871   0.777   2.402  1.1184  1.7386 -0.7938
 7791SOL     OW35008   0.620   3.706   3.077 -0.4201 -0.5141 -0.7120
 7791SOL    HW135009   0.679   3.737   3.146  0.2561 -0.6469 -1.2311
 7791SOL    HW235010   0.563   3.650   3.130 -0.4068 -0.6086 -0.7984
 7792SOL     OW35011   2.374   1.780   8.839  0.0940  0.1176 -0.1761
 7792SOL    HW135012   2.464   1.747   8.844  0.5715  1.5516  0.5927
 7792SOL    HW235013   2.314   1.708   8.819 -1.5083  1.1042  1.0414
 7793SOL     OW35014   0.047   1.176  16.052  0.0094  0.3109  0.4328
 7793SOL    HW135015   0.130   1.128  16.053 -0.3021 -0.3150 -2.9144
 7793SOL    HW235016   0.029   1.205  16.142  2.8853 -2.6182  1.9337
 7794SOL     OW35017   2.233   1.186  13.080 -0.2856 -0.5400 -0.3378
 7794SOL    HW135018   2.155   1.211  13.129  1.0557 -0.4539  1.7484
 7794SOL    HW235019   2.284   1.150  13.153  1.7329  0.3119 -1.3412
 7795SOL     OW35020   0.079   1.073   8.070 -0.0706 -0.6600  0.7119
 7795SOL    HW135021   0.075   1.096   8.163 -0.6135  0.0828  0.5024
 7795SOL    HW235022   0.146   1.134   8.040 -1.0684 -0.8875 -1.9407
 7796SOL     OW35023   0.684   3.558   2.809 -0.0957  0.1334  0.4688
 7796SOL    HW135024   0.646   3.473   2.830  3.3853 -1.2301  1.2886
 7796SOL    HW235025   0.671   3.592   2.897 -2.2927 -0.8890  0.5355
 7797SOL     OW35026   0.683   2.336   0.549 -0.1397 -0.1296 -0.4356
 7797SOL    HW135027   0.625   2.306   0.479  2.8142 -2.6640 -1.7955
 7797SOL    HW235028   0.741   2.391   0.496  1.4776  1.6837  3.1995
 7798SOL     OW35029   3.496   3.182   2.828 -0.4610 -0.7561 -0.0134
 7798SOL    HW135030   3.486   3.092   2.858  0.6299 -1.0968 -0.6779
 7798SOL    HW235031   3.499   3.223   2.914 -0.6323 -1.6306  0.4064
 7799SOL     OW35032   0.010   4.415   7.022  0.5199 -0.0241 -0.7566
 7799SOL    HW135033   4.668   4.398   7.073  0.1645 -1.0557 -1.6640
 7799SOL    HW235034   4.710   4.444   6.939  0.8159  1.7410 -0.2759
 7800SOL     OW35035   0.192   0.672   6.037 -0.1123  0.0352  0.0165
 7800SOL    HW135036   0.275   0.713   6.010 -0.9929  1.7571 -0.1030
 7800SOL    HW235037   0.178   0.707   6.125  1.1759 -0.3637  0.3773
 7801SOL     OW35038   2.446   1.429  11.588  0.9524  0.1164 -0.6602
 7801SOL    HW135039   2.534   1.425  11.624 -0.0372 -1.1842  1.5927
 7801SOL    HW235040   2.435   1.523  11.572 -1.7099 -0.1893 -0.7279
 7802SOL     OW35041   4.182   3.568   7.219  0.1037 -0.3544  0.4081
 7802SOL    HW135042   4.147   3.507   7.283  1.1426 -1.4132 -0.0339
 7802SOL    HW235043   4.177   3.649   7.269 -1.8428 -1.2054  1.5886
 7803SOL     OW35044   1.414   4.108   6.955  0.0206  0.0999 -0.1160
 7803SOL    HW135045   1.433   4.022   6.994 -2.4102  1.0315  3.1287
 7803SOL    HW235046   1.495   4.148   6.985 -0.0087  0.4967 -0.5804
 7804SOL     OW35047   3.254   3.868  12.978 -0.3941  0.0991  0.3733
 7804SOL    HW135048   3.223   3.844  13.066 -1.5083  1.9587  0.4815
 7804SOL    HW235049   3.331   3.813  12.969 -1.3283 -1.1357 -0.0148
 7805SOL     OW35050   3.963   3.208  10.258  0.3090 -0.1797 -0.0928
 7805SOL    HW135051   4.011   3.164  10.188 -0.9006 -1.7346  0.0423
 7805SOL    HW235052   3.921   3.278  10.208  1.0999 -0.1032 -0.6433
 7806SOL     OW35053   0.346   0.847   8.792  0.5555 -0.0718  1.1352
 7806SOL    HW135054   0.292   0.914   8.749 -2.4142 -2.4393  1.1605
 7806SOL    HW235055   0.359   0.881   8.880  0.1589  0.6308  0.9225
 7807SOL     OW35056   4.697   0.731   3.835  0.5829  0.6088 -0.2493
 7807SOL    HW135057   4.715   0.770   3.750  1.8605  0.8854  0.1520
 7807SOL    HW235058   0.012   0.775   3.902  1.5551  0.8311 -1.1574
 7808SOL     OW35059   1.039   3.071   7.462 -0.6166  0.0727 -0.5664
 7808SOL    HW135060   1.121   3.070   7.511 -0.2598  1.5851 -1.1438
 7808SOL    HW235061   0.981   3.141   7.491  0.6125  0.4302  0.9968
 7809SOL     OW35062   2.459   4.036   9.271  0.1921 -0.6481  0.0723
 7809SOL    HW135063   2.529   3.981   9.306  0.7203  0.8396  1.3226
 7809SOL    HW235064   2.485   4.036   9.178  0.3672  0.7001  0.1237
 7810SOL     OW35065   2.105   2.566   6.428 -0.2340 -0.6024  0.1275
 7810SOL    HW135066   2.015   2.532   6.422 -1.0123  1.2403  1.3515
 7810SOL    HW235067   2.121   2.540   6.519  1.4790  0.1132  0.0256
 7811SOL     OW35068   2.573   4.579   2.120  0.3044  0.1520 -0.3710
 7811SOL    HW135069   2.661   4.571   2.083  0.2371 -0.0016 -0.4937
 7811SOL    HW235070   2.531   4.515   2.063  1.6084  0.3922 -1.5905
 7812SOL     OW35071   4.102   2.431   6.205  0.3740  0.0358 -0.1747
 7812SOL    HW135072   4.035   2.468   6.262  1.2378 -1.7013  1.9480
 7812SOL    HW235073   4.098   2.480   6.122  1.0132  0.0305 -0.2114
 7813SOL     OW35074   1.015   0.655   3.631  0.0143  0.3463  0.2695
 7813SOL    HW135075   1.040   0.662   3.538  0.1500 -1.3776  0.1716
 7813SOL    HW235076   0.969   0.734   3.658 -0.5049  0.8355 -2.0120
 7814SOL     OW35077   1.421   2.453   7.523 -0.1481 -0.3289 -0.3325
 7814SOL    HW135078   1.407   2.522   7.588  1.1689  0.8023 -1.2505
 7814SOL    HW235079   1.336   2.429   7.488  0.6474 -3.1722 -0.2975
 7815SOL     OW35080   3.167   2.011   2.291  0.3790 -0.1406  0.2932
 7815SOL    HW135081   3.214   1.987   2.371 -0.8541 -1.7935  0.4959
 7815SOL    HW235082   3.102   1.943   2.276  0.1054  0.0886  0.4409
 7816SOL     OW35083   0.144   4.603  15.938  0.2820  0.4717 -0.6126
 7816SOL    HW135084   0.113   4.587  15.848 -1.6912 -0.4902  0.2248
 7816SOL    HW235085   0.201   4.527  15.946  0.8674  0.9804 -0.0426
 7817SOL     OW35086   1.882   1.150   7.093  0.1374 -0.2378 -0.5275
 7817SOL    HW135087   1.961   1.196   7.121  1.4121 -1.8685 -1.4603
 7817SOL    HW235088   1.870   1.219   7.028 -0.8738 -1.1553 -1.3196
 7818SOL     OW35089   1.949   0.119  10.427 -0.5294  0.6859  0.2005
 7818SOL    HW135090   1.943   0.146  10.519  0.1672  1.3363  0.0601
 7818SOL    HW235091   1.995   0.036  10.441  0.3621  1.0624 -0.5508
 7819SOL     OW35092   1.396   2.864  10.931  0.2742  0.2749  0.2899
 7819SOL    HW135093   1.343   2.852  11.009  0.7460  1.1630  0.7462
 7819SOL    HW235094   1.472   2.915  10.961 -0.6361 -0.5390  3.9943
 7820SOL     OW35095   4.302   3.676   6.034  0.7765 -0.5140  0.0651
 7820SOL    HW135096   4.350   3.598   6.062  1.4527  0.2256  0.9925
 7820SOL    HW235097   4.283   3.719   6.117  2.7992  0.5181  0.0058
 7821SOL     OW35098   3.901   3.742   3.554  0.1116 -0.2718 -0.7072
 7821SOL    HW135099   3.844   3.817   3.570  3.2391  1.8624  0.6626
 7821SOL    HW235100   3.939   3.723   3.640 -1.4469 -4.2840 -0.9251
 7822SOL     OW35101   0.306   4.256   2.696  0.3268 -0.0358  0.3093
 7822SOL    HW135102   0.297   4.241   2.790 -1.2676 -2.2526 -0.1950
 7822SOL    HW235103   0.236   4.319   2.679 -1.8113 -2.1910  1.1831
 7823SOL     OW35104   2.944   3.690   6.501 -0.2695  0.3500 -0.1812
 7823SOL    HW135105   2.854   3.722   6.497 -0.9769 -1.4422  1.4009
 7823SOL    HW235106   2.978   3.725   6.419 -1.4135 -0.9986 -1.2265
 7824SOL     OW35107   0.798   3.288   9.977  0.5040  0.0415 -0.1031
 7824SOL    HW135108   0.823   3.216   9.920  0.0180 -1.8618  2.0899
 7824SOL    HW235109   0.875   3.303  10.032 -0.9720  1.3320  1.6365
 7825SOL     OW35110   1.074   1.760  11.217  0.2358 -0.2090 -0.3720
 7825SOL    HW135111   0.988   1.721  11.197  0.3101 -0.6971  0.2786
 7825SOL    HW235112   1.131   1.740  11.143 -1.2785  1.5748 -2.0381
 7826SOL     OW35113   4.123   1.583   8.924  0.7344  0.0090 -0.3309
 7826SOL    HW135114   4.081   1.609   8.842  2.1907  2.8509 -0.1795
 7826SOL    HW235115   4.060   1.606   8.992  0.6785 -2.4840  0.4732
 7827SOL     OW35116   2.958   4.539   8.633 -0.0922 -0.2120  0.1429
 7827SOL    HW135117   2.875   4.549   8.680 -0.3420 -1.0371 -0.1083
 7827SOL    HW235118   2.949   4.598   8.558 -1.9690  2.5060  2.5264
 7828SOL     OW35119   2.158   2.536   5.704  0.1647 -0.5589 -0.4692
 7828SOL    HW135120   2.182   2.529   5.796  0.4575  0.3055 -0.4783
 7828SOL    HW235121   2.185   2.624   5.678 -0.6062  0.1541  1.2049
 7829SOL     OW35122   2.961   3.288   2.633 -0.5727  0.4667 -0.9891
 7829SOL    HW135123   2.990   3.334   2.554  1.3728  0.9869  0.0498
 7829SOL    HW235124   3.039   3.281   2.687 -3.1676 -1.0220  2.5620
 7830SOL     OW35125   2.587   2.558   9.721 -0.1429  0.4863  0.1312
 7830SOL    HW135126   2.651   2.596   9.781 -0.2394  2.9174 -1.2860
 7830SOL    HW235127   2.628   2.472   9.723 -0.0557  0.4789 -2.2770
 7831SOL     OW35128   4.310   3.541   8.079 -0.0879 -0.4204  0.2508
 7831SOL    HW135129   4.391   3.490   8.085  0.2024 -0.2326 -2.0176
 7831SOL    HW235130   4.324   3.598   8.155  2.1250  0.3262 -0.6928
 7832SOL     OW35131   0.358   2.739   2.228  0.2001  0.1021 -0.3764
 7832SOL    HW135132   0.390   2.796   2.298  2.2272  0.5506 -1.6826
 7832SOL    HW235133   0.356   2.648   2.259  0.8066  0.6233  1.1855
 7833SOL     OW35134   4.073   2.627  16.219 -0.6801  0.3191  1.0638
 7833SOL    HW135135   4.110   2.551  16.263 -0.1055  0.5975  1.0553
 7833SOL    HW235136   4.093   2.602  16.128 -1.2225  2.7270  0.2829
 7834SOL     OW35137   3.582   1.278   1.802 -0.4502  0.4274 -0.0432
 7834SOL    HW135138   3.523   1.219   1.754  0.5263 -1.1429  0.6859
 7834SOL    HW235139   3.653   1.216   1.820  0.1926  1.8956  2.4343
 7835SOL     OW35140   2.264   3.701   3.889  0.3471 -0.0182  0.4281
 7835SOL    HW135141   2.218   3.659   3.961 -0.2500  1.0303  0.6543
 7835SOL    HW235142   2.197   3.713   3.822  1.0691  1.1900 -0.0974
 7836SOL     OW35143   4.169   3.606   5.814  0.0443  0.2055 -0.1302
 7836SOL    HW135144   4.222   3.669   5.863  0.2653  0.2761 -0.4596
 7836SOL    HW235145   4.124   3.662   5.751  0.8739 -0.7037 -1.5268
 7837SOL     OW35146   2.243   1.804   4.039 -0.6028  0.3684 -0.3091
 7837SOL    HW135147   2.272   1.768   4.123  0.9884 -1.0571 -1.4796
 7837SOL    HW235148   2.266   1.897   4.037  0.7726 -0.0165 -1.6611
 7838SOL     OW35149   3.675   3.308   7.708 -0.7269  0.1762 -0.3881
 7838SOL    HW135150   3.700   3.400   7.703  2.2416 -0.3060  4.8449
 7838SOL    HW235151   3.762   3.271   7.720  0.9236  4.1855  0.0312
 7839SOL     OW35152   1.996   3.818   0.065 -0.4247  0.0175  0.2660
 7839SOL    HW135153   1.929   3.754   0.039 -0.1950 -0.2073  0.2328
 7839SOL    HW235154   2.064   3.752   0.074  1.1114  1.3096 -1.8744
 7840SOL     OW35155   1.176   0.205   0.361 -0.2052 -0.0941 -0.3821
 7840SOL    HW135156   1.227   0.239   0.288  0.4259  0.5231  0.3385
 7840SOL    HW235157   1.159   0.116   0.331 -1.9059  0.0059  0.2778
 7841SOL     OW35158   4.459   0.756   9.355  0.3149  0.2718  0.2112
 7841SOL    HW135159   4.542   0.760   9.401 -0.4530  2.5408  1.3897
 7841SOL    HW235160   4.397   0.820   9.390 -0.0568 -0.3987  0.7746
 7842SOL     OW35161   2.345   2.976  16.979 -0.3392 -0.0384  0.1965
 7842SOL    HW135162   2.426   3.010  16.942  0.3187 -0.6448  1.0649
 7842SOL    HW235163   2.376   2.908  17.039  0.3980  1.0036  0.9895
 7843SOL     OW35164   1.892   2.712   7.312 -0.2318  0.1396 -0.5090
 7843SOL    HW135165   1.861   2.696   7.401  0.1610 -4.4071 -1.2076
 7843SOL    HW235166   1.858   2.800   7.300 -1.1170 -0.1331  0.0541
 7844SOL     OW35167   4.305   2.118  10.184  0.7395  0.3743 -0.1701
 7844SOL    HW135168   4.288   2.097  10.092 -1.4223 -0.9475  0.5445
 7844SOL    HW235169   4.328   2.031  10.219  0.3418  0.9127  1.4211
 7845SOL     OW35170   2.538   3.852   5.051 -0.1003  0.3774 -0.3453
 7845SOL    HW135171   2.460   3.849   4.995 -1.3955 -1.0848  1.5094
 7845SOL    HW235172   2.497   3.887   5.131  0.8306 -0.2329  0.3952
 7846SOL     OW35173   2.240   4.241   6.977 -0.5543 -0.0403 -0.0184
 7846SOL    HW135174   2.151   4.274   6.964 -0.5235  0.7798  1.9121
 7846SOL    HW235175   2.237   4.158   6.930 -1.5113  0.4186 -0.7733
 7847SOL     OW35176   2.512   0.819  12.292  0.0007 -0.4093 -0.7566
 7847SOL    HW135177   2.578   0.886  12.275  1.7492 -1.8835  0.0447
 7847SOL    HW235178   2.531   0.790  12.381  0.9578 -0.6464 -1.0315
 7848SOL     OW35179   1.989   4.736   8.927 -0.4857  0.1319  0.1415
 7848SOL    HW135180   2.053   0.024   8.860 -0.5890 -0.7788 -0.2938
 7848SOL    HW235181   1.935   0.078   8.929 -2.8567 -1.4454 -1.2419
 7849SOL     OW35182   1.907   0.690   7.097  0.2782  0.3560 -0.1262
 7849SOL    HW135183   1.958   0.749   7.152 -0.0122  0.1650  0.3477
 7849SOL    HW235184   1.891   0.750   7.024 -0.3932  1.0646  0.6099
 7850SOL     OW35185   0.307   1.313   9.553  0.8953  0.0347 -0.5652
 7850SOL    HW135186   0.216   1.311   9.523  1.8578 -0.4865 -3.5143
 7850SOL    HW235187   0.339   1.237   9.505  1.5029  0.1002 -0.2610
 7851SOL     OW35188   1.893   3.945   9.792 -0.2141 -0.3806  0.1440
 7851SOL    HW135189   1.895   3.933   9.697  0.6217 -0.2540  0.1497
 7851SOL    HW235190   1.841   4.024   9.805  0.2449 -0.2628  1.2535
 7852SOL     OW35191   0.668   1.990   6.976  1.0666  0.3354 -0.1936
 7852SOL    HW135192   0.693   2.037   7.056  0.1138  0.5038 -0.0003
 7852SOL    HW235193   0.575   1.973   6.989  0.8466  2.0739  0.5971
 7853SOL     OW35194   0.880   0.542   7.610 -0.0779  0.4369 -0.0984
 7853SOL    HW135195   0.858   0.457   7.649 -1.1720 -0.0839 -1.8726
 7853SOL    HW235196   0.961   0.576   7.650 -0.4095  1.3905 -0.2330
 7854SOL     OW35197   0.051   1.121  14.856 -0.8327 -0.4681 -0.4155
 7854SOL    HW135198   0.041   1.064  14.780  1.2110 -1.2540 -0.0978
 7854SOL    HW235199   0.138   1.099  14.891 -1.1819  1.9662  2.0108
 7855SOL     OW35200   0.366   2.733   4.276 -0.2181  0.1378 -0.1311
 7855SOL    HW135201   0.461   2.744   4.272 -0.5210  1.9772 -2.4700
 7855SOL    HW235202   0.364   2.652   4.225 -0.1408 -0.8311  1.4058
 7856SOL     OW35203   3.003   2.711   4.410 -0.0867  0.1127 -0.1558
 7856SOL    HW135204   2.974   2.738   4.323 -0.5767 -0.2589 -0.1038
 7856SOL    HW235205   3.033   2.785   4.463  3.0807 -0.9284 -0.4797
 7857SOL     OW35206   1.731   2.507   3.504 -0.0371 -0.1973 -0.0315
 7857SOL    HW135207   1.756   2.542   3.589  0.4201 -0.3815 -0.0886
 7857SOL    HW235208   1.703   2.585   3.455 -0.0432  0.2686  0.7067
 7858SOL     OW35209   2.603   4.662  13.570 -0.0877  0.1772  0.2188
 7858SOL    HW135210   2.592   4.687  13.478  0.0489  0.7617  0.3603
 7858SOL    HW235211   2.589   4.569  13.551 -0.2891 -0.0488  1.4826
 7859SOL     OW35212   4.688   4.285   4.289  0.0545 -0.3210 -0.1827
 7859SOL    HW135213   4.670   4.203   4.242  0.7091  0.7814 -2.3487
 7859SOL    HW235214   0.046   4.277   4.297  0.1200  0.4455 -0.1837
 7860SOL     OW35215   4.248   3.821   6.252 -0.5654  0.1084 -0.2014
 7860SOL    HW135216   4.245   3.823   6.347  0.6631 -0.0142 -0.1610
 7860SOL    HW235217   4.157   3.799   6.231  0.0665 -2.8648  0.2012
 7861SOL     OW35218   3.506   0.524   5.559  0.0318  0.5842  0.2939
 7861SOL    HW135219   3.436   0.492   5.503  1.0049  3.2778 -2.4558
 7861SOL    HW235220   3.538   0.598   5.507  0.5635  0.8036  0.9317
 7862SOL     OW35221   0.728   4.218   7.943  0.4161 -0.2014  0.2030
 7862SOL    HW135222   0.820   4.244   7.936  1.0208 -2.5592 -0.5276
 7862SOL    HW235223   0.709   4.191   8.033  1.2011  0.3380  0.5324
 7863SOL     OW35224   4.575   3.599   8.344  0.3122 -0.5443 -0.1434
 7863SOL    HW135225   4.629   3.617   8.421 -1.5711  1.3496  0.7342
 7863SOL    HW235226   4.602   3.665   8.280 -1.3054  0.3283  0.0631
 7864SOL     OW35227   0.645   1.536   0.187 -0.2482 -0.4195  0.6842
 7864SOL    HW135228   0.601   1.608   0.142 -0.5280 -1.4797 -0.7590
 7864SOL    HW235229   0.656   1.467   0.121 -0.5749 -0.2129  0.4145
 7865SOL     OW35230   0.534   4.474   6.303  0.1985 -0.0268  0.2348
 7865SOL    HW135231   0.502   4.549   6.352 -0.3323 -0.7836  1.0340
 7865SOL    HW235232   0.460   4.417   6.322 -1.3462  2.2116  0.8873
 7866SOL     OW35233   1.237   4.210   6.379  0.1990  0.1326  0.0172
 7866SOL    HW135234   1.259   4.139   6.439 -0.0328  0.4637  0.4862
 7866SOL    HW235235   1.155   4.177   6.344  1.0660 -0.1324 -1.7836
 7867SOL     OW35236   2.413   3.331   7.989 -0.1322  0.1396 -0.2203
 7867SOL    HW135237   2.485   3.345   8.051 -0.9867  0.7748  0.6309
 7867SOL    HW235238   2.341   3.310   8.049  1.3932  1.4377  2.0869
 7868SOL     OW35239   4.588   1.078   3.057  0.0559  0.3867 -0.2196
 7868SOL    HW135240   4.592   1.172   3.042  1.4375  0.3872  0.1567
 7868SOL    HW235241   4.663   1.046   3.006 -0.2790  0.0591 -0.5120
 7869SOL     OW35242   3.120   1.409   4.920 -0.6556  0.0494 -0.2135
 7869SOL    HW135243   3.186   1.343   4.940  0.0881  0.8168 -0.1549
 7869SOL    HW235244   3.039   1.364   4.898 -1.3385  0.2321  1.9558
 7870SOL     OW35245   0.282   3.893   6.465  0.2697  0.4218  0.0716
 7870SOL    HW135246   0.283   3.894   6.370  0.6738  1.2652  0.0824
 7870SOL    HW235247   0.295   3.799   6.479  0.2997  0.1571 -1.7621
 7871SOL     OW35248   4.450   3.716  15.145 -0.5762 -0.6202  0.1529
 7871SOL    HW135249   4.437   3.736  15.052  0.5525 -1.8785 -0.2669
 7871SOL    HW235250   4.499   3.635  15.136 -0.6265 -0.4262 -1.9235
 7872SOL     OW35251   0.027   3.653  12.047  0.5026  0.2766 -0.0796
 7872SOL    HW135252   0.065   3.579  12.095  2.8866 -0.0309 -2.4291
 7872SOL    HW235253   4.672   3.632  12.040  0.0047  2.7602 -0.8478
 7873SOL     OW35254   4.573   0.177   1.467  0.3510 -0.2369  0.1563
 7873SOL    HW135255   4.499   0.156   1.524  0.3104 -1.0644 -0.1999
 7873SOL    HW235256   4.602   0.086   1.456  1.6941  0.3394 -1.0529
 7874SOL     OW35257   2.511   2.163   4.362 -0.4589  0.5548  1.1129
 7874SOL    HW135258   2.569   2.141   4.290 -1.0330 -0.3122  0.9191
 7874SOL    HW235259   2.430   2.124   4.331  1.0180  0.0153 -2.0672
 7875SOL     OW35260   4.560   4.358  16.607 -0.3003 -0.0739  0.3691
 7875SOL    HW135261   4.604   4.282  16.568 -2.6534 -1.9903  1.3876
 7875SOL    HW235262   4.585   4.425  16.544  0.2084 -2.1583 -1.6825
 7876SOL     OW35263   0.622   4.502   1.493  0.1844  0.5475  0.3738
 7876SOL    HW135264   0.666   4.576   1.535  2.8011  0.2894 -1.9092
 7876SOL    HW235265   0.593   4.548   1.414 -1.2450 -0.5741  0.2294
 7877SOL     OW35266   4.400   2.061   9.726  0.0261  0.2063 -0.3173
 7877SOL    HW135267   4.455   2.003   9.779  0.7294  0.2163 -1.0470
 7877SOL    HW235268   4.331   2.068   9.793  1.3049  0.8207  0.9472
 7878SOL     OW35269   3.583   2.167   2.006 -0.5573  0.6232  0.1942
 7878SOL    HW135270   3.549   2.140   2.091 -1.4354  0.5213 -0.1870
 7878SOL    HW235271   3.504   2.189   1.957  0.5870  2.2284 -0.9389
 7879SOL     OW35272   1.701   4.366   7.308 -0.5283 -0.2111 -0.0655
 7879SOL    HW135273   1.628   4.371   7.370 -1.0021 -0.6137 -0.6002
 7879SOL    HW235274   1.676   4.431   7.243 -0.7681  1.5895  1.8210
 7880SOL     OW35275   3.481   0.904   5.899  0.0661  0.0636 -0.2676
 7880SOL    HW135276   3.389   0.932   5.893  0.0153 -0.1522 -0.5335
 7880SOL    HW235277   3.478   0.812   5.873 -1.2453 -0.4722  1.7861
 7881SOL     OW35278   1.786   4.651  16.787  0.2642 -0.8803 -0.3624
 7881SOL    HW135279   1.848   4.663  16.860 -0.9033 -0.1561  0.5164
 7881SOL    HW235280   1.768   4.558  16.799 -1.0405 -0.6823 -0.8565
 7882SOL     OW35281   3.048   4.665   5.173 -0.2146 -0.0866  0.0409
 7882SOL    HW135282   3.069   4.618   5.254 -0.0084  0.5187  0.3342
 7882SOL    HW235283   2.990   4.733   5.205  0.5203  0.6326 -0.1503
 7883SOL     OW35284   2.154   4.354   3.140  0.4275  0.4047  0.0365
 7883SOL    HW135285   2.242   4.337   3.107  0.0574 -1.2056 -0.1234
 7883SOL    HW235286   2.159   4.356   3.235 -0.9068 -0.2028  0.1179
 7884SOL     OW35287   3.204   3.901   2.668  0.4243 -0.0393  0.3866
 7884SOL    HW135288   3.183   3.814   2.701  1.8769 -1.6214 -2.8543
 7884SOL    HW235289   3.223   3.885   2.576  0.4685  0.6324  0.2750
 7885SOL     OW35290   1.926   4.389  10.857  0.1738  0.4351 -0.6051
 7885SOL    HW135291   1.905   4.385  10.763 -1.3803 -0.1644 -0.2313
 7885SOL    HW235292   1.883   4.467  10.893  0.5256 -0.0640  0.8850
 7886SOL     OW35293   0.764   0.731   5.349 -0.0190 -0.7587 -0.7652
 7886SOL    HW135294   0.678   0.694   5.366  0.1957 -0.2842  1.3393
 7886SOL    HW235295   0.763   0.744   5.254  1.6064 -0.1252 -0.7091
 7887SOL     OW35296   3.355   2.400   3.261 -0.0306  0.0613 -0.3808
 7887SOL    HW135297   3.435   2.350   3.241 -0.5283 -0.6546 -0.5901
 7887SOL    HW235298   3.364   2.430   3.351 -1.3747 -0.1906 -0.1656
 7888SOL     OW35299   4.393   4.474  13.266 -0.5156 -0.1733  0.3644
 7888SOL    HW135300   4.367   4.494  13.356 -0.7545  0.5831  0.1221
 7888SOL    HW235301   4.487   4.464  13.281  0.2540  0.4033 -3.9952
 7889SOL     OW35302   3.328   2.381   2.403  0.1677  0.4228  0.0698
 7889SOL    HW135303   3.276   2.360   2.325 -1.2257  1.5415  0.6956
 7889SOL    HW235304   3.385   2.304   2.405 -1.7895 -0.9718  1.2030
 7890SOL     OW35305   0.347   1.106   2.228  0.0833  0.1731 -0.3026
 7890SOL    HW135306   0.305   1.164   2.291 -2.9394 -2.2049 -0.0701
 7890SOL    HW235307   0.360   1.167   2.155 -0.8254  0.1453 -0.4903
 7891SOL     OW35308   0.591   1.613   2.176 -0.2318 -0.9396  0.6974
 7891SOL    HW135309   0.660   1.671   2.143 -0.6943 -0.0594  1.2927
 7891SOL    HW235310   0.591   1.633   2.270 -1.7857  0.5544  0.3772
 7892SOL     OW35311   0.148   2.387   4.638  0.7748 -0.5539 -0.0124
 7892SOL    HW135312   0.215   2.455   4.648 -0.0155  0.3055 -0.5248
 7892SOL    HW235313   0.079   2.439   4.595  0.3130 -1.6198 -0.5557
 7893SOL     OW35314   0.854   3.558  12.221 -0.4557  0.4590  0.7918
 7893SOL    HW135315   0.936   3.512  12.204 -1.3775 -1.0597  0.3993
 7893SOL    HW235316   0.863   3.570  12.316 -0.3836  0.2938  0.8070
 7894SOL     OW35317   4.456   0.684   4.399 -0.1244 -0.3540  0.4872
 7894SOL    HW135318   4.540   0.728   4.407  0.2117 -1.1408  1.2481
 7894SOL    HW235319   4.478   0.627   4.325  3.5911  0.4753  0.9858
 7895SOL     OW35320   3.717   1.209   1.505 -0.2923 -0.2343 -0.6389
 7895SOL    HW135321   3.809   1.228   1.485 -0.5082  0.3263 -1.1025
 7895SOL    HW235322   3.735   1.198   1.598 -0.9121 -1.6827 -0.7025
 7896SOL     OW35323   0.972   3.015   2.711 -0.1897  0.1484 -0.4338
 7896SOL    HW135324   0.999   2.971   2.792  1.9891 -0.3903 -1.4683
 7896SOL    HW235325   1.049   3.068   2.692  1.0506 -0.6900  2.2800
 7897SOL     OW35326   4.657   0.754   2.203  0.3254  0.1559 -0.6968
 7897SOL    HW135327   4.713   0.720   2.133  0.6237 -1.0872  0.1505
 7897SOL    HW235328   4.578   0.702   2.186  0.4709 -0.9914  2.2452
 7898SOL     OW35329   3.870   3.405   0.869  0.1752 -0.0699 -0.5057
 7898SOL    HW135330   3.792   3.449   0.903  0.1946 -0.5167  0.1168
 7898SOL    HW235331   3.892   3.450   0.787  1.5776 -1.4766 -0.9001
 7899SOL     OW35332   0.839   1.801   3.363 -0.3174 -0.4270 -0.6781
 7899SOL    HW135333   0.896   1.774   3.292 -0.7471  1.4671 -1.7453
 7899SOL    HW235334   0.869   1.891   3.378 -0.0294 -0.7072  0.4121
 7900SOL     OW35335   3.771   2.516   3.721  0.1368  0.0872  0.2176
 7900SOL    HW135336   3.785   2.604   3.757 -0.4364  0.6963 -1.0231
 7900SOL    HW235337   3.727   2.519   3.635  0.2943  1.4334  0.1767
 7901SOL     OW35338   1.007   1.484  17.102 -0.3773  0.4241 -0.3718
 7901SOL    HW135339   0.939   1.456  17.041  0.0474 -2.6809  0.5740
 7901SOL    HW235340   0.963   1.543  17.163  0.9953 -0.5586  1.5570
 7902SOL     OW35341   0.010   3.418   8.224  0.0515 -0.1988  0.0358
 7902SOL    HW135342   4.735   3.402   8.130 -0.5321  0.9674 -0.0891
 7902SOL    HW235343   4.676   3.474   8.255  1.1779  0.7388  0.9325
 7903SOL     OW35344   0.474   1.388   1.460  0.3351  0.1054  0.2656
 7903SOL    HW135345   0.513   1.435   1.385 -0.6978 -0.6245 -0.7324
 7903SOL    HW235346   0.539   1.393   1.529  0.3379 -1.4254  0.3746
 7904SOL     OW35347   4.300   1.798   9.078 -0.0738  0.2176 -0.1943
 7904SOL    HW135348   4.297   1.790   8.983  2.9621  2.2846 -0.4731
 7904SOL    HW235349   4.393   1.822   9.087 -0.6232  1.8503  1.3335
 7905SOL     OW35350   1.928   2.465   0.517 -0.0425 -0.5456  0.4935
 7905SOL    HW135351   1.857   2.474   0.580  1.0489 -1.5055  1.8677
 7905SOL    HW235352   1.892   2.481   0.430  0.1302 -0.6993  0.3923
 7906SOL     OW35353   4.674   3.956   0.070 -0.5681 -0.1447 -0.3241
 7906SOL    HW135354   0.000   3.893   0.037 -0.3154 -0.3108  0.4945
 7906SOL    HW235355   4.604   3.898   0.102 -1.5811  0.1052 -2.0292
 7907SOL     OW35356   1.834   3.588   8.245  0.2896 -0.6875 -0.0718
 7907SOL    HW135357   1.924   3.577   8.213 -0.1172 -3.2126 -0.3252
 7907SOL    HW235358   1.848   3.595   8.339 -1.5535 -0.8078  0.2160
 7908SOL     OW35359   3.460   3.292   3.081  0.2183 -0.0613 -0.0698
 7908SOL    HW135360   3.409   3.211   3.087  1.8840 -1.0477  0.9001
 7908SOL    HW235361   3.400   3.354   3.123  0.8539 -1.2016  2.5611
 7909SOL     OW35362   1.829   4.062   8.545  0.4520  0.2382 -0.5450
 7909SOL    HW135363   1.810   3.970   8.524 -1.5499  0.2042  1.4425
 7909SOL    HW235364   1.813   4.080   8.637 -0.7128  0.1810 -0.7437
 7910SOL     OW35365   0.573   2.588   6.840 -0.4340  0.0019  0.3907
 7910SOL    HW135366   0.503   2.654   6.840 -0.5425 -0.1156 -0.9772
 7910SOL    HW235367   0.606   2.594   6.929 -1.2080  0.6419  0.6393
 7911SOL     OW35368   2.293   4.300   4.201 -0.0559  0.5252 -0.0328
 7911SOL    HW135369   2.233   4.265   4.266  0.7730 -1.2426 -0.2023
 7911SOL    HW235370   2.262   4.237   4.135  0.1192  0.3598  0.0427
 7912SOL     OW35371   1.223   0.803   1.497  0.9862 -0.3242  0.4614
 7912SOL    HW135372   1.289   0.859   1.456 -1.1260  0.9022 -1.2520
 7912SOL    HW235373   1.218   0.730   1.436 -0.1097 -0.1509  0.3597
 7913SOL     OW35374   2.601   1.155  15.483 -0.3646  0.1731  0.8477
 7913SOL    HW135375   2.616   1.104  15.403 -2.4512  0.9873 -0.0708
 7913SOL    HW235376   2.570   1.086  15.542  0.0309 -0.8432 -0.1279
 7914SOL     OW35377   3.742   4.346   1.685 -0.4291  0.1015  0.0816
 7914SOL    HW135378   3.734   4.441   1.677  0.2553  0.1349 -0.2401
 7914SOL    HW235379   3.666   4.314   1.636 -0.7089 -1.4421  1.5504
 7915SOL     OW35380   3.378   2.206   5.178  0.4789 -0.6340  0.6167
 7915SOL    HW135381   3.358   2.260   5.102 -1.8167  1.3712  2.6367
 7915SOL    HW235382   3.469   2.181   5.162  0.4542 -0.4993  0.2712
 7916SOL     OW35383   4.703   2.352   6.190 -0.2624 -0.0051 -0.0113
 7916SOL    HW135384   4.679   2.327   6.101 -0.3003 -2.1962  0.6021
 7916SOL    HW235385   0.002   2.437   6.166 -0.1940  0.3829  1.4490
 7917SOL     OW35386   0.860   2.630   6.020 -0.3947  0.0535 -0.1641
 7917SOL    HW135387   0.863   2.719   6.054  1.4283 -0.6537  1.5206
 7917SOL    HW235388   0.951   2.626   5.990  0.6362 -1.3351  3.1588
 7918SOL     OW35389   2.012   2.260  12.653 -0.0034  0.6279  0.0421
 7918SOL    HW135390   1.985   2.190  12.712  0.6549 -1.8424 -2.6045
 7918SOL    HW235391   1.982   2.237  12.566 -1.1140 -0.9240  0.8390
 7919SOL     OW35392   0.293   3.597   4.293  0.1874 -0.0775 -0.0159
 7919SOL    HW135393   0.389   3.606   4.293  0.0540  1.3134  0.0254
 7919SOL    HW235394   0.270   3.600   4.385 -1.6571  1.3683 -0.5318
 7920SOL     OW35395   3.685   2.968   9.346 -0.4454  0.5984 -0.3070
 7920SOL    HW135396   3.598   2.939   9.318 -1.1853  0.9240  1.6598
 7920SOL    HW235397   3.672   3.048   9.398  0.0593 -0.5293  1.5450
 7921SOL     OW35398   1.406   4.322   5.667  0.0320 -0.1445 -0.1645
 7921SOL    HW135399   1.502   4.322   5.665  0.0834  1.7700  2.1814
 7921SOL    HW235400   1.392   4.236   5.706 -0.6334  0.2541  0.4678
 7922SOL     OW35401   4.134   2.897  11.216 -0.0314 -0.3513 -0.4727
 7922SOL    HW135402   4.046   2.915  11.248  0.3106 -1.8720  1.3240
 7922SOL    HW235403   4.131   2.949  11.136  0.7408 -0.1282 -0.3585
 7923SOL     OW35404   2.745   4.184   0.343  0.3296  0.2848 -0.2674
 7923SOL    HW135405   2.776   4.114   0.286 -0.8866 -0.4891  0.0131
 7923SOL    HW235406   2.824   4.211   0.390 -0.4485  1.0573  0.5947
 7924SOL     OW35407   2.791   0.997   7.012 -0.3896 -0.0198 -0.3623
 7924SOL    HW135408   2.722   1.063   7.017 -0.2576  0.2944 -2.6715
 7924SOL    HW235409   2.865   1.057   7.014 -0.4957  0.1277 -0.7454
 7925SOL     OW35410   0.146   3.403   5.768 -0.1778  0.0454  0.3437
 7925SOL    HW135411   0.216   3.359   5.816  2.5986  2.5815 -1.3877
 7925SOL    HW235412   0.162   3.377   5.677 -0.1125  1.3365 -0.0028
 7926SOL     OW35413   2.265   3.309  15.344  0.1657  0.0029  1.1670
 7926SOL    HW135414   2.271   3.375  15.413 -0.3915  0.8315  0.4256
 7926SOL    HW235415   2.240   3.235  15.399  0.2867 -1.1077 -0.2838
 7927SOL     OW35416   0.594   1.800   5.663  0.5409  0.2449  0.1793
 7927SOL    HW135417   0.669   1.770   5.713  0.2370 -0.2449  0.3440
 7927SOL    HW235418   0.634   1.869   5.610  0.3845  1.3880  1.5539
 7928SOL     OW35419   4.520   4.416   3.548  0.0797  0.4254 -0.4028
 7928SOL    HW135420   4.571   4.338   3.570  2.0834  1.6554 -0.6622
 7928SOL    HW235421   4.506   4.450   3.636 -0.5727 -1.5443  0.2484
 7929SOL     OW35422   2.228   0.816  13.385  0.6686  0.0053 -0.3513
 7929SOL    HW135423   2.255   0.905  13.360  0.2347  0.4756  0.8852
 7929SOL    HW235424   2.154   0.832  13.442  2.8175 -1.0242  2.7031
 7930SOL     OW35425   4.137   1.357   5.862 -0.6574  0.2674 -0.1342
 7930SOL    HW135426   4.180   1.358   5.947  0.4345  0.2454 -0.6893
 7930SOL    HW235427   4.080   1.286   5.894 -0.9391  0.9770  0.9382
 7931SOL     OW35428   4.300   2.905   8.889  0.7951  0.0310  0.5111
 7931SOL    HW135429   4.312   2.825   8.940  1.1964  0.1787  0.6459
 7931SOL    HW235430   4.205   2.899   8.901  0.8795 -0.5475  0.8812
 7932SOL     OW35431   2.285   2.260   1.057 -0.2577 -0.1659  0.4351
 7932SOL    HW135432   2.265   2.343   1.014  1.1934  0.0632  0.2151
 7932SOL    HW235433   2.298   2.286   1.148 -0.0664 -0.4182  0.4792
 7933SOL     OW35434   0.941   1.984   4.388 -0.1356  0.4126 -0.1167
 7933SOL    HW135435   0.986   1.997   4.471  1.3604 -0.6274 -0.7513
 7933SOL    HW235436   0.860   1.962   4.433  0.4923 -1.7568 -0.0453
 7934SOL     OW35437   2.163   3.215   2.847 -0.2428 -0.0831 -0.1447
 7934SOL    HW135438   2.195   3.185   2.762  1.1622  0.7298  0.0907
 7934SOL    HW235439   2.119   3.136   2.879 -1.5475 -0.3098 -2.5462
 7935SOL     OW35440   4.500   1.650   7.956  0.0930  0.1291 -0.5719
 7935SOL    HW135441   4.539   1.699   8.028  0.1890 -0.2490 -0.3623
 7935SOL    HW235442   4.550   1.690   7.885  0.4131  0.2392 -0.2851
 7936SOL     OW35443   1.333   3.583   6.998 -0.0297 -0.4215 -0.4831
 7936SOL    HW135444   1.426   3.579   6.976 -0.1420  0.3977 -1.1193
 7936SOL    HW235445   1.315   3.677   6.995 -0.1393 -0.4564 -0.9677
 7937SOL     OW35446   2.117   2.475  11.509 -0.4563 -0.0844 -0.0880
 7937SOL    HW135447   2.131   2.555  11.559 -0.8630 -0.1417  0.1178
 7937SOL    HW235448   2.040   2.484  11.453 -1.0036  4.2176  1.3744
 7938SOL     OW35449   4.299   1.286  15.835 -0.4582  0.8486  0.0991
 7938SOL    HW135450   4.389   1.312  15.818 -0.4319  0.0724 -0.8955
 7938SOL    HW235451   4.309   1.240  15.918 -2.4438 -2.0804 -1.3153
 7939SOL     OW35452   0.514   4.584   1.792 -0.2358 -0.4806 -0.0952
 7939SOL    HW135453   0.421   4.601   1.806 -0.5277  0.0988 -2.6257
 7939SOL    HW235454   0.518   4.529   1.714  2.0605 -0.9720  0.3784
 7940SOL     OW35455   0.744   4.665   4.136  0.1909  0.2322 -0.4040
 7940SOL    HW135456   0.727   4.571   4.150 -1.5549  0.6290  0.1307
 7940SOL    HW235457   0.671   4.708   4.179  0.5361 -1.1770  1.6077
 7941SOL     OW35458   2.751   0.605   5.708 -0.1778  0.7674  0.3041
 7941SOL    HW135459   2.781   0.641   5.624  0.0565  0.5192  0.2813
 7941SOL    HW235460   2.765   0.512   5.694  1.0757  0.8518  0.9816
 7942SOL     OW35461   0.570   4.273   8.967  0.4845 -0.1374  0.2004
 7942SOL    HW135462   0.579   4.368   8.967 -0.2491 -0.0696  0.4433
 7942SOL    HW235463   0.597   4.255   9.057  1.8490 -1.1340 -0.4083
 7943SOL     OW35464   4.688   3.088   1.203  0.4589  0.2970 -0.4398
 7943SOL    HW135465   0.019   3.098   1.269 -0.1962 -1.7293  0.5577
 7943SOL    HW235466   4.647   3.009   1.238 -2.5026  2.3733  0.6907
 7944SOL     OW35467   4.307   2.737   5.468 -0.2296 -0.1511 -0.3407
 7944SOL    HW135468   4.276   2.715   5.380  0.0630 -2.9970  0.2842
 7944SOL    HW235469   4.394   2.697   5.466 -0.3040 -0.4119  1.4120
 7945SOL     OW35470   4.562   1.312   2.044  0.3235 -0.3887  0.1730
 7945SOL    HW135471   4.563   1.238   2.106 -2.6759  1.3549  2.3180
 7945SOL    HW235472   4.488   1.354   2.088  0.9017 -0.1066  0.8776
 7946SOL     OW35473   0.667   2.865   4.798 -0.0046 -1.2677 -0.0120
 7946SOL    HW135474   0.691   2.954   4.772 -0.0918 -1.1854  0.1890
 7946SOL    HW235475   0.580   2.864   4.837  0.1879 -0.9355  0.4229
 7947SOL     OW35476   2.484   3.009   6.395 -0.0383 -0.1636 -0.5309
 7947SOL    HW135477   2.477   2.940   6.328  0.9779 -1.2035  0.4247
 7947SOL    HW235478   2.554   2.966   6.444 -1.9553 -3.2765 -0.4965
 7948SOL     OW35479   0.242   0.667   3.381  0.8235  0.5425 -0.3275
 7948SOL    HW135480   0.287   0.613   3.317  2.0898  0.8205  0.3391
 7948SOL    HW235481   0.204   0.616   3.452 -0.9793 -0.1333 -1.7446
 7949SOL     OW35482   3.447   0.292   6.800 -0.2540  0.2713  0.1291
 7949SOL    HW135483   3.474   0.319   6.712  2.0082  0.5351  0.9201
 7949SOL    HW235484   3.367   0.249   6.769 -0.6501  0.0618  1.4352
 7950SOL     OW35485   3.309   2.939   6.462  0.2199  0.3047 -0.1807
 7950SOL    HW135486   3.258   2.878   6.514  1.1527  0.4420  0.8925
 7950SOL    HW235487   3.265   2.942   6.377 -2.5209  0.3316  1.2411
 7951SOL     OW35488   3.459   2.181  17.593  0.4582  0.8727  0.0587
 7951SOL    HW135489   3.365   2.190  17.577 -0.2618 -4.7914  0.9625
 7951SOL    HW235490   3.465   2.087  17.609  1.9371  1.1849  1.3193
 7952SOL     OW35491   4.248   0.240   8.071 -0.1282  0.2692  0.1551
 7952SOL    HW135492   4.333   0.199   8.061 -0.8877 -1.0512 -0.8056
 7952SOL    HW235493   4.214   0.242   7.982  0.5950 -2.7988 -0.1823
 7953SOL     OW35494   0.034   1.989   9.392 -1.1619  0.1787 -0.5205
 7953SOL    HW135495   0.059   1.898   9.376  1.3112  0.7989 -0.2017
 7953SOL    HW235496   0.031   1.979   9.487 -0.0020 -0.8504 -0.5887
 7954SOL     OW35497   4.034   1.386   4.233  0.2776 -0.1641  0.6518
 7954SOL    HW135498   4.129   1.390   4.223  0.3715  1.5029  2.2254
 7954SOL    HW235499   4.027   1.384   4.329  0.6055  0.6738  0.6940
 7955SOL     OW35500   3.035   1.195   9.922 -0.3456  0.3431 -0.3286
 7955SOL    HW135501   3.020   1.289   9.922  0.4592  0.4728  1.5678
 7955SOL    HW235502   2.943   1.168   9.926 -0.5591  1.2125  0.6283
 7956SOL     OW35503   3.672   4.168   5.132  0.2102  0.1730 -0.2685
 7956SOL    HW135504   3.688   4.226   5.057 -1.1214  0.9324  0.0247
 7956SOL    HW235505   3.683   4.090   5.078 -0.0019  0.4667 -0.7392
 7957SOL     OW35506   2.904   1.662  14.500  0.4190  0.0577 -0.0003
 7957SOL    HW135507   2.927   1.675  14.592  0.3694  0.9225 -0.1064
 7957SOL    HW235508   2.864   1.744  14.472  2.2058  1.0251  0.2436
 7958SOL     OW35509   2.620   4.290   0.580  0.6822  0.2582 -0.0590
 7958SOL    HW135510   2.684   4.341   0.630 -0.7891  2.1267 -0.0429
 7958SOL    HW235511   2.663   4.253   0.503 -3.2751 -0.7581 -1.7566
 7959SOL     OW35512   3.191   2.756   5.451  0.5761 -0.0708 -0.5500
 7959SOL    HW135513   3.101   2.735   5.426 -0.2050  1.2865  1.1226
 7959SOL    HW235514   3.189   2.710   5.535  0.9317 -0.6058 -0.8390
 7960SOL     OW35515   4.128   3.643   3.420 -0.0202  0.0249 -0.1278
 7960SOL    HW135516   4.187   3.651   3.495  1.0650 -0.8308 -0.8983
 7960SOL    HW235517   4.051   3.691   3.452 -0.0408  1.7120 -2.6709
 7961SOL     OW35518   0.120   4.135   6.454  0.0884  0.0276 -0.0062
 7961SOL    HW135519   0.182   4.077   6.499  0.2350  0.2647  0.0964
 7961SOL    HW235520   0.040   4.083   6.445  0.6327 -0.8933  0.4947
 7962SOL     OW35521   2.112   3.532   8.239 -0.3728  0.3982 -0.0985
 7962SOL    HW135522   2.141   3.544   8.148  1.7908  1.5081  0.7553
 7962SOL    HW235523   2.195   3.557   8.279 -1.0711  0.8966  1.0086
 7963SOL     OW35524   0.078   4.595   7.568 -0.6619  0.2127  0.3943
 7963SOL    HW135525   0.167   4.601   7.533  0.0558  1.2362  2.4109
 7963SOL    HW235526   0.093   4.665   7.631 -1.4503  0.0154  0.7945
 7964SOL     OW35527   3.775   2.818  14.466  0.1230 -0.4047  0.6226
 7964SOL    HW135528   3.799   2.821  14.559 -1.7260  0.0477  1.0835
 7964SOL    HW235529   3.831   2.754  14.422  2.2714  2.5139 -0.9056
 7965SOL     OW35530   2.642   3.000   8.831 -0.0936 -0.0841 -0.6832
 7965SOL    HW135531   2.706   2.942   8.872  1.0506  1.8057  0.2060
 7965SOL    HW235532   2.687   3.053   8.765  1.2447  0.4461  0.6547
 7966SOL     OW35533   3.238   3.637   8.651  0.4216  0.0689  0.3586
 7966SOL    HW135534   3.327   3.653   8.683  0.2081  1.6029  0.1983
 7966SOL    HW235535   3.219   3.729   8.631 -2.8286  0.1461  3.7472
 7967SOL     OW35536   3.904   3.170   5.402  0.3310  0.0837  0.7787
 7967SOL    HW135537   3.946   3.094   5.441 -1.5938 -0.2855  2.1371
 7967SOL    HW235538   3.888   3.147   5.311 -0.3448 -0.6687  1.0892
 7968SOL     OW35539   3.580   4.347  15.622  0.0441  0.5234 -0.1181
 7968SOL    HW135540   3.548   4.326  15.534 -0.3911  0.7469 -0.0103
 7968SOL    HW235541   3.501   4.354  15.675  1.7306  1.0903  2.3392
 7969SOL     OW35542   2.231   2.888  15.617  0.5779  0.0579  0.1824
 7969SOL    HW135543   2.273   2.837  15.687  1.1829  1.5956  0.9335
 7969SOL    HW235544   2.305   2.947  15.607  0.0851  1.1261  2.8508
 7970SOL     OW35545   1.932   3.093  16.275  0.0202  0.3775 -0.1198
 7970SOL    HW135546   1.922   3.061  16.365 -0.5101  0.0528 -0.2961
 7970SOL    HW235547   1.864   3.161  16.277  0.7261  1.0890  0.0513
 7971SOL     OW35548   2.245   1.105  13.626  0.0520 -0.4330  0.1692
 7971SOL    HW135549   2.182   1.168  13.660  2.5632  0.7761  2.6013
 7971SOL    HW235550   2.316   1.093  13.690 -2.1030  0.8552  2.7671
 7972SOL     OW35551   1.304   0.676  16.565  0.0907 -0.0735 -0.0050
 7972SOL    HW135552   1.383   0.723  16.540  0.2610  0.0239  0.7202
 7972SOL    HW235553   1.294   0.697  16.658 -0.7621 -0.4632 -0.0082
 7973SOL     OW35554   2.566   1.193  13.369  0.0099 -0.1105  0.0341
 7973SOL    HW135555   2.656   1.161  13.370  0.2215  0.5194  2.2985
 7973SOL    HW235556   2.560   1.257  13.440 -1.5080 -0.8960  0.6357
 7974SOL     OW35557   1.796   2.065  16.970 -0.6069  0.3360  0.1131
 7974SOL    HW135558   1.846   2.065  17.052 -1.1806 -2.5467  0.4493
 7974SOL    HW235559   1.701   2.061  16.986 -0.2791  1.3647  2.3640
 7975SOL     OW35560   2.403   3.638  13.415  0.0214 -0.3040 -0.1864
 7975SOL    HW135561   2.417   3.654  13.508 -0.2148  2.2807 -0.5996
 7975SOL    HW235562   2.480   3.693  13.396 -1.0183  1.5208  0.8856
 7976SOL     OW35563   3.578   1.892  13.412  0.3930  0.0407 -0.1257
 7976SOL    HW135564   3.609   1.933  13.332  2.0255 -3.1047 -1.1093
 7976SOL    HW235565   3.524   1.961  13.449 -0.9450  0.0555 -2.1247
 7977SOL     OW35566   0.587   4.243   1.531 -0.2160  0.1882  0.0455
 7977SOL    HW135567   0.600   4.335   1.505  1.5712 -0.5337 -1.5752
 7977SOL    HW235568   0.524   4.255   1.602  0.6639  0.6698  0.7305
 7978SOL     OW35569   1.015   3.317   2.700  0.0830 -0.3378  0.3065
 7978SOL    HW135570   1.008   3.273   2.615  1.7098  0.0479 -0.0319
 7978SOL    HW235571   1.100   3.362   2.697 -0.2840  0.3139 -0.2872
 7979SOL     OW35572   3.568   0.518   8.389  0.3244  0.0784  0.3135
 7979SOL    HW135573   3.612   0.543   8.471  0.9884  2.5700 -0.8160
 7979SOL    HW235574   3.514   0.597   8.394 -0.1947 -0.3618  1.5837
 7980SOL     OW35575   4.638   3.818   2.903 -0.1391  0.4618  0.1130
 7980SOL    HW135576   4.706   3.884   2.889  0.7472 -0.1734  1.4158
 7980SOL    HW235577   4.680   3.761   2.967  1.5326  0.1812 -1.2098
 7981SOL     OW35578   2.995   4.416  13.282  0.5906  0.2513  0.0310
 7981SOL    HW135579   2.905   4.434  13.255  0.7468  2.8306  1.2961
 7981SOL    HW235580   3.044   4.460  13.213 -0.3207 -1.3194 -1.6342
 7982SOL     OW35581   0.653   0.044   7.703  0.0361  0.4184 -0.2138
 7982SOL    HW135582   0.622   4.703   7.659 -3.1990  1.4851  0.1330
 7982SOL    HW235583   0.715   0.089   7.646  2.6215  0.5221  2.6259
 7983SOL     OW35584   0.740   0.659   6.175  0.1238  0.5464 -0.5675
 7983SOL    HW135585   0.708   0.616   6.254 -1.2814  1.5498 -0.5800
 7983SOL    HW235586   0.660   0.702   6.146 -0.0947  0.9191  0.5638
 7984SOL     OW35587   0.518   3.251   0.190  0.4787  0.1444  0.3718
 7984SOL    HW135588   0.497   3.338   0.221 -0.6378 -0.9693  2.7158
 7984SOL    HW235589   0.604   3.232   0.227  0.2603 -1.7182 -0.0503
 7985SOL     OW35590   3.998   2.225  15.288  0.0254 -0.7244 -0.8189
 7985SOL    HW135591   4.042   2.140  15.283 -1.3641 -1.4097 -1.5525
 7985SOL    HW235592   4.057   2.268  15.349  0.2720  0.6282 -1.9936
 7986SOL     OW35593   3.913   0.272   7.380 -0.5925 -0.2738  0.3220
 7986SOL    HW135594   3.892   0.249   7.471  1.6467 -0.6441  0.7356
 7986SOL    HW235595   3.882   0.189   7.344 -0.1916 -1.5001  2.8027
 7987SOL     OW35596   4.172   3.064   5.198  0.3767 -0.3319 -0.1658
 7987SOL    HW135597   4.102   3.119   5.163  0.0333 -0.6003  0.0964
 7987SOL    HW235598   4.153   3.048   5.291  1.3357  3.0199  0.5796
 7988SOL     OW35599   3.346   1.023   6.954 -0.1688 -0.6157 -0.5633
 7988SOL    HW135600   3.401   0.946   6.967 -2.9009 -2.4010  0.5599
 7988SOL    HW235601   3.407   1.080   6.907 -1.0536  2.3757  1.8969
 7989SOL     OW35602   0.469   3.821  17.508 -0.4019  0.5001  0.0486
 7989SOL    HW135603   0.549   3.813  17.561 -0.9209  1.4863  0.9966
 7989SOL    HW235604   0.473   3.911  17.475 -2.5146  0.1327 -1.1621
 7990SOL     OW35605   3.845   4.666   4.876 -0.0179  0.4874 -0.2588
 7990SOL    HW135606   3.825   4.573   4.878 -1.6446  0.8366 -0.7640
 7990SOL    HW235607   3.777   4.709   4.927 -0.8643 -0.0625 -0.9355
 7991SOL     OW35608   0.265   2.719   8.675 -0.3856  0.6061 -0.0541
 7991SOL    HW135609   0.281   2.769   8.755 -0.3456 -0.2322  0.4542
 7991SOL    HW235610   0.216   2.655   8.726  0.5995 -1.2744 -1.4670
 7992SOL     OW35611   0.111   0.784   1.993  0.0623 -0.3132  1.1270
 7992SOL    HW135612   0.112   0.688   1.987  0.3483 -0.2455  0.0802
 7992SOL    HW235613   0.175   0.812   2.059 -0.7344  1.1749  1.2627
 7993SOL     OW35614   4.352   1.716   5.949 -0.1030  0.3321  0.6408
 7993SOL    HW135615   4.357   1.811   5.943  1.2911  0.1605 -1.1420
 7993SOL    HW235616   4.259   1.697   5.953  0.2435 -1.4695  0.2991
 7994SOL     OW35617   3.925   1.184   5.989  0.0383  0.5233 -0.0160
 7994SOL    HW135618   3.856   1.125   5.960  0.7158 -1.0189  1.5930
 7994SOL    HW235619   3.885   1.272   5.987  1.6760  1.2628  0.0497
 7995SOL     OW35620   4.003   2.524   1.014 -0.4016  0.2239  0.3622
 7995SOL    HW135621   3.968   2.611   1.031 -0.1003  0.1753  1.2770
 7995SOL    HW235622   3.937   2.482   0.959 -0.6415  1.6816 -0.4537
 7996SOL     OW35623   0.984   3.562   1.544  0.2954  0.1958  0.2638
 7996SOL    HW135624   0.990   3.533   1.453 -2.4914 -1.0491  0.4989
 7996SOL    HW235625   0.915   3.503   1.574 -1.1058  2.4051  1.3844
 7997SOL     OW35626   1.809   1.253   6.342  0.2389  0.2972  0.2125
 7997SOL    HW135627   1.729   1.233   6.392  0.3430  1.6817  0.9207
 7997SOL    HW235628   1.805   1.348   6.347 -0.2350  0.3068 -0.4143
 7998SOL     OW35629   3.645   1.688   3.367 -0.2125 -0.5813 -0.0226
 7998SOL    HW135630   3.650   1.628   3.293 -0.6605 -0.5221 -0.1040
 7998SOL    HW235631   3.735   1.720   3.376  0.2843 -2.2901  0.9690
 7999SOL     OW35632   1.131   2.412   2.712 -0.4057  0.1442  0.0308
 7999SOL    HW135633   1.113   2.351   2.784 -0.3981 -0.2021 -0.2627
 7999SOL    HW235634   1.148   2.356   2.636 -0.5613 -0.0259  0.1214
 8000SOL     OW35635   3.244   1.288   7.539  0.1952 -0.1737  0.7185
 8000SOL    HW135636   3.321   1.318   7.492  0.0382  0.9206  1.1528
 8000SOL    HW235637   3.217   1.371   7.579  2.6930  1.4782 -1.0412
 8001SOL     OW35638   1.835   0.174   3.833  0.6601 -0.4669 -0.1992
 8001SOL    HW135639   1.924   0.207   3.846  0.3806  0.4492 -0.5780
 8001SOL    HW235640   1.806   0.149   3.920  0.0480 -1.8304 -0.7996
 8002SOL     OW35641   4.680   1.746   7.803 -0.6403 -0.0189 -0.6478
 8002SOL    HW135642   4.659   1.789   7.720  1.4993  1.9272 -0.1933
 8002SOL    HW235643   0.007   1.680   7.778 -0.2167  0.1947 -0.1130
 8003SOL     OW35644   2.580   0.587   6.479 -0.6919  1.0788 -0.0282
 8003SOL    HW135645   2.638   0.590   6.556  0.2727 -2.0660 -0.6335
 8003SOL    HW235646   2.500   0.548   6.515 -1.9145  2.4546 -1.2707
 8004SOL     OW35647   2.224   4.425   5.155  0.6083  0.0004  0.5212
 8004SOL    HW135648   2.298   4.476   5.121  0.6567 -1.4613 -1.5445
 8004SOL    HW235649   2.218   4.464   5.242 -1.2681  0.8604  0.0014
 8005SOL     OW35650   1.626   3.232   8.323 -0.0256  0.5880 -0.2606
 8005SOL    HW135651   1.594   3.322   8.325 -1.3302  0.0897  1.9388
 8005SOL    HW235652   1.601   3.196   8.238  1.4934  0.2928 -0.5818
 8006SOL     OW35653   3.876   1.673   5.793 -0.3129  0.0694  0.0371
 8006SOL    HW135654   3.830   1.754   5.817  0.9523  0.4698  1.0864
 8006SOL    HW235655   3.808   1.608   5.810 -1.0001  0.5160 -0.9960
 8007SOL     OW35656   2.934   4.450   4.254  0.0510  0.0263  0.0577
 8007SOL    HW135657   2.975   4.510   4.317  3.2572 -0.2505 -1.7412
 8007SOL    HW235658   2.848   4.438   4.295  0.0225 -0.1946 -0.0697
 8008SOL     OW35659   4.666   0.414   6.890 -0.2876 -0.0148  0.8163
 8008SOL    HW135660   0.009   0.424   6.939  0.7002 -1.5239 -0.5007
 8008SOL    HW235661   4.627   0.336   6.927 -0.6606 -0.6172 -0.8278
 8009SOL     OW35662   0.658   3.157   4.693  0.4452 -0.1529 -0.1218
 8009SOL    HW135663   0.666   3.182   4.785  1.3810 -0.3942 -0.1387
 8009SOL    HW235664   0.596   3.223   4.662  0.8309  0.4053  0.3017
 8010SOL     OW35665   4.199   1.838   3.587 -0.3514 -0.0986 -0.1502
 8010SOL    HW135666   4.245   1.842   3.503  1.0273 -0.3167  0.5879
 8010SOL    HW235667   4.178   1.930   3.603  1.1324  0.1695  0.2345
 8011SOL     OW35668   3.235   1.917   3.283  0.1719 -0.0901  0.1200
 8011SOL    HW135669   3.281   1.915   3.368 -0.7208  0.9887  0.6370
 8011SOL    HW235670   3.147   1.941   3.311  0.1965 -0.0225  0.1417
 8012SOL     OW35671   1.555   4.476   3.010  0.4164  0.1298  0.0865
 8012SOL    HW135672   1.491   4.412   2.979  0.1416 -0.5217  2.0026
 8012SOL    HW235673   1.632   4.458   2.955  2.3656  1.2047  2.4475
 8013SOL     OW35674   0.269   1.926   6.982 -0.4244  0.0845 -0.0873
 8013SOL    HW135675   0.325   1.987   6.933  2.2489 -0.9964  1.6626
 8013SOL    HW235676   0.312   1.845   6.956  0.1119  0.2414  0.3213
 8014SOL     OW35677   3.701   4.467   7.610  0.4280  0.4062  0.2578
 8014SOL    HW135678   3.677   4.424   7.692 -2.1524 -0.9341 -1.2128
 8014SOL    HW235679   3.613   4.486   7.579  0.9033  2.3825  0.0786
 8015SOL     OW35680   3.688   1.347   6.331  0.1156 -0.4029 -0.3247
 8015SOL    HW135681   3.770   1.306   6.305 -0.5098 -0.7280 -1.8023
 8015SOL    HW235682   3.676   1.424   6.275  0.2261 -1.0846 -1.2791
 8016SOL     OW35683   2.802   3.055   0.361 -0.0223  0.0626 -0.0791
 8016SOL    HW135684   2.851   2.978   0.390 -2.3718 -1.1743  0.6344
 8016SOL    HW235685   2.868   3.120   0.388  0.6169 -0.4229 -0.4917
 8017SOL     OW35686   3.846   4.052   1.091 -0.0051 -0.0888  0.0077
 8017SOL    HW135687   3.795   4.128   1.063 -0.2663  0.1316  1.0866
 8017SOL    HW235688   3.914   4.037   1.025  0.8365  2.8059  0.2135
 8018SOL     OW35689   4.394   2.881  13.792 -0.3526 -0.0616 -0.5698
 8018SOL    HW135690   4.488   2.867  13.777 -0.3115 -0.0809 -0.2832
 8018SOL    HW235691   4.384   2.817  13.863  2.8509 -0.8486 -0.8185
 8019SOL     OW35692   1.587   1.814   0.653  0.2795  0.6552 -0.1519
 8019SOL    HW135693   1.669   1.776   0.621 -1.8479 -3.4582 -0.8205
 8019SOL    HW235694   1.519   1.757   0.618  0.0457  1.5924 -1.2214
 8020SOL     OW35695   4.583   4.038   4.554  0.1780  0.2274 -0.3974
 8020SOL    HW135696   4.621   3.986   4.484  1.6252 -2.1688  2.1617
 8020SOL    HW235697   4.502   4.070   4.515 -1.3908 -2.4167  0.6967
 8021SOL     OW35698   1.272   4.322   9.620  0.2839  0.8425  0.1962
 8021SOL    HW135699   1.207   4.292   9.557  0.3029  0.4428  0.3685
 8021SOL    HW235700   1.249   4.272   9.697 -1.0202  0.0681 -0.7057
 8022SOL     OW35701   0.085   0.300   5.190  0.2970  0.1465  0.0615
 8022SOL    HW135702   0.051   0.220   5.230  1.1808  0.0075  0.5185
 8022SOL    HW235703   0.176   0.302   5.219  0.0426 -1.6950  0.9760
 8023SOL     OW35704   0.707   1.274   7.010 -0.0168  0.0797  0.4903
 8023SOL    HW135705   0.626   1.246   7.053 -1.9609  1.6503 -2.1432
 8023SOL    HW235706   0.687   1.366   6.992  2.1404 -0.1321 -2.9297
 8024SOL     OW35707   2.868   1.453   0.248  0.0834  0.1193 -0.1959
 8024SOL    HW135708   2.818   1.381   0.287  1.2206 -0.4103  0.2882
 8024SOL    HW235709   2.952   1.413   0.225  0.9039  1.0218  1.2045
 8025SOL     OW35710   3.311   1.671   1.651 -0.1211  0.1232  0.0404
 8025SOL    HW135711   3.220   1.649   1.671  0.3857 -0.2864  1.8273
 8025SOL    HW235712   3.319   1.630   1.565  0.4626 -0.4467  0.3676
 8026SOL     OW35713   0.232   3.110   9.751 -0.1384 -0.1020 -0.1663
 8026SOL    HW135714   0.187   3.189   9.722 -0.1248 -0.4836 -1.2409
 8026SOL    HW235715   0.266   3.142   9.834 -1.6582  1.4490 -0.1489
 8027SOL     OW35716   0.710   0.091   0.328  0.1541 -0.3757  0.5974
 8027SOL    HW135717   0.710   0.183   0.301  0.7536 -0.6011 -0.1664
 8027SOL    HW235718   0.788   0.073   0.379  1.2975 -1.2311 -1.4529
 8028SOL     OW35719   2.302   4.164  14.878 -0.4251  0.3000  0.2053
 8028SOL    HW135720   2.379   4.108  14.890 -0.0847  0.0466 -3.0634
 8028SOL    HW235721   2.352   4.231  14.830 -1.8194  1.6461  0.6470
 8029SOL     OW35722   0.567   3.300  15.488 -0.2363 -0.7167  0.1166
 8029SOL    HW135723   0.607   3.215  15.472  0.9818 -0.0099 -0.5767
 8029SOL    HW235724   0.643   3.353  15.509 -0.5750  0.3482 -1.3342
 8030SOL     OW35725   2.746   1.845   8.365 -0.3587  0.7334 -0.7477
 8030SOL    HW135726   2.782   1.785   8.300  0.5943 -0.7410  1.1461
 8030SOL    HW235727   2.681   1.794   8.415 -0.6118  1.0008 -0.8058
 8031SOL     OW35728   4.213   2.737  15.399  0.0095 -0.0748  0.2800
 8031SOL    HW135729   4.219   2.827  15.431 -0.9161  1.2963 -3.3731
 8031SOL    HW235730   4.298   2.720  15.359 -0.8076 -2.2949 -0.5040
 8032SOL     OW35731   3.789   4.454   9.352  0.0593 -0.6635 -0.1540
 8032SOL    HW135732   3.700   4.442   9.385 -0.0299  1.2072  0.2781
 8032SOL    HW235733   3.786   4.548   9.334  0.4680 -0.6082  0.0621
 8033SOL     OW35734   2.560   1.140   1.391 -0.6518  0.4384 -0.2274
 8033SOL    HW135735   2.471   1.106   1.388 -0.0027 -1.4016  1.6515
 8033SOL    HW235736   2.542   1.230   1.418 -1.6554 -0.4399  1.9999
 8034SOL     OW35737   0.460   2.154   4.098  0.0083  0.2788 -0.1169
 8034SOL    HW135738   0.549   2.146   4.132  0.4156  2.4503 -0.6973
 8034SOL    HW235739   0.476   2.125   4.008  1.4556  1.1482 -0.1423
 8035SOL     OW35740   2.499   3.573   5.307 -0.4258 -0.0761 -0.2931
 8035SOL    HW135741   2.478   3.666   5.313 -0.0609  0.0925 -1.6077
 8035SOL    HW235742   2.592   3.582   5.330 -0.3282 -0.6610 -0.4718
 8036SOL     OW35743   2.957   0.960   5.347  0.5866  0.0340 -0.5052
 8036SOL    HW135744   2.927   1.041   5.388  1.9020  0.9022 -1.2456
 8036SOL    HW235745   2.950   0.896   5.417 -2.6180  0.7111 -0.2098
 8037SOL     OW35746   2.116   1.523   5.238 -0.2189  0.1310  0.1704
 8037SOL    HW135747   2.109   1.605   5.189  1.9511  1.1588  1.5470
 8037SOL    HW235748   2.176   1.549   5.308 -0.2242  1.6411 -0.3776
 8038SOL     OW35749   0.376   4.559   2.556  0.4082 -0.1540 -0.0791
 8038SOL    HW135750   0.392   4.550   2.650  2.9103  0.8025 -0.4129
 8038SOL    HW235751   0.431   4.485   2.533 -0.0859 -0.7991  0.8328
 8039SOL     OW35752   4.074   3.134   8.271 -0.4520 -0.5016 -0.4438
 8039SOL    HW135753   4.082   3.072   8.343 -1.9918 -0.2291 -0.0364
 8039SOL    HW235754   4.084   3.220   8.312 -0.5149 -0.1047 -1.2529
 8040SOL     OW35755   2.186   4.125   4.035  0.3734  0.7199  0.4585
 8040SOL    HW135756   2.094   4.147   4.047 -0.3461 -1.9334 -0.2316
 8040SOL    HW235757   2.188   4.093   3.945 -0.7605  4.7743 -1.0048
 8041SOL     OW35758   1.991   0.886  14.458 -0.4094 -0.6263  0.1321
 8041SOL    HW135759   1.940   0.945  14.514  1.3648  2.0985 -1.1545
 8041SOL    HW235760   1.945   0.905  14.376  0.1463  0.3596  0.0530
 8042SOL     OW35761   2.732   0.102   6.148 -0.4476 -0.3265  0.4436
 8042SOL    HW135762   2.701   0.189   6.172 -2.3140 -1.7197  3.1572
 8042SOL    HW235763   2.789   0.121   6.073  0.9562  0.4483  1.7142
 8043SOL     OW35764   4.671   0.300   6.244  0.5686 -0.2342 -1.1124
 8043SOL    HW135765   4.624   0.223   6.276 -1.5726  1.2384 -0.7134
 8043SOL    HW235766   0.015   0.289   6.292 -0.7225 -0.1212  1.1525
 8044SOL     OW35767   4.692   2.092   4.922 -0.1180  0.7197 -0.7038
 8044SOL    HW135768   4.672   2.013   4.973 -1.8018  0.8090 -1.2669
 8044SOL    HW235769   4.605   2.130   4.921 -0.1746  0.5654 -1.6738
 8045SOL     OW35770   4.703   0.021   0.095  0.6070  0.0841 -0.3585
 8045SOL    HW135771   0.014   0.009   0.176 -2.2733 -0.5976  1.2557
 8045SOL    HW235772   0.018   4.714   0.028 -0.1901 -1.1469 -0.1634
 8046SOL     OW35773   2.983   2.761   4.148 -0.1923 -0.2804 -0.2202
 8046SOL    HW135774   2.959   2.673   4.117 -0.3731 -0.1855 -0.3453
 8046SOL    HW235775   3.052   2.798   4.093 -3.5233  1.1326 -3.4154
 8047SOL     OW35776   3.404   1.892   6.664 -0.0024 -0.1582  0.1470
 8047SOL    HW135777   3.372   1.978   6.635 -0.2904 -0.2808  0.0915
 8047SOL    HW235778   3.499   1.895   6.657 -0.1278  0.3817 -1.4632
 8048SOL     OW35779   2.759   1.393   4.202  0.5332 -0.1889 -0.4682
 8048SOL    HW135780   2.792   1.333   4.269 -1.5332 -0.3955  0.3811
 8048SOL    HW235781   2.808   1.375   4.122  2.4602  1.0740  0.4530
 8049SOL     OW35782   0.683   1.940   0.714  0.3731  0.2025  0.0588
 8049SOL    HW135783   0.638   1.994   0.779 -1.0948 -2.0249  0.9164
 8049SOL    HW235784   0.620   1.874   0.686  0.1082  0.3801  0.2313
 8050SOL     OW35785   4.147   2.308  11.541  0.2864  0.2927 -0.3860
 8050SOL    HW135786   4.075   2.245  11.546  1.3268 -0.9908 -1.5207
 8050SOL    HW235787   4.214   2.251  11.501 -0.7557 -1.3841  0.2628
 8051SOL     OW35788   0.721   4.114   3.100  0.6074  0.2791 -0.0722
 8051SOL    HW135789   0.655   4.069   3.048  2.9714 -1.4925 -1.5524
 8051SOL    HW235790   0.795   4.096   3.042  0.7237 -1.0680  0.4908
 8052SOL     OW35791   0.251   1.081   4.548 -0.4266  0.2292  0.1827
 8052SOL    HW135792   0.219   1.171   4.544  0.8118  0.6977  0.7466
 8052SOL    HW235793   0.331   1.093   4.497  0.5220  1.0267  1.8699
 8053SOL     OW35794   1.450   0.883   2.105  0.1100  0.3468  0.4005
 8053SOL    HW135795   1.424   0.792   2.112 -0.4524  0.5035  0.3065
 8053SOL    HW235796   1.545   0.883   2.093 -0.1297 -0.4409 -1.5526
 8054SOL     OW35797   3.453   1.369  17.127  0.0013 -0.4485 -0.6050
 8054SOL    HW135798   3.403   1.289  17.144 -0.0420 -0.1651  0.5852
 8054SOL    HW235799   3.503   1.358  17.046  0.3913 -1.9405 -0.1473
 8055SOL     OW35800   0.746   2.803  10.060  0.0862  0.8118 -0.4245
 8055SOL    HW135801   0.769   2.874  10.120 -0.5863 -0.7185  1.6040
 8055SOL    HW235802   0.810   2.735  10.080 -0.1195  0.6783 -0.2330
 8056SOL     OW35803   2.011   0.094  17.019 -0.3804  0.5193 -0.3217
 8056SOL    HW135804   2.000   4.737  17.020 -1.8896  0.7366  3.5519
 8056SOL    HW235805   1.924   0.126  16.996  0.4187  0.4333 -3.4105
 8057SOL     OW35806   2.590   2.159  16.414  0.4529 -0.1145 -0.0569
 8057SOL    HW135807   2.536   2.237  16.430  0.7374  0.3461 -1.3078
 8057SOL    HW235808   2.537   2.135  16.338 -1.7527 -2.1184  2.1124
 8058SOL     OW35809   0.353   2.872   2.850 -0.3120  0.0328  0.1775
 8058SOL    HW135810   0.336   2.848   2.759  0.2308  0.9856 -0.1760
 8058SOL    HW235811   0.413   2.945   2.834  0.1741 -0.8356 -1.9451
 8059SOL     OW35812   1.161   1.491   7.151 -0.0794 -0.0746 -0.0106
 8059SOL    HW135813   1.228   1.559   7.144  1.0889 -1.0232  1.9002
 8059SOL    HW235814   1.209   1.409   7.139 -0.5114 -0.1408 -1.2258
 8060SOL     OW35815   0.540   3.338   3.374 -0.1960 -0.3151  0.5408
 8060SOL    HW135816   0.561   3.247   3.354 -0.0477 -0.0131 -0.6723
 8060SOL    HW235817   0.455   3.322   3.414 -1.4241  1.1772 -1.4805
 8061SOL     OW35818   2.532   0.877   3.905  0.4900 -0.5241 -0.7341
 8061SOL    HW135819   2.566   0.831   3.981  1.6956 -1.8751 -2.0945
 8061SOL    HW235820   2.559   0.969   3.910 -1.3681  0.1024 -2.0607
 8062SOL     OW35821   0.604   3.767   6.472 -0.1817  0.2534 -0.3300
 8062SOL    HW135822   0.592   3.686   6.521 -0.3095  0.4644 -0.0105
 8062SOL    HW235823   0.514   3.801   6.468 -0.7606 -1.4511 -1.7984
 8063SOL     OW35824   0.549   2.050   8.427  0.5265  0.2728  0.1809
 8063SOL    HW135825   0.488   2.012   8.364  1.8895  0.3992 -1.2187
 8063SOL    HW235826   0.560   1.978   8.488 -1.9259  0.1498  0.4696
 8064SOL     OW35827   4.025   2.404   3.765 -0.1639  0.2169 -0.4327
 8064SOL    HW135828   4.026   2.318   3.808  2.0951  1.3410  1.7358
 8064SOL    HW235829   3.933   2.426   3.782 -0.0071 -0.8404  1.7596
 8065SOL     OW35830   1.196   4.609  16.849 -0.0755  0.4939  0.5866
 8065SOL    HW135831   1.184   4.573  16.937 -0.1884  1.6679  1.0459
 8065SOL    HW235832   1.287   4.637  16.856 -0.4311  1.5956  0.7996
 8066SOL     OW35833   0.728   0.738   3.522  0.1847 -0.3840 -0.9759
 8066SOL    HW135834   0.697   0.829   3.520  0.4296 -0.2582  0.9145
 8066SOL    HW235835   0.772   0.734   3.438 -0.9846  0.2269 -1.6239
 8067SOL     OW35836   2.877   4.363   7.829 -0.5817 -0.0879  0.4084
 8067SOL    HW135837   2.865   4.399   7.741  0.3996 -2.3396 -0.6536
 8067SOL    HW235838   2.932   4.285   7.827  0.5123  0.7261 -1.6214
 8068SOL     OW35839   4.178   4.419   3.577  0.3784 -0.1846  0.2243
 8068SOL    HW135840   4.193   4.453   3.665 -0.6281  0.3960  0.1733
 8068SOL    HW235841   4.108   4.357   3.598  1.3312 -0.7188  1.7723
 8069SOL     OW35842   3.149   2.722   6.225 -0.0558  0.1482 -0.4042
 8069SOL    HW135843   3.176   2.810   6.247 -1.1545  0.2158  0.6776
 8069SOL    HW235844   3.058   2.718   6.255  0.7645  0.6623  2.1733
 8070SOL     OW35845   0.174   3.872  12.154 -0.1030 -0.2060 -0.3371
 8070SOL    HW135846   0.100   3.841  12.103 -0.1466 -0.2840 -0.2257
 8070SOL    HW235847   0.226   3.922  12.090 -0.9190 -1.6515 -2.1243
 8071SOL     OW35848   2.952   1.470   7.561  0.3320 -0.1466  0.8643
 8071SOL    HW135849   2.885   1.530   7.528  0.3078 -0.7858 -0.2641
 8071SOL    HW235850   2.962   1.508   7.648  1.6428 -1.2809  1.2108
 8072SOL     OW35851   0.941   4.005  10.390  0.0525 -0.0857  0.5001
 8072SOL    HW135852   1.024   3.985  10.347  1.0467  3.1604  0.8820
 8072SOL    HW235853   0.927   3.927  10.443 -4.8781  1.2427  1.1118
 8073SOL     OW35854   2.736   2.657   1.628 -0.2172  0.1798  0.5377
 8073SOL    HW135855   2.796   2.727   1.602 -0.9537  0.3024 -0.8120
 8073SOL    HW235856   2.797   2.584   1.639  0.5292  0.3826 -2.2812
 8074SOL     OW35857   2.955   4.042   2.065  0.3735 -0.3466  0.0926
 8074SOL    HW135858   3.037   4.003   2.036 -1.2478 -2.5423 -1.5053
 8074SOL    HW235859   2.906   3.963   2.088  2.0366 -2.5579 -3.8728
 8075SOL     OW35860   4.418   3.316  10.539  0.3439  0.2710  0.0460
 8075SOL    HW135861   4.362   3.251  10.581 -0.5882  0.4837 -0.8826
 8075SOL    HW235862   4.383   3.343  10.454 -0.6697  0.3881  0.5038
 8076SOL     OW35863   1.664   0.396   8.206 -0.1294  0.6567  0.3108
 8076SOL    HW135864   1.679   0.353   8.122  1.9815 -0.3696  1.2121
 8076SOL    HW235865   1.695   0.328   8.266  2.0709  0.3124 -1.2448
 8077SOL     OW35866   2.484   3.982   6.562  0.3246 -0.4157 -0.0203
 8077SOL    HW135867   2.460   4.074   6.573  2.4104  0.0638  0.4728
 8077SOL    HW235868   2.421   3.942   6.622 -2.8899  2.6074 -1.3628
 8078SOL     OW35869   3.185   3.961   7.494  0.4844 -0.0211 -0.1880
 8078SOL    HW135870   3.201   4.055   7.507 -0.5449  0.2511 -0.8844
 8078SOL    HW235871   3.273   3.932   7.469  0.5627  1.5212 -1.7012
 8079SOL     OW35872   3.380   0.844   7.965  0.5901 -0.3527  0.2396
 8079SOL    HW135873   3.345   0.849   7.876  0.8204 -0.2317  0.1564
 8079SOL    HW235874   3.303   0.814   8.013 -0.8451  1.1874 -1.1129
 8080SOL     OW35875   3.799   2.061  15.065  0.6303  0.1259  0.0276
 8080SOL    HW135876   3.811   2.118  14.989 -1.0485  2.6100  1.5970
 8080SOL    HW235877   3.884   2.058  15.108  1.0496  1.7367 -0.6982
 8081SOL     OW35878   1.488   1.037   8.573  0.5922 -0.3248  0.8596
 8081SOL    HW135879   1.555   1.016   8.508  0.6260  0.1151  0.7534
 8081SOL    HW235880   1.470   1.129   8.556 -1.1281 -1.0088 -1.1607
 8082SOL     OW35881   3.755   0.291   3.791  0.0342  0.1583  0.2090
 8082SOL    HW135882   3.835   0.325   3.831  1.7039 -1.0461 -2.0968
 8082SOL    HW235883   3.697   0.334   3.853  1.1936  2.0403 -0.0129
 8083SOL     OW35884   1.829   0.252   2.145 -0.1765 -0.3527 -0.1716
 8083SOL    HW135885   1.823   0.346   2.127  0.2094 -0.2097  0.4418
 8083SOL    HW235886   1.922   0.233   2.143 -0.8275 -3.2412 -2.2846
 8084SOL     OW35887   1.216   4.009   5.170 -0.0270 -0.0292 -0.2087
 8084SOL    HW135888   1.155   4.045   5.234 -1.3413 -2.4802 -0.0798
 8084SOL    HW235889   1.200   4.060   5.091 -1.3265  0.4772  0.3923
 8085SOL     OW35890   2.263   4.049   0.468 -0.2067 -0.4002 -0.0563
 8085SOL    HW135891   2.216   4.083   0.544  1.9485 -1.6073  1.8226
 8085SOL    HW235892   2.195   4.018   0.408  1.0980 -1.6336 -0.9020
 8086SOL     OW35893   0.343   4.130   4.680 -0.2457 -0.0048 -0.1617
 8086SOL    HW135894   0.297   4.050   4.706 -0.1102 -0.0720 -0.1290
 8086SOL    HW235895   0.390   4.099   4.603 -0.6886  0.9351 -0.8127
 8087SOL     OW35896   3.035   2.070   7.259 -0.0138 -0.2498 -0.4725
 8087SOL    HW135897   3.014   2.026   7.342  2.4075 -1.0984 -0.2928
 8087SOL    HW235898   3.124   2.092   7.286  0.7587  1.4839 -4.4697
 8088SOL     OW35899   4.538   0.711  12.974  0.3320 -0.2243 -0.1320
 8088SOL    HW135900   4.475   0.642  12.956 -0.7265  0.0807  2.4275
 8088SOL    HW235901   4.538   0.710  13.070  1.2680  0.4064 -0.1242
 8089SOL     OW35902   2.896   0.394   6.729 -0.0920  0.2152 -0.6735
 8089SOL    HW135903   2.809   0.430   6.741 -0.4637 -1.1695  0.8129
 8089SOL    HW235904   2.942   0.465   6.684 -0.0750  1.1390  0.8122
 8090SOL     OW35905   1.668   4.279   6.446 -0.2327 -0.6824  0.3017
 8090SOL    HW135906   1.722   4.346   6.405  0.8949 -1.2396  0.8799
 8090SOL    HW235907   1.683   4.277   6.541 -3.1028 -1.4285  0.7550
 8091SOL     OW35908   0.317   4.602  10.780 -0.5711 -0.4048 -0.2111
 8091SOL    HW135909   0.283   4.587  10.691 -3.3172  0.6564  0.6746
 8091SOL    HW235910   0.338   4.695  10.778 -2.4072 -0.0615 -3.6017
 8092SOL     OW35911   1.438   0.994   7.422  0.6125 -0.8593  0.7093
 8092SOL    HW135912   1.376   0.946   7.476  0.5417 -0.3705  1.0546
 8092SOL    HW235913   1.436   0.931   7.349  2.4587  0.7246 -0.7111
 8093SOL     OW35914   1.214   3.852   3.183 -0.4923 -0.3689 -0.2178
 8093SOL    HW135915   1.281   3.800   3.137 -1.5927  0.8148 -3.1716
 8093SOL    HW235916   1.229   3.932   3.132  0.1216 -1.2807 -1.4605
 8094SOL     OW35917   2.382   4.216   5.405 -0.9085 -0.8890 -0.2196
 8094SOL    HW135918   2.471   4.234   5.435 -1.0616 -0.9077  0.2434
 8094SOL    HW235919   2.390   4.182   5.316 -0.7147 -0.3949 -0.3913
 8095SOL     OW35920   2.226   2.261   1.597  0.4149  0.4162  0.3705
 8095SOL    HW135921   2.198   2.209   1.522 -1.2942  1.0883  0.5408
 8095SOL    HW235922   2.215   2.353   1.572  1.7245 -0.0346 -1.8048
 8096SOL     OW35923   4.716   0.833  17.218 -0.1225 -0.1937 -0.2192
 8096SOL    HW135924   4.718   0.929  17.217  3.4899 -0.2721 -0.8667
 8096SOL    HW235925   4.632   0.820  17.175  0.0073  0.9274 -0.8242
 8097SOL     OW35926   2.526   2.272   9.950 -0.4854 -0.0221  0.0034
 8097SOL    HW135927   2.527   2.350  10.005 -0.4713  0.2777 -0.4286
 8097SOL    HW235928   2.432   2.252   9.946  0.0446 -2.6147  0.3305
 8098SOL     OW35929   4.310   4.231   1.428  0.6519 -0.0859 -0.4119
 8098SOL    HW135930   4.312   4.142   1.463  2.3216 -1.1385 -3.2096
 8098SOL    HW235931   4.236   4.263   1.481  0.6281 -0.1175 -0.4263
 8099SOL     OW35932   2.623   3.374   3.433  0.5399  0.1976  0.5297
 8099SOL    HW135933   2.607   3.467   3.451  0.0051  0.0825  0.6413
 8099SOL    HW235934   2.563   3.361   3.360 -1.0899  0.1429  1.8824
 8100SOL     OW35935   0.957   0.014  13.304  0.4930 -0.2745 -0.2541
 8100SOL    HW135936   0.936   0.012  13.211  0.2548 -0.8192 -0.1921
 8100SOL    HW235937   0.902   0.081  13.345  1.6004  0.4212  0.0707
 8101SOL     OW35938   2.441   1.045   6.076  0.4518 -0.3094  0.0184
 8101SOL    HW135939   2.481   0.959   6.063  2.6579  0.9863 -1.6114
 8101SOL    HW235940   2.371   1.022   6.138 -0.9119 -0.9671 -1.7485
 8102SOL     OW35941   3.660   3.025  14.324 -0.3152  0.4719  0.1917
 8102SOL    HW135942   3.699   2.948  14.365  0.0340  0.3330 -0.4052
 8102SOL    HW235943   3.694   3.028  14.234  0.2380  0.3906  0.4057
 8103SOL     OW35944   0.896   4.426   8.817 -0.2088  0.4537 -0.0997
 8103SOL    HW135945   0.948   4.471   8.751  1.2375 -2.3237 -0.8669
 8103SOL    HW235946   0.927   4.337   8.802 -1.9683  0.4642 -3.9263
 8104SOL     OW35947   4.379   3.075  10.098  0.3647  0.5062 -0.3611
 8104SOL    HW135948   4.353   3.166  10.085  0.4240  0.4555 -0.8330
 8104SOL    HW235949   4.306   3.047  10.153  1.6506  0.0219  1.1228
 8105SOL     OW35950   4.409   4.335   2.445  0.2866  0.2110 -0.9727
 8105SOL    HW135951   4.327   4.371   2.411  1.2953  0.8441 -2.7181
 8105SOL    HW235952   4.436   4.283   2.369  0.1632 -1.1139 -0.0902
 8106SOL     OW35953   2.252   1.328   2.385 -0.4967  0.0212 -0.0596
 8106SOL    HW135954   2.292   1.365   2.464 -1.2314 -1.9543  1.2289
 8106SOL    HW235955   2.317   1.265   2.353  1.7203  1.2265  2.0304
 8107SOL     OW35956   2.127   2.771   4.376 -0.2692  0.9508  0.2996
 8107SOL    HW135957   2.212   2.741   4.409 -0.9410 -0.0114  1.1646
 8107SOL    HW235958   2.142   2.791   4.284  0.1311  1.2955  0.4387
 8108SOL     OW35959   4.202   3.836  14.644 -0.6210  0.0855 -0.4312
 8108SOL    HW135960   4.144   3.808  14.715  0.0636  0.0251  0.1067
 8108SOL    HW235961   4.281   3.856  14.695 -0.8666 -0.3349  0.1067
 8109SOL     OW35962   2.371   2.759  17.135  0.1434  0.1886  0.1749
 8109SOL    HW135963   2.398   2.693  17.072 -1.1286  1.4493 -1.7095
 8109SOL    HW235964   2.417   2.731  17.214  1.7545 -1.7954 -1.4554
 8110SOL     OW35965   0.127   2.887   3.658 -0.5381 -0.0669  0.0814
 8110SOL    HW135966   0.140   2.952   3.728 -0.9426  0.7062 -0.5536
 8110SOL    HW235967   0.146   2.803   3.698  1.5415 -0.0290 -0.8364
 8111SOL     OW35968   4.263   0.769  16.981  0.5427  0.3605 -0.0673
 8111SOL    HW135969   4.289   0.797  16.894 -1.1747  1.8320 -0.1137
 8111SOL    HW235970   4.199   0.836  17.005  2.1884  1.6843  0.6004
 8112SOL     OW35971   2.249   1.459   2.895 -0.4040  0.0204 -0.4920
 8112SOL    HW135972   2.160   1.454   2.928  0.2278  0.2303  1.2341
 8112SOL    HW235973   2.304   1.438   2.971 -1.0639 -0.9826 -0.3004
 8113SOL     OW35974   1.739   0.790   1.213 -0.0117  0.7397 -0.5513
 8113SOL    HW135975   1.643   0.784   1.209 -0.0207  0.2360  0.5763
 8113SOL    HW235976   1.766   0.699   1.226 -1.1600  0.8508  2.6676
 8114SOL     OW35977   0.599   4.697  10.882 -0.3052  0.0092 -0.6053
 8114SOL    HW135978   0.512   4.667  10.856 -0.5202  1.7857 -1.8889
 8114SOL    HW235979   0.648   4.615  10.891 -0.3762 -0.1386 -1.5100
 8115SOL     OW35980   0.211   2.839   7.087 -0.6029  0.0261 -0.1276
 8115SOL    HW135981   0.236   2.816   6.997  0.6788  0.9468 -0.0008
 8115SOL    HW235982   0.209   2.934   7.079  0.0126 -0.0052 -0.6631
 8116SOL     OW35983   0.361   1.749   4.038  0.2459 -0.3048  0.5453
 8116SOL    HW135984   0.300   1.784   4.103 -0.7030 -1.8537  0.5044
 8116SOL    HW235985   0.409   1.684   4.089  0.1930  0.2406  1.2696
 8117SOL     OW35986   0.697   3.401   3.740 -0.0827 -0.0223 -0.5016
 8117SOL    HW135987   0.629   3.350   3.784  1.1642 -2.4908 -1.4088
 8117SOL    HW235988   0.737   3.339   3.680 -1.1815 -1.7984  0.5929
 8118SOL     OW35989   3.326   3.335   5.024  0.0989 -0.6643  0.4618
 8118SOL    HW135990   3.309   3.320   4.931 -0.4474  0.5096  0.3695
 8118SOL    HW235991   3.378   3.255   5.029 -0.4724 -0.9571  1.6546
 8119SOL     OW35992   0.657   2.935   9.243 -1.1884 -0.0500 -0.4569
 8119SOL    HW135993   0.615   3.020   9.256 -0.8952 -0.2594  1.9421
 8119SOL    HW235994   0.614   2.904   9.323 -2.8425 -0.8668 -1.6783
 8120SOL     OW35995   3.679   4.132   7.637 -0.0422  0.1445 -0.4316
 8120SOL    HW135996   3.652   4.063   7.697  0.9648 -1.6849 -2.0646
 8120SOL    HW235997   3.745   4.179   7.688  0.5150 -0.0686 -0.9535
 8121SOL     OW35998   4.568   1.082  10.553 -0.0829  0.3222  0.1642
 8121SOL    HW135999   4.537   0.996  10.583  3.1380 -0.9639 -0.2858
 8121SOL    HW236000   4.487   1.123  10.522 -1.2787 -1.5782  0.7421
 8122SOL     OW36001   1.480   1.549   6.398 -0.5146 -0.8916  0.0425
 8122SOL    HW136002   1.529   1.468   6.386  1.5065  0.3794 -0.3982
 8122SOL    HW236003   1.493   1.592   6.313  1.4649 -1.5516  0.0119
 8123SOL     OW36004   3.053   1.777  10.872 -0.4138 -0.1064  0.1531
 8123SOL    HW136005   3.024   1.715  10.938  0.3215 -0.1676  0.4153
 8123SOL    HW236006   2.981   1.774  10.808 -0.6852  0.6708  0.4147
 8124SOL     OW36007   0.342   2.729   5.624  0.1790 -0.2417  0.2766
 8124SOL    HW136008   0.408   2.778   5.575 -0.2574 -0.9144 -1.0025
 8124SOL    HW236009   0.260   2.743   5.576  1.4166 -0.4946 -1.9451
 8125SOL     OW36010   0.745   2.314   6.567 -0.3964  0.0826 -0.2515
 8125SOL    HW136011   0.732   2.290   6.659  2.7342  1.0390  0.4466
 8125SOL    HW236012   0.685   2.262   6.514 -0.4389  1.0253 -1.1195
 8126SOL     OW36013   1.545   3.121   1.739 -0.1294  0.8401  0.3478
 8126SOL    HW136014   1.512   3.207   1.712 -1.2972  0.1528 -0.4231
 8126SOL    HW236015   1.525   3.133   1.831 -1.4828  4.8710 -0.4642
 8127SOL     OW36016   4.394   1.132   4.156 -0.0730 -0.2282  0.5283
 8127SOL    HW136017   4.370   1.148   4.247 -0.6012 -0.4517  0.4248
 8127SOL    HW236018   4.312   1.168   4.124 -0.3599 -1.8913 -0.5870
 8128SOL     OW36019   4.513   3.693   4.929  0.3860  0.6376  0.4354
 8128SOL    HW136020   4.501   3.781   4.892 -0.5155  0.3873  0.1312
 8128SOL    HW236021   4.479   3.632   4.863  0.6502  2.1246 -1.0931
 8129SOL     OW36022   4.053   4.672   8.231 -0.2500  0.3363 -0.3227
 8129SOL    HW136023   4.122   4.668   8.297 -2.2710 -3.2624  1.5972
 8129SOL    HW236024   4.112   4.668   8.156  0.4140 -1.7831  0.3073
 8130SOL     OW36025   3.202   1.974  11.011  0.2756  0.1197 -0.2184
 8130SOL    HW136026   3.246   2.015  10.936 -1.2840  4.1317  1.0459
 8130SOL    HW236027   3.141   1.917  10.964  0.8407 -1.1422  0.5814
 8131SOL     OW36028   2.187   0.382   0.167  0.2661 -0.4658  0.2353
 8131SOL    HW136029   2.194   0.428   0.084 -1.9223  2.1590  1.5230
 8131SOL    HW236030   2.272   0.397   0.209 -0.7395  0.9053  1.7623
 8132SOL     OW36031   1.555   1.046   2.405 -0.0809  0.0540 -0.1444
 8132SOL    HW136032   1.536   0.953   2.393  0.1424  0.3330 -2.7012
 8132SOL    HW236033   1.493   1.065   2.476 -1.3654 -0.2958 -1.1677
 8133SOL     OW36034   2.877   3.004   4.257 -0.6295  0.3507 -0.8647
 8133SOL    HW136035   2.940   2.972   4.192  0.5658  0.0449  0.4484
 8133SOL    HW236036   2.928   3.019   4.337  0.7245 -0.3907 -1.5965
 8134SOL     OW36037   2.380   2.885   7.519 -0.5368 -0.0992 -0.7278
 8134SOL    HW136038   2.344   2.814   7.572  1.4485 -0.0285  0.6916
 8134SOL    HW236039   2.300   2.913   7.475 -2.0751 -1.8994  0.9145
 8135SOL     OW36040   4.238   1.659   5.032 -0.3852  0.0934  0.1288
 8135SOL    HW136041   4.148   1.639   5.058 -0.3560  0.2578  0.3505
 8135SOL    HW236042   4.289   1.584   5.064  1.6598  0.6744 -1.8063
 8136SOL     OW36043   0.916   3.210   1.941 -0.3736  0.7241 -0.6113
 8136SOL    HW136044   0.855   3.136   1.945  2.3290 -1.3661  1.5780
 8136SOL    HW236045   0.883   3.259   2.016  1.0436 -1.4984  1.4768
 8137SOL     OW36046   1.789   1.555  13.739 -0.4029  0.0665 -0.0946
 8137SOL    HW136047   1.709   1.585  13.696 -0.8850 -1.8726 -0.5471
 8137SOL    HW236048   1.795   1.468  13.700 -1.3517  0.3309 -0.8262
 8138SOL     OW36049   0.624   1.080   5.392  0.3042  0.7408 -0.7255
 8138SOL    HW136050   0.587   1.044   5.472  1.9391  1.0059  0.1433
 8138SOL    HW236051   0.617   1.005   5.332 -0.8905 -0.3492  0.7775
 8139SOL     OW36052   2.009   1.356  11.193 -0.2310 -0.4073 -0.2022
 8139SOL    HW136053   2.031   1.264  11.178  0.1241 -0.2495 -0.6632
 8139SOL    HW236054   1.921   1.349  11.155 -0.2626 -0.9514 -0.0247
 8140SOL     OW36055   2.111   0.431   4.207  0.6970  0.0172  0.0784
 8140SOL    HW136056   2.185   0.372   4.220 -0.2840 -1.2020  0.1274
 8140SOL    HW236057   2.155   0.510   4.239  1.0863 -0.2656  0.2433
 8141SOL     OW36058   4.214   4.010   2.505 -0.0393 -0.8876 -0.3848
 8141SOL    HW136059   4.226   4.093   2.550 -0.2262  0.1278 -2.2057
 8141SOL    HW236060   4.207   3.947   2.577 -2.8849  3.0323  2.6813
 8142SOL     OW36061   4.095   3.361   8.414 -0.0876 -0.0145 -0.6856
 8142SOL    HW136062   4.080   3.447   8.375 -0.9741  0.0503 -0.1866
 8142SOL    HW236063   4.181   3.376   8.453 -0.1624 -1.7978  0.1640
 8143SOL     OW36064   1.051   1.525   7.724 -0.0328  0.7314 -0.3569
 8143SOL    HW136065   0.989   1.551   7.656 -0.5922 -0.2591 -0.2308
 8143SOL    HW236066   0.997   1.452   7.754  1.1687 -0.4244 -0.9993
 8144SOL     OW36067   2.089   1.230   3.876 -0.7384 -0.1734 -0.0360
 8144SOL    HW136068   2.027   1.256   3.808 -0.7350  0.9916  0.3967
 8144SOL    HW236069   2.068   1.283   3.953 -0.5000  0.7266 -0.5901
 8145SOL     OW36070   1.205   2.574  16.872 -0.0379  0.0705  0.3547
 8145SOL    HW136071   1.164   2.489  16.858  1.1798  0.1330 -3.5403
 8145SOL    HW236072   1.180   2.623  16.794 -0.1443 -0.8589 -0.1930
 8146SOL     OW36073   0.510   3.431   2.192  0.1694  0.1760  0.1115
 8146SOL    HW136074   0.594   3.419   2.147  0.8954  1.3425  1.1553
 8146SOL    HW236075   0.518   3.367   2.263  1.6946  0.3925  0.1437
 8147SOL     OW36076   0.601   3.961   8.092 -0.4282  0.1818  0.0990
 8147SOL    HW136077   0.593   3.949   8.187  2.5356  3.9089  0.7787
 8147SOL    HW236078   0.576   3.875   8.058  3.4987 -0.5535 -0.8475
 8148SOL     OW36079   2.952   4.227  10.024  0.2667  0.7245  0.0141
 8148SOL    HW136080   3.002   4.228   9.943  0.3524 -2.2635  0.0110
 8148SOL    HW236081   2.910   4.141  10.025  0.3154  0.6888 -0.9880
 8149SOL     OW36082   2.037   1.021   7.969  0.1293 -0.6499  0.3613
 8149SOL    HW136083   2.088   0.954   8.014  0.9932 -0.4179 -0.2907
 8149SOL    HW236084   2.042   0.984   7.881 -1.2335 -1.3593  0.5663
 8150SOL     OW36085   2.080   0.188   2.033 -0.7293  0.0352 -0.1838
 8150SOL    HW136086   2.076   0.098   2.001  1.3282 -0.6673  1.5405
 8150SOL    HW236087   2.130   0.172   2.113 -1.5781  1.5400  0.6451
 8151SOL     OW36088   0.420   2.633   5.128  0.3031  0.0397 -0.0977
 8151SOL    HW136089   0.336   2.598   5.155 -0.7248  0.1733 -3.1220
 8151SOL    HW236090   0.473   2.570   5.176 -0.5754  0.1403  0.9796
 8152SOL     OW36091   2.422   3.133   5.863  0.1787  0.5086  0.1526
 8152SOL    HW136092   2.485   3.166   5.926 -0.9963  0.7927  1.1876
 8152SOL    HW236093   2.444   3.042   5.841  0.1562 -0.5492  4.4137
 8153SOL     OW36094   3.861   3.942   1.511 -0.1074  0.0120 -0.2751
 8153SOL    HW136095   3.871   4.029   1.473  2.0663  0.6425  1.6718
 8153SOL    HW236096   3.895   3.978   1.594  0.6015 -0.5786 -0.3047
 8154SOL     OW36097   1.032   1.890   7.657 -0.0717 -0.1500 -0.2569
 8154SOL    HW136098   1.101   1.902   7.592  1.0056 -0.0726  0.8972
 8154SOL    HW236099   1.009   1.797   7.654 -1.3980  0.1161  1.3785
 8155SOL     OW36100   2.807   3.060   5.496 -0.1235  0.7174 -0.2152
 8155SOL    HW136101   2.822   3.135   5.553  2.1934 -1.2357  1.7247
 8155SOL    HW236102   2.892   3.059   5.452  0.2881  0.2445  0.5903
 8156SOL     OW36103   1.291   2.095  10.616 -0.2449  0.0825 -0.3827
 8156SOL    HW136104   1.358   2.162  10.610  0.1556 -0.4494 -1.7373
 8156SOL    HW236105   1.315   2.057  10.701 -1.8178 -0.4584 -0.1636
 8157SOL     OW36106   2.438   0.936   2.422 -0.6199  0.4649 -0.0578
 8157SOL    HW136107   2.423   0.845   2.448  0.6140  0.3894  0.3883
 8157SOL    HW236108   2.518   0.925   2.370  0.1897  0.8685  1.0768
 8158SOL     OW36109   0.290   3.111   7.860  0.0299 -0.6723  0.0928
 8158SOL    HW136110   0.208   3.066   7.880 -0.9965  1.2129  0.1952
 8158SOL    HW236111   0.297   3.167   7.938 -0.8615 -0.2894 -0.0972
 8159SOL     OW36112   4.482   0.056   5.903  0.2832  0.4443  0.1369
 8159SOL    HW136113   4.490   0.044   5.808 -1.5239 -0.1048  0.0462
 8159SOL    HW236114   4.534   0.136   5.912  0.4794  0.3922 -0.5380
 8160SOL     OW36115   2.262   4.013   5.685  0.1700 -0.0561  0.2389
 8160SOL    HW136116   2.294   4.102   5.666  0.6945 -0.0240  1.2979
 8160SOL    HW236117   2.313   4.006   5.766 -0.9066 -1.1253  0.8221
 8161SOL     OW36118   0.998   1.182   6.146  0.6327 -0.1679 -0.0967
 8161SOL    HW136119   0.949   1.217   6.220  0.6592  2.4474 -1.3296
 8161SOL    HW236120   1.076   1.237   6.154  0.2609  0.3897 -0.3362
 8162SOL     OW36121   3.259   4.187   7.237  0.1111 -0.4836 -0.0248
 8162SOL    HW136122   3.173   4.193   7.195 -0.3712 -0.0071  1.0284
 8162SOL    HW236123   3.314   4.158   7.165  0.4438  0.5793 -0.1993
 8163SOL     OW36124   4.734   3.601   3.737 -0.4618 -0.1794 -0.3832
 8163SOL    HW136125   0.075   3.554   3.766  0.2220  1.5167  0.5126
 8163SOL    HW236126   4.667   3.542   3.770  0.0831 -0.8942 -0.5326
 8164SOL     OW36127   2.821   1.800   6.611 -0.0173  0.0481 -0.2380
 8164SOL    HW136128   2.819   1.894   6.592 -2.7788 -0.6629 -3.4550
 8164SOL    HW236129   2.883   1.805   6.685  0.8239 -0.2047 -0.9251
 8165SOL     OW36130   3.629   2.317   2.674  0.6022  0.4912 -0.2012
 8165SOL    HW136131   3.658   2.341   2.762 -2.4821  2.0900  0.3798
 8165SOL    HW236132   3.575   2.394   2.655 -1.0314 -0.8717 -0.9668
 8166SOL     OW36133   1.528   0.963   3.536  0.0948  0.0096  0.3467
 8166SOL    HW136134   1.479   0.901   3.590 -2.8150  1.5823 -0.5274
 8166SOL    HW236135   1.609   0.967   3.587 -0.9526 -1.7652  2.1557
 8167SOL     OW36136   4.177   4.234   5.290  0.4795 -0.1804 -0.4277
 8167SOL    HW136137   4.221   4.156   5.258  0.2182 -0.3896 -0.2865
 8167SOL    HW236138   4.213   4.249   5.378  0.6068 -1.5670 -0.2407
 8168SOL     OW36139   4.431   3.076   3.122  0.4223 -0.4094  0.6541
 8168SOL    HW136140   4.517   3.076   3.165  0.0309 -0.9082  1.4298
 8168SOL    HW236141   4.454   3.108   3.035  1.9541 -1.8481  0.5185
 8169SOL     OW36142   3.494   2.189   9.384 -0.5829  0.4763 -0.3200
 8169SOL    HW136143   3.575   2.221   9.344 -1.0071  0.3202 -1.2954
 8169SOL    HW236144   3.433   2.208   9.313  1.5046 -0.3734 -2.3251
 8170SOL     OW36145   1.570   1.386  10.279  0.2096  0.4003 -0.2593
 8170SOL    HW136146   1.594   1.298  10.307  0.6083  1.6255  3.3111
 8170SOL    HW236147   1.478   1.383  10.304  0.5736  0.0289  1.0538
 8171SOL     OW36148   0.511   1.749   6.039  0.0675 -0.1365  0.3402
 8171SOL    HW136149   0.533   1.839   6.014 -1.3655  0.4890  1.3238
 8171SOL    HW236150   0.559   1.693   5.978 -1.3859 -1.0272 -0.0046
 8172SOL     OW36151   0.633   2.433   3.976  0.4267 -0.2110 -0.2502
 8172SOL    HW136152   0.582   2.475   4.045  0.0043  0.6600 -1.0813
 8172SOL    HW236153   0.714   2.403   4.018  0.2198  0.7248  0.8261
 8173SOL     OW36154   3.447   4.492   1.416  0.1019  0.0341 -0.0134
 8173SOL    HW136155   3.434   4.424   1.482  3.2114 -0.5908 -0.0467
 8173SOL    HW236156   3.358   4.528   1.420  0.7661  1.8356 -1.2504
 8174SOL     OW36157   1.472   2.614  16.264 -0.4643 -0.2996  0.0393
 8174SOL    HW136158   1.489   2.592  16.355  0.0474  0.7318  0.1865
 8174SOL    HW236159   1.449   2.529  16.226  2.2588  0.3181 -3.0394
 8175SOL     OW36160   2.260   1.362   1.059  0.3078  0.1214 -0.1322
 8175SOL    HW136161   2.268   1.457   1.053 -0.3074  0.1994  0.3746
 8175SOL    HW236162   2.165   1.357   1.048  0.2825 -0.8024  0.5433
 8176SOL     OW36163   0.637   1.534   5.944 -0.1306  0.3291  0.6118
 8176SOL    HW136164   0.698   1.478   5.895 -0.0631 -0.1093  1.2050
 8176SOL    HW236165   0.659   1.517   6.035 -0.8491  0.9936  0.9093
 8177SOL     OW36166   3.467   0.282   8.297 -0.2665  0.2849 -0.0332
 8177SOL    HW136167   3.506   0.349   8.353  0.1322 -2.2993  2.8026
 8177SOL    HW236168   3.473   0.313   8.207  1.5848  0.4831  0.1690
 8178SOL     OW36169   2.608   3.817  13.325 -0.5511  0.4695 -0.2417
 8178SOL    HW136170   2.651   3.877  13.386  0.1363 -0.6954  0.4101
 8178SOL    HW236171   2.590   3.870  13.247 -1.1572 -0.7822 -0.9696
 8179SOL     OW36172   1.995   0.668   5.972 -0.3416 -0.2248 -0.4249
 8179SOL    HW136173   1.990   0.669   6.067 -2.0233 -2.0359 -0.4939
 8179SOL    HW236174   2.006   0.761   5.951 -2.9727  0.0469 -0.6423
 8180SOL     OW36175   0.271   0.842   0.473 -0.1385 -0.7203  0.6713
 8180SOL    HW136176   0.308   0.917   0.429 -0.4507 -0.5390  0.7163
 8180SOL    HW236177   0.344   0.834   0.534 -1.1561  0.1863  2.0285
 8181SOL     OW36178   0.307   2.991  11.452 -0.0341  0.0353  0.4372
 8181SOL    HW136179   0.298   3.076  11.409 -1.0927 -0.9595 -1.3428
 8181SOL    HW236180   0.215   2.964  11.453 -0.1215  0.3348  0.4431
 8182SOL     OW36181   3.123   4.477  11.429  0.5279  0.0094 -0.0399
 8182SOL    HW136182   3.203   4.510  11.469 -0.1540  2.3024 -0.5058
 8182SOL    HW236183   3.089   4.417  11.495 -0.6558 -0.9197 -1.4809
 8183SOL     OW36184   3.873   3.986  16.246 -0.2946  0.4852  0.4326
 8183SOL    HW136185   3.948   4.045  16.244 -0.2002  0.3394 -0.5826
 8183SOL    HW236186   3.810   4.030  16.188 -1.0835 -0.3583  0.6456
 8184SOL     OW36187   0.433   3.520   3.170 -0.8539 -0.2879 -0.1088
 8184SOL    HW136188   0.346   3.509   3.207 -0.8796 -0.8067 -0.3278
 8184SOL    HW236189   0.487   3.467   3.228  0.4824 -0.5385 -1.5952
 8185SOL     OW36190   1.607   3.081   3.314 -0.3121  0.4794  0.0385
 8185SOL    HW136191   1.699   3.105   3.306 -0.5082  1.7184  1.5032
 8185SOL    HW236192   1.563   3.147   3.368 -0.9306  1.3565 -1.5407
 8186SOL     OW36193   1.339   1.066   2.621  0.1784  0.0838 -0.0894
 8186SOL    HW136194   1.264   1.008   2.628  0.2089 -0.0246 -0.6932
 8186SOL    HW236195   1.318   1.112   2.540  0.1038 -0.7762 -0.5494
 8187SOL     OW36196   3.102   4.378  15.644  0.3011  0.4464 -0.2442
 8187SOL    HW136197   3.066   4.407  15.560  0.1760 -0.5629 -0.5407
 8187SOL    HW236198   3.113   4.462  15.689  0.8273 -0.9156  2.2258
 8188SOL     OW36199   3.045   2.023  14.799 -0.0494 -0.2176  0.0195
 8188SOL    HW136200   3.140   2.009  14.800  0.0718  0.5725 -0.2816
 8188SOL    HW236201   3.019   2.056  14.884 -0.0166 -1.3501  0.4701
 8189SOL     OW36202   1.375   2.223   7.168 -0.2661 -0.4372 -0.2776
 8189SOL    HW136203   1.323   2.301   7.185  1.3389  0.4683  0.4505
 8189SOL    HW236204   1.423   2.216   7.251  0.4347  0.7046 -0.5857
 8190SOL     OW36205   3.232   0.825  13.167  0.3167 -0.1137 -0.0221
 8190SOL    HW136206   3.176   0.791  13.098 -1.3192 -2.4458  2.4664
 8190SOL    HW236207   3.309   0.851  13.117  0.8230 -0.3481  0.6463
 8191SOL     OW36208   2.170   0.108   2.281  0.5395  0.2314  0.1931
 8191SOL    HW136209   2.116   0.141   2.353 -0.6109  1.5131 -1.2657
 8191SOL    HW236210   2.253   0.096   2.326  0.7980 -0.9477 -0.6106
 8192SOL     OW36211   3.573   2.131   1.078  0.1496  0.1699 -0.4042
 8192SOL    HW136212   3.575   2.210   1.024  1.9661  0.8786  0.6979
 8192SOL    HW236213   3.483   2.135   1.111  0.0884  1.3010 -0.7091
 8193SOL     OW36214   3.878   3.709   7.479  0.3311 -0.1196  0.6920
 8193SOL    HW136215   3.878   3.777   7.412  0.5989 -0.4622  0.3495
 8193SOL    HW236216   3.947   3.742   7.537  0.4148  1.4747 -0.3166
 8194SOL     OW36217   2.001   4.274   5.931 -0.1487  0.4647  0.1795
 8194SOL    HW136218   2.070   4.280   5.997  1.9259 -0.0202 -1.9331
 8194SOL    HW236219   2.060   4.286   5.857 -3.3534  1.8207 -2.1907
 8195SOL     OW36220   2.697   4.449   3.257  0.4111 -0.1967 -0.3591
 8195SOL    HW136221   2.748   4.494   3.324 -0.6983  0.0476  0.3133
 8195SOL    HW236222   2.699   4.363   3.299 -1.1853  0.9836  2.1298
 8196SOL     OW36223   1.280   1.226   3.682  0.3709  0.3301 -0.4375
 8196SOL    HW136224   1.364   1.258   3.649  0.4728 -2.1592 -2.5501
 8196SOL    HW236225   1.300   1.141   3.720 -0.0148 -0.4283 -1.9804
 8197SOL     OW36226   1.056   3.977  10.756 -1.1378 -0.8031 -0.1322
 8197SOL    HW136227   1.097   4.041  10.697 -1.7995 -0.3952 -0.1483
 8197SOL    HW236228   1.096   4.009  10.837 -0.1064 -2.8655  0.1723
 8198SOL     OW36229   3.538   0.836   8.692 -0.4021 -0.1306 -0.2344
 8198SOL    HW136230   3.482   0.847   8.769  1.4655  0.8361  0.9937
 8198SOL    HW236231   3.577   0.748   8.695  0.2628  0.2090  1.3376
 8199SOL     OW36232   2.867   0.865   0.134 -0.2149 -0.0774 -0.1518
 8199SOL    HW136233   2.932   0.892   0.199 -1.6295  1.1514  0.7366
 8199SOL    HW236234   2.919   0.876   0.054  0.2368 -0.0805  0.1396
 8200SOL     OW36235   0.409   3.298  11.579  0.0942  0.7205 -0.8707
 8200SOL    HW136236   0.342   3.366  11.575 -1.9798 -1.2632  0.5868
 8200SOL    HW236237   0.427   3.275  11.487  0.6376  2.4833 -1.2112
 8201SOL     OW36238   0.536   2.190   3.051  0.2183 -0.5132 -0.4249
 8201SOL    HW136239   0.625   2.161   3.070  1.1420  3.4135  1.1289
 8201SOL    HW236240   0.478   2.120   3.080  0.2399 -0.6131 -0.6195
 8202SOL     OW36241   1.427   4.611   3.220 -0.6278 -0.4140  0.0596
 8202SOL    HW136242   1.479   4.562   3.157  1.8724  0.2940  1.5969
 8202SOL    HW236243   1.370   4.541   3.254  1.0567 -1.0457  1.5685
 8203SOL     OW36244   1.922   1.639   4.588  0.1425  0.8408 -0.2234
 8203SOL    HW136245   1.976   1.571   4.627  1.1046  1.8226  0.1524
 8203SOL    HW236246   1.936   1.714   4.646 -0.0738  1.2173 -0.6498
 8204SOL     OW36247   1.549   1.316   4.392  0.1549  0.2785  0.7777
 8204SOL    HW136248   1.541   1.357   4.479  0.7004  0.5680  0.6908
 8204SOL    HW236249   1.570   1.393   4.339  1.8192  0.9830  2.4370
 8205SOL     OW36250   2.660   1.356   1.531 -0.3079 -0.5444 -0.4680
 8205SOL    HW136251   2.700   1.405   1.603 -0.5772  0.4712 -1.0014
 8205SOL    HW236252   2.670   1.269   1.570 -3.4884 -0.2306  1.0149
 8206SOL     OW36253   3.795   1.718  16.007 -0.7234 -0.1563 -0.1873
 8206SOL    HW136254   3.722   1.777  15.987 -0.8338 -0.2991 -0.2141
 8206SOL    HW236255   3.825   1.751  16.091 -0.9632  0.2330 -0.2517
 8207SOL     OW36256   1.074   1.741   2.500 -0.1333  0.3113 -0.4894
 8207SOL    HW136257   1.163   1.706   2.498 -1.0631 -1.9696 -1.5751
 8207SOL    HW236258   1.058   1.753   2.593  1.9527  2.0395 -0.3469
 8208SOL     OW36259   0.141   3.746   1.133  0.0295 -0.0081  0.3471
 8208SOL    HW136260   0.216   3.706   1.091  0.5595 -0.5174  1.7672
 8208SOL    HW236261   0.068   3.698   1.094 -0.4928 -0.1414  1.4689
 8209SOL     OW36262   3.338   2.038   9.531 -0.0938 -0.0709 -0.1799
 8209SOL    HW136263   3.259   2.087   9.552  0.2918  0.9082 -0.9746
 8209SOL    HW236264   3.392   2.099   9.480 -0.3489  0.0511 -0.3064
 8210SOL     OW36265   4.262   2.167   4.308  0.1336  0.6972 -0.0337
 8210SOL    HW136266   4.192   2.211   4.261  0.4222 -1.3712 -2.4514
 8210SOL    HW236267   4.332   2.231   4.297  1.6849 -1.4640 -2.9139
 8211SOL     OW36268   4.456   4.634   7.741 -0.0100  0.0369 -0.6155
 8211SOL    HW136269   4.420   4.546   7.753 -0.2091  0.0235 -1.3385
 8211SOL    HW236270   4.515   4.644   7.816  0.1696  2.7788 -1.1292
 8212SOL     OW36271   0.907   1.887  11.407 -0.3327  0.2901 -0.5051
 8212SOL    HW136272   0.820   1.857  11.381 -0.1269 -0.3712 -0.4044
 8212SOL    HW236273   0.958   1.849  11.335  0.1812  0.7057 -0.3640
 8213SOL     OW36274   1.344   3.186   1.177 -0.1412 -0.1894 -0.2458
 8213SOL    HW136275   1.279   3.239   1.130 -0.6385  0.8033  1.5604
 8213SOL    HW236276   1.277   3.137   1.223 -0.0709 -0.3919 -0.3618
 8214SOL     OW36277   1.566   2.690   0.687  0.5717 -0.5089 -0.1494
 8214SOL    HW136278   1.552   2.766   0.743 -2.7278 -0.8012 -0.5927
 8214SOL    HW236279   1.478   2.671   0.654  0.7527  0.2869 -1.0777
 8215SOL     OW36280   2.623   2.574   6.495  0.2735  0.1380  0.4265
 8215SOL    HW136281   2.554   2.513   6.468 -1.2911  1.9787  0.2844
 8215SOL    HW236282   2.675   2.582   6.415  0.6732 -0.1268  0.6592
 8216SOL     OW36283   3.572   0.695  15.061  0.1236 -0.1086  0.5849
 8216SOL    HW136284   3.660   0.732  15.072  0.5801 -0.9156 -0.3550
 8216SOL    HW236285   3.510   0.764  15.083  0.9933  0.4781  1.2262
 8217SOL     OW36286   3.187   4.010  16.785 -0.0694  0.1180 -0.4546
 8217SOL    HW136287   3.120   4.079  16.785 -0.7799 -0.5685 -0.9037
 8217SOL    HW236288   3.231   4.038  16.866  0.6403  0.9542 -1.1251
 8218SOL     OW36289   3.423   1.924   8.221 -0.9351  0.0350 -0.5835
 8218SOL    HW136290   3.398   2.015   8.204 -0.2817  0.5415  1.1566
 8218SOL    HW236291   3.334   1.893   8.207 -0.7510 -1.6031  1.8788
 8219SOL     OW36292   4.252   1.964   2.405 -0.7030 -0.0732 -0.1456
 8219SOL    HW136293   4.195   1.995   2.335  2.5319  2.8513 -1.4901
 8219SOL    HW236294   4.324   1.918   2.363 -1.0518  0.0794 -0.9134
 8220SOL     OW36295   3.469   2.366   4.172 -0.0239  0.3433 -0.0854
 8220SOL    HW136296   3.388   2.380   4.122 -0.0738  1.8357  0.4064
 8220SOL    HW236297   3.469   2.276   4.203 -0.3035 -0.6342 -2.9632
 8221SOL     OW36298   1.457   4.733   3.710  0.0456  0.3153 -0.2282
 8221SOL    HW136299   1.461   0.069   3.649 -0.3689 -0.3672 -1.0810
 8221SOL    HW236300   1.377   4.688   3.682 -0.0419 -1.1799  2.4306
 8222SOL     OW36301   2.879   1.156   8.871 -0.4408  0.2058 -0.2668
 8222SOL    HW136302   2.895   1.075   8.822  1.2084  1.0274 -1.1118
 8222SOL    HW236303   2.950   1.210   8.835 -0.9095 -0.2102 -1.8388
 8223SOL     OW36304   3.493   2.651   4.927  0.5219  0.1555 -0.1058
 8223SOL    HW136305   3.557   2.690   4.987  1.5784 -1.4966 -0.1389
 8223SOL    HW236306   3.543   2.603   4.860  0.5100  3.2734 -2.3230
 8224SOL     OW36307   3.798   3.230   4.194 -0.0406 -0.2114  0.0845
 8224SOL    HW136308   3.832   3.267   4.113  0.7306 -1.7709 -0.3035
 8224SOL    HW236309   3.869   3.257   4.252 -0.3601  0.6992  0.0494
 8225SOL     OW36310   2.101   1.746   1.849  0.3928  0.0222  0.6298
 8225SOL    HW136311   2.124   1.655   1.828 -2.0408 -0.4294 -0.0698
 8225SOL    HW236312   2.013   1.747   1.810  0.4677 -0.0632  0.4565
 8226SOL     OW36313   1.209   1.297   4.478 -0.1723  0.9452 -0.5570
 8226SOL    HW136314   1.250   1.382   4.469 -2.2194  1.9762 -0.2015
 8226SOL    HW236315   1.200   1.259   4.391 -2.0350 -1.6871  0.7554
 8227SOL     OW36316   1.365   2.288   2.545  0.6297  0.6763  0.0907
 8227SOL    HW136317   1.357   2.376   2.582  0.8868  0.5378  0.4750
 8227SOL    HW236318   1.418   2.245   2.612  0.5796  0.1534 -0.2080
 8228SOL     OW36319   1.696   1.610   3.606  0.5701  0.2377  0.2649
 8228SOL    HW136320   1.623   1.608   3.668  1.8402  0.1397  1.7607
 8228SOL    HW236321   1.659   1.666   3.538 -0.6665  0.7543  1.3651
 8229SOL     OW36322   1.895   3.034   4.414  0.3007 -0.3145 -0.3995
 8229SOL    HW136323   1.975   3.036   4.467 -0.1938  1.2776  0.2895
 8229SOL    HW236324   1.923   3.055   4.325 -0.2717 -1.0797 -0.7679
 8230SOL     OW36325   1.244   2.461  12.244 -0.8818  0.3726  0.1018
 8230SOL    HW136326   1.237   2.519  12.320 -0.7287  0.0971  0.3258
 8230SOL    HW236327   1.168   2.496  12.198  0.1358  0.9218 -1.1556
 8231SOL     OW36328   0.070   4.700   8.911  0.0025 -0.5820  0.1793
 8231SOL    HW136329   0.158   4.720   8.877 -0.8957  1.5975 -0.8868
 8231SOL    HW236330   0.091   4.649   8.989 -0.8643 -2.3211 -0.7508
 8232SOL     OW36331   3.368   1.910  15.340 -0.0006  0.8016  1.0371
 8232SOL    HW136332   3.377   1.826  15.385  0.9553 -0.3188 -1.2710
 8232SOL    HW236333   3.456   1.923  15.305 -0.4282 -0.1507 -0.3845
 8233SOL     OW36334   4.056   2.988   9.355  0.1327  0.4696  0.3923
 8233SOL    HW136335   4.140   2.961   9.390 -0.5325  0.2212  1.8165
 8233SOL    HW236336   4.079   3.080   9.340 -2.8111  1.0407 -0.6688
 8234SOL     OW36337   1.467   0.720   7.731  0.0539 -0.0598 -0.4248
 8234SOL    HW136338   1.426   0.781   7.792 -2.0369 -0.8178 -1.0722
 8234SOL    HW236339   1.560   0.719   7.755 -0.3102  0.9157  1.0527
 8235SOL     OW36340   3.829   1.630   3.067  0.2635  0.3438  0.1559
 8235SOL    HW136341   3.760   1.688   3.034 -0.1364  0.3543  1.0249
 8235SOL    HW236342   3.889   1.697   3.101 -0.4397  0.6867  0.7143
 8236SOL     OW36343   3.065   4.062  10.859  0.1579 -0.6971  0.2762
 8236SOL    HW136344   3.024   4.118  10.925  0.9478 -1.5634  1.5254
 8236SOL    HW236345   3.068   3.984  10.915 -2.0266 -0.9252  0.1028
 8237SOL     OW36346   1.729   1.770   6.546 -0.5276 -0.4282  0.0541
 8237SOL    HW136347   1.746   1.787   6.453 -0.5591 -0.6711  0.0059
 8237SOL    HW236348   1.759   1.854   6.581  1.4646 -0.2796 -2.0360
 8238SOL     OW36349   2.376   1.512   5.681 -0.0401 -0.2177  0.3127
 8238SOL    HW136350   2.407   1.524   5.771 -0.9264  0.7595  0.4939
 8238SOL    HW236351   2.282   1.528   5.694  0.1962  1.0377  0.4614
 8239SOL     OW36352   1.613   3.326   4.833 -0.2947  0.4595  0.6832
 8239SOL    HW136353   1.696   3.295   4.798  0.3829 -0.5422  3.1381
 8239SOL    HW236354   1.642   3.334   4.924 -0.2046 -0.0486  0.6971
 8240SOL     OW36355   2.336   0.124   3.907  0.6043 -0.5477  0.6186
 8240SOL    HW136356   2.429   0.104   3.896  1.2264  1.8969  1.4995
 8240SOL    HW236357   2.335   0.195   3.844 -1.7826  0.6244  1.9731
 8241SOL     OW36358   2.174   0.496  10.346 -0.5311 -0.0678 -0.0281
 8241SOL    HW136359   2.206   0.421  10.395 -0.0349 -1.0834 -1.8873
 8241SOL    HW236360   2.107   0.458  10.290 -0.8863  0.4807  0.0299
 8242SOL     OW36361   1.648   0.732  12.189 -0.0334  0.4245 -0.3635
 8242SOL    HW136362   1.576   0.684  12.148 -0.1824 -1.2859  1.9106
 8242SOL    HW236363   1.593   0.787  12.244  0.9957  0.5667  0.5195
 8243SOL     OW36364   2.757   3.378   8.473  0.0845 -0.0896  0.3503
 8243SOL    HW136365   2.715   3.443   8.416  1.4717 -0.4986 -1.1301
 8243SOL    HW236366   2.778   3.426   8.553 -0.7536 -0.3072  0.7022
 8244SOL     OW36367   3.182   2.487  16.054 -0.0482  0.6849  0.4273
 8244SOL    HW136368   3.173   2.580  16.033  1.7750  0.4888 -1.2336
 8244SOL    HW236369   3.130   2.484  16.134 -1.3280  1.6190 -0.3565
 8245SOL     OW36370   0.686   0.600   0.662 -0.3923 -0.3867 -0.0764
 8245SOL    HW136371   0.682   0.651   0.580  1.0159 -0.9140 -0.4738
 8245SOL    HW236372   0.671   0.512   0.630 -0.1710 -0.4055 -0.1285
 8246SOL     OW36373   3.414   2.102   2.196  0.3263 -0.1555 -0.0386
 8246SOL    HW136374   3.457   2.021   2.224  0.2592  0.6362  2.3612
 8246SOL    HW236375   3.322   2.081   2.210  0.3799 -0.4918 -0.1723
 8247SOL     OW36376   2.674   3.859   5.399  0.2541  0.5684 -0.3153
 8247SOL    HW136377   2.616   3.882   5.472 -0.2595  0.3450 -0.6495
 8247SOL    HW236378   2.657   3.937   5.346 -0.3063  0.5906 -0.1046
 8248SOL     OW36379   2.914   4.159   5.199  0.3940 -0.8521  0.0276
 8248SOL    HW136380   3.003   4.172   5.232 -0.3829  2.0827  0.9079
 8248SOL    HW236381   2.914   4.230   5.136 -1.3600 -0.9042 -0.0152
 8249SOL     OW36382   1.131   4.463   6.501  0.3831  0.3159 -0.0642
 8249SOL    HW136383   1.171   4.489   6.584 -0.1629  1.8836 -0.2941
 8249SOL    HW236384   1.163   4.374   6.483 -0.7396  0.1849 -1.3569
 8250SOL     OW36385   1.609   2.777  10.280 -0.2588  0.3318 -0.1609
 8250SOL    HW136386   1.640   2.867  10.290  2.2796 -0.3694 -1.8138
 8250SOL    HW236387   1.679   2.748  10.222 -1.1346 -1.4455 -0.3307
 8251SOL     OW36388   0.288   3.273  13.785  0.0516 -0.0608 -0.3739
 8251SOL    HW136389   0.278   3.352  13.839  0.1634  0.3386 -0.9365
 8251SOL    HW236390   0.204   3.265  13.739 -1.0966 -3.3025  2.2814
 8252SOL     OW36391   0.627   1.824   4.990 -0.7854  0.3098 -0.0602
 8252SOL    HW136392   0.559   1.875   5.035  0.1151  1.4523 -0.0200
 8252SOL    HW236393   0.567   1.775   4.934  1.6784 -1.9865 -0.6618
 8253SOL     OW36394   1.301   1.038   4.545  0.2731 -0.2501  1.0792
 8253SOL    HW136395   1.341   1.106   4.599  1.1619 -0.3418  0.5328
 8253SOL    HW236396   1.257   1.092   4.480 -0.6465 -1.5506  0.6241
 8254SOL     OW36397   3.182   2.996   6.209  0.1469  0.3221  0.4386
 8254SOL    HW136398   3.139   3.078   6.231 -1.0904 -0.0735 -0.4838
 8254SOL    HW236399   3.152   2.972   6.121 -3.2932 -0.8507  1.9365
 8255SOL     OW36400   4.434   0.252  17.277  0.1765 -0.0308 -0.5573
 8255SOL    HW136401   4.349   0.226  17.312 -0.1595 -0.1562 -1.4639
 8255SOL    HW236402   4.425   0.340  17.239 -0.9495 -0.5339 -1.4539
 8256SOL     OW36403   3.996   1.777   7.318 -0.0671 -0.0437  0.0323
 8256SOL    HW136404   4.082   1.804   7.350  0.5645 -1.8803 -0.1120
 8256SOL    HW236405   4.026   1.693   7.284  2.4227  1.3528 -1.1968
 8257SOL     OW36406   1.011   2.653   9.182  0.1467  0.3666 -0.2345
 8257SOL    HW136407   1.049   2.725   9.231 -1.8580  1.2639 -0.0239
 8257SOL    HW236408   1.050   2.578   9.228  0.4748  2.0590  2.2134
 8258SOL     OW36409   3.413   1.801   0.612  0.0536 -0.4894 -0.6823
 8258SOL    HW136410   3.444   1.716   0.645  0.8024  0.3652  0.8234
 8258SOL    HW236411   3.353   1.822   0.683  0.3909  0.7030 -0.7591
 8259SOL     OW36412   0.909   4.282   3.864 -0.4152  0.1822 -0.0453
 8259SOL    HW136413   0.874   4.218   3.926 -0.3610  0.9061  0.7380
 8259SOL    HW236414   0.835   4.338   3.839 -0.5845  0.8616  1.9962
 8260SOL     OW36415   0.577   2.258   3.506  0.0738  0.8267 -0.4628
 8260SOL    HW136416   0.507   2.208   3.463 -2.0122  3.5105 -0.2210
 8260SOL    HW236417   0.577   2.239   3.600 -1.3121  3.3008  0.0657
 8261SOL     OW36418   3.687   0.268  12.241  0.1706 -0.5563 -0.3798
 8261SOL    HW136419   3.666   0.360  12.224 -3.8608 -1.3287  0.3020
 8261SOL    HW236420   3.772   0.248  12.202  0.2660  0.8412 -0.8692
 8262SOL     OW36421   3.514   3.977   3.856 -0.4247 -0.0268  0.7282
 8262SOL    HW136422   3.482   4.064   3.832  0.9786  0.8280  1.9398
 8262SOL    HW236423   3.600   4.002   3.890  0.3005 -1.1410 -0.2894
 8263SOL     OW36424   3.047   3.078   1.443  0.3013  0.4133  0.3038
 8263SOL    HW136425   3.138   3.105   1.457  0.6879 -0.6173 -0.1539
 8263SOL    HW236426   3.054   3.035   1.357  2.8349 -0.5808  1.0006
 8264SOL     OW36427   1.103   4.461   8.614  0.3017 -0.1648 -0.3228
 8264SOL    HW136428   1.093   4.474   8.520 -1.8211 -0.4853 -0.1447
 8264SOL    HW236429   1.198   4.454   8.618  0.2650  0.9052  2.2357
 8265SOL     OW36430   0.820   4.057  17.726 -0.1208  0.2979 -0.3266
 8265SOL    HW136431   0.870   3.977  17.744 -1.0578 -0.3546 -0.6474
 8265SOL    HW236432   0.786   4.055   0.067  2.1683 -2.3206  0.4679
 8266SOL     OW36433   4.277   3.347  10.038  0.1525  0.2922  0.0021
 8266SOL    HW136434   4.236   3.429  10.010  1.0343 -0.1858 -2.6093
 8266SOL    HW236435   4.261   3.297   9.958  0.2869  2.7591 -1.5829
 8267SOL     OW36436   1.644   0.011   8.566  0.2420  0.6007 -0.2636
 8267SOL    HW136437   1.559   4.707   8.550  0.0132  1.0841 -0.3044
 8267SOL    HW236438   1.692   4.674   8.602  0.2749  1.5027  1.5514
 8268SOL     OW36439   2.222   4.346   6.054 -0.4001 -0.0992 -0.2009
 8268SOL    HW136440   2.316   4.332   6.042 -0.0573 -0.0825  2.4530
 8268SOL    HW236441   2.221   4.411   6.124  0.1830 -1.0728  0.7063
 8269SOL     OW36442   1.335   1.693   0.933  0.6526  0.1506  0.2024
 8269SOL    HW136443   1.367   1.783   0.934 -1.1901  0.8162 -0.4868
 8269SOL    HW236444   1.261   1.697   0.873 -0.1796  0.5072  1.2357
 8270SOL     OW36445   3.280   3.816   2.408  0.5438  0.0702  0.1864
 8270SOL    HW136446   3.275   3.722   2.424 -0.7068 -0.1344 -1.4569
 8270SOL    HW236447   3.375   3.820   2.401  0.4705 -1.8787 -1.8318
 8271SOL     OW36448   4.529   2.418   9.642 -0.3664  0.5368 -0.6028
 8271SOL    HW136449   4.579   2.449   9.718  1.7709 -3.0835 -0.5434
 8271SOL    HW236450   4.585   2.346   9.612 -0.9762 -0.7039  1.1883
 8272SOL     OW36451   1.150   0.722   3.207 -0.4121 -0.3825  0.4882
 8272SOL    HW136452   1.113   0.653   3.152  0.9271 -0.9084  0.2421
 8272SOL    HW236453   1.073   0.771   3.235 -0.6161 -0.4185 -0.0172
 8273SOL     OW36454   3.924   3.352   3.997 -0.4844  0.4418  0.4351
 8273SOL    HW136455   3.981   3.413   4.042 -0.6155  0.5055  0.5136
 8273SOL    HW236456   3.984   3.299   3.945 -1.3837  0.2296 -0.3954
 8274SOL     OW36457   4.595   1.919  12.670 -0.6876 -0.0969  0.1903
 8274SOL    HW136458   4.601   1.825  12.686 -1.3105 -0.0238  0.8628
 8274SOL    HW236459   4.681   1.943  12.633  0.1138 -1.0072  1.4575
 8275SOL     OW36460   0.242   0.128   2.016  0.2297 -0.9156  0.1039
 8275SOL    HW136461   0.313   0.072   1.986 -0.0635 -1.4984  0.5081
 8275SOL    HW236462   0.242   0.205   1.959  1.0559 -2.0153 -1.3573
 8276SOL     OW36463   2.064   0.479   7.955  0.1104  0.0179  0.5951
 8276SOL    HW136464   2.068   0.464   7.861  0.0497 -0.5191  0.6760
 8276SOL    HW236465   2.148   0.515   7.984  0.9465 -1.7430  0.4273
 8277SOL     OW36466   4.697   0.081  17.488  0.6305 -0.1340 -0.2299
 8277SOL    HW136467   4.676   0.003  17.437 -0.2923 -1.1912  1.7712
 8277SOL    HW236468   0.049   0.055  17.512  0.6737  2.0929  2.0130
 8278SOL     OW36469   4.632   4.288   6.257 -0.5525 -0.0889  0.6263
 8278SOL    HW136470   4.716   4.331   6.240 -0.7096  0.0606  0.2069
 8278SOL    HW236471   4.567   4.355   6.234  0.9600  0.2533 -2.6806
 8279SOL     OW36472   4.286   0.718  12.279 -0.2267  0.2902  0.2982
 8279SOL    HW136473   4.275   0.658  12.205  1.8385 -0.0734  0.2796
 8279SOL    HW236474   4.365   0.765  12.250  0.3284 -0.6604  0.2687
 8280SOL     OW36475   2.326   0.709  14.808 -0.9723  0.0814  0.5427
 8280SOL    HW136476   2.395   0.754  14.759 -0.9385  0.1093  0.6162
 8280SOL    HW236477   2.381   0.648  14.858 -1.3384  0.1507  1.0326
 8281SOL     OW36478   3.050   4.294  14.270  0.0430  0.2666  0.3005
 8281SOL    HW136479   3.036   4.200  14.284  1.2436  0.1981  1.1011
 8281SOL    HW236480   3.139   4.307  14.304  0.3027 -1.0176  0.1142
 8282SOL     OW36481   3.029   1.727  14.851  0.0336 -0.0760 -0.0380
 8282SOL    HW136482   3.067   1.813  14.870 -0.0580  0.4981 -2.3824
 8282SOL    HW236483   3.077   1.669  14.910  0.7300 -0.2448 -0.7701
 8283SOL     OW36484   2.865   1.591   0.734 -0.1629 -0.7329  0.3348
 8283SOL    HW136485   2.918   1.546   0.799  0.6030  0.4551  0.5264
 8283SOL    HW236486   2.848   1.526   0.665 -0.9479 -0.2430  0.0683
 8284SOL     OW36487   3.120   1.704   0.856  0.8618 -0.4573 -0.1468
 8284SOL    HW136488   3.215   1.696   0.864  0.6721 -2.1808  0.4549
 8284SOL    HW236489   3.111   1.791   0.818  0.3825 -0.0138  1.0027
 8285SOL     OW36490   0.859   0.895   8.840  0.1314  0.7997  0.1048
 8285SOL    HW136491   0.892   0.862   8.923 -0.5468 -1.2957 -0.4612
 8285SOL    HW236492   0.764   0.900   8.848  0.2211  1.3455  0.8882
 8286SOL     OW36493   2.525   3.994   4.636  0.0671 -0.3922 -0.3938
 8286SOL    HW136494   2.474   4.015   4.557  0.1722  0.1387 -0.3202
 8286SOL    HW236495   2.537   3.900   4.625 -2.1704 -0.3882 -2.9544
 8287SOL     OW36496   3.551   4.422   9.474  0.0485  0.0737  0.1953
 8287SOL    HW136497   3.549   4.397   9.567 -2.8819 -0.3991  0.0141
 8287SOL    HW236498   3.515   4.510   9.486  2.2964  0.8196  1.5941
 8288SOL     OW36499   3.362   3.077   4.386 -0.2808 -0.0306 -0.3735
 8288SOL    HW136500   3.375   3.043   4.298 -1.9498  1.0193 -1.0175
 8288SOL    HW236501   3.299   3.017   4.425 -1.1937  1.1460 -0.0176
 8289SOL     OW36502   3.258   1.706   8.636  0.1246  0.4938 -0.0837
 8289SOL    HW136503   3.231   1.713   8.544 -0.7453  1.2623  0.2349
 8289SOL    HW236504   3.198   1.637   8.662 -0.4033  1.2517  0.6911
 8290SOL     OW36505   3.943   1.933   2.391  0.1093  0.0788  0.7301
 8290SOL    HW136506   3.891   2.006   2.356  1.3384 -0.0107 -1.2836
 8290SOL    HW236507   3.872   1.912   2.452  2.0542  1.5580  3.4299
 8291SOL     OW36508   1.984   4.667   9.260  0.6760 -0.2030 -0.6087
 8291SOL    HW136509   1.985   0.025   9.261  0.9738 -0.2152  0.4054
 8291SOL    HW236510   2.051   4.654   9.193 -0.6776  0.3333 -2.0691
 8292SOL     OW36511   3.877   0.480   2.396  0.0862 -0.4385  0.6992
 8292SOL    HW136512   3.856   0.499   2.488  0.2920 -1.5185  0.9710
 8292SOL    HW236513   3.802   0.427   2.371  0.5067 -0.5881 -0.2372
 8293SOL     OW36514   2.710   2.412   5.758 -0.3385 -0.2747  0.4237
 8293SOL    HW136515   2.738   2.340   5.701  1.9504  0.2449  0.8922
 8293SOL    HW236516   2.622   2.428   5.724  0.6464 -0.4177 -2.1640
 8294SOL     OW36517   0.194   1.838  15.741 -0.2786 -0.6791  0.4412
 8294SOL    HW136518   0.127   1.769  15.752  0.5366 -1.4319  0.6556
 8294SOL    HW236519   0.268   1.781  15.719 -0.5636 -0.1946 -1.7813
 8295SOL     OW36520   2.802   0.271  17.645  0.2489  0.0516  0.3940
 8295SOL    HW136521   2.829   0.181  17.665 -1.3066 -0.3419  0.7016
 8295SOL    HW236522   2.790   0.301  17.735  2.1739 -2.0163  1.3544
 8296SOL     OW36523   1.497   2.714  17.543 -0.1051 -0.0791  0.0454
 8296SOL    HW136524   1.552   2.641  17.513 -2.3642 -1.2667 -1.1793
 8296SOL    HW236525   1.483   2.754  17.457  0.1242 -1.2832 -0.5494
 8297SOL     OW36526   4.055   4.093   2.807 -0.0037 -0.4321  0.3925
 8297SOL    HW136527   4.030   4.012   2.762 -2.2364  1.3321 -1.5179
 8297SOL    HW236528   4.109   4.056   2.878 -1.1985 -1.8774  0.5522
 8298SOL     OW36529   2.364   0.279   4.183  0.8736 -0.3187  0.4693
 8298SOL    HW136530   2.458   0.298   4.177  0.4716  1.5533 -0.0658
 8298SOL    HW236531   2.339   0.261   4.092  1.1662 -1.3556  0.5992
 8299SOL     OW36532   3.050   0.987   5.091 -0.3268 -0.2020  0.1165
 8299SOL    HW136533   2.973   0.993   5.035 -1.0710  1.4483  1.3249
 8299SOL    HW236534   3.020   0.978   5.182 -0.6512  0.1602  0.0463
 8300SOL     OW36535   1.937   0.974   1.143  0.3296  0.0337  0.0415
 8300SOL    HW136536   1.864   0.912   1.147 -0.1082  0.4905 -1.0603
 8300SOL    HW236537   2.010   0.924   1.181 -0.1383  0.4020  1.4509
 8301SOL     OW36538   4.065   3.660   4.919  0.0869 -0.0203  0.1380
 8301SOL    HW136539   4.144   3.713   4.907  0.1683  0.0428  0.9351
 8301SOL    HW236540   4.054   3.628   4.830 -0.5575 -1.4428  0.7208
 8302SOL     OW36541   3.859   2.078   6.868 -0.3362 -0.2246 -0.2446
 8302SOL    HW136542   3.841   2.045   6.956  1.5547  1.6037  0.8335
 8302SOL    HW236543   3.918   2.147   6.897  0.2983 -0.0866 -1.8395
 8303SOL     OW36544   0.054   2.353  11.170 -0.1867  0.1580  0.0673
 8303SOL    HW136545   4.699   2.332  11.171 -0.7540  2.5874 -0.0739
 8303SOL    HW236546   0.066   2.418  11.100  0.3915 -1.3610 -1.2275
 8304SOL     OW36547   1.685   4.313   5.856 -0.7272  1.0010 -0.1058
 8304SOL    HW136548   1.609   4.339   5.909 -1.2488 -1.1028  0.1910
 8304SOL    HW236549   1.718   4.232   5.895 -0.7331  1.2879  0.5004
 8305SOL     OW36550   2.254   1.084   8.696 -0.5278 -0.2252 -0.1557
 8305SOL    HW136551   2.178   1.087   8.638 -0.7149 -0.0476  0.1011
 8305SOL    HW236552   2.308   1.155   8.661 -0.1143  0.2385  1.4533
 8306SOL     OW36553   0.903   1.961   8.874  0.7255 -0.3262  0.1871
 8306SOL    HW136554   0.930   1.885   8.925  1.1757 -0.0872  0.3047
 8306SOL    HW236555   0.944   2.031   8.925  1.8273 -0.5690 -0.3674
 8307SOL     OW36556   4.611   2.126   1.848 -0.2023 -0.5215  0.7544
 8307SOL    HW136557   4.546   2.194   1.833 -0.5680 -1.2038 -0.6710
 8307SOL    HW236558   4.557   2.049   1.830  0.0907 -0.3403 -0.8953
 8308SOL     OW36559   2.409   4.004  11.788  0.2224 -0.7302 -0.4875
 8308SOL    HW136560   2.493   3.959  11.793  0.5660 -0.0854 -0.4444
 8308SOL    HW236561   2.405   4.013  11.883 -0.5096 -0.1066 -0.5726
 8309SOL     OW36562   1.741   3.476   5.351 -0.3659  0.0368 -0.1489
 8309SOL    HW136563   1.671   3.539   5.332 -0.9198 -1.4111 -2.9620
 8309SOL    HW236564   1.689   3.406   5.390 -0.6367  0.8853  1.0235
 8310SOL     OW36565   0.282   0.305   8.262 -0.0703  0.1058 -0.6695
 8310SOL    HW136566   0.211   0.329   8.322 -1.0307 -0.6702 -1.4867
 8310SOL    HW236567   0.295   0.391   8.223 -0.3958  0.5466  0.1972
 8311SOL     OW36568   4.037   2.876   8.942  0.0005  0.5795 -0.3067
 8311SOL    HW136569   4.001   2.828   9.017 -0.6158 -1.8833 -2.1773
 8311SOL    HW236570   3.963   2.934   8.924 -0.0474  0.2319 -1.2000
 8312SOL     OW36571   4.374   0.764   5.142 -0.0683 -0.8342 -0.4012
 8312SOL    HW136572   4.324   0.718   5.209 -1.1706 -1.2056 -1.4575
 8312SOL    HW236573   4.435   0.809   5.199  0.2478  0.7370 -1.9706
 8313SOL     OW36574   0.732   0.374  10.495  0.4428 -0.4637 -0.1052
 8313SOL    HW136575   0.825   0.357  10.513  0.5242 -2.1264 -2.1144
 8313SOL    HW236576   0.736   0.467  10.471  2.3254 -0.9495 -1.6365
 8314SOL     OW36577   3.862   2.296   7.890  0.3050  0.4491  0.3362
 8314SOL    HW136578   3.865   2.392   7.896 -0.5142  0.4050  1.3980
 8314SOL    HW236579   3.930   2.290   7.823  2.1716  1.8587  2.1229
 8315SOL     OW36580   1.328   4.382   7.776  0.0643 -0.0182  0.4387
 8315SOL    HW136581   1.418   4.354   7.761 -0.9776 -1.3178 -3.4127
 8315SOL    HW236582   1.285   4.364   7.693 -0.5173 -1.0839  0.9649
 8316SOL     OW36583   1.900   1.136   2.768 -0.1232  0.2271  0.5290
 8316SOL    HW136584   1.986   1.104   2.797  1.5332  3.6201 -0.6042
 8316SOL    HW236585   1.929   1.188   2.693 -0.2038 -0.0006  0.3388
 8317SOL     OW36586   3.121   1.888   9.166  0.0502  0.5839 -0.0791
 8317SOL    HW136587   3.102   1.888   9.260  0.9728  0.6530  0.1003
 8317SOL    HW236588   3.211   1.861   9.181  0.2022  0.4315 -1.3262
 8318SOL     OW36589   2.555   0.234   9.604  0.0088  0.4772  0.1214
 8318SOL    HW136590   2.582   0.310   9.553  0.2654  0.8657  0.8374
 8318SOL    HW236591   2.464   0.260   9.620 -1.2322 -1.5907 -3.7585
 8319SOL     OW36592   2.608   1.642   6.550 -0.0325 -0.1438 -0.2953
 8319SOL    HW136593   2.575   1.723   6.512  1.6231 -0.0706 -1.5647
 8319SOL    HW236594   2.695   1.676   6.574 -0.0441 -0.8857  0.7804
 8320SOL     OW36595   0.928   4.010  16.619  0.7409 -0.0223 -0.1285
 8320SOL    HW136596   0.927   3.928  16.668 -0.8017  0.3980  0.5479
 8320SOL    HW236597   0.987   4.059  16.677  2.8238 -0.6812 -1.6806
 8321SOL     OW36598   0.225   2.179   6.431 -0.6917 -0.5490  0.3532
 8321SOL    HW136599   0.264   2.094   6.411 -0.2164 -1.0565  3.5833
 8321SOL    HW236600   0.252   2.228   6.353 -1.0381  0.0462  0.6098
 8322SOL     OW36601   4.165   2.173  13.276 -1.0596 -0.0189 -0.3843
 8322SOL    HW136602   4.072   2.191  13.258 -1.0499 -1.5418 -1.9468
 8322SOL    HW236603   4.158   2.080  13.296  3.2929 -0.5903 -1.7269
 8323SOL     OW36604   3.782   3.907  10.390 -0.2591 -0.1698  0.0016
 8323SOL    HW136605   3.705   3.963  10.380 -0.3218 -0.1449  0.5963
 8323SOL    HW236606   3.771   3.890  10.484 -2.5183  2.0830  0.1266
 8324SOL     OW36607   0.593   2.663   8.280 -0.3084  0.0765 -0.0793
 8324SOL    HW136608   0.561   2.688   8.367  1.2671  1.5259  0.0956
 8324SOL    HW236609   0.681   2.700   8.283 -0.1733 -0.1924 -0.9124
 8325SOL     OW36610   0.130   0.933   6.890  0.3605  0.1984  0.1730
 8325SOL    HW136611   0.055   0.921   6.948 -1.8496 -0.5759 -2.8553
 8325SOL    HW236612   0.158   0.842   6.883  0.0525 -0.1179  3.1877
 8326SOL     OW36613   2.609   4.523  14.800  0.3605  0.0952  0.0225
 8326SOL    HW136614   2.561   4.577  14.862  2.1741 -0.9402  2.3696
 8326SOL    HW236615   2.615   4.572  14.718 -3.4510  2.3824  1.1201
 8327SOL     OW36616   3.598   1.013  13.680 -0.3409 -0.2511  0.4087
 8327SOL    HW136617   3.546   0.976  13.609 -0.3190  1.6162 -0.5857
 8327SOL    HW236618   3.684   0.987  13.647 -1.3714 -0.5659 -2.0297
 8328SOL     OW36619   2.501   4.520   5.074  0.2389 -0.0996  0.3011
 8328SOL    HW136620   2.510   4.614   5.059  2.2729  0.0760  2.6415
 8328SOL    HW236621   2.552   4.510   5.155  0.2778 -2.9314 -0.0888
 8329SOL     OW36622   1.177   0.066  16.076 -0.1072  0.0013 -0.8530
 8329SOL    HW136623   1.270   0.080  16.060 -0.1147 -1.4535 -2.2033
 8329SOL    HW236624   1.151   0.138  16.134  0.1142 -0.3757 -0.2775
 8330SOL     OW36625   2.255   0.378   7.118 -0.5431  0.1397  0.1996
 8330SOL    HW136626   2.265   0.407   7.027  0.4459 -2.3643 -0.5150
 8330SOL    HW236627   2.238   0.458   7.167  2.0822 -0.3326  1.8684
 8331SOL     OW36628   3.043   4.274   4.962 -0.4038 -0.3876 -0.3117
 8331SOL    HW136629   3.112   4.302   4.902 -0.6707  2.2334  0.6170
 8331SOL    HW236630   2.994   4.212   4.908 -0.4564  0.6081 -1.4054
 8332SOL     OW36631   4.361   4.099   4.423 -0.5727  0.1539  0.4284
 8332SOL    HW136632   4.294   4.138   4.480 -1.2316  0.7913 -0.7762
 8332SOL    HW236633   4.340   4.129   4.335  0.6957  1.2285  0.4793
 8333SOL     OW36634   3.099   4.554   7.878 -0.3256 -0.0870  0.0871
 8333SOL    HW136635   3.059   4.541   7.965 -0.9652  1.4994  0.0347
 8333SOL    HW236636   3.027   4.517   7.827 -2.3088  1.6430  1.5790
 8334SOL     OW36637   0.733   0.156   2.359  0.1868  0.1162 -0.5681
 8334SOL    HW136638   0.707   0.243   2.388  0.5487 -0.9689  2.9612
 8334SOL    HW236639   0.658   0.105   2.388  1.1510 -1.7824 -1.3851
 8335SOL     OW36640   3.261   2.410   7.457  0.1254  0.6977  0.5558
 8335SOL    HW136641   3.236   2.392   7.366 -0.6489 -0.0415  0.9091
 8335SOL    HW236642   3.277   2.503   7.468  1.2439  0.5392  0.2983
 8336SOL     OW36643   1.358   0.540  14.822 -0.1102 -0.1094  0.0407
 8336SOL    HW136644   1.394   0.456  14.848 -1.4255 -0.3685  1.0246
 8336SOL    HW236645   1.403   0.534  14.738  0.7397 -1.7489  0.6385
 8337SOL     OW36646   2.715   3.767   3.266  0.1341 -0.1194  0.3190
 8337SOL    HW136647   2.630   3.760   3.223 -0.6086  2.6041  1.2917
 8337SOL    HW236648   2.721   3.861   3.283  0.3065 -0.3795  1.7072
 8338SOL     OW36649   0.639   1.858  11.404  0.5705  0.1639  0.2813
 8338SOL    HW136650   0.573   1.867  11.473  0.9778  1.7792  0.4558
 8338SOL    HW236651   0.585   1.849  11.326  1.3282  0.4440 -0.2669
 8339SOL     OW36652   0.060   0.450  10.150  0.2408 -1.1421  0.2184
 8339SOL    HW136653   0.098   0.417  10.231 -1.6701  0.4226  1.7530
 8339SOL    HW236654   4.737   0.376  10.142 -2.0275  0.5046  2.0515
 8340SOL     OW36655   1.459   0.708   6.209  0.7899  0.5139  0.1438
 8340SOL    HW136656   1.544   0.677   6.178  0.3703  1.1742 -1.6418
 8340SOL    HW236657   1.405   0.632   6.187  3.2592 -0.8467 -1.2103
 8341SOL     OW36658   2.777   2.048   1.616  0.3376  0.0450 -0.3746
 8341SOL    HW136659   2.858   2.002   1.640  0.7435  1.1677  0.4144
 8341SOL    HW236660   2.759   2.110   1.686  0.5445  0.3779 -0.6183
 8342SOL     OW36661   1.273   1.565   4.462  0.4554 -0.3363  0.1469
 8342SOL    HW136662   1.183   1.578   4.433  0.5386  1.5984  0.6987
 8342SOL    HW236663   1.288   1.636   4.526  0.8511  0.2514 -0.5985
 8343SOL     OW36664   3.839   2.057   1.925  0.0871  0.2345 -0.3569
 8343SOL    HW136665   3.824   1.963   1.921  0.8083  0.0114  1.8873
 8343SOL    HW236666   3.751   2.089   1.946 -0.7391 -1.9790 -0.4447
 8344SOL     OW36667   0.659   0.317   0.948  0.0728  0.4064  0.2365
 8344SOL    HW136668   0.739   0.335   0.998 -0.7018  2.4565  0.7405
 8344SOL    HW236669   0.681   0.335   0.856  3.1762 -0.1832  0.8644
 8345SOL     OW36670   3.090   4.734   9.677  0.0994 -0.9641 -0.0243
 8345SOL    HW136671   3.128   4.667   9.620  0.6884  1.7875 -2.8557
 8345SOL    HW236672   3.085   4.684   9.758  1.4918  0.1230  0.7298
 8346SOL     OW36673   1.752   0.520   1.350 -0.3686 -0.2428  0.7046
 8346SOL    HW136674   1.780   0.455   1.415  1.8299  0.1642  0.1709
 8346SOL    HW236675   1.803   0.497   1.272 -1.6110 -2.5077  0.5552
 8347SOL     OW36676   0.422   4.639   5.245  0.0278 -0.1681  0.6894
 8347SOL    HW136677   0.425   4.590   5.327  0.7788 -1.0340  0.1378
 8347SOL    HW236678   0.509   4.622   5.210 -0.0977 -2.4231  1.4823
 8348SOL     OW36679   2.311   3.728   0.299  0.2705 -0.1661 -0.5368
 8348SOL    HW136680   2.241   3.767   0.352 -0.1685  0.0630 -1.2896
 8348SOL    HW236681   2.287   3.763   0.213  0.9335  1.9964  0.1362
 8349SOL     OW36682   1.248   0.718   8.091 -0.5744 -0.2052 -0.0529
 8349SOL    HW136683   1.293   0.669   8.160  0.2528  0.9645  0.2416
 8349SOL    HW236684   1.254   0.806   8.128 -0.0418  0.4489 -1.7406
 8350SOL     OW36685   1.788   4.025   5.489 -0.5300 -0.1423 -0.1656
 8350SOL    HW136686   1.864   4.043   5.545 -1.1136 -0.2838  0.6753
 8350SOL    HW236687   1.767   3.933   5.502  1.0427 -0.4508  0.2277
 8351SOL     OW36688   2.477   3.543  11.390  0.0917 -0.9202  0.3343
 8351SOL    HW136689   2.480   3.584  11.476 -0.3862 -0.5431  0.1783
 8351SOL    HW236690   2.475   3.619  11.331  0.7343  0.5011  2.1318
 8352SOL     OW36691   2.374   4.214   8.100 -0.2493 -0.2973  0.4050
 8352SOL    HW136692   2.301   4.157   8.122  0.1640 -0.7634  0.5580
 8352SOL    HW236693   2.436   4.222   8.173  0.2685  1.0489 -0.1866
 8353SOL     OW36694   0.724   3.314  12.279  0.2461  0.3733 -0.2193
 8353SOL    HW136695   0.732   3.407  12.255  1.3481  0.1564 -0.6376
 8353SOL    HW236696   0.800   3.271  12.242  0.7680 -0.2588  1.5789
 8354SOL     OW36697   0.042   1.243   5.008 -0.1177  0.0217  0.6135
 8354SOL    HW136698   0.096   1.232   5.086 -0.6033 -1.0736  0.7937
 8354SOL    HW236699   4.695   1.206   5.035 -0.2037 -0.0878  0.2024
 8355SOL     OW36700   1.464   1.435   7.152 -0.3431 -0.5133  0.4432
 8355SOL    HW136701   1.500   1.444   7.063 -0.0937 -1.6065  0.4346
 8355SOL    HW236702   1.485   1.524   7.181 -0.8440 -0.2330 -0.0570
 8356SOL     OW36703   2.427   0.103   2.738 -0.1087  0.7254  0.3759
 8356SOL    HW136704   2.404   0.081   2.828  0.3570 -0.2336  0.2634
 8356SOL    HW236705   2.501   0.163   2.751  0.0063  0.9705 -1.3782
 8357SOL     OW36706   2.408   4.657   8.146 -0.8157 -0.3541 -0.5135
 8357SOL    HW136707   2.403   4.599   8.070 -0.4358  0.0855 -0.8691
 8357SOL    HW236708   2.375   0.002   8.112 -1.4826 -0.7043 -0.7339
 8358SOL     OW36709   1.099   3.320   6.129  0.3310  0.3440 -0.0700
 8358SOL    HW136710   1.108   3.230   6.099  1.7510  0.6704 -0.6357
 8358SOL    HW236711   1.051   3.367   6.061  0.7277  1.1595  0.2126
 8359SOL     OW36712   4.547   0.526   4.154 -0.1099  0.9903 -0.1029
 8359SOL    HW136713   4.624   0.582   4.146 -0.0385  0.5437 -2.7269
 8359SOL    HW236714   4.569   0.473   4.077 -1.0294 -0.7474  0.8346
 8360SOL     OW36715   2.713   4.407   8.411  0.3230  0.1364 -0.5218
 8360SOL    HW136716   2.771   4.348   8.363  1.7586  0.2431  1.0748
 8360SOL    HW236717   2.779   4.459   8.458  2.7450 -2.2689 -1.2709
 8361SOL     OW36718   4.666   4.687  10.530 -0.2281 -0.2180 -0.1143
 8361SOL    HW136719   4.585   4.646  10.559 -1.7842  0.1366 -4.0046
 8361SOL    HW236720   4.699   4.618  10.473  0.5342 -0.4575  0.6144
 8362SOL     OW36721   1.344   1.271   7.929 -0.2957  0.3763 -0.2151
 8362SOL    HW136722   1.270   1.212   7.942  0.0027 -0.5121 -2.6202
 8362SOL    HW236723   1.371   1.248   7.840  1.9340  0.9003  0.3362
 8363SOL     OW36724   0.385   1.345   8.476 -0.1419 -0.0753 -0.6590
 8363SOL    HW136725   0.379   1.392   8.393  1.1208 -0.0237 -0.7094
 8363SOL    HW236726   0.463   1.381   8.518 -0.4027 -0.0379 -0.2078
 8364SOL     OW36727   3.306   4.118   3.772  0.0255 -0.2177  0.1050
 8364SOL    HW136728   3.296   4.158   3.685 -0.7356 -0.2986  0.1511
 8364SOL    HW236729   3.222   4.079   3.795  0.2338  0.0667  1.3108
 8365SOL     OW36730   3.211   3.161   7.741  0.3718 -0.1892 -0.2587
 8365SOL    HW136731   3.256   3.176   7.825  0.7910  1.8846 -0.8702
 8365SOL    HW236732   3.120   3.166   7.769  0.0723 -4.2696 -0.5313
 8366SOL     OW36733   2.538   2.466  10.188  0.1107 -0.3329 -0.4807
 8366SOL    HW136734   2.600   2.497  10.254 -0.3310 -4.1544  1.7073
 8366SOL    HW236735   2.543   2.374  10.212 -0.7338 -0.5284 -1.0589
 8367SOL     OW36736   3.537   0.444   1.022 -0.3216 -0.0262  0.3878
 8367SOL    HW136737   3.494   0.471   1.104 -0.0349  1.2326  0.1226
 8367SOL    HW236738   3.570   0.360   1.054 -0.8992 -0.7599 -0.9343
 8368SOL     OW36739   3.200   4.022   4.775 -0.3204  0.2593  0.3777
 8368SOL    HW136740   3.177   3.989   4.862 -0.8569 -0.7944 -0.1705
 8368SOL    HW236741   3.119   4.065   4.746 -1.7661 -2.1028  0.9683
 8369SOL     OW36742   2.770   2.060   2.207  0.3183 -0.4697  0.3103
 8369SOL    HW136743   2.838   1.993   2.207  1.6098  0.8437 -1.7814
 8369SOL    HW236744   2.726   2.033   2.128 -2.9365 -1.6872  2.5544
 8370SOL     OW36745   0.367   0.263   3.453 -0.0863  0.2536  0.6649
 8370SOL    HW136746   0.359   0.238   3.360 -1.9929 -0.4753  1.0253
 8370SOL    HW236747   0.446   0.315   3.460  1.0390 -1.8521  3.5171
 8371SOL     OW36748   1.808   4.690   4.166 -0.1849  0.1854  0.6656
 8371SOL    HW136749   1.854   4.737   4.096 -0.8603  0.6330  0.5251
 8371SOL    HW236750   1.870   4.709   4.236 -0.3045  0.1437  0.7839
 8372SOL     OW36751   3.863   3.606   2.879 -0.4875 -0.4751  0.0687
 8372SOL    HW136752   3.861   3.513   2.856 -1.4336  0.0649 -1.9932
 8372SOL    HW236753   3.771   3.617   2.902 -0.7883 -2.3515 -0.1876
 8373SOL     OW36754   2.574   2.885   5.418 -0.0843  0.2396 -0.2441
 8373SOL    HW136755   2.578   2.852   5.507  1.6921  0.5749 -0.1838
 8373SOL    HW236756   2.642   2.952   5.408 -1.6221  1.7685 -0.5373
 8374SOL     OW36757   2.824   3.655   4.498  0.0401  0.3113 -0.0228
 8374SOL    HW136758   2.823   3.578   4.555  1.1851 -0.7329 -1.4246
 8374SOL    HW236759   2.758   3.716   4.532  0.0851  1.2535 -1.6491
 8375SOL     OW36760   0.194   3.308   8.970  0.1307  0.2169  0.2726
 8375SOL    HW136761   0.276   3.315   8.921 -0.6364  0.4811 -0.9610
 8375SOL    HW236762   0.233   3.320   9.057 -0.9835  2.7040  0.4256
 8376SOL     OW36763   1.100   2.479   5.812 -0.4810 -0.0796 -0.0464
 8376SOL    HW136764   1.007   2.458   5.802 -0.1607 -1.4853 -0.0404
 8376SOL    HW236765   1.139   2.394   5.832 -3.3322 -1.6300 -1.0004
 8377SOL     OW36766   2.112   4.007  15.776 -0.0681  1.0951 -0.2276
 8377SOL    HW136767   2.079   3.930  15.729  0.5350  2.2731 -2.5902
 8377SOL    HW236768   2.137   4.068  15.707 -1.0395  1.4910 -0.2286
 8378SOL     OW36769   2.076   1.689  14.038 -0.1681 -0.5927 -0.0289
 8378SOL    HW136770   2.096   1.600  14.067 -2.0076 -1.6782 -2.1034
 8378SOL    HW236771   1.992   1.695  14.083 -0.2021 -1.1245 -0.0142
 8379SOL     OW36772   3.370   3.747   2.077 -0.2085 -0.6809  0.0810
 8379SOL    HW136773   3.407   3.806   2.143 -0.6036  0.7920 -0.9909
 8379SOL    HW236774   3.394   3.676   2.136 -2.3513 -2.3939 -1.1097
 8380SOL     OW36775   0.266   2.095  15.823 -0.4700  0.6125  0.4090
 8380SOL    HW136776   0.326   2.116  15.752 -1.6093  1.1586 -0.3994
 8380SOL    HW236777   0.252   2.001  15.809  0.1947  0.4971  0.4999
 8381SOL     OW36778   1.390   3.671   8.198 -0.1814 -0.1883 -0.1029
 8381SOL    HW136779   1.469   3.721   8.179  0.2098 -1.1800 -1.0527
 8381SOL    HW236780   1.389   3.598   8.136 -2.1387 -1.9647  1.9776
 8382SOL     OW36781   4.640   1.394   4.813 -0.5972 -0.4661  0.2004
 8382SOL    HW136782   4.616   1.304   4.794 -0.3010 -0.3522 -0.7106
 8382SOL    HW236783   4.710   1.368   4.873  0.4919  1.4877 -0.2058
 8383SOL     OW36784   2.426   0.572   8.488 -0.0255 -0.5266  0.2310
 8383SOL    HW136785   2.517   0.555   8.512 -0.2360 -0.6565  0.9144
 8383SOL    HW236786   2.438   0.646   8.427  0.4741 -0.8598 -0.0783
 8384SOL     OW36787   3.164   0.741  14.638 -0.3917 -0.0429 -0.5028
 8384SOL    HW136788   3.233   0.676  14.654  0.1134  0.7416  0.5307
 8384SOL    HW236789   3.093   0.696  14.683 -0.4094 -0.6817 -1.1624
 8385SOL     OW36790   0.374   1.109  16.506  0.2627  0.3437 -0.3792
 8385SOL    HW136791   0.321   1.032  16.528  0.8333 -0.0350 -0.3109
 8385SOL    HW236792   0.466   1.083  16.514 -0.1820 -0.5862  1.7913
 8386SOL     OW36793   4.339   3.581   1.734 -0.2886 -0.4103 -0.0931
 8386SOL    HW136794   4.263   3.524   1.749  0.7444 -1.6051  0.5971
 8386SOL    HW236795   4.298   3.665   1.714  0.7882  0.0733 -0.2331
 8387SOL     OW36796   0.429   2.854   4.979 -0.4085 -0.1478  0.5030
 8387SOL    HW136797   0.341   2.875   5.009 -0.9913  0.6823 -1.7781
 8387SOL    HW236798   0.440   2.766   5.016  0.5877  0.0965  0.7973
 8388SOL     OW36799   0.442   2.009   2.460  0.3882  0.1476 -0.0130
 8388SOL    HW136800   0.374   2.077   2.460  1.1381  0.9103 -0.3293
 8388SOL    HW236801   0.520   2.064   2.474 -0.5560  1.1404  1.3061
 8389SOL     OW36802   3.148   3.488  11.149 -0.0620  0.3294  0.6808
 8389SOL    HW136803   3.107   3.527  11.226  0.0024  0.2852  0.7373
 8389SOL    HW236804   3.113   3.400  11.164 -0.8492  0.7559  1.3632
 8390SOL     OW36805   0.957   2.723   1.970 -0.7166 -0.2795 -0.1645
 8390SOL    HW136806   1.015   2.659   1.930  0.6188  0.1372  1.1073
 8390SOL    HW236807   0.969   2.797   1.910  0.1097 -0.2403  0.0593
 8391SOL     OW36808   2.748   0.230  13.457  0.5005  0.2420 -0.6024
 8391SOL    HW136809   2.685   0.247  13.527 -1.9416 -0.8506 -2.5151
 8391SOL    HW236810   2.698   0.187  13.387 -0.3652 -1.4514  1.0494
 8392SOL     OW36811   3.889   0.711   2.273 -0.7748  0.2776 -0.2842
 8392SOL    HW136812   3.894   0.624   2.313 -0.8202 -0.8068 -2.6982
 8392SOL    HW236813   3.810   0.687   2.226 -1.9433  1.2288  1.1688
 8393SOL     OW36814   4.059   1.278   9.468  0.2670  0.2551 -0.3826
 8393SOL    HW136815   4.024   1.198   9.507  0.2489  0.0082 -0.9070
 8393SOL    HW236816   3.990   1.311   9.410 -0.5376  2.0005  1.5891
 8394SOL     OW36817   3.720   1.997   8.804 -0.2188  0.2661  0.0575
 8394SOL    HW136818   3.771   2.060   8.855 -1.5418  1.1433  0.3184
 8394SOL    HW236819   3.660   2.067   8.779 -1.5223 -1.3045 -1.1612
 8395SOL     OW36820   4.368   2.529   4.064 -0.5842 -0.3043  0.4136
 8395SOL    HW136821   4.365   2.509   3.971 -1.6261  2.3521 -0.1366
 8395SOL    HW236822   4.385   2.624   4.063 -0.8036 -0.2450  2.1938
 8396SOL     OW36823   1.824   1.724   0.529 -0.4118 -0.5935 -0.2272
 8396SOL    HW136824   1.905   1.685   0.564  0.4238  0.4330 -1.0334
 8396SOL    HW236825   1.820   1.671   0.449  0.9920 -2.3198  0.8283
 8397SOL     OW36826   1.513   1.164   4.175  0.1601 -0.9800  0.0883
 8397SOL    HW136827   1.526   1.187   4.267 -0.5132 -0.3351  0.0228
 8397SOL    HW236828   1.453   1.090   4.182  0.8586 -1.4020  1.4790
 8398SOL     OW36829   1.315   2.307   6.261  0.2135 -0.1481  0.0499
 8398SOL    HW136830   1.304   2.347   6.348 -1.9287 -2.0212  0.6480
 8398SOL    HW236831   1.247   2.240   6.268  1.6585 -1.5851  0.3439
 8399SOL     OW36832   2.757   2.586   1.960 -0.1702  0.0055 -0.0388
 8399SOL    HW136833   2.845   2.623   1.973 -0.3906  0.4331  0.2339
 8399SOL    HW236834   2.737   2.527   2.033  0.7339  0.1836  0.3612
 8400SOL     OW36835   4.667   1.794  10.744  0.1147 -0.2458  0.0341
 8400SOL    HW136836   4.671   1.870  10.685 -1.6729 -1.3627 -1.5601
 8400SOL    HW236837   0.017   1.771  10.771  0.4338 -1.7489 -2.2332
 8401SOL     OW36838   3.101   1.809  12.166  0.2380  0.2717  0.2793
 8401SOL    HW136839   3.046   1.883  12.138 -0.4153  0.1592  1.2553
 8401SOL    HW236840   3.056   1.787  12.248  1.1715  1.5916  1.1474
 8402SOL     OW36841   3.228   2.252   4.457 -0.0865 -0.3533  0.0976
 8402SOL    HW136842   3.258   2.331   4.412 -0.2345 -0.1405  0.3789
 8402SOL    HW236843   3.210   2.192   4.384 -1.4093 -0.1458  0.2467
 8403SOL     OW36844   1.942   3.835   2.366 -0.4575  0.1663  0.5526
 8403SOL    HW136845   1.969   3.926   2.352  0.3722  0.0491  1.3730
 8403SOL    HW236846   2.018   3.789   2.331 -0.9836 -1.4428  1.5322
 8404SOL     OW36847   3.945   3.799   5.896 -0.3587  0.4107  0.1725
 8404SOL    HW136848   3.958   3.725   5.837  1.6455 -1.3494  2.8419
 8404SOL    HW236849   3.991   3.874   5.857 -0.5949  0.7109  0.4617
 8405SOL     OW36850   4.421   3.086   2.468 -0.0735  0.2335  0.3722
 8405SOL    HW136851   4.357   3.075   2.538  0.5863 -1.0533  0.7759
 8405SOL    HW236852   4.379   3.048   2.390 -0.6811  0.4073  0.6136
 8406SOL     OW36853   0.008   2.783   5.765 -0.2997  0.4339 -0.1927
 8406SOL    HW136854   0.061   2.782   5.686 -2.6117  1.1837 -1.7778
 8406SOL    HW236855   4.662   2.765   5.723  0.3733  1.2348 -1.8621
 8407SOL     OW36856   2.673   4.264   3.457  0.0314 -0.4497 -0.1949
 8407SOL    HW136857   2.582   4.274   3.484  0.0365 -2.0771  0.4639
 8407SOL    HW236858   2.721   4.266   3.541 -1.2730  0.2669  0.5294
 8408SOL     OW36859   2.920   0.975   5.636  0.3895  0.6112  0.3670
 8408SOL    HW136860   2.859   1.005   5.704  1.1404 -1.0760  1.7688
 8408SOL    HW236861   2.959   1.059   5.613  1.2598  0.1226  0.0535
 8409SOL     OW36862   4.637   1.496   4.574  0.0523  0.0339  0.2039
 8409SOL    HW136863   4.595   1.582   4.566  0.4108  0.4485  2.9564
 8409SOL    HW236864   4.632   1.475   4.667  2.6852 -1.3587  0.0110
 8410SOL     OW36865   1.017   4.622  16.204  0.3712  0.4848  0.1961
 8410SOL    HW136866   1.043   4.700  16.155 -1.3008 -0.1572 -1.7072
 8410SOL    HW236867   0.934   4.604  16.161  0.8651 -1.9092  0.2289
 8411SOL     OW36868   1.469   3.928   5.569  0.5552 -0.0827  0.3106
 8411SOL    HW136869   1.523   3.856   5.602  0.2803  0.4460  1.8929
 8411SOL    HW236870   1.491   3.930   5.476  1.0956  1.0985  0.4661
 8412SOL     OW36871   1.640   2.075  11.388 -0.2022  0.2029 -0.3639
 8412SOL    HW136872   1.547   2.093  11.401  0.1998  2.0024  0.0296
 8412SOL    HW236873   1.679   2.162  11.395 -1.2445  0.6074  0.4286
 8413SOL     OW36874   2.361   0.412   9.389  0.4388  0.9400 -0.1420
 8413SOL    HW136875   2.348   0.394   9.482  1.7976 -1.6059 -0.4492
 8413SOL    HW236876   2.451   0.443   9.384  0.4352  0.8170 -0.9813
 8414SOL     OW36877   4.140   0.786   3.102  0.4496 -0.1095  0.2820
 8414SOL    HW136878   4.214   0.773   3.162  0.5316  0.3747  0.2898
 8414SOL    HW236879   4.162   0.744   3.019 -1.0098  0.3262 -0.3196
 8415SOL     OW36880   1.253   4.548   3.645 -0.3418 -0.1372 -0.0159
 8415SOL    HW136881   1.268   4.474   3.586 -0.0011 -0.8718  0.9892
 8415SOL    HW236882   1.192   4.516   3.710  1.5126 -4.2384 -0.2651
 8416SOL     OW36883   1.623   3.617   6.982 -0.5547  0.1431  0.1877
 8416SOL    HW136884   1.688   3.566   7.031 -2.3425 -1.6307  0.6843
 8416SOL    HW236885   1.669   3.639   6.901 -0.6278  2.2702  0.7076
 8417SOL     OW36886   1.246   3.864   7.006  0.3014 -0.1507  0.0011
 8417SOL    HW136887   1.155   3.870   6.975  0.4393  0.4278 -0.2866
 8417SOL    HW236888   1.227   3.895   7.095  1.9797  3.2560 -0.8259
 8418SOL     OW36889   1.690   2.930  11.683 -0.6256 -0.6345  0.1891
 8418SOL    HW136890   1.617   2.990  11.668 -0.1864 -0.2074 -0.2752
 8418SOL    HW236891   1.767   2.988  11.681 -1.8138  0.9711  1.2610
 8419SOL     OW36892   1.759   3.356   1.892 -0.2555 -0.5936  0.6548
 8419SOL    HW136893   1.746   3.346   1.798 -0.7382  1.4558  0.5058
 8419SOL    HW236894   1.840   3.311   1.915 -0.5572 -2.4034 -1.9009
 8420SOL     OW36895   3.202   2.864  12.050  0.3340 -0.6492 -0.4286
 8420SOL    HW136896   3.179   2.899  11.964 -0.0117 -0.4489 -0.2526
 8420SOL    HW236897   3.297   2.873  12.058  0.4386 -1.0267 -1.1937
 8421SOL     OW36898   3.036   3.344  12.834  0.0728 -0.1639 -0.2142
 8421SOL    HW136899   3.064   3.289  12.907  0.5409 -0.8108 -0.8837
 8421SOL    HW236900   3.078   3.424  12.867  0.2376 -0.2272 -0.2708
 8422SOL     OW36901   4.048   4.092   5.845  0.5263 -0.4125  0.3478
 8422SOL    HW136902   3.979   4.158   5.844  0.6746 -0.2538  0.7442
 8422SOL    HW236903   4.084   4.106   5.933  0.1644  1.1268  0.2558
 8423SOL     OW36904   4.532   0.541   4.643  0.2472 -0.2881 -0.2294
 8423SOL    HW136905   4.475   0.602   4.690 -1.7977 -3.4345  1.3155
 8423SOL    HW236906   4.548   0.590   4.562  2.0406 -0.5767 -0.0399
 8424SOL     OW36907   3.321   1.492   2.281 -0.3180 -0.1727  0.6673
 8424SOL    HW136908   3.240   1.535   2.308 -0.1571  0.2510  0.4874
 8424SOL    HW236909   3.278   1.408   2.266  0.2307 -0.6563  1.7498
 8425SOL     OW36910   2.289   2.897  14.483  0.2764  0.0563  0.5958
 8425SOL    HW136911   2.221   2.855  14.535  0.6502 -1.3614 -0.0560
 8425SOL    HW236912   2.362   2.834  14.480  0.6343  0.5901 -1.7743
 8426SOL     OW36913   0.579   3.488   8.009  0.4188 -0.1825 -0.0489
 8426SOL    HW136914   0.596   3.394   8.006  1.8429  0.1230 -1.3150
 8426SOL    HW236915   0.669   3.518   8.017  1.0133 -1.4118 -1.9454
 8427SOL     OW36916   1.857   1.129   1.331  0.1736 -0.7731  0.1439
 8427SOL    HW136917   1.840   1.201   1.271  1.7740 -0.3445  0.2041
 8427SOL    HW236918   1.871   1.062   1.264 -1.2028  0.6428 -1.5735
 8428SOL     OW36919   2.877   2.256  14.621 -0.0791 -0.2851 -0.0767
 8428SOL    HW136920   2.873   2.217  14.708 -1.2626  0.2928  0.1388
 8428SOL    HW236921   2.804   2.205  14.586  0.7064 -1.4732  0.0392
 8429SOL     OW36922   2.603   0.477   7.824  0.0481  0.7936  0.2036
 8429SOL    HW136923   2.572   0.491   7.914 -1.3319 -0.4185 -0.0945
 8429SOL    HW236924   2.687   0.432   7.837 -0.7187 -1.2662 -2.0605
 8430SOL     OW36925   2.361   2.840   4.187 -0.3389 -0.3801 -0.3587
 8430SOL    HW136926   2.408   2.892   4.122 -0.0868 -0.8823 -0.5763
 8430SOL    HW236927   2.385   2.895   4.262 -1.2731  2.7225 -2.3256
 8431SOL     OW36928   2.713   3.677   2.003 -0.3039 -0.2048 -0.5506
 8431SOL    HW136929   2.625   3.708   1.982  0.2362  1.9719  0.4372
 8431SOL    HW236930   2.692   3.607   2.064  2.0314 -1.8916 -1.6844
 8432SOL     OW36931   2.587   2.055   8.260 -0.3382 -0.5966 -0.1872
 8432SOL    HW136932   2.624   1.974   8.295 -1.9761 -0.7495  1.2225
 8432SOL    HW236933   2.655   2.121   8.249 -0.3984 -0.0025  2.8327
 8433SOL     OW36934   4.506   0.500   3.310 -0.7015  0.2786  0.2274
 8433SOL    HW136935   4.578   0.514   3.249 -0.2863  0.5906  0.7911
 8433SOL    HW236936   4.434   0.458   3.263  1.0600 -2.2842 -0.1529
 8434SOL     OW36937   3.527   1.992   1.398 -0.0685  0.9291 -0.1473
 8434SOL    HW136938   3.496   2.083   1.405 -0.8816  0.5798  0.6512
 8434SOL    HW236939   3.596   1.973   1.462 -1.3617  0.9227  1.2308
 8435SOL     OW36940   0.494   3.999   2.237  0.4720 -0.5132  0.1806
 8435SOL    HW136941   0.547   4.070   2.276 -0.8174  0.9975 -0.8265
 8435SOL    HW236942   0.440   4.052   2.179 -0.8168 -2.7413 -0.5979
 8436SOL     OW36943   4.316   2.703  10.867  0.2937 -0.2555  0.9746
 8436SOL    HW136944   4.222   2.712  10.852  0.2757 -0.4544  0.9592
 8436SOL    HW236945   4.331   2.608  10.872  0.6132 -0.4962 -4.2873
 8437SOL     OW36946   4.351   3.093   3.517 -0.1267 -0.7081  0.3237
 8437SOL    HW136947   4.399   3.012   3.532  1.6037  0.1669 -0.4886
 8437SOL    HW236948   4.416   3.150   3.558  0.4619 -1.4863  0.4694
 8438SOL     OW36949   1.054   3.365   7.885  0.0716 -0.1981  0.3889
 8438SOL    HW136950   1.031   3.299   7.950 -1.0920  0.0263  0.2103
 8438SOL    HW236951   0.972   3.368   7.836  0.2131 -1.3485  0.0632
 8439SOL     OW36952   0.952   0.305  17.409 -0.3991 -0.1446  0.0393
 8439SOL    HW136953   1.025   0.254  17.443  1.0337  1.2621 -0.8932
 8439SOL    HW236954   0.881   0.303  17.473  0.1213  0.6777  0.6444
 8440SOL     OW36955   4.527   0.907  11.371  0.2310  0.2406 -1.0577
 8440SOL    HW136956   4.486   0.992  11.361  0.3720 -0.0296 -3.8308
 8440SOL    HW236957   4.465   0.856  11.319 -0.3705  0.4918 -0.5926
 8441SOL     OW36958   2.124   2.036   7.475  0.1094 -0.2385 -0.4000
 8441SOL    HW136959   2.046   2.083   7.505 -0.0494  0.4884 -1.9479
 8441SOL    HW236960   2.078   1.970   7.422 -0.4426  0.8261 -1.2594
 8442SOL     OW36961   1.185   4.485  13.899  0.1506 -0.2756 -0.1529
 8442SOL    HW136962   1.246   4.412  13.894  1.6850  1.0867 -1.3316
 8442SOL    HW236963   1.155   4.459  13.986  0.1652  0.7558  0.1628
 8443SOL     OW36964   2.081   3.219   4.312  0.1292 -0.1490  0.2054
 8443SOL    HW136965   2.087   3.298   4.366 -2.4579  0.0829  0.1493
 8443SOL    HW236966   2.076   3.265   4.228 -0.3626  0.8714  0.7973
 8444SOL     OW36967   2.383   3.656  13.122 -0.0731 -0.6181  0.0818
 8444SOL    HW136968   2.400   3.670  13.215  0.9194 -0.6815 -0.0915
 8444SOL    HW236969   2.470   3.645  13.084 -0.0060 -0.0178  0.0697
 8445SOL     OW36970   1.481   4.201  15.001 -0.7238  0.0630 -0.0681
 8445SOL    HW136971   1.493   4.118  14.954  1.8348  0.6976 -0.4976
 8445SOL    HW236972   1.560   4.219  15.052 -1.0615  0.2944  0.3755
 8446SOL     OW36973   1.999   1.413   2.987  0.0258 -0.3231  0.3842
 8446SOL    HW136974   1.953   1.331   3.006 -1.6471  1.0126  2.0008
 8446SOL    HW236975   1.939   1.481   2.958 -0.5134 -0.3671  1.3955
 8447SOL     OW36976   0.793   0.667   3.023 -0.2413 -0.0920  0.2970
 8447SOL    HW136977   0.710   0.623   3.004 -1.4201  2.1651  0.2898
 8447SOL    HW236978   0.856   0.597   3.006 -0.7779  0.0064 -1.9971
 8448SOL     OW36979   2.619   1.004   2.718 -0.3664  0.1924 -0.3389
 8448SOL    HW136980   2.692   0.947   2.696 -0.0174  0.1246  1.0278
 8448SOL    HW236981   2.583   1.033   2.634  0.9764  0.2701 -0.8751
 8449SOL     OW36982   4.231   0.068   8.602  0.3015 -0.4167  0.5802
 8449SOL    HW136983   4.261   0.054   8.513  0.2370  2.9448  0.0107
 8449SOL    HW236984   4.195   0.157   8.600 -0.7170 -0.7376  3.6200
 8450SOL     OW36985   2.526   2.650   2.608 -0.4315 -0.7410 -0.4522
 8450SOL    HW136986   2.508   2.730   2.558 -3.6633 -0.4080  1.2578
 8450SOL    HW236987   2.602   2.622   2.558 -0.8110  0.0144 -1.4486
 8451SOL     OW36988   0.082   3.837  10.725  0.0783 -0.2297 -0.7237
 8451SOL    HW136989   0.161   3.887  10.704 -0.7829  2.4906  2.4090
 8451SOL    HW236990   0.035   3.841  10.642  2.0655 -0.1521 -1.8456
 8452SOL     OW36991   1.402   0.819   5.939  0.1486 -0.1587  0.0384
 8452SOL    HW136992   1.379   0.802   6.030 -0.9514 -2.3371 -0.6402
 8452SOL    HW236993   1.494   0.793   5.935  0.6503  1.3317  2.1401
 8453SOL     OW36994   3.542   4.694   9.005 -0.2325  0.3886 -0.0715
 8453SOL    HW136995   3.598   4.706   8.928 -0.9427 -0.0969 -0.6668
 8453SOL    HW236996   3.466   0.007   8.975 -1.5359 -0.1822  2.2832
 8454SOL     OW36997   0.437   0.186   4.948 -0.6439  0.8576  0.0905
 8454SOL    HW136998   0.370   0.121   4.930  0.3526 -0.7818  2.3498
 8454SOL    HW236999   0.502   0.163   4.882 -1.9704 -1.4451 -0.4047
 8455SOL     OW37000   0.880   2.439   5.169  0.6253 -0.2068  0.1260
 8455SOL    HW137001   0.888   2.349   5.138  1.5568 -1.0933  2.9507
 8455SOL    HW237002   0.877   2.420   5.263  1.1529  0.8010  0.3391
 8456SOL     OW37003   4.194   3.269   4.670  0.4089  0.6969  0.0583
 8456SOL    HW137004   4.239   3.233   4.594  0.7348  0.4061  0.3878
 8456SOL    HW237005   4.209   3.200   4.734 -0.3155  0.0489 -0.4781
 8457SOL     OW37006   4.459   0.574   1.955  0.1647  0.1521  0.8679
 8457SOL    HW137007   4.406   0.530   1.889  2.3063 -0.7769 -0.2550
 8457SOL    HW237008   4.502   0.642   1.903 -0.8984 -0.8391 -1.3050
 8458SOL     OW37009   3.059   0.356   7.450 -0.1990 -0.1984  0.5231
 8458SOL    HW137010   3.131   0.310   7.406 -0.6580 -0.0116 -0.4253
 8458SOL    HW237011   3.005   0.373   7.373  0.9198  1.4717  0.1041
 8459SOL     OW37012   3.803   3.990   8.919 -0.4116 -0.6744 -0.0345
 8459SOL    HW137013   3.890   3.951   8.910 -0.5352 -0.8922 -0.2780
 8459SOL    HW237014   3.779   3.954   9.004 -1.2587 -2.4574 -1.0199
 8460SOL     OW37015   4.621   0.139   2.645  0.3928 -0.0927 -0.2152
 8460SOL    HW137016   4.695   0.088   2.678  0.9293  0.2549 -0.8845
 8460SOL    HW237017   4.593   0.077   2.578 -1.1932 -0.1333  0.4833
 8461SOL     OW37018   0.938   0.024   6.647 -0.0269 -0.1463  0.1238
 8461SOL    HW137019   0.860   0.011   6.593 -1.8606 -1.4427  3.0683
 8461SOL    HW237020   0.912   0.104   6.693 -2.0787 -0.3662 -0.6574
 8462SOL     OW37021   2.873   4.498   7.602 -0.2151 -0.3889  0.3187
 8462SOL    HW137022   2.914   4.584   7.593  0.0772 -0.2670  3.0048
 8462SOL    HW237023   2.797   4.508   7.545 -0.1300  0.0001  0.2778
 8463SOL     OW37024   3.070   3.521   5.553  0.1879 -0.3203 -0.0140
 8463SOL    HW137025   3.119   3.553   5.478  0.4065 -0.3996  0.0957
 8463SOL    HW237026   3.003   3.589   5.563  0.5952 -0.0212  0.6784
 8464SOL     OW37027   3.895   2.855   9.202  0.0278 -0.4850 -0.0450
 8464SOL    HW137028   3.813   2.906   9.203 -0.5116 -1.3385 -0.6145
 8464SOL    HW237029   3.940   2.909   9.267 -1.6980  0.3865  0.4439
 8465SOL     OW37030   1.912   2.047   1.756  0.7928  0.3765 -0.1592
 8465SOL    HW137031   1.828   2.087   1.779  0.6849 -0.5995  1.1417
 8465SOL    HW237032   1.975   2.089   1.815  1.7954 -0.5501 -0.5876
 8466SOL     OW37033   1.466   1.524   3.763 -0.1706 -0.0356 -0.0526
 8466SOL    HW137034   1.484   1.460   3.695  0.6945  0.9646 -0.7549
 8466SOL    HW237035   1.476   1.486   3.851  1.3668 -0.1730 -0.2845
 8467SOL     OW37036   3.995   1.930   7.911 -0.3261  0.7225  0.4101
 8467SOL    HW137037   4.084   1.905   7.886 -0.1431  1.3954  0.3892
 8467SOL    HW237038   3.954   1.911   7.827  0.3062  0.5494  0.1406
 8468SOL     OW37039   2.489   2.082   3.390 -0.0567 -0.4573  0.0173
 8468SOL    HW137040   2.498   2.174   3.366 -1.0913 -0.2145  0.5744
 8468SOL    HW237041   2.416   2.055   3.335 -1.0234  0.2055  0.9812
 8469SOL     OW37042   2.305   0.593  14.412 -0.2864  0.2909  0.1916
 8469SOL    HW137043   2.399   0.588  14.395 -0.3467 -0.4629  0.0813
 8469SOL    HW237044   2.287   0.505  14.442  0.4336 -0.3787 -1.3144
 8470SOL     OW37045   1.819   0.804   5.340  0.6820  0.1842 -0.5674
 8470SOL    HW137046   1.748   0.816   5.277 -0.6000 -0.9960  0.6460
 8470SOL    HW237047   1.863   0.888   5.329 -0.2203  0.2413 -3.5492
 8471SOL     OW37048   1.110   3.708  10.718  0.4426  0.0720 -0.3285
 8471SOL    HW137049   1.084   3.793  10.753  0.0237  0.2885 -1.1814
 8471SOL    HW237050   1.179   3.671  10.774  0.8349 -0.7487 -1.3480
 8472SOL     OW37051   4.434   1.384  16.279 -0.3006 -0.1667  0.4442
 8472SOL    HW137052   4.470   1.467  16.308  1.1058 -0.7901  0.5009
 8472SOL    HW237053   4.362   1.407  16.220  1.4017 -0.0318 -1.5642
 8473SOL     OW37054   3.418   1.248   6.429 -0.4404  0.0254 -0.0947
 8473SOL    HW137055   3.385   1.320   6.483 -1.0837 -0.0703 -0.3665
 8473SOL    HW237056   3.511   1.272   6.426 -0.2060 -0.9434 -0.3978
 8474SOL     OW37057   1.652   1.345   1.780  0.1649 -0.2037 -0.7685
 8474SOL    HW137058   1.687   1.427   1.815  0.1905 -0.6502  0.2630
 8474SOL    HW237059   1.655   1.373   1.688 -1.0601 -2.3738 -1.4693
 8475SOL     OW37060   2.617   1.387   5.631 -0.1589  0.3609 -0.1020
 8475SOL    HW137061   2.571   1.359   5.552 -0.9796  4.1666 -0.9556
 8475SOL    HW237062   2.552   1.440   5.678  0.4440  0.8413  0.1919
 8476SOL     OW37063   3.816   2.249   4.533  0.8471 -0.3976  0.1445
 8476SOL    HW137064   3.885   2.194   4.496  0.8525  1.2959 -2.3062
 8476SOL    HW237065   3.745   2.241   4.470 -0.7650  2.2059  1.6178
 8477SOL     OW37066   0.667   3.847   9.557 -0.1277 -0.2989  0.0319
 8477SOL    HW137067   0.669   3.924   9.613 -0.4074  0.9134 -1.6399
 8477SOL    HW237068   0.758   3.845   9.526  0.8714 -0.2738  2.8713
 8478SOL     OW37069   4.474   1.574   6.772  0.2163  0.4786  0.1616
 8478SOL    HW137070   4.460   1.521   6.851  3.1501 -0.7938 -0.1459
 8478SOL    HW237071   4.558   1.548   6.734 -0.1528  0.7336 -0.8392
 8479SOL     OW37072   0.159   2.451   1.959  0.0084 -0.2218 -0.0964
 8479SOL    HW137073   0.138   2.364   1.993  0.6118 -0.2191  0.2836
 8479SOL    HW237074   0.192   2.438   1.870  1.0860  1.6928  0.0091
 8480SOL     OW37075   2.365   2.131   3.690  0.5657 -0.2644  0.3575
 8480SOL    HW137076   2.432   2.086   3.638  1.5632 -0.0191  1.4512
 8480SOL    HW237077   2.369   2.218   3.650  0.1646 -0.9017 -1.0895
 8481SOL     OW37078   3.322   1.975   3.546 -0.1282 -0.7222 -0.0052
 8481SOL    HW137079   3.398   2.021   3.582 -1.3235  0.7539  0.5905
 8481SOL    HW237080   3.291   1.914   3.613 -0.5183 -2.2192 -1.5527
 8482SOL     OW37081   3.790   0.772   6.592  0.5248 -0.1117  0.0420
 8482SOL    HW137082   3.805   0.803   6.681  0.0097  0.7172 -0.1572
 8482SOL    HW237083   3.861   0.822   6.551  0.6732 -0.1398  0.2682
 8483SOL     OW37084   0.765   3.636   2.165  0.0101 -0.0300 -0.0830
 8483SOL    HW137085   0.831   3.704   2.152  0.0191 -0.3768 -1.8589
 8483SOL    HW237086   0.746   3.672   2.252  1.9646 -1.5415  0.9611
 8484SOL     OW37087   4.619   4.553   6.828 -1.0267  0.1859 -0.5759
 8484SOL    HW137088   4.593   4.581   6.741  2.4779 -1.4739 -2.1567
 8484SOL    HW237089   4.570   4.626   6.867 -0.8082 -0.7682  1.5225
 8485SOL     OW37090   3.035   3.172   2.948 -0.6413 -0.3168 -0.2419
 8485SOL    HW137091   3.101   3.178   2.878  0.0978 -2.9873  0.2241
 8485SOL    HW237092   3.039   3.078   2.963  1.2013 -0.2836 -0.5009
 8486SOL     OW37093   2.347   1.313   7.216 -0.2216 -0.0510  0.7003
 8486SOL    HW137094   2.329   1.288   7.306  0.6984  0.7414  1.1011
 8486SOL    HW237095   2.328   1.407   7.217  0.0946  0.0262 -0.5259
 8487SOL     OW37096   1.300   3.036   7.572  0.4245 -0.2761 -0.3005
 8487SOL    HW137097   1.365   3.092   7.616  1.6416 -2.4932  0.7437
 8487SOL    HW237098   1.270   2.983   7.646 -1.4950 -0.0150 -0.8985
 8488SOL     OW37099   1.452   2.140   1.100  0.4581  0.3571  0.0339
 8488SOL    HW137100   1.536   2.098   1.115  0.1775  0.2343  1.3230
 8488SOL    HW237101   1.383   2.078   1.076 -0.3132  1.8748 -1.7171
 8489SOL     OW37102   0.600   4.298   0.842  0.7020 -0.5915 -0.2724
 8489SOL    HW137103   0.521   4.344   0.870  0.9578  0.3631 -1.1401
 8489SOL    HW237104   0.588   4.313   0.748 -0.1256  1.1499  0.1109
 8490SOL     OW37105   2.136   4.575   7.969 -0.2734  0.4572 -0.4284
 8490SOL    HW137106   2.051   4.562   8.011  0.2702 -1.3252  0.1344
 8490SOL    HW237107   2.152   4.486   7.939 -0.5068  0.3126 -0.1278
 8491SOL     OW37108   0.899   0.038   7.518 -0.2470 -0.3930 -0.2241
 8491SOL    HW137109   0.897   4.702   7.579 -0.1703 -0.6447 -0.5237
 8491SOL    HW237110   0.992   0.062   7.523 -0.0749 -1.0020 -0.3724
 8492SOL     OW37111   3.501   2.794   3.679 -0.2754  0.0677  0.4246
 8492SOL    HW137112   3.576   2.852   3.665 -2.0848  2.1983 -0.4377
 8492SOL    HW237113   3.549   2.719   3.644 -1.7017 -1.1068  1.0226
 8493SOL     OW37114   1.098   4.650  13.516  0.9516 -0.8451 -0.1303
 8493SOL    HW137115   1.044   4.684  13.444 -0.0005  0.4577  1.1947
 8493SOL    HW237116   1.048   4.570  13.535  2.0142 -1.2494  0.9515
 8494SOL     OW37117   4.192   0.044   7.253  0.1447  0.2355 -0.0702
 8494SOL    HW137118   4.142   0.089   7.184  1.5731  0.5193 -0.9256
 8494SOL    HW237119   4.263   0.108   7.259 -0.6023  1.0429  0.1637
 8495SOL     OW37120   0.772   4.199   8.224 -0.1053  0.2200 -0.3951
 8495SOL    HW137121   0.754   4.212   8.316  0.5671  1.5429 -0.4601
 8495SOL    HW237122   0.770   4.105   8.242 -1.7845  0.8993  2.8186
 8496SOL     OW37123   3.165   4.489   9.097 -0.4845  0.8848  0.3897
 8496SOL    HW137124   3.246   4.518   9.138 -0.5791 -0.6975  1.7096
 8496SOL    HW237125   3.184   4.443   9.014 -1.5415  1.1181  0.0247
 8497SOL     OW37126   1.551   0.444  11.054 -0.6327 -0.0324 -0.2277
 8497SOL    HW137127   1.511   0.454  11.141 -1.3064  1.1448 -0.6698
 8497SOL    HW237128   1.552   0.348  11.050 -0.8909 -0.1659  2.3816
 8498SOL     OW37129   0.511   3.230   8.907  0.0356  0.2884  0.0607
 8498SOL    HW137130   0.512   3.306   8.849 -1.0007  1.0374  1.0263
 8498SOL    HW237131   0.492   3.275   8.989 -0.7961 -0.5000  0.3077
 8499SOL     OW37132   3.002   0.273   9.756 -0.5719 -0.0921 -0.0893
 8499SOL    HW137133   3.009   0.178   9.748  2.5316  0.0900  0.6905
 8499SOL    HW237134   3.086   0.305   9.725 -0.3537  0.6341  1.2653
 8500SOL     OW37135   4.632   1.433  14.061 -0.2952 -0.0183  0.1663
 8500SOL    HW137136   4.546   1.474  14.047 -1.6492 -2.6646  0.7052
 8500SOL    HW237137   4.665   1.425  13.972 -0.2664  0.6155  0.1177
 8501SOL     OW37138   2.465   4.017   8.772 -0.0019  0.3673 -0.2729
 8501SOL    HW137139   2.504   4.040   8.687  0.3463  2.6300  0.4940
 8501SOL    HW237140   2.374   4.030   8.748  0.0148 -3.2751 -2.3322
 8502SOL     OW37141   3.256   2.957   8.476 -0.0120  0.2391 -0.3088
 8502SOL    HW137142   3.222   3.015   8.544 -1.0912  0.2324 -0.8498
 8502SOL    HW237143   3.284   3.018   8.408 -0.0427  1.2302  0.5722
 8503SOL     OW37144   3.363   2.988   8.923 -0.0469 -0.8492  0.3411
 8503SOL    HW137145   3.375   2.967   9.016  1.9676 -0.5699  0.1365
 8503SOL    HW237146   3.276   2.949   8.916 -0.2910  0.2754 -2.6012
 8504SOL     OW37147   3.092   1.472  11.974  0.7587  0.2398  0.5609
 8504SOL    HW137148   3.017   1.531  11.973 -0.9066 -1.8874  0.0476
 8504SOL    HW237149   3.171   1.526  11.977  0.5173  0.4409  3.2178
 8505SOL     OW37150   1.385   0.688   4.337  0.3351  0.0794  0.4297
 8505SOL    HW137151   1.320   0.622   4.313 -1.1708  2.4736 -2.1966
 8505SOL    HW237152   1.464   0.634   4.336  0.2197 -0.0857  0.2431
 8506SOL     OW37153   1.943   4.449   4.136 -0.0989 -0.3344  0.4836
 8506SOL    HW137154   1.931   4.544   4.135 -1.4520 -0.5185  0.3553
 8506SOL    HW237155   1.924   4.440   4.230  2.4833  1.2264  1.1451
 8507SOL     OW37156   0.108   4.479  11.884  0.1657 -0.0408  0.1523
 8507SOL    HW137157   0.128   4.455  11.794  0.2723  0.3134  0.0827
 8507SOL    HW237158   0.175   4.432  11.934 -1.0293 -1.8601  0.0541
 8508SOL     OW37159   2.783   4.092  17.562 -1.1938  0.1677 -0.2714
 8508SOL    HW137160   2.716   4.048  17.614  0.2064 -0.4572  1.0178
 8508SOL    HW237161   2.825   4.014  17.525 -0.6144  1.5169 -2.4419
 8509SOL     OW37162   3.283   2.522  12.027  0.3686  0.4162  0.7247
 8509SOL    HW137163   3.309   2.614  12.035  2.3794 -0.1324  0.4561
 8509SOL    HW237164   3.210   2.512  12.088 -1.5331  1.0724 -1.4566
 8510SOL     OW37165   4.497   2.267   2.958  0.3124  0.0113  0.1670
 8510SOL    HW137166   4.583   2.269   3.000 -0.7064  0.3494  2.2526
 8510SOL    HW237167   4.436   2.231   3.023  1.1252  0.6101  1.2613
 8511SOL     OW37168   2.116   2.200  14.574 -0.2361 -0.5232  0.6092
 8511SOL    HW137169   2.087   2.290  14.583 -1.2924 -0.6449 -1.6608
 8511SOL    HW237170   2.155   2.181  14.489 -0.4874  1.9663 -0.0617
 8512SOL     OW37171   1.028   4.674   2.134 -0.8035  0.8967 -0.2713
 8512SOL    HW137172   1.019   4.602   2.072  2.9676  1.1874 -1.1525
 8512SOL    HW237173   1.062   0.002   2.075  1.3079 -0.8265 -0.9854
 8513SOL     OW37174   0.087   1.837   6.485 -0.1905  0.4606 -0.3902
 8513SOL    HW137175   0.134   1.854   6.403 -0.7934  1.5404 -0.5076
 8513SOL    HW237176   0.053   1.749   6.469  0.9306 -0.4023  1.9400
 8514SOL     OW37177   2.604   2.053  13.557  0.7807  0.2645 -0.3549
 8514SOL    HW137178   2.678   2.060  13.618  0.5616  1.2623 -0.1936
 8514SOL    HW237179   2.537   2.039  13.623 -0.3162 -1.5321 -1.8750
 8515SOL     OW37180   4.361   1.375   9.776  0.6963 -0.2566  0.1677
 8515SOL    HW137181   4.331   1.380   9.685 -2.1897  0.3864  1.1771
 8515SOL    HW237182   4.448   1.334   9.767 -1.1190 -4.0905 -0.0019
 8516SOL     OW37183   0.617   4.279   5.616 -0.0575 -0.2547 -0.5636
 8516SOL    HW137184   0.623   4.198   5.565 -0.2748 -0.3994 -0.3622
 8516SOL    HW237185   0.703   4.284   5.657 -0.3534  3.1586 -0.3798
 8517SOL     OW37186   1.667   0.596   6.111  0.3706 -0.4796 -0.3354
 8517SOL    HW137187   1.702   0.507   6.100  0.1979 -0.6078  0.1363
 8517SOL    HW237188   1.715   0.633   6.038  0.3014  0.5568  0.1469
 8518SOL     OW37189   0.111   2.233  14.565 -0.2254  0.6648  0.7930
 8518SOL    HW137190   0.131   2.314  14.519  1.8618  0.7058  1.7688
 8518SOL    HW237191   0.064   2.263  14.643  0.2886  1.6833  0.7110
 8519SOL     OW37192   2.134   2.372   8.281  0.1440  0.2966  0.3686
 8519SOL    HW137193   2.081   2.336   8.352  0.4711 -0.0459  0.4390
 8519SOL    HW237194   2.214   2.359   8.332  1.6870 -0.4934 -2.2217
 8520SOL     OW37195   1.397   1.961   6.350  0.0143  0.2194 -0.0102
 8520SOL    HW137196   1.433   2.019   6.417  2.1800  0.6423 -1.5678
 8520SOL    HW237197   1.323   1.932   6.404  0.3558  0.4821  0.6091
 8521SOL     OW37198   2.420   0.646   2.364  0.3440  0.2925  0.1919
 8521SOL    HW137199   2.341   0.644   2.310 -0.0689 -0.2770  0.8233
 8521SOL    HW237200   2.452   0.558   2.349 -0.5507  0.2451 -1.4637
 8522SOL     OW37201   2.113   1.567   5.773  0.2587  0.1873 -0.2200
 8522SOL    HW137202   2.042   1.526   5.822 -1.6333  4.5241  0.5840
 8522SOL    HW237203   2.068   1.564   5.688  0.6602  0.3054 -0.4348
 8523SOL     OW37204   0.174   1.866   7.902 -0.0579 -0.1467 -0.0189
 8523SOL    HW137205   0.088   1.823   7.901 -0.0733 -0.0993 -1.0031
 8523SOL    HW237206   0.160   1.918   7.981  1.6804  0.8364 -0.3523
 8524SOL     OW37207   4.036   2.058   2.718 -0.1856 -0.2514 -0.3579
 8524SOL    HW137208   4.007   2.026   2.803 -0.4191 -0.1272 -0.3909
 8524SOL    HW237209   3.973   2.007   2.667 -0.5935 -2.1086  2.0031
 8525SOL     OW37210   2.554   3.710   0.124  0.3738  0.3126 -0.5619
 8525SOL    HW137211   2.473   3.729   0.172  0.1795 -0.5987 -0.5121
 8525SOL    HW237212   2.607   3.658   0.185 -0.2670  0.4239  0.1053
 8526SOL     OW37213   1.704   0.243   7.658  0.7831  0.8330  0.1465
 8526SOL    HW137214   1.723   0.179   7.727  1.6901 -0.9549 -1.7993
 8526SOL    HW237215   1.779   0.236   7.600  2.0278  2.6967  1.5313
 8527SOL     OW37216   2.027   1.422   1.461 -0.3393  0.1265 -0.0961
 8527SOL    HW137217   2.080   1.492   1.423  0.6665  0.3815  1.7639
 8527SOL    HW237218   1.943   1.468   1.468 -0.5134 -0.1199 -0.5966
 8528SOL     OW37219   3.682   3.555   5.512  0.0720  0.0778  0.2074
 8528SOL    HW137220   3.760   3.517   5.471 -0.8076 -0.6271 -0.8003
 8528SOL    HW237221   3.657   3.477   5.561 -0.9182 -0.2984 -0.9034
 8529SOL     OW37222   2.511   0.729   5.302 -0.2770 -0.5224  0.3959
 8529SOL    HW137223   2.584   0.668   5.301  0.3000  0.1871 -1.0929
 8529SOL    HW237224   2.498   0.746   5.396 -1.5943  0.9227 -0.0287
 8530SOL     OW37225   1.286   1.707   3.551  0.1404 -0.3867  0.0945
 8530SOL    HW137226   1.209   1.760   3.531 -0.7310 -2.4269 -1.9304
 8530SOL    HW237227   1.342   1.743   3.482  0.0493 -0.2794  0.0753
 8531SOL     OW37228   2.372   1.165  12.798  0.4107  0.4542  0.7243
 8531SOL    HW137229   2.350   1.150  12.890  1.6580  1.1959  1.1442
 8531SOL    HW237230   2.333   1.252  12.794 -0.5485 -0.0444 -0.9113
 8532SOL     OW37231   0.495   1.248  11.145  0.2242 -0.4021  0.0768
 8532SOL    HW137232   0.581   1.287  11.151 -1.4145  2.8475  2.0641
 8532SOL    HW237233   0.523   1.165  11.105  1.4185  0.2627 -0.4516
 8533SOL     OW37234   4.215   1.258  10.246 -0.2243 -0.1937  0.4001
 8533SOL    HW137235   4.126   1.221  10.245 -0.2462 -0.1319  0.1366
 8533SOL    HW237236   4.209   1.302  10.161 -2.9555 -1.6655 -0.1704
 8534SOL     OW37237   3.270   1.660   1.129 -0.5050 -0.0847 -0.1987
 8534SOL    HW137238   3.323   1.717   1.074  0.1610  2.1716  2.7663
 8534SOL    HW237239   3.196   1.721   1.134 -0.1742  0.3387 -0.4153
 8535SOL     OW37240   3.787   1.933  17.657 -0.0976  0.2302 -0.3179
 8535SOL    HW137241   3.715   1.891  17.704  1.2427  0.9347  2.3728
 8535SOL    HW237242   3.752   1.918  17.569 -0.2556  0.4606 -0.2946
 8536SOL     OW37243   4.689   1.659   8.264  0.2050 -0.1780  0.0178
 8536SOL    HW137244   4.735   1.644   8.346  1.3550  1.7414 -0.2719
 8536SOL    HW237245   4.660   1.568   8.264  1.3929 -0.5659  0.2089
 8537SOL     OW37246   1.289   2.605  14.591  0.0993  0.4112  0.0411
 8537SOL    HW137247   1.305   2.683  14.643  0.0269  0.1514  0.4529
 8537SOL    HW237248   1.195   2.613  14.576 -0.1598 -2.8463 -0.1561
 8538SOL     OW37249   4.573   1.848   3.377 -0.2307 -0.2975  0.1353
 8538SOL    HW137250   4.551   1.870   3.467 -2.0053  1.0417 -0.6258
 8538SOL    HW237251   4.517   1.773   3.356  1.5752 -1.1075 -1.8229
 8539SOL     OW37252   3.646   3.956  14.606  0.8442 -0.1791 -0.6527
 8539SOL    HW137253   3.611   4.005  14.532 -0.5431 -0.7611 -0.3945
 8539SOL    HW237254   3.733   3.995  14.608  2.0154 -2.7860 -1.1063
 8540SOL     OW37255   1.946   3.289   3.838 -0.3396  0.6554  0.0532
 8540SOL    HW137256   1.956   3.379   3.807 -2.8044  0.5983 -0.9226
 8540SOL    HW237257   1.863   3.257   3.802  0.1070  2.9921 -3.0327
 8541SOL     OW37258   2.316   3.616   6.200 -0.0872 -0.7577 -0.0013
 8541SOL    HW137259   2.257   3.684   6.167 -0.0110  0.2143  1.8714
 8541SOL    HW237260   2.385   3.613   6.134 -1.0854 -1.4402 -1.0358
 8542SOL     OW37261   1.647   1.627   4.564  0.3703  0.0308  0.9716
 8542SOL    HW137262   1.740   1.652   4.566  0.3603  0.2583 -2.0016
 8542SOL    HW237263   1.616   1.698   4.509 -0.1989  0.2309  1.5541
 8543SOL     OW37264   4.385   0.160   8.382 -0.0550 -0.1395 -0.4326
 8543SOL    HW137265   4.401   0.218   8.308  3.6717 -0.6852 -0.0527
 8543SOL    HW237266   4.427   0.207   8.454 -1.4619  1.4238 -0.6438
 8544SOL     OW37267   1.370   2.217  13.822  0.2890  0.2307 -0.7608
 8544SOL    HW137268   1.372   2.193  13.915  1.4571 -0.9855 -1.0935
 8544SOL    HW237269   1.456   2.183  13.799 -0.0166  0.9337 -2.8619
 8545SOL     OW37270   3.602   4.726   4.284 -0.1720 -0.3459 -0.0196
 8545SOL    HW137271   3.618   4.651   4.342 -2.0402  0.4728  1.5494
 8545SOL    HW237272   3.543   4.681   4.223 -0.1966  1.0748 -1.0202
 8546SOL     OW37273   0.178   1.766   8.881  0.0411 -0.2490  0.0124
 8546SOL    HW137274   0.251   1.813   8.840 -0.8666 -0.2664 -1.6208
 8546SOL    HW237275   0.106   1.829   8.874 -1.0233 -1.6683 -1.5675
 8547SOL     OW37276   2.857   1.096  13.367  0.5887  0.4438  0.5042
 8547SOL    HW137277   2.899   1.175  13.401  0.9760  1.9557 -3.4723
 8547SOL    HW237278   2.931   1.039  13.347 -0.0702 -0.0546 -0.5008
 8548SOL     OW37279   0.941   0.993  14.398 -0.2219 -0.5989  0.0176
 8548SOL    HW137280   0.957   0.901  14.379 -0.0840 -0.0991 -2.3633
 8548SOL    HW237281   0.997   1.015  14.473 -2.2703  1.1001  1.0620
 8549SOL     OW37282   2.336   4.700   9.416 -0.3078 -0.8434 -0.3315
 8549SOL    HW137283   2.353   4.708   9.322  0.5124 -0.6914 -0.1674
 8549SOL    HW237284   2.251   0.006   9.429 -1.3274 -1.9369 -3.1661
 8550SOL     OW37285   0.357   1.384  13.512  0.4931 -0.0703  0.0945
 8550SOL    HW137286   0.337   1.334  13.591  0.1687  1.1444  0.7837
 8550SOL    HW237287   0.440   1.431  13.522  0.5502 -0.4690  1.4119
 8551SOL     OW37288   2.833   2.035   2.567 -0.0187 -0.1934 -0.1246
 8551SOL    HW137289   2.770   1.985   2.619 -0.1384  1.1187  0.9856
 8551SOL    HW237290   2.916   1.990   2.582  1.0681  2.2116  0.9890
 8552SOL     OW37291   4.512   0.918  14.724  0.4391 -0.4507  0.3441
 8552SOL    HW137292   4.578   0.974  14.684 -0.0679  1.2136  1.8746
 8552SOL    HW237293   4.466   0.878  14.650  0.1249 -1.5810  1.1477
 8553SOL     OW37294   3.704   2.124   4.199  0.1771  0.0113 -0.0247
 8553SOL    HW137295   3.797   2.148   4.191  0.2885 -0.2124  0.5825
 8553SOL    HW237296   3.706   2.045   4.146 -1.6224  0.2822 -0.4877
 8554SOL     OW37297   3.804   4.702   0.894  0.6404 -0.2180 -0.2581
 8554SOL    HW137298   3.879   4.681   0.838  0.8363 -0.8991  0.2488
 8554SOL    HW237299   3.835   4.679   0.982 -1.5659 -2.3188 -0.0326
 8555SOL     OW37300   3.887   2.036   2.951 -0.1390  0.5268  0.8759
 8555SOL    HW137301   3.811   2.045   2.895 -1.1942 -1.1100  2.0428
 8555SOL    HW237302   3.867   2.072   3.037  0.4766  0.2291  1.1419
 8556SOL     OW37303   0.254   3.071   1.772  0.1025  0.4579 -0.4167
 8556SOL    HW137304   0.281   3.090   1.862 -0.0123 -0.6869 -0.1496
 8556SOL    HW237305   0.259   3.159   1.735 -0.0483  0.1635 -1.1430
 8557SOL     OW37306   1.807   4.463  14.101 -0.2490  0.2650  0.0633
 8557SOL    HW137307   1.749   4.522  14.150 -1.2047 -1.1050  0.5936
 8557SOL    HW237308   1.760   4.379  14.102 -0.9263  0.6663  3.0271
 8558SOL     OW37309   1.233   3.684   6.356  0.1478  0.2651  0.1180
 8558SOL    HW137310   1.163   3.627   6.386 -0.9883  1.3273 -0.5146
 8558SOL    HW237311   1.303   3.619   6.346  0.7205  0.8704  0.1817
 8559SOL     OW37312   2.375   0.449   0.362 -0.4715 -0.1423 -0.1710
 8559SOL    HW137313   2.370   0.384   0.431 -0.8237 -2.5984 -2.5032
 8559SOL    HW237314   2.469   0.461   0.344 -0.1717 -1.4340  0.6039
 8560SOL     OW37315   4.512   3.916   7.653  0.9631 -0.0305 -0.3401
 8560SOL    HW137316   4.460   3.949   7.726 -0.5767 -2.1975 -0.4289
 8560SOL    HW237317   4.548   3.993   7.609  0.9592  0.3618  0.3516
 8561SOL     OW37318   4.448   1.844   6.752 -0.0582  0.0723  0.2497
 8561SOL    HW137319   4.442   1.749   6.761  1.6432 -0.1610 -0.9450
 8561SOL    HW237320   4.457   1.855   6.657 -1.0463 -0.0935  0.1363
 8562SOL     OW37321   1.634   4.216   5.354  0.0243 -0.6727  0.3259
 8562SOL    HW137322   1.653   4.125   5.375  1.4473 -0.4214  0.1227
 8562SOL    HW237323   1.718   4.250   5.385 -0.0178 -0.9261  0.7100
 8563SOL     OW37324   1.634   1.366   5.024 -0.6469 -0.3454 -0.0643
 8563SOL    HW137325   1.701   1.379   5.091 -1.5100  1.7172  0.3788
 8563SOL    HW237326   1.680   1.398   4.946  1.1321 -1.6016  0.4492
 8564SOL     OW37327   1.007   4.695   6.381  0.0081 -1.0966 -0.3885
 8564SOL    HW137328   1.002   4.733   6.469  1.2820 -1.3776 -0.1918
 8564SOL    HW237329   1.063   4.622   6.406 -0.7066 -1.3729  0.4012
 8565SOL     OW37330   3.387   2.252  13.674 -0.3808 -0.3732  0.1110
 8565SOL    HW137331   3.407   2.314  13.744  1.6595 -0.4936 -0.3595
 8565SOL    HW237332   3.292   2.247  13.679 -0.2913 -0.2204  1.9884
 8566SOL     OW37333   2.004   0.935   2.526 -0.5727 -0.0421 -0.2109
 8566SOL    HW137334   1.961   1.001   2.471 -0.5278  0.8764  0.8433
 8566SOL    HW237335   1.937   0.922   2.593  0.3546  0.0026  0.7316
 8567SOL     OW37336   4.163   3.997   2.228  0.1157 -0.3759 -0.0883
 8567SOL    HW137337   4.151   3.996   2.323 -1.5416  1.5047 -0.2672
 8567SOL    HW237338   4.185   4.090   2.217 -3.3677  0.3592 -1.0025
 8568SOL     OW37339   2.225   1.827   6.305  0.3433 -0.3818 -0.3647
 8568SOL    HW137340   2.263   1.761   6.363 -2.9076 -1.5316  0.4723
 8568SOL    HW237341   2.176   1.776   6.241  0.0350  1.4029 -1.5481
 8569SOL     OW37342   3.594   2.578   4.312  0.4330 -0.4669 -0.2710
 8569SOL    HW137343   3.573   2.507   4.252  0.7803 -0.0328 -0.9140
 8569SOL    HW237344   3.540   2.651   4.283  1.2028 -0.3965 -1.5611
 8570SOL     OW37345   4.065   0.232   7.046  0.3929 -0.1004  0.5263
 8570SOL    HW137346   4.130   0.252   6.978  0.7490  0.7537  1.1309
 8570SOL    HW237347   3.988   0.194   7.003  0.2077  1.5035 -0.5489
 8571SOL     OW37348   0.517   3.473   8.783 -0.0680 -0.3148  0.3779
 8571SOL    HW137349   0.449   3.527   8.742  1.0791 -0.4249 -1.6355
 8571SOL    HW237350   0.550   3.537   8.846  0.6433  0.3284 -0.6601
 8572SOL     OW37351   3.055   2.893   0.394 -0.4600  0.0764  0.3319
 8572SOL    HW137352   3.060   2.804   0.428 -0.1173 -0.3726 -0.8940
 8572SOL    HW237353   3.135   2.932   0.431 -0.6437 -0.4737  1.3059
 8573SOL     OW37354   1.420   4.710   5.912 -0.0353  0.5632 -0.2852
 8573SOL    HW137355   1.354   4.699   5.981  0.0313 -2.0306 -0.6394
 8573SOL    HW237356   1.363   4.716   5.836 -0.8103 -1.4098  0.1406
 8574SOL     OW37357   1.362   2.163  11.397  0.0750 -0.3426 -0.1891
 8574SOL    HW137358   1.320   2.081  11.372 -0.1936  0.0368 -0.9869
 8574SOL    HW237359   1.314   2.221  11.338  1.1066  0.6007 -0.1099
 8575SOL     OW37360   0.856   2.693   7.017 -0.1697 -0.0804 -0.5051
 8575SOL    HW137361   0.888   2.612   7.056  2.9402  1.7417  0.7733
 8575SOL    HW237362   0.869   2.670   6.925  0.0208 -1.5323 -0.1088
 8576SOL     OW37363   2.551   1.053  12.617 -0.1151  0.1239 -0.0214
 8576SOL    HW137364   2.599   1.134  12.602  1.3097 -0.5395  0.9642
 8576SOL    HW237365   2.489   1.079  12.685 -1.6230 -0.4639 -1.1662
 8577SOL     OW37366   1.002   4.530   7.261  0.0933  0.1926 -0.1559
 8577SOL    HW137367   1.045   4.610   7.232 -0.8988  1.1510  1.0185
 8577SOL    HW237368   0.987   4.544   7.355 -0.6273 -0.8144 -0.1199
 8578SOL     OW37369   3.805   0.766   9.898  0.1973  0.3258 -0.4252
 8578SOL    HW137370   3.876   0.702   9.890  0.1184  0.2044 -0.1450
 8578SOL    HW237371   3.741   0.699   9.923 -1.6973  1.6959 -1.5256
 8579SOL     OW37372   3.954   0.530  15.235  0.4431  0.4985  0.4208
 8579SOL    HW137373   4.002   0.582  15.300  0.5081  0.0091  0.7613
 8579SOL    HW237374   3.924   0.457  15.288  2.3958  0.7123  1.8375
 8580SOL     OW37375   2.165   0.813   8.132 -0.4629  0.2023 -0.2281
 8580SOL    HW137376   2.085   0.772   8.167 -0.1799 -1.2451 -1.2520
 8580SOL    HW237377   2.225   0.808   8.207  0.7037 -2.3453 -1.3345
 8581SOL     OW37378   4.040   1.036  14.559  0.6103 -0.1191  0.2131
 8581SOL    HW137379   3.991   0.987  14.492  1.6457 -0.4214 -0.3126
 8581SOL    HW237380   4.058   1.123  14.523  0.9553  0.1038  0.9210
 8582SOL     OW37381   0.884   1.104  13.017  0.0769 -0.3221  0.7635
 8582SOL    HW137382   0.926   1.058  12.945  3.1911 -0.2983  2.5595
 8582SOL    HW237383   0.854   1.027  13.066  1.5356 -1.4095 -0.0788
 8583SOL     OW37384   3.524   1.403   2.484 -0.3295  0.5272 -0.0488
 8583SOL    HW137385   3.481   1.443   2.408 -0.5449  2.4348  1.0740
 8583SOL    HW237386   3.454   1.355   2.528 -0.6476 -0.2574 -1.4111
 8584SOL     OW37387   1.465   0.260  11.442 -0.0738 -0.2608 -0.1251
 8584SOL    HW137388   1.523   0.215  11.504 -1.2045 -0.2632  0.9443
 8584SOL    HW237389   1.383   0.246  11.489 -0.7808  1.2181 -0.9131
 8585SOL     OW37390   0.548   4.242   3.880 -0.2942  0.1965 -0.1539
 8585SOL    HW137391   0.506   4.171   3.833 -1.1263  1.6726 -1.6272
 8585SOL    HW237392   0.597   4.292   3.815  0.0411 -2.0223 -1.6038
 8586SOL     OW37393   3.208   0.030   6.849 -0.0797 -0.0568 -0.5173
 8586SOL    HW137394   3.222   0.099   6.784  1.7225  0.2826  0.1978
 8586SOL    HW237395   3.140   0.053   6.912 -0.4605 -1.2572 -0.5049
 8587SOL     OW37396   1.380   4.431   8.656  0.2091  0.1250 -0.2208
 8587SOL    HW137397   1.397   4.502   8.593  1.4586  0.2611  0.2644
 8587SOL    HW237398   1.372   4.476   8.740  4.3683  1.2056 -0.3891
 8588SOL     OW37399   2.445   4.238   6.569  0.8205  0.0254 -0.3358
 8588SOL    HW137400   2.457   4.333   6.579  1.0224  0.0224 -0.5430
 8588SOL    HW237401   2.509   4.232   6.498  2.4113  0.3500  1.0918
 8589SOL     OW37402   1.388   1.174   7.146  0.0947 -0.4745 -0.2198
 8589SOL    HW137403   1.464   1.124   7.173  1.6059  2.5743  1.2345
 8589SOL    HW237404   1.430   1.260   7.151  0.5823 -0.9252  3.1979
 8590SOL     OW37405   3.131   3.073   4.914 -0.0919  0.6514  0.6920
 8590SOL    HW137406   3.178   3.143   4.869  1.3531 -1.4910 -1.1579
 8590SOL    HW237407   3.188   2.998   4.893 -1.4261 -0.0767 -0.2901
 8591SOL     OW37408   2.257   3.971   6.836 -0.8837  0.8398 -0.2401
 8591SOL    HW137409   2.268   3.891   6.785  0.7757  0.4376  0.7450
 8591SOL    HW237410   2.311   3.959   6.915  0.2417  2.4472 -0.7526
 8592SOL     OW37411   2.438   1.564   4.133 -0.5975 -0.1621  0.2505
 8592SOL    HW137412   2.446   1.489   4.075 -1.6067  1.5045 -2.0120
 8592SOL    HW237413   2.350   1.555   4.168 -0.4068 -2.3396  0.1614
 8593SOL     OW37414   1.750   2.203   3.730  0.4725 -0.4940  0.3149
 8593SOL    HW137415   1.705   2.164   3.804 -0.4315 -0.4954 -0.2330
 8593SOL    HW237416   1.799   2.271   3.777 -0.1633  0.2989 -0.1740
 8594SOL     OW37417   3.639   1.292   3.891  0.1518 -0.6431 -0.3149
 8594SOL    HW137418   3.608   1.249   3.811 -3.0106  0.3499  0.3617
 8594SOL    HW237419   3.727   1.315   3.861 -0.3382  1.2114 -0.3750
 8595SOL     OW37420   3.612   2.378   5.425 -0.2364  0.1547  0.2735
 8595SOL    HW137421   3.613   2.327   5.345  0.2316 -1.1618  1.1259
 8595SOL    HW237422   3.662   2.456   5.400 -1.8205  0.8121 -0.8313
 8596SOL     OW37423   3.864   1.902   0.722  0.3939 -0.3014 -0.4458
 8596SOL    HW137424   3.772   1.873   0.724  0.4847 -0.5589 -0.0327
 8596SOL    HW237425   3.893   1.859   0.641  0.2685 -2.4675  0.6653
 8597SOL     OW37426   1.683   2.572   8.009 -0.0822 -0.2842 -0.0609
 8597SOL    HW137427   1.701   2.623   7.930 -0.8906 -2.6802 -1.7839
 8597SOL    HW237428   1.772   2.556   8.041  0.4770  0.4096 -1.2675
 8598SOL     OW37429   3.956   3.356   9.675  0.0404  0.1211 -0.3380
 8598SOL    HW137430   3.897   3.360   9.750 -0.0273  0.4149 -0.4087
 8598SOL    HW237431   3.896   3.321   9.611 -0.4241  0.1321  0.0897
 8599SOL     OW37432   3.470   2.858  12.046  0.2829  0.2517 -0.7100
 8599SOL    HW137433   3.530   2.803  12.095 -1.0073 -0.8817 -0.4075
 8599SOL    HW237434   3.525   2.932  12.020 -1.2454  0.9192 -2.1227
 8600SOL     OW37435   4.590   0.393   3.925 -0.1178 -0.4099 -0.1220
 8600SOL    HW137436   4.622   0.363   3.840 -1.5459  2.8797 -1.8197
 8600SOL    HW237437   4.535   0.468   3.903 -0.1483 -0.0878  1.0569
 8601SOL     OW37438   3.800   2.958   4.272 -0.0344  0.1293 -0.0675
 8601SOL    HW137439   3.708   2.944   4.249 -0.2544 -1.5546  1.7942
 8601SOL    HW237440   3.808   3.053   4.272 -1.3474  0.2516 -1.2515
 8602SOL     OW37441   1.956   2.126   5.131  0.2990  0.3236  0.4540
 8602SOL    HW137442   1.979   2.217   5.151 -0.6298  1.1837 -2.3482
 8602SOL    HW237443   1.946   2.134   5.036  0.7815  0.8271  0.4460
 8603SOL     OW37444   4.414   0.222   7.419 -0.1224 -0.5420  0.3080
 8603SOL    HW137445   4.481   0.249   7.482 -1.1875  1.1394  0.7369
 8603SOL    HW237446   4.343   0.282   7.443  0.1215  0.2696 -0.9980
 8604SOL     OW37447   4.636   3.426  13.282 -0.2723 -0.0330 -0.3653
 8604SOL    HW137448   4.666   3.335  13.287 -0.8779 -0.2626 -0.9194
 8604SOL    HW237449   4.608   3.439  13.192 -0.4025 -2.0971 -0.6198
 8605SOL     OW37450   3.482   0.069   8.496 -0.1131  0.0884  0.0430
 8605SOL    HW137451   3.462   0.107   8.411 -1.9668 -2.7090 -0.7585
 8605SOL    HW237452   3.576   0.088   8.506 -0.0413 -0.4594  0.4553
 8606SOL     OW37453   0.335   3.195  15.445  0.2284  0.8560 -0.5175
 8606SOL    HW137454   0.417   3.245  15.443 -1.7469  4.0782 -0.9358
 8606SOL    HW237455   0.321   3.187  15.539 -2.5146  1.2671 -0.8864
 8607SOL     OW37456   0.514   3.758   5.146 -0.0472  0.0012 -0.2416
 8607SOL    HW137457   0.484   3.668   5.132 -2.9487  1.0093 -0.5055
 8607SOL    HW237458   0.424   3.789   5.157 -0.2580 -0.9090  0.5443
 8608SOL     OW37459   2.429   0.393   6.057 -0.3896 -0.8005  0.6342
 8608SOL    HW137460   2.367   0.326   6.086 -0.0938 -0.1244  2.8226
 8608SOL    HW237461   2.503   0.382   6.117  0.6852 -0.2540 -0.5810
 8609SOL     OW37462   3.038   2.892  12.266  0.2735 -0.1363 -0.6467
 8609SOL    HW137463   3.094   2.877  12.190  0.6616  1.2904 -0.6569
 8609SOL    HW237464   2.991   2.965  12.224 -0.3859 -0.0190  0.2881
 8610SOL     OW37465   4.426   3.660   2.842  0.3960  0.7398 -0.5028
 8610SOL    HW137466   4.386   3.692   2.923 -1.1494 -2.8644  0.1814
 8610SOL    HW237467   4.509   3.707   2.846  0.6251  0.2250  0.9482
 8611SOL     OW37468   4.374   0.693   0.792 -0.0871 -0.0070  0.1518
 8611SOL    HW137469   4.367   0.780   0.833  1.6709 -0.2792  1.0219
 8611SOL    HW237470   4.428   0.709   0.715  1.8190 -1.2598  1.2405
 8612SOL     OW37471   1.793   3.576   0.443  0.1048 -0.0215  0.2995
 8612SOL    HW137472   1.795   3.514   0.516 -3.1023 -0.3965  0.0891
 8612SOL    HW237473   1.834   3.522   0.376  0.7742 -0.4366  1.0508
 8613SOL     OW37474   4.294   0.975   3.732  0.3437  0.3620  0.0117
 8613SOL    HW137475   4.349   0.956   3.656  0.5384  0.6054  0.0920
 8613SOL    HW237476   4.344   0.930   3.799  1.5579 -0.0683 -1.1756
 8614SOL     OW37477   1.021   0.517   9.250  0.2383  0.4610  0.5043
 8614SOL    HW137478   0.959   0.457   9.291  1.1933 -0.8913 -0.0336
 8614SOL    HW237479   0.994   0.512   9.158  1.6506  0.6015  0.0790
 8615SOL     OW37480   2.434   2.009   2.606  0.3757 -0.5939 -0.2725
 8615SOL    HW137481   2.428   2.099   2.576  0.8069 -0.5561 -0.2455
 8615SOL    HW237482   2.501   1.978   2.545  1.8104  1.0539  0.4883
 8616SOL     OW37483   2.292   3.485   0.151 -0.2097 -0.0596  0.0872
 8616SOL    HW137484   2.375   3.440   0.166 -0.1507 -0.3865 -1.2835
 8616SOL    HW237485   2.295   3.551   0.220 -0.6282 -0.2988  0.3353
 8617SOL     OW37486   1.261   1.853  12.458 -0.2922 -0.4373  0.1977
 8617SOL    HW137487   1.190   1.917  12.451  0.1543 -0.0647 -0.9552
 8617SOL    HW237488   1.212   1.771  12.462  0.9612 -1.2220 -0.5637
 8618SOL     OW37489   1.131   0.441   3.116  0.0104 -0.3430  0.2618
 8618SOL    HW137490   1.222   0.432   3.088  0.2623 -0.4971  1.1197
 8618SOL    HW237491   1.090   0.466   3.034 -2.5334  2.3817  2.3516
 8619SOL     OW37492   1.794   1.840   6.256  0.1335  0.0047 -0.3456
 8619SOL    HW137493   1.869   1.861   6.200 -0.4283  2.4093 -0.1776
 8619SOL    HW237494   1.798   1.915   6.314 -0.1588 -0.3040  0.0757
 8620SOL     OW37495   2.882   0.668   7.147 -0.2712 -0.1825 -0.5129
 8620SOL    HW137496   2.902   0.735   7.213 -2.6503 -1.1487  1.1868
 8620SOL    HW237497   2.823   0.711   7.085 -0.3879 -2.2188 -1.7873
 8621SOL     OW37498   2.837   1.879   3.715  0.0796 -0.2239  0.1045
 8621SOL    HW137499   2.764   1.897   3.657 -0.8851 -1.1998  1.0188
 8621SOL    HW237500   2.905   1.857   3.651  1.1573  0.7232  0.9160
 8622SOL     OW37501   4.072   4.706  17.448 -0.1972  0.1341  0.1326
 8622SOL    HW137502   4.129   4.641  17.407 -1.5620 -0.4753 -0.7568
 8622SOL    HW237503   4.020   4.730  17.372  0.3839  0.6289 -0.1161
 8623SOL     OW37504   1.468   2.205  12.726  0.1921  0.6173  0.1852
 8623SOL    HW137505   1.477   2.133  12.663 -3.8437 -0.8335  1.3275
 8623SOL    HW237506   1.550   2.254  12.714  0.7283 -0.9098 -2.4813
 8624SOL     OW37507   0.313   2.360   3.852  0.0120  0.2052 -0.6934
 8624SOL    HW137508   0.252   2.293   3.822 -0.4785  0.6338 -0.6502
 8624SOL    HW237509   0.397   2.325   3.823 -1.1674  0.3183 -4.2928
 8625SOL     OW37510   2.334   3.643   3.600  1.1861 -0.1956 -0.4001
 8625SOL    HW137511   2.427   3.651   3.577  1.4590  1.0280  1.2055
 8625SOL    HW237512   2.315   3.550   3.582 -0.9254  0.0263  0.7210
 8626SOL     OW37513   1.289   4.131   8.827  0.2814  0.1133  0.5831
 8626SOL    HW137514   1.383   4.113   8.824  0.0849 -0.9277  0.5096
 8626SOL    HW237515   1.266   4.172   8.743  0.0054  0.4648  0.8317
 8627SOL     OW37516   3.617   4.563  11.101 -0.3767 -0.4663 -0.3207
 8627SOL    HW137517   3.554   4.562  11.173  0.4907 -0.8327  0.4354
 8627SOL    HW237518   3.667   4.485  11.125 -1.9867 -1.1760  0.7151
 8628SOL     OW37519   0.743   0.958   3.057  0.1561 -0.3980 -0.0957
 8628SOL    HW137520   0.667   0.982   3.005  0.0565 -0.9150 -0.1876
 8628SOL    HW237521   0.749   0.865   3.034 -0.6808 -0.2352 -0.9745
 8629SOL     OW37522   2.486   2.702   6.955 -0.2575 -0.8252 -0.0018
 8629SOL    HW137523   2.402   2.661   6.977 -0.0312 -1.7112 -0.7721
 8629SOL    HW237524   2.510   2.631   6.895 -1.2476 -0.2215 -1.1324
 8630SOL     OW37525   2.555   1.905   6.404  0.5353 -0.1640  0.6948
 8630SOL    HW137526   2.470   1.935   6.434 -0.1074 -1.7038  0.4243
 8630SOL    HW237527   2.604   1.986   6.389  1.4512 -1.0466 -1.0106
 8631SOL     OW37528   0.165   4.694  12.248  0.3862 -0.3078  0.0453
 8631SOL    HW137529   0.215   4.643  12.312 -0.6647 -2.3338 -0.7439
 8631SOL    HW237530   0.109   4.624  12.214 -0.4076 -1.1432  3.0326
 8632SOL     OW37531   0.436   2.022  15.562  0.0526  0.4952  0.6426
 8632SOL    HW137532   0.430   1.936  15.604  1.9772  0.9512  1.8524
 8632SOL    HW237533   0.473   1.992  15.479  0.0402  1.0705  0.4311
 8633SOL     OW37534   0.510   1.489   2.518 -0.2339  0.4803  0.0336
 8633SOL    HW137535   0.578   1.446   2.466  1.8553  3.1123  0.5968
 8633SOL    HW237536   0.516   1.581   2.490  0.2879 -0.6267 -3.4671
 8634SOL     OW37537   0.046   3.284   7.769  0.4543 -0.0212 -0.1771
 8634SOL    HW137538   0.045   3.224   7.844  2.0120  1.1590  0.7859
 8634SOL    HW237539   0.098   3.354   7.808 -0.2658 -1.3448  3.1676
 8635SOL     OW37540   4.677   1.640   2.452  0.5172  0.2007  0.5662
 8635SOL    HW137541   4.727   1.623   2.372 -3.0924 -1.4760 -1.3579
 8635SOL    HW237542   4.707   1.724   2.486 -1.2184  1.2909 -0.5822
 8636SOL     OW37543   0.055   4.437   4.532 -0.6257 -0.3891  0.0146
 8636SOL    HW137544   0.008   4.519   4.518 -1.0807 -1.0203 -2.1436
 8636SOL    HW237545   0.022   4.387   4.457  0.3536 -1.8349  0.5605
 8637SOL     OW37546   4.467   3.720   3.381  0.0051  0.1038  0.0605
 8637SOL    HW137547   4.444   3.627   3.393  0.6282 -0.0585 -0.0113
 8637SOL    HW237548   4.556   3.715   3.415 -0.7297 -2.7730  1.5878
 8638SOL     OW37549   3.000   0.051  12.290 -0.0437  0.1996 -0.0041
 8638SOL    HW137550   3.028   0.098  12.211  1.0301 -0.8512 -0.2546
 8638SOL    HW237551   3.065   0.093  12.346  0.8468 -1.3752  0.1371
 8639SOL     OW37552   0.161   1.982   7.412  0.0815  0.6854 -0.0811
 8639SOL    HW137553   0.250   1.992   7.377  0.0815 -1.0358 -0.5546
 8639SOL    HW237554   0.192   1.987   7.503 -0.5754  1.6665  0.0870
 8640SOL     OW37555   0.385   1.658   5.159  0.2894  0.5523  0.6724
 8640SOL    HW137556   0.400   1.599   5.233  0.2288 -1.3854 -0.8638
 8640SOL    HW237557   0.346   1.592   5.102  0.6416  0.7306  0.2290
 8641SOL     OW37558   4.089   4.106  14.262  0.6806  0.2362 -0.3054
 8641SOL    HW137559   4.163   4.050  14.285  1.6680  1.4965 -0.4239
 8641SOL    HW237560   4.121   4.139  14.178  1.6568  2.7814  1.0904
 8642SOL     OW37561   2.676   3.575   2.325  0.0251  0.0835  0.5059
 8642SOL    HW137562   2.721   3.613   2.400  0.0754  1.1228 -0.0508
 8642SOL    HW237563   2.657   3.484   2.348  1.8314 -0.4616 -0.1562
 8643SOL     OW37564   1.332   0.512   6.746 -0.3365 -0.2613 -0.0065
 8643SOL    HW137565   1.306   0.601   6.724  0.2722  0.1509  0.9335
 8643SOL    HW237566   1.332   0.477   6.657 -1.2986  0.0521 -0.1385
 8644SOL     OW37567   3.828   2.597   4.821 -0.1478 -0.0097  0.2214
 8644SOL    HW137568   3.871   2.661   4.763 -1.6812  0.1716 -0.7167
 8644SOL    HW237569   3.766   2.560   4.758 -0.4241 -0.3196  0.6828
 8645SOL     OW37570   0.079   3.427  12.188  0.4521 -0.1101  0.4443
 8645SOL    HW137571   0.059   3.339  12.219 -0.8679 -0.1167 -0.4732
 8645SOL    HW237572   0.171   3.432  12.214 -0.3241 -0.1695  3.1930
 8646SOL     OW37573   4.153   1.239  15.302  0.1243 -0.3532  0.6260
 8646SOL    HW137574   4.066   1.277  15.291  0.6060  1.3138  2.5304
 8646SOL    HW237575   4.164   1.194  15.218 -1.2345 -2.3468  1.5274
 8647SOL     OW37576   2.440   2.381   8.272 -0.7324  0.2758  0.3791
 8647SOL    HW137577   2.479   2.347   8.191 -0.6727 -0.4905  0.7272
 8647SOL    HW237578   2.449   2.302   8.326 -0.8110 -0.3850 -0.5734
 8648SOL     OW37579   2.911   3.407  12.210 -0.6239  0.4041  0.2599
 8648SOL    HW137580   2.834   3.462  12.192  0.0424  0.8580 -1.1147
 8648SOL    HW237581   2.979   3.444  12.154 -1.1417  0.7039 -0.1739
 8649SOL     OW37582   2.942   2.384   1.511 -0.4426  0.4133  0.0148
 8649SOL    HW137583   2.925   2.306   1.458 -0.7982 -0.1438  0.9591
 8649SOL    HW237584   2.937   2.450   1.442  1.6004  0.1796 -0.3516
 8650SOL     OW37585   3.980   0.567   9.865 -0.4793 -0.1810  0.9272
 8650SOL    HW137586   4.038   0.528   9.930  2.2536  1.0759 -0.7267
 8650SOL    HW237587   4.017   0.528   9.786  1.3854  0.2558  1.5716
 8651SOL     OW37588   3.150   3.517   6.555  0.0251  0.6324  0.7505
 8651SOL    HW137589   3.105   3.601   6.543 -2.7310 -0.9522  0.2609
 8651SOL    HW237590   3.146   3.497   6.649 -2.8551 -0.7192  0.3118
 8652SOL     OW37591   3.737   3.553   7.663 -0.5940 -0.2829 -0.2973
 8652SOL    HW137592   3.787   3.601   7.729 -0.8929 -0.5638  0.1337
 8652SOL    HW237593   3.780   3.589   7.584 -0.6892  3.0526  1.1804
 8653SOL     OW37594   4.061   3.390   7.431  0.5025 -0.3479  0.0667
 8653SOL    HW137595   3.975   3.416   7.397  0.1675 -1.0061  0.3995
 8653SOL    HW237596   4.052   3.296   7.414  1.4154 -0.2775 -0.7484
 8654SOL     OW37597   4.066   1.792  15.778 -0.4396  0.4211 -0.1355
 8654SOL    HW137598   4.001   1.763  15.713 -1.0145  2.1158 -0.3272
 8654SOL    HW237599   4.025   1.866  15.823  0.3625  0.6494  0.2061
 8655SOL     OW37600   4.445   1.709   5.647 -0.1555 -0.0672 -0.6330
 8655SOL    HW137601   4.459   1.798   5.617  1.0182 -0.1909 -0.4322
 8655SOL    HW237602   4.468   1.718   5.740 -2.2379 -2.2777  0.1120
 8656SOL     OW37603   3.170   0.493  11.886 -0.2772 -0.7525  0.2978
 8656SOL    HW137604   3.194   0.586  11.889  0.3634 -0.9645  1.7157
 8656SOL    HW237605   3.096   0.478  11.945 -1.2177  0.2036 -0.6305
 8657SOL     OW37606   1.764   4.655  12.085 -0.1969 -0.6543  0.1199
 8657SOL    HW137607   1.858   4.666  12.069  0.4253 -4.6599  0.9204
 8657SOL    HW237608   1.742   4.562  12.084  0.3897 -0.7898 -0.2377
 8658SOL     OW37609   1.685   3.295   2.944  0.6963 -0.0754 -0.1450
 8658SOL    HW137610   1.734   3.250   3.012  0.5261  0.6752  0.4720
 8658SOL    HW237611   1.702   3.249   2.862 -2.3305 -0.1226 -0.7539
 8659SOL     OW37612   0.847   4.156  14.082  0.0356  0.2973 -0.3869
 8659SOL    HW137613   0.757   4.175  14.110 -0.4153 -1.9099 -0.3736
 8659SOL    HW237614   0.833   4.067  14.049  0.7888 -0.6261  1.8100
 8660SOL     OW37615   0.901   2.710   8.614  0.4904  0.7454  0.1687
 8660SOL    HW137616   0.822   2.755   8.644  0.1746 -0.4247  1.1021
 8660SOL    HW237617   0.903   2.627   8.662 -1.5025 -0.3340 -1.6023
 8661SOL     OW37618   3.583   2.172   7.343  0.7592  0.1512  0.0514
 8661SOL    HW137619   3.644   2.100   7.363  0.8498  0.9050  2.5878
 8661SOL    HW237620   3.579   2.168   7.248  0.5022  0.3358  0.0565
 8662SOL     OW37621   3.572   3.512   2.834 -0.3246  0.6673  0.5094
 8662SOL    HW137622   3.582   3.476   2.746  1.0387  0.8722  0.5816
 8662SOL    HW237623   3.477   3.528   2.838 -0.2312  1.6666 -1.2878
 8663SOL     OW37624   1.580   1.245   8.967  0.4190  0.0625 -0.2744
 8663SOL    HW137625   1.662   1.201   8.944 -0.4154 -1.2036 -0.7890
 8663SOL    HW237626   1.602   1.266   9.057  1.4440  0.9540 -0.7224
 8664SOL     OW37627   2.630   2.213   9.386 -0.0317 -0.1826  0.0788
 8664SOL    HW137628   2.655   2.301   9.414 -1.3598  0.0149  0.6406
 8664SOL    HW237629   2.690   2.206   9.312  0.0208  1.7945 -0.0639
 8665SOL     OW37630   3.138   4.097   5.330 -0.6985 -0.0627  0.5270
 8665SOL    HW137631   3.145   4.008   5.362  0.3275 -0.3765 -0.5923
 8665SOL    HW237632   3.226   4.127   5.309 -0.3220 -1.5265  0.0330
 8666SOL     OW37633   1.239   3.646   5.933 -0.2536  0.2838  0.3266
 8666SOL    HW137634   1.260   3.557   5.906 -0.7212  0.7345 -1.5648
 8666SOL    HW237635   1.148   3.647   5.962 -0.5883  1.0633 -0.7465
 8667SOL     OW37636   2.776   2.217  15.927 -0.2460 -0.1210 -0.0332
 8667SOL    HW137637   2.829   2.172  15.861  0.6701  0.8822  0.0320
 8667SOL    HW237638   2.684   2.219  15.901  0.1859  0.9969 -1.4459
 8668SOL     OW37639   3.898   0.797   4.272  0.9282 -0.8950 -0.3207
 8668SOL    HW137640   3.928   0.797   4.181 -1.4575 -3.8066 -1.1014
 8668SOL    HW237641   3.825   0.736   4.264 -0.6558  0.7356  1.6535
 8669SOL     OW37642   1.331   0.553  12.270 -0.3270 -0.0369  0.4127
 8669SOL    HW137643   1.348   0.606  12.192 -1.1114  2.3090  1.8127
 8669SOL    HW237644   1.315   0.474  12.220  2.0542  0.7486 -1.5404
 8670SOL     OW37645   2.224   3.343  17.180  0.1569  0.3123  0.3527
 8670SOL    HW137646   2.206   3.410  17.114 -3.2074 -0.8591  0.0946
 8670SOL    HW237647   2.184   3.265  17.142 -0.4478  1.6496 -1.7154
 8671SOL     OW37648   1.674   2.236   7.866  0.3990 -0.1499 -0.3191
 8671SOL    HW137649   1.714   2.204   7.947  2.1777  0.0318 -1.1229
 8671SOL    HW237650   1.593   2.270   7.904 -1.1763 -2.0043 -1.9878
 8672SOL     OW37651   0.402   0.479   8.833 -0.7481  0.2142 -0.3282
 8672SOL    HW137652   0.363   0.455   8.917  0.2039  1.6108  0.5180
 8672SOL    HW237653   0.470   0.543   8.854  0.4372 -1.9104  2.1857
 8673SOL     OW37654   4.725   4.100   5.926  0.0450  0.2963  0.2847
 8673SOL    HW137655   4.684   4.017   5.903  1.5208 -0.5313  0.6435
 8673SOL    HW237656   0.007   4.072   6.015  0.7496 -0.6921 -0.1836
 8674SOL     OW37657   3.340   4.411   5.991  0.5307  0.0549  0.0782
 8674SOL    HW137658   3.307   4.480   6.048 -3.2012 -3.4312  2.1294
 8674SOL    HW237659   3.261   4.366   5.961 -0.2952  0.9295  0.9261
 8675SOL     OW37660   3.879   2.185   6.338  0.2413  0.0492 -0.1937
 8675SOL    HW137661   3.799   2.163   6.290  0.6508 -1.8674  0.0225
 8675SOL    HW237662   3.950   2.129   6.306  0.8829  1.8212 -1.8693
 8676SOL     OW37663   3.001   4.585   8.119  0.3048 -0.1021  0.9375
 8676SOL    HW137664   2.917   4.630   8.130  1.0002  1.0342  1.4930
 8676SOL    HW237665   2.983   4.491   8.129 -0.3711  0.0602  1.2624
 8677SOL     OW37666   3.040   3.288   5.984  0.3483 -0.3971  0.2526
 8677SOL    HW137667   3.095   3.327   5.917 -0.5983 -0.3050 -0.4700
 8677SOL    HW237668   3.068   3.341   6.058  1.3657  1.7960 -1.7162
 8678SOL     OW37669   4.351   4.032   5.243 -0.2454  0.7131 -0.8004
 8678SOL    HW137670   4.362   3.949   5.289  0.7987  1.8593  1.0564
 8678SOL    HW237671   4.423   4.081   5.285  0.6532  0.7806 -2.4309
 8679SOL     OW37672   0.401   2.439   9.490  0.3914  0.0330 -0.2282
 8679SOL    HW137673   0.427   2.347   9.485 -0.2197 -0.0357 -2.0177
 8679SOL    HW237674   0.379   2.452   9.583  0.7924 -1.8087  0.1231
 8680SOL     OW37675   0.046   3.655  10.906  0.0540 -0.2363  0.5997
 8680SOL    HW137676   0.035   3.719  10.836  0.5052  0.9502  1.6210
 8680SOL    HW237677   0.127   3.607  10.885  0.8543  1.2593  0.2503
 8681SOL     OW37678   2.163   1.541  11.042  0.2737 -0.4333 -0.2340
 8681SOL    HW137679   2.105   1.473  11.075  0.1981 -0.4451 -0.3902
 8681SOL    HW237680   2.112   1.599  10.985 -0.7273 -0.4577  0.6452
 8682SOL     OW37681   2.815   3.540   4.063  0.4722 -0.2031 -0.3566
 8682SOL    HW137682   2.858   3.570   4.143 -1.9497  0.1828  0.8220
 8682SOL    HW237683   2.727   3.518   4.095  0.2505  2.0853  0.6047
 8683SOL     OW37684   0.080   3.287  10.058  0.6145  0.2229  0.7652
 8683SOL    HW137685   0.079   3.201  10.099 -0.4420 -0.1556 -0.0669
 8683SOL    HW237686   0.009   3.328  10.108  0.0273 -0.7116  0.6861
 8684SOL     OW37687   4.563   4.375   1.902  0.0085 -0.1126 -0.4143
 8684SOL    HW137688   4.471   4.369   1.929  0.0255  1.9064  0.0987
 8684SOL    HW237689   4.579   4.456   1.950 -0.8211 -1.4739  2.1322
 8685SOL     OW37690   2.968   3.023   5.725  0.1030 -0.2489  0.9301
 8685SOL    HW137691   2.926   3.102   5.690 -0.9282 -1.8371 -1.3931
 8685SOL    HW237692   3.012   2.991   5.646 -0.2889 -1.3084  1.1500
 8686SOL     OW37693   1.742   1.578   1.884  0.7794  0.1047 -0.3152
 8686SOL    HW137694   1.763   1.586   1.977 -2.0374 -0.6592  0.3770
 8686SOL    HW237695   1.783   1.657   1.848  0.9352 -0.0576 -0.4956
 8687SOL     OW37696   0.447   4.403   6.844  0.7229 -0.2967  0.0396
 8687SOL    HW137697   0.385   4.463   6.887 -1.3005 -0.8896 -2.0839
 8687SOL    HW237698   0.531   4.420   6.887  0.8073  0.9632 -0.6100
 8688SOL     OW37699   4.158   3.034   5.665 -0.3574 -0.0506 -0.0739
 8688SOL    HW137700   4.099   3.109   5.676 -0.6166  0.0475 -2.1597
 8688SOL    HW237701   4.157   3.004   5.756  0.6816  2.1215  0.6631
 8689SOL     OW37702   3.471   4.288   4.665 -0.3252 -0.2631 -0.2787
 8689SOL    HW137703   3.558   4.248   4.652 -1.3814 -2.3291 -0.9414
 8689SOL    HW237704   3.454   4.269   4.757  0.4510  2.2188  0.3628
 8690SOL     OW37705   0.201   3.403   4.531  0.4595 -0.2099 -0.2651
 8690SOL    HW137706   0.124   3.359   4.567  1.5311  0.1859  2.4554
 8690SOL    HW237707   0.182   3.396   4.437  0.5898 -1.4343 -0.2097
 8691SOL     OW37708   3.477   3.223   8.766  0.2402 -0.6897  0.2393
 8691SOL    HW137709   3.454   3.273   8.687  0.9631  0.5729  0.8295
 8691SOL    HW237710   3.411   3.154   8.766  0.4646 -0.9324 -3.5216
 8692SOL     OW37711   1.501   1.113  14.094 -0.0812 -0.1840 -0.3453
 8692SOL    HW137712   1.414   1.079  14.074 -0.6081 -1.0924  3.4970
 8692SOL    HW237713   1.515   1.155  14.008  1.6371  0.0036  0.0338
 8693SOL     OW37714   3.647   2.759   8.323  0.7178  0.6135 -0.2677
 8693SOL    HW137715   3.673   2.784   8.234  0.3814  0.7653 -0.3220
 8693SOL    HW237716   3.676   2.840   8.364  0.2162  0.6220  0.0738
 8694SOL     OW37717   2.695   1.585   3.899 -0.0228  1.0097 -0.0947
 8694SOL    HW137718   2.723   1.623   3.982  1.6194 -0.5089  0.0394
 8694SOL    HW237719   2.777   1.557   3.858 -1.0558  0.0888 -1.5267
 8695SOL     OW37720   1.765   2.638  12.230 -0.1082  0.4281  0.1119
 8695SOL    HW137721   1.794   2.729  12.242  2.7714 -0.4087 -0.5583
 8695SOL    HW237722   1.672   2.636  12.252 -0.4413 -2.2149 -1.5952
 8696SOL     OW37723   3.117   2.383  15.816  0.3569  0.0817 -0.3211
 8696SOL    HW137724   3.104   2.296  15.855  0.7617 -0.3900 -1.2300
 8696SOL    HW237725   3.137   2.439  15.891 -1.7984 -0.2466  0.5112
 8697SOL     OW37726   3.059   3.201   6.556 -0.2531 -0.0238 -0.3519
 8697SOL    HW137727   3.034   3.109   6.571 -2.6477  1.2302  3.2699
 8697SOL    HW237728   3.102   3.219   6.640 -1.3738 -3.0742  0.8975
 8698SOL     OW37729   2.928   0.910   1.609  0.1938 -0.5031  0.4438
 8698SOL    HW137730   3.018   0.891   1.584 -0.1290 -2.6077  0.9521
 8698SOL    HW237731   2.898   0.934   1.521 -0.5578 -1.9037  0.3242
 8699SOL     OW37732   0.954   0.093   7.090  0.1447 -0.3278  0.5001
 8699SOL    HW137733   0.887   0.119   7.154 -0.1215  0.9786 -0.3189
 8699SOL    HW237734   1.019   0.076   7.158  2.4398 -0.1826 -1.6367
 8700SOL     OW37735   4.728   1.613   6.972 -0.5259 -0.0853 -0.2891
 8700SOL    HW137736   0.041   1.685   6.934  0.0036  1.0596  2.6472
 8700SOL    HW237737   4.709   1.561   6.894 -1.6944 -0.4861  0.2671
 8701SOL     OW37738   3.897   2.216  11.564  0.2663  0.1979  0.0893
 8701SOL    HW137739   3.812   2.185  11.595  0.3923  0.9873  1.2594
 8701SOL    HW237740   3.882   2.309  11.583 -1.3701 -0.0106 -0.1462
 8702SOL     OW37741   2.899   1.416   2.009  0.0841 -0.4923  0.1657
 8702SOL    HW137742   2.879   1.382   2.097 -1.0963  0.1413  0.1343
 8702SOL    HW237743   2.957   1.344   1.983  2.3003  0.9993  0.9924
 8703SOL     OW37744   1.669   0.051   1.546 -0.4002 -0.2538 -0.3376
 8703SOL    HW137745   1.591   0.065   1.599 -1.0610  2.9363 -2.1799
 8703SOL    HW237746   1.724   0.126   1.566 -0.2998 -0.2614 -0.5865
 8704SOL     OW37747   3.693   3.512  16.450  0.1187  0.1163 -0.6777
 8704SOL    HW137748   3.673   3.484  16.539  2.4076  0.9387  0.0989
 8704SOL    HW237749   3.676   3.438  16.393  0.9083 -0.7532  0.2113
 8705SOL     OW37750   4.358   3.483   4.433  0.1356 -0.5215 -0.0706
 8705SOL    HW137751   4.451   3.489   4.408 -0.0615 -2.9035 -1.3893
 8705SOL    HW237752   4.332   3.408   4.380 -0.0368  0.2272 -1.0621
 8706SOL     OW37753   3.211   4.214   1.795  0.0177  0.0985  0.4820
 8706SOL    HW137754   3.177   4.137   1.749  2.1244 -0.7299  0.3196
 8706SOL    HW237755   3.145   4.283   1.808  3.2279  2.7942  2.5859
 8707SOL     OW37756   4.329   2.827   9.629 -0.1579 -0.1605 -0.2446
 8707SOL    HW137757   4.314   2.736   9.606  0.2347  0.0917 -1.5211
 8707SOL    HW237758   4.347   2.821   9.722  2.4064 -2.9675 -0.9372
 8708SOL     OW37759   3.048   0.188   4.537 -0.1335  0.6449 -0.4130
 8708SOL    HW137760   3.072   0.203   4.628  0.9049 -0.6091 -0.4742
 8708SOL    HW237761   2.993   0.110   4.528  1.3818 -0.3377 -1.2035
 8709SOL     OW37762   4.031   3.507   4.441  0.6282 -0.0683 -0.3335
 8709SOL    HW137763   4.013   3.530   4.350  1.6451  1.9988 -0.0189
 8709SOL    HW237764   4.056   3.415   4.426 -2.0729 -0.6164 -1.4190
 8710SOL     OW37765   0.870   2.581   6.741  0.2446 -0.3781  0.3462
 8710SOL    HW137766   0.857   2.607   6.650 -0.3439 -2.6125 -0.2210
 8710SOL    HW237767   0.783   2.544   6.757 -0.8511  2.5264  0.9909
 8711SOL     OW37768   0.148   4.010   1.898 -0.1233 -0.4408 -0.1529
 8711SOL    HW137769   0.125   4.045   1.812 -0.6969 -0.9368 -0.1979
 8711SOL    HW237770   0.217   3.948   1.875  0.9720  0.8172 -0.3052
 8712SOL     OW37771   0.239   3.000   4.136  0.1690  0.1203 -0.5114
 8712SOL    HW137772   0.312   3.057   4.161  1.0389  0.1534 -3.1075
 8712SOL    HW237773   0.239   2.936   4.207 -0.9137 -0.3102 -0.9010
 8713SOL     OW37774   4.079   2.728   7.903  0.6246 -0.4460 -0.0892
 8713SOL    HW137775   3.995   2.683   7.916 -0.9222  2.8321  1.1912
 8713SOL    HW237776   4.084   2.772   7.988  0.1503  1.1345 -0.8858
 8714SOL     OW37777   3.723   3.827  14.304  0.5492  0.2479  0.4351
 8714SOL    HW137778   3.756   3.916  14.317 -0.8554  0.6710  1.0303
 8714SOL    HW237779   3.787   3.776  14.354 -1.6231 -1.9866  0.9371
 8715SOL     OW37780   0.634   2.348   7.050 -0.2995 -0.2644 -0.2603
 8715SOL    HW137781   0.622   2.334   7.144  0.3215 -1.0609 -0.2977
 8715SOL    HW237782   0.719   2.392   7.050  0.2119 -1.2670 -1.2907
 8716SOL     OW37783   3.900   0.366   5.841  0.1021  0.7330 -0.4945
 8716SOL    HW137784   3.966   0.416   5.793 -0.2082  3.7081  2.1535
 8716SOL    HW237785   3.817   0.388   5.798 -0.7523 -0.7510  0.3832
 8717SOL     OW37786   3.469   4.384  16.188 -0.3732 -0.1082  0.2223
 8717SOL    HW137787   3.377   4.361  16.179 -0.0847 -1.2474  0.1741
 8717SOL    HW237788   3.512   4.308  16.229 -0.7197 -1.0768 -1.2036
 8718SOL     OW37789   1.015   0.817   5.411  0.2430  0.4378 -0.1126
 8718SOL    HW137790   1.032   0.743   5.469  2.1903  0.3976 -0.7238
 8718SOL    HW237791   0.919   0.814   5.404  0.2192  0.4535  0.2402
 8719SOL     OW37792   2.901   1.264   8.497 -0.0429 -0.1472 -0.4776
 8719SOL    HW137793   2.985   1.310   8.503  0.1846 -0.8023  1.3938
 8719SOL    HW237794   2.861   1.315   8.568  1.8930 -0.1107  0.5816
 8720SOL     OW37795   2.403   2.555  15.049  0.2290  0.1534  0.1846
 8720SOL    HW137796   2.490   2.542  15.012  0.6220 -0.7597  1.4100
 8720SOL    HW237797   2.349   2.597  14.982 -0.5080 -1.3716 -0.1913
 8721SOL     OW37798   1.616   0.177  14.425  0.3595  0.0897 -0.0827
 8721SOL    HW137799   1.665   0.119  14.483 -1.9151 -1.5569  0.1685
 8721SOL    HW237800   1.657   0.263  14.436  0.2118  0.2167 -0.5273
 8722SOL     OW37801   0.308   1.265  10.795  0.3984  0.1717  0.3158
 8722SOL    HW137802   0.348   1.215  10.866 -0.7196 -2.2649 -0.8083
 8722SOL    HW237803   0.375   1.334  10.795 -0.6831  1.2254  0.4454
 8723SOL     OW37804   1.734   2.493   5.003  0.2600 -0.2717  0.0184
 8723SOL    HW137805   1.704   2.580   5.026  2.5828  0.8895 -1.3174
 8723SOL    HW237806   1.653   2.447   5.026 -0.7199  1.6775  0.4145
 8724SOL     OW37807   2.647   2.615   4.411 -0.1393  0.5550 -0.1289
 8724SOL    HW137808   2.707   2.630   4.484  0.2083  0.6482 -0.4334
 8724SOL    HW237809   2.638   2.695   4.360  2.4171  0.2761 -1.0115
 8725SOL     OW37810   1.647   0.939  13.572  0.3284 -0.2505 -0.1137
 8725SOL    HW137811   1.667   1.023  13.612 -1.0302  0.3718 -0.7258
 8725SOL    HW237812   1.577   0.968  13.512  0.0132 -0.8838 -0.0580
 8726SOL     OW37813   4.014   0.944   8.556 -0.5421  0.5991  0.3222
 8726SOL    HW137814   4.065   0.980   8.629  1.0203  0.4103 -0.6689
 8726SOL    HW237815   4.027   1.005   8.484  1.1709  1.8170  1.6676
 8727SOL     OW37816   0.961   3.582   5.981 -0.0725  0.0372  0.1100
 8727SOL    HW137817   0.918   3.584   6.066 -1.1218  3.6007 -0.5136
 8727SOL    HW237818   0.882   3.606   5.932  1.4907  1.0085 -1.9299
 8728SOL     OW37819   0.252   2.393   1.113  0.3075  0.3786  0.1573
 8728SOL    HW137820   0.288   2.469   1.160 -2.1758  1.6512 -0.0096
 8728SOL    HW237821   0.182   2.427   1.057 -0.2911  0.2662  0.8415
 8729SOL     OW37822   0.248   2.791   9.382 -0.0938 -0.0234  0.8927
 8729SOL    HW137823   0.339   2.760   9.386  0.1554  0.9810  3.0763
 8729SOL    HW237824   0.264   2.881   9.412  0.0846  0.1655  0.2355
 8730SOL     OW37825   2.551   1.628   5.171 -0.1151 -0.1580  0.3000
 8730SOL    HW137826   2.501   1.697   5.127  0.2260  0.2713  0.5950
 8730SOL    HW237827   2.591   1.588   5.093  0.2240  3.0046 -1.1470
 8731SOL     OW37828   3.723   4.467   9.755  0.1916  0.1412 -0.5881
 8731SOL    HW137829   3.816   4.488   9.750  0.5547 -1.3507 -0.1593
 8731SOL    HW237830   3.713   4.483   9.849 -0.9875 -1.3379 -0.4502
 8732SOL     OW37831   2.360   0.136   8.823  0.1845 -0.5535  0.1981
 8732SOL    HW137832   2.292   0.091   8.773  0.9971 -0.2753 -1.1751
 8732SOL    HW237833   2.419   0.137   8.748  1.9442  0.1586  1.5970
 8733SOL     OW37834   3.342   1.781   0.351 -0.0944  0.0127  0.1411
 8733SOL    HW137835   3.381   1.786   0.439 -1.3062  0.9011  0.6345
 8733SOL    HW237836   3.270   1.843   0.360  0.6215  0.9204 -0.2955
 8734SOL     OW37837   1.867   0.068   3.135 -0.2130 -0.5560  0.3398
 8734SOL    HW137838   1.891   4.717   3.111  0.2858 -0.3622  0.1158
 8734SOL    HW237839   1.777   0.076   3.103 -0.5713 -2.0953  0.9777
 8735SOL     OW37840   0.002   1.967   6.003 -0.4203  0.3113  0.3004
 8735SOL    HW137841   4.731   2.051   5.959 -1.8911 -0.0150 -0.0194
 8735SOL    HW237842   4.698   1.910   5.938 -0.0903 -1.6294  1.7758
 8736SOL     OW37843   4.375   0.053   0.597 -0.0086  0.7783 -0.1425
 8736SOL    HW137844   4.447   4.737   0.629  0.5505  0.6830 -1.5580
 8736SOL    HW237845   4.404   0.068   0.506 -0.9416  0.1405 -0.5366
 8737SOL     OW37846   4.016   3.201   1.666 -0.5496 -0.2293  0.0702
 8737SOL    HW137847   4.078   3.144   1.710  1.6790  3.3481  1.5599
 8737SOL    HW237848   4.050   3.193   1.577 -0.4106 -3.7085  0.4532
 8738SOL     OW37849   2.411   3.438   4.642  0.2596  0.1200  0.0017
 8738SOL    HW137850   2.344   3.398   4.696  2.4462 -0.1960  2.4767
 8738SOL    HW237851   2.488   3.419   4.696  1.2397  1.5804 -0.8568
 8739SOL     OW37852   3.713   0.138  15.426 -0.2581 -0.2256  0.1286
 8739SOL    HW137853   3.657   0.070  15.462 -0.9755  1.1440  1.6001
 8739SOL    HW237854   3.663   0.215  15.452 -0.7117 -0.0219 -1.3740
 8740SOL     OW37855   3.821   2.641  11.269  0.8938  0.9661 -0.3007
 8740SOL    HW137856   3.891   2.577  11.278  0.5052  0.6653  0.5280
 8740SOL    HW237857   3.782   2.600  11.192  2.1400 -1.0170  0.1268
 8741SOL     OW37858   2.903   3.488   8.881 -0.2233 -0.0260 -0.2826
 8741SOL    HW137859   2.825   3.440   8.910  0.5434  0.2236  2.1857
 8741SOL    HW237860   2.893   3.566   8.935  0.8414 -0.1178  0.0322
 8742SOL     OW37861   3.736   3.108  12.198 -0.0372 -0.0669 -0.0947
 8742SOL    HW137862   3.748   3.022  12.238 -1.0211  0.8187  2.0973
 8742SOL    HW237863   3.714   3.091  12.107 -0.2304 -1.1440  0.1532
 8743SOL     OW37864   0.820   2.073   7.222  0.0732 -0.3140  0.4179
 8743SOL    HW137865   0.817   2.063   7.317 -1.1064 -0.1973  0.3816
 8743SOL    HW237866   0.878   2.149   7.223  0.8680 -0.9521  2.5515
 8744SOL     OW37867   0.576   4.273   2.752 -0.0975  0.4199 -0.8440
 8744SOL    HW137868   0.604   4.184   2.731 -1.5342 -0.5609  1.3873
 8744SOL    HW237869   0.483   4.261   2.736 -0.2599 -0.2362  0.6063
 8745SOL     OW37870   2.242   0.889   1.729  0.3132 -0.0640  0.1290
 8745SOL    HW137871   2.255   0.816   1.669 -0.3860 -0.4820  0.4814
 8745SOL    HW237872   2.324   0.937   1.718 -0.1759  0.6127 -0.5779
 8746SOL     OW37873   3.909   3.803  16.036  0.1852 -0.1796  0.1468
 8746SOL    HW137874   3.943   3.854  16.110 -0.4394  0.5054 -0.0321
 8746SOL    HW237875   3.816   3.793  16.055  0.6746 -4.7916 -0.0341
 8747SOL     OW37876   1.742   3.442   1.323 -0.5251  0.2563  0.0544
 8747SOL    HW137877   1.770   3.401   1.242  2.5153  0.2547  1.1074
 8747SOL    HW237878   1.647   3.432   1.314 -0.4744 -1.0453  0.9044
 8748SOL     OW37879   2.540   2.296   4.597 -0.0405 -0.6900 -0.2697
 8748SOL    HW137880   2.500   2.356   4.534  0.6599 -0.2068 -0.2560
 8748SOL    HW237881   2.548   2.219   4.541  1.4442  0.7370 -2.0154
 8749SOL     OW37882   0.864   2.487  15.862 -0.7893 -0.1195  0.5621
 8749SOL    HW137883   0.830   2.576  15.850 -0.3518  0.2529  2.0237
 8749SOL    HW237884   0.792   2.429  15.836 -0.3419 -0.1297 -0.6175
 8750SOL     OW37885   3.725   0.668   7.063  0.5224 -0.1726 -0.6363
 8750SOL    HW137886   3.810   0.641   7.100  0.1738  1.5697  1.4306
 8750SOL    HW237887   3.686   0.582   7.048 -0.2332 -0.1046  0.9635
 8751SOL     OW37888   2.586   1.269  11.972 -0.2956 -0.0282 -0.2638
 8751SOL    HW137889   2.610   1.309  12.056  0.3682 -0.2554 -0.3389
 8751SOL    HW237890   2.491   1.267  11.973 -0.2170 -4.1923 -1.9321
 8752SOL     OW37891   2.290   1.496  15.567 -0.1651 -0.3199  0.0919
 8752SOL    HW137892   2.314   1.460  15.482  1.0137  1.0181 -0.1554
 8752SOL    HW237893   2.199   1.471  15.582  0.1243 -1.0762  0.6282
 8753SOL     OW37894   3.645   4.665   1.881 -0.1594 -0.4898 -0.6178
 8753SOL    HW137895   3.593   4.584   1.880  0.3524 -0.8109 -1.3284
 8753SOL    HW237896   3.627   4.684   1.789 -5.0898 -0.8957  0.2352
 8754SOL     OW37897   0.702   4.625  12.996  0.0622  0.0089 -0.2784
 8754SOL    HW137898   0.637   4.667  12.939 -2.8192 -2.3084  1.2896
 8754SOL    HW237899   0.649   4.555  13.034 -1.4169  1.1324 -0.2675
 8755SOL     OW37900   4.087   2.689   2.137  0.0545 -0.2382 -0.2486
 8755SOL    HW137901   4.073   2.700   2.043  0.4435  1.0837 -0.1477
 8755SOL    HW237902   4.030   2.612   2.150  0.0034 -0.3741 -1.2719
 8756SOL     OW37903   2.416   3.064   5.168 -0.5425  0.0364 -0.0757
 8756SOL    HW137904   2.458   3.113   5.239 -0.3865  0.9914 -0.8304
 8756SOL    HW237905   2.326   3.094   5.174 -1.4694 -2.8737  0.6033
 8757SOL     OW37906   0.361   4.116   8.089 -0.2263 -0.4893  0.6234
 8757SOL    HW137907   0.457   4.109   8.089 -0.2681 -0.9597  1.6918
 8757SOL    HW237908   0.341   4.026   8.063 -0.1539 -0.7426  1.4525
 8758SOL     OW37909   4.268   2.367   4.770 -0.4777 -0.2339  0.4779
 8758SOL    HW137910   4.319   2.344   4.693 -2.2872  0.6072 -0.9771
 8758SOL    HW237911   4.184   2.382   4.728  0.2444 -0.2597 -0.9518
 8759SOL     OW37912   1.288   0.002   1.486  0.0735 -0.1242  0.7626
 8759SOL    HW137913   1.215   4.694   1.529  2.0515 -1.1031  3.1377
 8759SOL    HW237914   1.236   0.074   1.451 -0.0380 -1.7255 -2.3089
 8760SOL     OW37915   3.798   0.683   8.001 -0.0604  0.0849 -0.1352
 8760SOL    HW137916   3.715   0.704   8.046  0.3699 -0.0146  0.7071
 8760SOL    HW237917   3.798   0.588   8.012  2.5508  0.1566  0.4365
 8761SOL     OW37918   3.288   2.316   9.754  0.1876  0.3746 -0.6155
 8761SOL    HW137919   3.325   2.370   9.684  3.0940  0.8267  1.2361
 8761SOL    HW237920   3.231   2.264   9.698 -1.4345  2.2121 -0.6907
 8762SOL     OW37921   2.357   4.042   4.408 -0.1925 -0.4978 -0.6993
 8762SOL    HW137922   2.403   4.069   4.328  2.2856  2.1549  1.6357
 8762SOL    HW237923   2.268   4.060   4.375  0.2066  1.7419 -0.5410
 8763SOL     OW37924   0.874   3.345   1.707 -0.4957 -0.4181 -0.5388
 8763SOL    HW137925   0.894   3.295   1.786 -1.1047 -0.7299 -0.5801
 8763SOL    HW237926   0.798   3.397   1.732  0.3717  1.3276 -1.5594
 8764SOL     OW37927   0.643   3.323   4.328  0.0470 -0.0398 -0.1595
 8764SOL    HW137928   0.637   3.362   4.415  1.8876  3.4221 -1.5902
 8764SOL    HW237929   0.738   3.314   4.316  0.0636 -0.9950  0.6071
 8765SOL     OW37930   0.812   2.478   7.479  0.0854 -0.4298  0.6898
 8765SOL    HW137931   0.866   2.521   7.412 -1.3273  2.1219  1.1939
 8765SOL    HW237932   0.772   2.550   7.527 -0.3105 -0.6111  0.6339
 8766SOL     OW37933   4.133   2.611   2.939 -0.0412  0.2435 -0.3042
 8766SOL    HW137934   4.151   2.520   2.914  1.0076  0.8531 -1.8438
 8766SOL    HW237935   4.172   2.615   3.026 -0.1913  0.8200 -0.2660
 8767SOL     OW37936   1.045   2.459   0.581  0.4255  0.2538 -0.0646
 8767SOL    HW137937   1.095   2.527   0.535  0.5878  1.5417  2.0224
 8767SOL    HW237938   0.990   2.517   0.634 -1.7647 -1.4905 -0.4302
 8768SOL     OW37939   0.607   1.518   6.927 -0.0704  0.0749  0.1759
 8768SOL    HW137940   0.664   1.593   6.914  1.7587 -1.3296  0.1047
 8768SOL    HW237941   0.522   1.560   6.939  0.4914  1.2746 -0.1023
 8769SOL     OW37942   2.720   4.419   8.073  0.7870  0.1039  0.4910
 8769SOL    HW137943   2.739   4.330   8.102 -2.4556 -0.5451  0.6543
 8769SOL    HW237944   2.778   4.437   7.999 -2.4536 -1.8040 -2.4932
 8770SOL     OW37945   3.097   3.389   4.117  0.8664 -0.3839 -0.3282
 8770SOL    HW137946   3.056   3.349   4.040 -1.7438  1.7516 -0.0570
 8770SOL    HW237947   3.028   3.384   4.183 -0.2101 -2.8268 -1.6292
 8771SOL     OW37948   4.220   4.378   8.173  0.2547  0.2246  0.0544
 8771SOL    HW137949   4.240   4.440   8.243 -0.8616 -0.3270  0.8653
 8771SOL    HW237950   4.214   4.447   8.107  1.4573 -1.0858 -1.4129
 8772SOL     OW37951   2.838   4.362   6.815 -0.4035 -0.4161 -0.0340
 8772SOL    HW137952   2.932   4.367   6.802 -0.5842 -1.6782 -1.7820
 8772SOL    HW237953   2.808   4.416   6.741 -1.9562 -0.1161  0.8093
 8773SOL     OW37954   1.392   0.721  10.917  0.1192  0.2085  0.3875
 8773SOL    HW137955   1.374   0.630  10.941  1.4612  0.9090  4.0399
 8773SOL    HW237956   1.427   0.756  10.999  0.8850  0.8203 -0.2051
 8774SOL     OW37957   2.796   2.237   5.078  0.5915  0.7612  0.1453
 8774SOL    HW137958   2.876   2.291   5.074  0.7257  0.6817  1.9816
 8774SOL    HW237959   2.728   2.298   5.106  0.1674  0.5043 -0.3290
 8775SOL     OW37960   3.494   2.922   2.893 -0.2867  0.5409  0.6434
 8775SOL    HW137961   3.451   2.836   2.892 -0.0122  0.4155 -2.8851
 8775SOL    HW237962   3.569   2.879   2.852 -0.4218 -0.0490  1.0123
 8776SOL     OW37963   0.427   1.272   6.672  0.0392 -0.0176  0.1993
 8776SOL    HW137964   0.512   1.234   6.693 -0.1053 -0.5534 -0.1753
 8776SOL    HW237965   0.370   1.235   6.740  2.2507  1.3219  2.7825
 8777SOL     OW37966   0.880   1.584   2.234  0.9570 -0.0071 -0.6844
 8777SOL    HW137967   0.961   1.590   2.184  1.7249  0.7981  0.6467
 8777SOL    HW237968   0.851   1.669   2.201 -0.0860 -0.3649 -0.6954
 8778SOL     OW37969   4.372   0.582   7.320  0.6591  0.2248 -0.3668
 8778SOL    HW137970   4.300   0.520   7.333  2.3698 -1.5594  0.6287
 8778SOL    HW237971   4.388   0.616   7.408  0.1262 -1.1948  0.2817
 8779SOL     OW37972   3.684   0.260   0.715  0.0885  0.4477  0.0951
 8779SOL    HW137973   3.733   0.236   0.637  1.1962  0.3672  0.8154
 8779SOL    HW237974   3.599   0.216   0.711 -1.0393  2.8039 -1.8949
 8780SOL     OW37975   1.163   4.170   2.756  0.3096 -0.2041 -0.1792
 8780SOL    HW137976   1.211   4.177   2.673  1.5855  1.0652  0.6682
 8780SOL    HW237977   1.175   4.258   2.792  0.6154 -0.1768 -0.3496
 8781SOL     OW37978   1.693   0.487  14.818 -0.1330  0.2362  0.1514
 8781SOL    HW137979   1.654   0.504  14.732  1.4795  0.5373 -0.5181
 8781SOL    HW237980   1.729   0.574  14.836  0.3798 -0.3489  1.9495
 8782SOL     OW37981   2.478   1.027  15.738  0.2086 -0.5114  0.3771
 8782SOL    HW137982   2.492   1.106  15.790 -0.1780  0.6392 -1.2604
 8782SOL    HW237983   2.439   0.965  15.799 -0.9536  1.9759  2.1404
 8783SOL     OW37984   0.566   4.658   0.760  0.5176  0.4910  0.3293
 8783SOL    HW137985   0.566   4.703   0.845  0.4116  2.9777 -1.0081
 8783SOL    HW237986   0.519   4.580   0.789  1.2829 -0.6245 -1.4271
 8784SOL     OW37987   1.717   4.707  10.615  0.5048 -0.0259  0.0947
 8784SOL    HW137988   1.806   4.688  10.644 -0.5046 -2.2595  1.6891
 8784SOL    HW237989   1.666   4.730  10.692  1.6012 -1.0814  1.1369
 8785SOL     OW37990   2.163   4.259   9.683  0.0380  0.2946  0.0407
 8785SOL    HW137991   2.183   4.298   9.598  0.4832  0.4140  0.1999
 8785SOL    HW237992   2.079   4.304   9.697 -0.5270 -0.1238 -1.9587
 8786SOL     OW37993   2.915   2.761   6.843  0.0074 -0.6136  0.1879
 8786SOL    HW137994   2.898   2.844   6.798  2.0823 -2.2971 -3.7161
 8786SOL    HW237995   2.836   2.755   6.897  0.8589 -0.6528  1.4286
 8787SOL     OW37996   0.007   4.426   2.448 -0.1866 -0.3898  0.3395
 8787SOL    HW137997   0.053   4.411   2.530  0.3255 -0.7205 -0.0093
 8787SOL    HW237998   4.677   4.358   2.452 -1.6437  1.1020  1.0149
 8788SOL     OW37999   0.666   4.720   3.353 -0.8986 -0.2270  0.1975
 8788SOL    HW138000   0.745   4.683   3.313 -1.2696 -2.4259  1.4872
 8788SOL    HW238001   0.691   0.074   3.350 -1.3427 -0.1416 -1.0930
 8789SOL     OW38002   2.960   1.681   1.073 -0.4504 -0.1111  0.0285
 8789SOL    HW138003   3.008   1.665   0.992  3.1353 -0.7379  2.3073
 8789SOL    HW238004   2.870   1.653   1.055 -1.0489  2.7771 -1.6429
 8790SOL     OW38005   1.659   2.369  12.049  0.9038 -0.3353 -0.6875
 8790SOL    HW138006   1.591   2.329  11.996 -1.4920  2.0950  0.5554
 8790SOL    HW238007   1.624   2.355  12.137  1.8964  2.2410  0.1087
 8791SOL     OW38008   1.788   1.116   3.405  0.3093 -0.2646  0.5342
 8791SOL    HW138009   1.778   1.204   3.443 -1.2332  0.9157 -2.5985
 8791SOL    HW238010   1.718   1.110   3.340 -0.4927 -1.6157  1.5121
 8792SOL     OW38011   3.301   0.710   9.159 -0.2453  0.1690 -0.3267
 8792SOL    HW138012   3.243   0.639   9.185 -0.4043  0.8163  1.0524
 8792SOL    HW238013   3.237   0.779   9.141  1.5306  1.9431  0.2031
 8793SOL     OW38014   1.898   4.464   8.162 -0.0106 -0.0991  0.0854
 8793SOL    HW138015   1.913   4.504   8.248  3.0499  1.3827 -1.1843
 8793SOL    HW238016   1.803   4.450   8.166 -0.4437  2.6259 -0.8232
 8794SOL     OW38017   2.400   0.762  10.919  0.1197 -0.1656  0.2379
 8794SOL    HW138018   2.449   0.754  10.837  1.8719  0.9560  1.1795
 8794SOL    HW238019   2.472   0.734  10.975  1.7529  0.2735 -1.6157
 8795SOL     OW38020   3.609   2.091   3.587  0.0409  0.0874  0.6647
 8795SOL    HW138021   3.661   2.014   3.611 -1.1323 -0.7994  0.3884
 8795SOL    HW238022   3.562   2.115   3.666 -0.2953 -1.2848  0.8927
 8796SOL     OW38023   4.462   1.228   2.472  0.2681 -0.6236  0.0485
 8796SOL    HW138024   4.552   1.256   2.488 -0.7394  1.1644  2.5674
 8796SOL    HW238025   4.462   1.147   2.522  0.6288 -0.0345  1.0080
 8797SOL     OW38026   3.245   0.098  12.401  0.0965 -0.5440 -0.0080
 8797SOL    HW138027   3.318   0.158  12.413 -0.2249 -0.2886  0.6618
 8797SOL    HW238028   3.282   0.012  12.422  0.5608 -0.4382 -0.3880
 8798SOL     OW38029   2.670   1.286   3.313  0.0785 -0.2159  0.6521
 8798SOL    HW138030   2.702   1.207   3.356 -2.5316 -1.5257  0.2325
 8798SOL    HW238031   2.581   1.254   3.297  0.1203 -0.5267  1.0749
 8799SOL     OW38032   2.070   3.342   4.069 -0.5934 -0.0346 -0.2758
 8799SOL    HW138033   2.011   3.340   3.994 -0.0982 -0.6104 -0.6490
 8799SOL    HW238034   2.066   3.438   4.076 -1.1967 -0.0448 -0.4673
 8800SOL     OW38035   3.307   2.502   6.313  0.3561  0.3720 -0.0987
 8800SOL    HW138036   3.268   2.585   6.286 -1.0608 -1.1499 -2.6942
 8800SOL    HW238037   3.244   2.471   6.377  1.1601 -2.8028 -0.8699
 8801SOL     OW38038   0.008   4.402   5.558 -0.9393  0.2209  0.4391
 8801SOL    HW138039   0.081   4.463   5.544 -0.6888 -0.4014 -0.8710
 8801SOL    HW238040   4.681   4.427   5.492 -0.8672 -2.3472 -0.5991
 8802SOL     OW38041   4.689   4.561   2.113  0.2639  0.1976  0.0958
 8802SOL    HW138042   4.641   4.622   2.170  1.0676  1.3068 -0.4343
 8802SOL    HW238043   0.019   4.528   2.173  0.6420  0.8036  0.0017
 8803SOL     OW38044   2.193   3.202   2.206  0.7328 -0.0981  0.2414
 8803SOL    HW138045   2.168   3.233   2.293  0.2059 -1.6816  0.6637
 8803SOL    HW238046   2.225   3.116   2.234 -0.0121  0.3400  2.4315
 8804SOL     OW38047   2.166   2.229   4.531  0.0254 -0.2196 -0.2199
 8804SOL    HW138048   2.118   2.177   4.466 -0.5129 -0.3015  0.2355
 8804SOL    HW238049   2.234   2.163   4.546  1.5436  0.4996 -4.0833
 8805SOL     OW38050   0.580   2.086  11.953 -0.2166  0.3305 -0.5904
 8805SOL    HW138051   0.560   2.174  11.986 -0.5304  0.4696 -1.1464
 8805SOL    HW238052   0.572   2.034  12.033 -2.3696 -0.3947 -1.2697
 8806SOL     OW38053   2.033   3.005  13.570  0.2404  0.4127 -0.1204
 8806SOL    HW138054   1.961   3.060  13.599 -0.5828 -0.5330 -0.3518
 8806SOL    HW238055   2.019   2.919  13.609  1.5979  0.6019  0.7791
 8807SOL     OW38056   3.130   2.907   2.947 -0.1683  0.1097  0.0532
 8807SOL    HW138057   3.169   2.888   2.861 -0.4175 -2.9304  0.6232
 8807SOL    HW238058   3.052   2.852   2.950 -0.6589  0.8267  0.4307
 8808SOL     OW38059   0.418   4.016   4.159  0.4814  0.1103  0.9042
 8808SOL    HW138060   0.506   3.987   4.139  0.1107  0.3532 -1.1543
 8808SOL    HW238061   0.374   3.976   4.084  0.5039 -0.7417  1.3445
 8809SOL     OW38062   0.340   0.543   3.149 -0.1678  0.1647 -0.0068
 8809SOL    HW138063   0.428   0.539   3.111 -0.3472  0.9619 -0.5043
 8809SOL    HW238064   0.301   0.576   3.068 -0.8544 -0.0441  0.2360
 8810SOL     OW38065   0.364   1.379   8.792  0.3490 -0.1846 -0.9529
 8810SOL    HW138066   0.277   1.411   8.769  0.3447 -0.0412 -0.7440
 8810SOL    HW238067   0.418   1.435   8.736 -0.3282  0.9123 -0.5277
 8811SOL     OW38068   4.604   1.786  12.349 -0.7684  0.3659 -0.1542
 8811SOL    HW138069   4.580   1.705  12.304 -1.3722 -0.0915  0.9853
 8811SOL    HW238070   4.524   1.838  12.350 -1.0206 -0.0264  0.1376
 8812SOL     OW38071   1.657   2.465   2.847  0.8769  0.7735  0.1550
 8812SOL    HW138072   1.715   2.524   2.894  2.0766  0.8245 -1.3746
 8812SOL    HW238073   1.716   2.401   2.807  0.8604  0.1026  1.2010
 8813SOL     OW38074   1.296   0.302   1.234 -0.0370 -0.6385 -0.2862
 8813SOL    HW138075   1.231   0.273   1.298 -1.0480 -0.7769 -1.3765
 8813SOL    HW238076   1.352   0.353   1.293  0.0614  0.1865 -1.0954
 8814SOL     OW38077   1.735   3.614  13.952  0.3952 -0.4772  0.3004
 8814SOL    HW138078   1.707   3.523  13.937 -1.0523  0.6298 -3.5630
 8814SOL    HW238079   1.794   3.617  13.876 -0.9456  2.0224 -0.6441
 8815SOL     OW38080   2.439   3.500  13.840 -0.0020 -0.1155  0.3431
 8815SOL    HW138081   2.418   3.582  13.796  1.3397  1.5255  2.8226
 8815SOL    HW238082   2.448   3.443  13.763  0.5569 -0.3264  0.5649
 8816SOL     OW38083   4.591   2.583   6.291  0.1757 -0.8918 -0.1009
 8816SOL    HW138084   4.624   2.510   6.343  0.4680 -0.8076 -0.1729
 8816SOL    HW238085   4.635   2.656   6.333 -0.2084 -0.2721 -0.7628
 8817SOL     OW38086   1.050   4.346   1.737  0.3018  0.3218 -0.2886
 8817SOL    HW138087   1.072   4.292   1.661 -1.6244  1.1600 -1.4433
 8817SOL    HW238088   0.958   4.327   1.754 -0.1285  0.9684 -1.8426
 8818SOL     OW38089   2.299   2.995   8.284  0.2704  0.1503 -0.2094
 8818SOL    HW138090   2.377   2.939   8.286  1.5609  1.9479  0.0966
 8818SOL    HW238091   2.314   3.077   8.332 -2.4759  2.4970 -3.3342
 8819SOL     OW38092   0.797   2.807   8.337  0.2151  0.6877 -0.0937
 8819SOL    HW138093   0.824   2.897   8.357  0.2913  0.8903 -1.0721
 8819SOL    HW238094   0.818   2.763   8.419 -3.3284 -2.2334 -0.7640
 8820SOL     OW38095   1.349   2.431  17.309 -0.3211  0.3551 -0.3108
 8820SOL    HW138096   1.419   2.494  17.329 -0.4346  0.6633 -0.8885
 8820SOL    HW238097   1.378   2.387  17.230 -2.1738 -0.2343 -0.6507
 8821SOL     OW38098   2.782   1.426  15.181  0.0425  0.5018 -0.2440
 8821SOL    HW138099   2.791   1.352  15.121  1.1695 -0.6495  1.3340
 8821SOL    HW238100   2.779   1.495  15.115  0.1923  0.1652 -0.6009
 8822SOL     OW38101   0.721   3.553   9.884 -0.3244  0.6260 -0.4208
 8822SOL    HW138102   0.813   3.578   9.894 -0.4050  1.0134 -0.6667
 8822SOL    HW238103   0.730   3.457   9.885 -0.9438  0.5740  1.1051
 8823SOL     OW38104   4.194   4.623   8.016  0.3021 -0.4069  0.4211
 8823SOL    HW138105   4.277   4.637   8.062  0.0673 -0.4676  0.8620
 8823SOL    HW238106   4.206   4.680   7.941  2.8709 -1.0918  0.3162
 8824SOL     OW38107   0.967   0.639   8.304  0.1983 -0.6149  0.2337
 8824SOL    HW138108   1.034   0.654   8.372  0.3088  0.7541 -0.1805
 8824SOL    HW238109   1.029   0.575   8.269  1.5922  0.6099  0.4798
 8825SOL     OW38110   2.358   0.960   0.098 -0.0524  0.1788  0.4441
 8825SOL    HW138111   2.414   0.907   0.156  2.3064  1.4227 -0.6919
 8825SOL    HW238112   2.424   1.027   0.082 -0.8653  0.9275  0.2501
 8826SOL     OW38113   1.887   3.097   3.382 -0.0026  0.2192  0.3009
 8826SOL    HW138114   1.854   3.037   3.450  1.1025  0.1783  0.7948
 8826SOL    HW238115   1.975   3.061   3.371 -0.3179 -0.2966 -0.5183
 8827SOL     OW38116   0.293   0.642  13.755 -0.4231 -0.1272  0.2112
 8827SOL    HW138117   0.213   0.693  13.772  0.4791  1.6158 -0.8561
 8827SOL    HW238118   0.270   0.551  13.774 -1.2856  0.0706  0.1301
 8828SOL     OW38119   0.686   4.626   2.019  0.1931  0.1722  0.3722
 8828SOL    HW138120   0.650   4.708   2.054 -0.4298  1.4932 -3.3754
 8828SOL    HW238121   0.624   4.603   1.950 -0.6813  1.1200  0.8416
 8829SOL     OW38122   4.689   1.968   7.222 -0.5451 -0.2135 -0.3645
 8829SOL    HW138123   0.030   1.937   7.266 -0.3267  0.6349 -0.1504
 8829SOL    HW238124   4.729   2.053   7.204 -1.4468  0.4155  0.5614
 8830SOL     OW38125   1.390   2.055   7.990 -0.2688 -0.1946  0.1740
 8830SOL    HW138126   1.346   2.002   8.056  0.9974 -0.9341  0.4222
 8830SOL    HW238127   1.474   2.076   8.031 -1.3624  0.8030  1.9121
 8831SOL     OW38128   3.814   0.078   6.584  0.3113 -0.4337 -0.3520
 8831SOL    HW138129   3.847   0.131   6.657  2.4532 -1.3003 -0.6979
 8831SOL    HW238130   3.874   0.004   6.578 -0.6433 -1.4464  2.2576
 8832SOL     OW38131   4.418   1.580   6.430  0.3343 -0.6970 -0.3944
 8832SOL    HW138132   4.393   1.673   6.427  0.3393 -0.6398  1.4792
 8832SOL    HW238133   4.463   1.589   6.346  0.8235 -1.3758 -0.2031
 8833SOL     OW38134   3.261   3.729  17.054 -0.5354  0.6067 -0.2139
 8833SOL    HW138135   3.218   3.730  16.969 -1.3320  0.1982  0.1831
 8833SOL    HW238136   3.332   3.788  17.031 -2.1047  1.5583 -2.5328
 8834SOL     OW38137   3.018   0.559   2.393  0.0152  0.5977  0.5663
 8834SOL    HW138138   3.045   0.494   2.459 -0.7328 -0.6828 -0.3941
 8834SOL    HW238139   2.952   0.508   2.346  0.6649  1.3164 -1.1163
 8835SOL     OW38140   0.694   2.544   2.348 -0.0604  0.6758 -0.1680
 8835SOL    HW138141   0.682   2.637   2.364  0.0415  1.1070 -2.6278
 8835SOL    HW238142   0.780   2.530   2.388 -0.2376 -0.1319 -0.0691
 8836SOL     OW38143   4.094   4.444   8.597 -0.5329 -0.4806  0.3838
 8836SOL    HW138144   4.166   4.416   8.540  0.2163 -0.4165  1.3085
 8836SOL    HW238145   4.141   4.500   8.658 -1.8862 -1.7580  2.5786
 8837SOL     OW38146   1.475   3.234   7.753  0.3514  0.4431 -0.0728
 8837SOL    HW138147   1.544   3.186   7.708  0.0776 -1.5345  1.6451
 8837SOL    HW238148   1.528   3.282   7.817  1.2363  0.0148 -0.4882
 8838SOL     OW38149   3.917   3.947  14.535 -0.0105  0.1424  0.2372
 8838SOL    HW138150   3.934   3.856  14.509  0.7612  0.1881  0.5987
 8838SOL    HW238151   3.922   3.999  14.455  1.7223  0.4106  0.5166
 8839SOL     OW38152   0.855   3.645  12.830  0.4263  0.2558  0.2528
 8839SOL    HW138153   0.895   3.587  12.895  0.3356 -0.0414  0.0418
 8839SOL    HW238154   0.797   3.581  12.790  0.4466 -1.2923  2.6756
 8840SOL     OW38155   1.942   2.720  14.664  0.3589  0.6777  0.2333
 8840SOL    HW138156   1.955   2.713  14.570  1.1398 -0.2040  0.4083
 8840SOL    HW238157   1.874   2.787  14.668  1.5973  1.9806 -0.6960
 8841SOL     OW38158   0.369   4.405   7.177 -0.2154  0.4070  0.3925
 8841SOL    HW138159   0.300   4.365   7.229  0.2453  2.3325  2.4847
 8841SOL    HW238160   0.326   4.466   7.117 -1.7607 -1.2656 -0.1684
 8842SOL     OW38161   2.146   0.818   3.219  0.2729 -0.5382  0.5738
 8842SOL    HW138162   2.119   0.731   3.248  0.4411 -0.6456  0.4122
 8842SOL    HW238163   2.102   0.878   3.279 -1.8130  1.4282 -2.8831
 8843SOL     OW38164   3.920   0.819   3.275  0.4463  0.5451  0.6066
 8843SOL    HW138165   3.941   0.773   3.356 -2.0178 -1.6756  0.0035
 8843SOL    HW238166   3.998   0.802   3.223  0.1780  0.8660  0.0988
 8844SOL     OW38167   0.158   4.499   8.640 -0.5965 -0.1055  0.6669
 8844SOL    HW138168   0.089   4.452   8.593 -1.5927  1.7514  0.2864
 8844SOL    HW238169   0.124   4.515   8.727 -0.0354  1.7676  0.5479
 8845SOL     OW38170   3.603   2.172  16.094 -0.5213 -0.5942  0.0301
 8845SOL    HW138171   3.665   2.230  16.051 -0.8857 -1.7934 -2.0961
 8845SOL    HW238172   3.527   2.222  16.066 -0.8722  0.0688  2.1081
 8846SOL     OW38173   2.944   0.051   2.226  0.7089  0.2043 -0.1579
 8846SOL    HW138174   2.888   0.117   2.268  1.3339  1.5000 -1.3809
 8846SOL    HW238175   2.937   4.711   2.282  0.8126 -0.6446 -1.3303
 8847SOL     OW38176   2.227   0.523   5.854  0.3319 -0.3885  0.1197
 8847SOL    HW138177   2.281   0.538   5.932 -1.2892  0.5047  1.0691
 8847SOL    HW238178   2.145   0.563   5.885  0.2338  1.2358 -2.2493
 8848SOL     OW38179   3.057   3.323  11.780  0.3328  0.4248  0.0380
 8848SOL    HW138180   2.988   3.387  11.763 -0.0680 -0.3818 -1.3682
 8848SOL    HW238181   3.124   3.374  11.734 -1.3626  1.4095 -1.3179
 8849SOL     OW38182   1.629   3.787  10.517 -0.4945 -0.1998  0.5433
 8849SOL    HW138183   1.632   3.882  10.506  0.9489 -0.3971 -0.6430
 8849SOL    HW238184   1.536   3.769  10.530 -1.2662  2.9128 -0.6480
 8850SOL     OW38185   0.947   4.537   4.285 -0.4445 -0.4715  0.4193
 8850SOL    HW138186   0.969   4.574   4.199  1.2384 -1.3015  0.4925
 8850SOL    HW238187   1.021   4.476   4.287  1.1990  1.5184  0.0667
 8851SOL     OW38188   0.540   3.767   3.886 -0.5936 -0.3198 -0.4530
 8851SOL    HW138189   0.459   3.818   3.876 -0.3949 -0.0140 -0.5159
 8851SOL    HW238190   0.572   3.814   3.963  0.2110  1.7876 -2.0758
 8852SOL     OW38191   0.776   4.203  16.507  0.1095  0.2093 -0.0503
 8852SOL    HW138192   0.824   4.135  16.554 -1.2490 -1.6689 -1.3736
 8852SOL    HW238193   0.769   4.264  16.581  3.5300  1.4980 -0.7563
 8853SOL     OW38194   2.824   1.235   5.753  0.3357  0.0816 -0.2724
 8853SOL    HW138195   2.762   1.213   5.823  0.5093  1.4530  0.3170
 8853SOL    HW238196   2.769   1.285   5.693 -2.1596 -0.6010  1.4184
 8854SOL     OW38197   2.601   4.259   7.533  0.2327  0.2165  0.6860
 8854SOL    HW138198   2.584   4.327   7.598  0.8292  0.5874  0.4535
 8854SOL    HW238199   2.601   4.182   7.590  1.3302 -0.0865  0.2740
 8855SOL     OW38200   3.754   4.142   4.650  0.3123  0.0757  0.1474
 8855SOL    HW138201   3.849   4.150   4.660  0.2324  0.0032  0.9614
 8855SOL    HW238202   3.745   4.047   4.658  1.5071 -0.3049 -2.9043
 8856SOL     OW38203   0.463   2.874   2.440 -0.2720  0.0290  0.6758
 8856SOL    HW138204   0.425   2.822   2.510 -0.4834 -0.8765 -0.1074
 8856SOL    HW238205   0.435   2.964   2.458 -2.2736 -0.8540  1.9547
 8857SOL     OW38206   1.175   2.237   7.569  0.2341 -0.2728  0.4345
 8857SOL    HW138207   1.225   2.274   7.641  0.5739  2.0649 -0.9838
 8857SOL    HW238208   1.216   2.151   7.569  0.4048 -0.1956 -0.2458
 8858SOL     OW38209   0.979   1.518  11.956  0.6669  0.2759 -0.5244
 8858SOL    HW138210   0.951   1.426  11.958  1.1061  0.1455 -0.4675
 8858SOL    HW238211   0.984   1.539  12.049  0.6791 -0.7336 -0.2987
 8859SOL     OW38212   2.786   2.079   9.954 -0.3399 -0.4703  0.2034
 8859SOL    HW138213   2.856   2.143   9.970 -0.0253 -0.9809  0.8614
 8859SOL    HW238214   2.704   2.128   9.966 -0.9388 -1.3759 -0.2488
 8860SOL     OW38215   4.337   2.575   9.539  0.3871  0.0059 -0.0245
 8860SOL    HW138216   4.401   2.522   9.585  1.1054  1.0728  0.2183
 8860SOL    HW238217   4.305   2.505   9.482 -0.7293  1.1644 -0.8309
 8861SOL     OW38218   2.543   2.074  12.284 -0.6752 -0.4930 -0.0043
 8861SOL    HW138219   2.504   2.056  12.198  1.1756 -2.6655 -0.3586
 8861SOL    HW238220   2.470   2.110  12.335 -0.4545  1.5334 -1.1154
 8862SOL     OW38221   2.988   3.731   4.227 -0.3077  0.0736 -0.6019
 8862SOL    HW138222   3.048   3.668   4.266 -0.7335 -1.3465 -2.2672
 8862SOL    HW238223   3.029   3.754   4.144  0.5396 -1.5787 -0.6328
 8863SOL     OW38224   0.637   3.422   1.151  0.2031 -0.2614  0.1014
 8863SOL    HW138225   0.621   3.334   1.119  1.7949 -0.6904  0.4578
 8863SOL    HW238226   0.549   3.457   1.142 -0.0029 -0.0710  2.6967
 8864SOL     OW38227   3.869   2.389  13.476  0.1808  0.2004 -0.1085
 8864SOL    HW138228   3.862   2.446  13.400  1.9196 -2.1421 -2.0563
 8864SOL    HW238229   3.818   2.443  13.536  0.7455 -1.0743  1.5133
 8865SOL     OW38230   3.790   0.945  13.502 -0.2930  0.1827  0.0065
 8865SOL    HW138231   3.882   0.972  13.509  0.1411 -1.2388 -0.2497
 8865SOL    HW238232   3.773   0.990  13.419  0.1623  0.0132 -0.1794
 8866SOL     OW38233   0.718   4.518   8.495  0.1064 -0.2507  0.7674
 8866SOL    HW138234   0.626   4.517   8.519  0.3056  1.5835  1.5954
 8866SOL    HW238235   0.754   4.599   8.532  1.4040 -0.1025 -0.7993
 8867SOL     OW38236   1.065   0.682   4.953  0.3833  0.1359  0.2758
 8867SOL    HW138237   0.987   0.733   4.977 -0.1600  0.7108 -2.7903
 8867SOL    HW238238   1.127   0.745   4.917 -0.7920  1.3126  0.2953
 8868SOL     OW38239   2.161   2.767   6.162 -0.3557  1.1481 -0.0664
 8868SOL    HW138240   2.114   2.766   6.245 -0.2588  0.5837 -0.0158
 8868SOL    HW238241   2.103   2.815   6.103 -1.3644 -0.5767 -0.4808
 8869SOL     OW38242   4.112   3.969   3.556  0.2935  0.5409 -0.4659
 8869SOL    HW138243   4.040   3.970   3.618  1.2094  0.1817  0.6132
 8869SOL    HW238244   4.192   3.994   3.603 -0.1730  1.3153 -0.0962
 8870SOL     OW38245   4.342   2.527   8.326 -0.5205 -0.1760 -0.6074
 8870SOL    HW138246   4.385   2.477   8.396  1.2599  3.3594  0.8474
 8870SOL    HW238247   4.308   2.456   8.272 -2.7660  0.3114  0.1951
 8871SOL     OW38248   0.268   1.995  12.063 -0.6477 -0.0537 -0.4808
 8871SOL    HW138249   0.322   1.956  11.995  1.2285  1.3522  0.1986
 8871SOL    HW238250   0.325   2.004  12.139  0.9906 -2.7025 -1.3727
 8872SOL     OW38251   0.740   1.034  14.215 -0.5270  0.0313 -0.7748
 8872SOL    HW138252   0.658   1.073  14.244 -0.5290  0.2965 -1.1421
 8872SOL    HW238253   0.793   1.050  14.294  0.7185  0.4139 -1.6819
 8873SOL     OW38254   4.302   3.792   8.873  0.0580  0.3442 -0.6502
 8873SOL    HW138255   4.245   3.716   8.881  1.2449 -0.5506 -0.6003
 8873SOL    HW238256   4.374   3.775   8.935 -0.0317  1.0185 -0.3636
 8874SOL     OW38257   0.267   0.908   7.525 -0.4049  0.2285 -0.6299
 8874SOL    HW138258   0.209   0.933   7.452 -0.3046  3.6226  0.4662
 8874SOL    HW238259   0.206   0.883   7.594  1.6936 -0.4895  0.9465
 8875SOL     OW38260   0.512   2.146   3.766 -0.1108  0.7285  0.1861
 8875SOL    HW138261   0.472   2.062   3.787 -0.6042  0.8775 -0.1782
 8875SOL    HW238262   0.589   2.138   3.823  1.3848 -0.6253 -2.0223
 8876SOL     OW38263   3.928   1.549   8.364  0.3221 -0.4300 -0.1943
 8876SOL    HW138264   3.939   1.476   8.303 -0.5543 -1.0314  0.3645
 8876SOL    HW238265   3.866   1.610   8.322  0.7826  0.2769  0.1498
 8877SOL     OW38266   3.922   4.436   1.436 -0.5775  0.2853  0.0583
 8877SOL    HW138267   4.008   4.438   1.478 -1.2843  0.8178  1.4900
 8877SOL    HW238268   3.888   4.523   1.458  0.6555  1.0138 -0.8968
 8878SOL     OW38269   0.915   0.206   9.204  0.3676 -0.4135 -0.5585
 8878SOL    HW138270   0.870   0.124   9.223 -0.7123  0.1235 -0.7807
 8878SOL    HW238271   1.001   0.187   9.166  0.3189  0.8914 -1.3408
 8879SOL     OW38272   2.211   2.811   3.512 -0.2072 -0.4336  0.4968
 8879SOL    HW138273   2.298   2.779   3.488 -1.0681 -1.2875 -1.4659
 8879SOL    HW238274   2.172   2.731   3.547 -3.1021  0.8812  0.3554
 8880SOL     OW38275   4.560   3.209   1.779  0.4856 -0.3902 -0.3082
 8880SOL    HW138276   4.542   3.292   1.734  1.9569  0.9448  1.5719
 8880SOL    HW238277   4.474   3.213   1.820  0.2062 -1.7397 -0.7520
 8881SOL     OW38278   0.819   0.271   7.678  0.6844 -0.0578  0.1515
 8881SOL    HW138279   0.808   0.269   7.773 -1.0054  2.8663  0.0362
 8881SOL    HW238280   0.886   0.203   7.671  0.9157  0.1623  0.2289
 8882SOL     OW38281   2.219   4.165  12.243  0.0885  0.0171 -0.0544
 8882SOL    HW138282   2.225   4.071  12.264  2.9536  0.3744  0.7701
 8882SOL    HW238283   2.174   4.206  12.317  1.1171  0.8476  0.1046
 8883SOL     OW38284   3.602   2.511   5.187  0.0107  0.0305 -0.5902
 8883SOL    HW138285   3.626   2.597   5.221 -2.1250 -0.4933  2.3127
 8883SOL    HW238286   3.511   2.511   5.218  0.0563 -0.7224 -0.4535
 8884SOL     OW38287   1.838   3.775   8.559  0.0446 -0.1060 -0.5785
 8884SOL    HW138288   1.838   3.738   8.648 -0.8150  2.2978  0.4309
 8884SOL    HW238289   1.928   3.760   8.528 -0.1372 -0.7141 -0.7896
 8885SOL     OW38290   1.335   0.473   4.792  0.4138  0.3676  0.4034
 8885SOL    HW138291   1.314   0.474   4.885  1.9928 -0.1034  0.7600
 8885SOL    HW238292   1.367   0.561   4.772  3.1859 -0.1466  2.7414
 8886SOL     OW38293   1.329   2.942   3.141  0.0290 -0.7018  0.0347
 8886SOL    HW138294   1.281   2.893   3.208 -1.5154  0.1920 -0.4300
 8886SOL    HW238295   1.417   2.905   3.145  1.2222  2.1134 -0.4002
 8887SOL     OW38296   1.445   3.722   1.664 -0.9390 -0.2854  0.3945
 8887SOL    HW138297   1.353   3.695   1.667 -1.1338  0.4370  0.7257
 8887SOL    HW238298   1.470   3.663   1.734  1.4413  1.5555  1.0523
 8888SOL     OW38299   0.303   2.469  11.298  0.1948  0.3830  0.3635
 8888SOL    HW138300   0.318   2.436  11.386 -0.1724 -1.2739 -0.1960
 8888SOL    HW238301   0.216   2.436  11.276  0.8629 -1.3727  0.2920
 8889SOL     OW38302   3.133   1.054  10.124 -0.2693  0.1363 -0.1006
 8889SOL    HW138303   3.216   1.068  10.079 -0.0440 -1.0511 -0.0509
 8889SOL    HW238304   3.067   1.103  10.073 -1.3201 -0.8417  0.3129
 8890SOL     OW38305   1.813   0.887   7.302 -0.5064 -0.0567 -0.3042
 8890SOL    HW138306   1.757   0.836   7.243 -1.5666  0.1612  0.5118
 8890SOL    HW238307   1.809   0.830   7.379 -0.9420  1.5227  0.8543
 8891SOL     OW38308   0.012   1.617   6.136 -0.0371  0.4248  0.4256
 8891SOL    HW138309   0.075   1.686   6.117  1.4493 -0.9725  0.2722
 8891SOL    HW238310   0.050   1.547   6.083  0.2311  1.3921 -0.6669
 8892SOL     OW38311   4.017   3.475   1.773 -0.1667  0.5036 -0.1548
 8892SOL    HW138312   3.962   3.415   1.723  0.5540  0.6473 -1.1233
 8892SOL    HW238313   4.080   3.408   1.800  0.0939  0.4345 -0.9344
 8893SOL     OW38314   1.890   3.619   5.015 -0.5179 -0.3948  0.1957
 8893SOL    HW138315   1.961   3.570   5.056 -0.8879 -0.7911  0.3598
 8893SOL    HW238316   1.922   3.627   4.925 -2.4314  2.6062 -0.1973
 8894SOL     OW38317   0.722   3.036   1.994 -0.0371  0.0709 -0.2846
 8894SOL    HW138318   0.724   2.940   1.997  1.8937  0.1687  1.3246
 8894SOL    HW238319   0.653   3.037   2.061 -0.7583 -0.9509 -0.9948
 8895SOL     OW38320   4.112   4.451   1.629 -0.1838  0.0672 -0.2260
 8895SOL    HW138321   4.136   4.365   1.663 -2.3919 -0.5440 -0.2508
 8895SOL    HW238322   4.199   4.492   1.626 -0.2072  0.2789  2.0183
 8896SOL     OW38323   1.612   0.684   8.918 -0.0032  0.1679 -0.2365
 8896SOL    HW138324   1.547   0.614   8.918  1.3279 -1.0582  0.5733
 8896SOL    HW238325   1.558   0.755   8.882  0.3023  0.4242 -0.1956
 8897SOL     OW38326   2.001   0.222   2.760  0.5664 -0.2191  0.4930
 8897SOL    HW138327   1.978   0.312   2.785  0.0655  0.0963 -1.0844
 8897SOL    HW238328   2.031   0.188   2.844 -2.3515  2.5654  2.6537
 8898SOL     OW38329   3.988   1.229   4.707 -0.0837  0.1890  0.0424
 8898SOL    HW138330   3.945   1.146   4.688 -1.2428  0.4588  1.4453
 8898SOL    HW238331   3.982   1.217   4.802  0.3524 -0.5747 -0.0271
 8899SOL     OW38332   3.371   2.081  13.470 -0.5892 -0.2550  0.1601
 8899SOL    HW138333   3.394   2.148  13.405 -1.3443  0.6441  0.8180
 8899SOL    HW238334   3.364   2.136  13.548  1.5677 -2.9756  2.2566
 8900SOL     OW38335   0.137   3.853   6.937 -0.0789 -0.0182 -0.5893
 8900SOL    HW138336   0.080   3.811   7.001 -1.4267  0.8134 -1.2593
 8900SOL    HW238337   0.090   3.839   6.855 -0.7361 -1.1977 -0.0073
 8901SOL     OW38338   1.557   3.955  17.087  0.2934  0.3483 -0.3169
 8901SOL    HW138339   1.619   4.024  17.111  0.4349  0.6141 -1.4398
 8901SOL    HW238340   1.617   3.881  17.094 -0.5592 -0.3963 -0.8643
 8902SOL     OW38341   0.224   3.536  15.649 -0.0439 -0.2146  0.1297
 8902SOL    HW138342   0.237   3.621  15.693  2.2420 -0.7947  0.5926
 8902SOL    HW238343   0.274   3.537  15.567 -0.1662 -0.0528  0.0574
 8903SOL     OW38344   0.561   0.731   8.723  0.1347  1.0547 -0.0540
 8903SOL    HW138345   0.538   0.733   8.631 -2.5983 -0.7750  0.6036
 8903SOL    HW238346   0.480   0.770   8.755  0.0510  0.6177  0.2673
 8904SOL     OW38347   4.681   2.775   7.242  0.3839 -0.5613 -0.0414
 8904SOL    HW138348   0.005   2.822   7.186 -0.7662 -0.3234 -1.0958
 8904SOL    HW238349   4.613   2.752   7.179  1.2770 -0.5067 -1.0286
 8905SOL     OW38350   4.356   0.304  14.872 -0.0774  0.0340  0.7079
 8905SOL    HW138351   4.411   0.356  14.931  0.4121 -0.5111  0.7295
 8905SOL    HW238352   4.393   0.216  14.869  1.0742  0.5150  0.8592
 8906SOL     OW38353   2.410   0.592   3.520  0.6280 -0.1268  0.4783
 8906SOL    HW138354   2.378   0.545   3.443  0.0631  1.1923 -0.0869
 8906SOL    HW238355   2.463   0.525   3.562  0.2932 -2.5256 -2.8712
 8907SOL     OW38356   4.237   3.063   7.204  0.0401 -0.4846 -0.5945
 8907SOL    HW138357   4.280   3.148   7.213 -0.1105 -0.5806  1.2030
 8907SOL    HW238358   4.146   3.093   7.198  0.6627  1.9034  1.5761
 8908SOL     OW38359   4.313   4.399   6.414 -0.4056 -0.0945 -0.6701
 8908SOL    HW138360   4.230   4.366   6.379  0.3084 -1.3312 -1.1805
 8908SOL    HW238361   4.319   4.371   6.505  0.1676  0.4580 -0.5335
 8909SOL     OW38362   1.522   4.669   7.666  0.1640  0.3382 -0.4973
 8909SOL    HW138363   1.458   4.718   7.717 -0.5072  1.0640 -2.0484
 8909SOL    HW238364   1.579   4.635   7.735 -0.0570 -0.7121 -0.8332
 8910SOL     OW38365   0.139   1.312   9.941 -0.2867  0.0075 -0.0559
 8910SOL    HW138366   0.143   1.283  10.032  1.0462  1.9258  0.4904
 8910SOL    HW238367   0.104   1.399   9.958 -1.4248  0.0651 -2.6937
 8911SOL     OW38368   2.555   3.713   4.579  0.7203  0.0158 -0.0951
 8911SOL    HW138369   2.471   3.716   4.533  1.3841  2.6985 -1.1237
 8911SOL    HW238370   2.539   3.638   4.637 -1.1565 -0.4945 -1.2555
 8912SOL     OW38371   4.239   2.909   3.253  0.3885 -0.2048  0.3011
 8912SOL    HW138372   4.292   2.962   3.193 -0.7319 -0.9639 -1.3572
 8912SOL    HW238373   4.284   2.932   3.334 -1.5892 -0.6982  1.5401
 8913SOL     OW38374   3.770   3.868   0.537 -0.2287 -0.3764 -0.0678
 8913SOL    HW138375   3.715   3.939   0.504 -0.9412 -0.9699 -0.1394
 8913SOL    HW238376   3.791   3.825   0.454 -2.1176 -0.4570 -0.4956
 8914SOL     OW38377   3.117   3.137   2.428 -0.1277  0.1488  0.1066
 8914SOL    HW138378   3.189   3.109   2.484  0.3577  3.1954  0.9765
 8914SOL    HW238379   3.155   3.216   2.388  0.6939 -0.3625 -0.1150
 8915SOL     OW38380   4.723   1.957   4.088  0.6683  0.2009  0.3832
 8915SOL    HW138381   0.030   2.042   4.085  1.4916 -0.2044  1.1443
 8915SOL    HW238382   4.734   1.925   3.999 -0.2289 -2.4966  1.2599
 8916SOL     OW38383   4.215   2.875   1.153  0.3866 -0.1816  0.2569
 8916SOL    HW138384   4.219   2.856   1.059 -0.9576 -1.9669  0.5515
 8916SOL    HW238385   4.205   2.970   1.149 -1.7861 -0.4257 -0.1022
 8917SOL     OW38386   2.876   2.016   9.325  0.4510 -0.1505 -0.1466
 8917SOL    HW138387   2.813   1.944   9.318 -0.3782  0.3252  2.5577
 8917SOL    HW238388   2.943   1.975   9.379  0.4027 -1.4101 -1.0584
 8918SOL     OW38389   3.346   4.520   6.265  0.5248 -0.1842 -0.0146
 8918SOL    HW138390   3.261   4.477   6.276 -0.6943  1.7403 -1.8916
 8918SOL    HW238391   3.411   4.455   6.240  0.0367 -0.5119 -0.4242
 8919SOL     OW38392   3.469   0.596   6.428 -0.0426  0.2254  0.0686
 8919SOL    HW138393   3.438   0.605   6.338 -0.3027 -0.4049  0.0891
 8919SOL    HW238394   3.540   0.660   6.431  0.1724 -0.0002 -0.1984
 8920SOL     OW38395   4.017   0.165   5.047 -0.1197  0.1093  0.3811
 8920SOL    HW138396   3.923   0.147   5.043 -0.5528  3.0265 -2.1686
 8920SOL    HW238397   4.021   0.261   5.046  0.0746  0.1251  1.8536
 8921SOL     OW38398   1.975   3.244   9.660  0.1609  0.0306  0.3620
 8921SOL    HW138399   2.017   3.161   9.683  2.1965  1.4151  1.6048
 8921SOL    HW238400   1.986   3.240   9.565 -0.9558 -3.4201  0.3648
 8922SOL     OW38401   1.348   1.494   2.784  0.0778  0.6683 -0.1035
 8922SOL    HW138402   1.271   1.466   2.735 -0.5315  1.1658  0.5704
 8922SOL    HW238403   1.330   1.464   2.873 -3.0796 -0.2292 -1.0396
 8923SOL     OW38404   3.258   0.724   9.464 -0.0939 -0.1897 -0.5819
 8923SOL    HW138405   3.277   0.751   9.374 -0.4789  2.1621  0.0572
 8923SOL    HW238406   3.217   0.800   9.504  2.3966  2.1165 -2.4351
 8924SOL     OW38407   2.243   0.139   5.226  0.2027 -0.1907  0.1753
 8924SOL    HW138408   2.151   0.132   5.201  0.6994 -0.3693 -1.6358
 8924SOL    HW238409   2.237   0.128   5.321  0.3809 -0.4699  0.1552
 8925SOL     OW38410   0.974   3.470  15.035 -0.0139  0.3387 -0.1691
 8925SOL    HW138411   0.989   3.563  15.018  1.7826 -0.1542 -1.3276
 8925SOL    HW238412   0.918   3.481  15.112  0.0583 -0.6315  0.0329
 8926SOL     OW38413   2.490   1.280   4.257  0.4524 -0.0219 -0.4581
 8926SOL    HW138414   2.540   1.305   4.179  2.1859 -0.4691  0.5147
 8926SOL    HW238415   2.422   1.221   4.225 -0.1049 -0.3121  1.2222
 8927SOL     OW38416   2.103   1.168   8.479  0.2766  0.8669  0.6071
 8927SOL    HW138417   2.029   1.216   8.441  0.7999 -0.5418 -2.1717
 8927SOL    HW238418   2.164   1.236   8.508 -2.5577  3.4426  0.5166
 8928SOL     OW38419   0.566   0.564   7.692 -0.3871 -0.4859 -0.5852
 8928SOL    HW138420   0.548   0.493   7.630 -1.1270 -1.3735  0.6613
 8928SOL    HW238421   0.661   0.574   7.689 -0.1135 -3.0901 -0.7669
 8929SOL     OW38422   1.652   3.326   4.094 -0.2877 -0.1640  0.3105
 8929SOL    HW138423   1.561   3.351   4.112 -0.3827 -1.7912  2.0764
 8929SOL    HW238424   1.647   3.233   4.072  0.0134  0.0584 -0.6747
 8930SOL     OW38425   4.647   2.882   8.466  0.3389 -0.4893  0.3678
 8930SOL    HW138426   4.657   2.798   8.510  1.3744 -0.6781 -0.2065
 8930SOL    HW238427   4.577   2.866   8.403  0.4041 -0.2993  0.2452
 8931SOL     OW38428   1.475   4.533   6.683 -0.5754 -0.1060 -0.6240
 8931SOL    HW138429   1.384   4.528   6.711 -0.4312  0.4984 -0.0604
 8931SOL    HW238430   1.470   4.585   6.603  0.8210  3.3535  1.5482
 8932SOL     OW38431   1.429   3.566  16.098 -0.1618  0.7158 -0.0642
 8932SOL    HW138432   1.507   3.601  16.141 -0.0363 -0.0036  0.2806
 8932SOL    HW238433   1.461   3.555  16.009 -0.4352  0.4110 -0.1237
 8933SOL     OW38434   0.966   2.216   6.417 -0.1335  0.0670 -0.3255
 8933SOL    HW138435   1.001   2.180   6.498 -2.4026 -1.4588 -0.0428
 8933SOL    HW238436   0.871   2.221   6.426 -0.0769  0.3399  0.1014
 8934SOL     OW38437   0.245   0.411   1.656 -0.3499 -0.2024 -0.1312
 8934SOL    HW138438   0.183   0.379   1.591  1.2349 -1.5283 -0.9884
 8934SOL    HW238439   0.234   0.505   1.647 -0.0912 -0.0447  1.2172
 8935SOL     OW38440   1.381   2.668   3.311 -0.0794  0.1507  0.4852
 8935SOL    HW138441   1.300   2.700   3.351  0.4597  1.6626  0.3967
 8935SOL    HW238442   1.456   2.714   3.348 -0.0969 -0.2991  1.0847
 8936SOL     OW38443   2.373   3.147  12.604 -0.2817 -0.1935 -0.3067
 8936SOL    HW138444   2.377   3.117  12.513 -0.9738 -4.5727  1.0834
 8936SOL    HW238445   2.326   3.229  12.595  0.6471  0.3267 -0.4329
 8937SOL     OW38446   1.187   3.223   8.168  0.0875 -0.4976  0.1546
 8937SOL    HW138447   1.168   3.314   8.192  0.1372 -0.1008 -1.2864
 8937SOL    HW238448   1.210   3.183   8.251 -1.3129  0.0419  0.7974
 8938SOL     OW38449   3.109   2.298  13.689 -0.0767  0.1489 -0.2616
 8938SOL    HW138450   3.099   2.215  13.642 -0.9981 -0.4785  1.0312
 8938SOL    HW238451   3.090   2.365  13.623 -2.5399  1.2986  1.6306
 8939SOL     OW38452   2.096   2.472  13.982 -0.1057 -0.2293  0.3692
 8939SOL    HW138453   2.019   2.467  13.925 -0.8075  2.1987  1.1071
 8939SOL    HW238454   2.082   2.552  14.034 -3.1084 -1.7512  1.9139
 8940SOL     OW38455   0.062   1.413   5.469 -0.0853  0.4502 -0.0935
 8940SOL    HW138456   0.135   1.352   5.481 -0.6480  0.1885  1.8843
 8940SOL    HW238457   0.007   1.392   5.544  0.5663 -0.7815  0.0364
 8941SOL     OW38458   4.484   3.525  11.644  0.2733  0.3481 -0.1225
 8941SOL    HW138459   4.503   3.443  11.689 -0.9515  1.3346  2.1386
 8941SOL    HW238460   4.522   3.592  11.701  0.5305 -0.2642  0.4182
 8942SOL     OW38461   0.372   0.576   3.742 -0.2209 -0.8650 -0.0109
 8942SOL    HW138462   0.438   0.522   3.700  0.4047 -0.5530  0.5884
 8942SOL    HW238463   0.382   0.554   3.834  2.1413 -0.5912 -0.2076
 8943SOL     OW38464   2.173   3.602   5.776 -0.5123 -0.0935 -0.1974
 8943SOL    HW138465   2.171   3.667   5.847  3.3991 -1.1993  0.9506
 8943SOL    HW238466   2.214   3.528   5.821  0.0520  0.0775 -0.4205
 8944SOL     OW38467   0.937   0.046   0.489 -0.4481  0.5767  0.3267
 8944SOL    HW138468   1.014   0.010   0.444 -1.5371  0.8518 -1.7408
 8944SOL    HW238469   0.981   0.106   0.549  0.2032  1.5225 -1.0885
 8945SOL     OW38470   3.144   4.040  13.593 -0.1867  0.3658  0.3024
 8945SOL    HW138471   3.199   4.098  13.644  0.4068 -1.7948  2.1370
 8945SOL    HW238472   3.126   3.968  13.654  1.8889  0.1671  0.6850
 8946SOL     OW38473   0.187   0.753  17.611 -0.2166 -0.1139 -0.4666
 8946SOL    HW138474   0.105   0.804  17.616 -0.0849  0.1848 -1.2618
 8946SOL    HW238475   0.163   0.679  17.666  1.7460  0.5504  1.2548
 8947SOL     OW38476   4.146   1.023   7.913 -0.0423 -0.1485  0.5238
 8947SOL    HW138477   4.235   1.030   7.877 -1.1606 -0.4395 -2.3185
 8947SOL    HW238478   4.149   0.943   7.966  0.2269 -0.6354 -0.2053
 8948SOL     OW38479   3.367   1.370   0.504 -0.5591  0.2448  0.0992
 8948SOL    HW138480   3.322   1.438   0.554 -1.0698 -1.3663  1.7867
 8948SOL    HW238481   3.299   1.303   0.501 -0.5819  0.2939 -0.4196
 8949SOL     OW38482   4.288   4.410  13.022  0.5998 -0.0932 -0.6202
 8949SOL    HW138483   4.339   4.402  13.102  1.2351 -0.9740 -1.1038
 8949SOL    HW238484   4.268   4.503  13.023  2.0172  0.2264 -1.0548
 8950SOL     OW38485   1.046   3.417   3.874  0.1212  0.3754 -0.0005
 8950SOL    HW138486   1.021   3.367   3.796  1.1592 -2.1000  1.2472
 8950SOL    HW238487   0.997   3.497   3.854 -3.7992 -2.2206 -0.8891
 8951SOL     OW38488   1.914   2.127  11.647 -0.6344 -0.1937 -0.6773
 8951SOL    HW138489   1.832   2.175  11.663 -0.4841  0.1081 -0.8096
 8951SOL    HW238490   1.967   2.146  11.724  1.3701 -1.8768 -1.6432
 8952SOL     OW38491   4.310   1.099   7.395  0.1047  0.5904 -0.5447
 8952SOL    HW138492   4.372   1.079   7.465 -0.9495 -0.9759 -0.0658
 8952SOL    HW238493   4.312   1.025   7.334  1.0595  1.8520 -2.0358
 8953SOL     OW38494   4.565   2.047   5.376  0.0603  0.3848  0.0375
 8953SOL    HW138495   4.657   2.025   5.359 -0.5948 -2.5003  0.3998
 8953SOL    HW238496   4.531   2.078   5.292 -0.9248  0.6497  0.5342
 8954SOL     OW38497   2.739   1.413   6.530 -0.1721 -0.7196 -0.2896
 8954SOL    HW138498   2.703   1.501   6.519 -2.0078 -1.3990  0.3965
 8954SOL    HW238499   2.782   1.418   6.615  1.5371 -0.8897 -1.1334
 8955SOL     OW38500   3.987   0.087  17.695  0.0591  0.4100 -0.4641
 8955SOL    HW138501   3.988   0.064  17.602  0.5132  0.5723 -0.4971
 8955SOL    HW238502   4.076   0.120  17.700  0.5283 -0.6444 -1.8114
 8956SOL     OW38503   0.444   2.166   1.690  0.0932  0.0000 -0.0441
 8956SOL    HW138504   0.440   2.114   1.770 -1.4523  0.5559  0.2541
 8956SOL    HW238505   0.391   2.245   1.707 -2.0172 -1.6244  0.9874
 8957SOL     OW38506   2.140   2.925   9.003 -0.0459  0.0941 -0.3119
 8957SOL    HW138507   2.119   2.865   9.074  1.6552 -1.4310 -1.0910
 8957SOL    HW238508   2.049   2.937   8.976  1.1202  0.5872 -4.0795
 8958SOL     OW38509   4.301   2.931  17.476  0.4344  0.8914 -0.4036
 8958SOL    HW138510   4.292   2.945  17.382 -0.8191  0.9263 -0.2733
 8958SOL    HW238511   4.221   2.974  17.506 -0.4490 -1.3163  0.3698
 8959SOL     OW38512   3.831   4.704   9.262 -0.1563  0.1798 -0.1560
 8959SOL    HW138513   3.792   0.034   9.206 -2.4231 -0.8324  0.2414
 8959SOL    HW238514   3.923   4.729   9.274 -0.1972  0.4095 -0.3043
 8960SOL     OW38515   0.588   1.650  11.168  0.3726 -0.0963 -0.4727
 8960SOL    HW138516   0.629   1.564  11.173 -0.5882 -0.7203 -3.3124
 8960SOL    HW238517   0.512   1.614  11.122  1.0049 -1.1002 -0.7204
 8961SOL     OW38518   1.840   1.631   2.130  0.2498  0.3873  0.4578
 8961SOL    HW138519   1.859   1.715   2.171  0.1526 -0.3977  2.1142
 8961SOL    HW238520   1.871   1.562   2.188  0.7189  1.7560  1.8232
 8962SOL     OW38521   3.759   1.026   3.168 -0.0413  0.0541 -0.2698
 8962SOL    HW138522   3.761   1.082   3.245 -0.6004 -1.4543  0.8390
 8962SOL    HW238523   3.821   0.954   3.179  0.7164  0.6785 -0.4345
 8963SOL     OW38524   3.403   1.850   2.445 -0.2232 -0.3989 -0.0591
 8963SOL    HW138525   3.443   1.925   2.489 -0.1271 -0.7471  0.4432
 8963SOL    HW238526   3.480   1.813   2.403 -1.2348 -0.2351 -2.0453
 8964SOL     OW38527   1.157   4.084   4.474  0.1234  0.0095  0.2112
 8964SOL    HW138528   1.235   4.106   4.422 -0.8262  1.2039 -0.7421
 8964SOL    HW238529   1.085   4.088   4.411 -1.7559 -1.2785  2.2891
 8965SOL     OW38530   0.089   1.799   3.473  0.1115  0.5373  0.6330
 8965SOL    HW138531   0.002   1.788   3.435  1.8396  2.7218 -3.9921
 8965SOL    HW238532   0.135   1.766   3.395  0.7028  1.2964  0.6624
 8966SOL     OW38533   4.049   1.617   3.672 -0.0565  0.3883 -0.3082
 8966SOL    HW138534   4.089   1.592   3.755 -3.5368 -1.2684  0.8479
 8966SOL    HW238535   4.101   1.694   3.649 -0.5875  1.1182  0.9279
 8967SOL     OW38536   4.474   1.088   4.849  0.1687 -0.3413  0.3130
 8967SOL    HW138537   4.487   1.133   4.932  0.2119  1.3231 -0.5844
 8967SOL    HW238538   4.379   1.083   4.854  0.1982  0.7992  2.0551
 8968SOL     OW38539   4.026   4.518   7.656 -0.0883 -0.1686  0.2484
 8968SOL    HW138540   4.054   4.429   7.634 -0.8792 -0.5720  0.8416
 8968SOL    HW238541   4.110   4.563   7.655 -1.1547  1.7158 -3.5506
 8969SOL     OW38542   3.844   4.361   8.526  0.0466  0.1019 -0.1300
 8969SOL    HW138543   3.837   4.272   8.560  2.8463  0.5836  1.6902
 8969SOL    HW238544   3.930   4.393   8.553 -0.4085  2.0437 -1.0008
 8970SOL     OW38545   4.609   3.955   3.557 -0.1143 -0.5512  0.0524
 8970SOL    HW138546   4.648   3.872   3.530  0.5770 -0.8689  2.0354
 8970SOL    HW238547   4.533   3.922   3.604  1.0677 -1.9488  0.9734
 8971SOL     OW38548   2.500   2.605   1.493  0.3358 -0.3776 -0.2118
 8971SOL    HW138549   2.585   2.609   1.537  0.5597  0.3440 -0.7005
 8971SOL    HW238550   2.453   2.578   1.572  0.6452 -0.0706  0.0755
 8972SOL     OW38551   2.558   1.215   6.830 -0.0748  0.7170 -0.1494
 8972SOL    HW138552   2.644   1.179   6.806  0.3603  0.3548  1.9917
 8972SOL    HW238553   2.565   1.232   6.924  0.4078 -1.6519  0.2458
 8973SOL     OW38554   0.212   1.702   6.764  0.0908  0.1779 -0.3369
 8973SOL    HW138555   0.185   1.755   6.689 -0.2398  0.3765 -0.0765
 8973SOL    HW238556   0.205   1.614   6.725 -2.4383  0.6276 -0.9205
 8974SOL     OW38557   4.357   4.251   2.857  0.0786  0.4479 -0.3185
 8974SOL    HW138558   4.392   4.182   2.800 -0.2577  1.2375 -1.4809
 8974SOL    HW238559   4.425   4.256   2.925  1.0418 -0.0857 -1.2337
 8975SOL     OW38560   3.907   2.916   8.599 -0.2750 -0.3232 -0.3564
 8975SOL    HW138561   3.826   2.868   8.613 -0.1687 -0.0905  1.0169
 8975SOL    HW238562   3.920   2.960   8.683  1.8933  1.3993 -1.5931
 8976SOL     OW38563   1.442   3.364   1.627 -0.0093 -0.0802  0.0327
 8976SOL    HW138564   1.419   3.419   1.702  2.1289  1.6426 -0.5551
 8976SOL    HW238565   1.359   3.327   1.599  0.1161 -0.7099  0.4791
 8977SOL     OW38566   2.049   0.757   4.483 -0.0744 -0.3307 -0.0305
 8977SOL    HW138567   1.962   0.777   4.517 -1.0895 -1.6797 -1.8647
 8977SOL    HW238568   2.033   0.777   4.391  0.1412  1.4187  0.3169
 8978SOL     OW38569   1.362   1.118   8.861 -0.0440 -0.2824  0.1110
 8978SOL    HW138570   1.320   1.198   8.830  3.9771  1.7264 -0.1999
 8978SOL    HW238571   1.436   1.161   8.904 -0.9137 -0.2512  1.5874
 8979SOL     OW38572   0.916   3.599   2.672  0.3592 -0.1301 -0.6405
 8979SOL    HW138573   0.835   3.562   2.708  0.3727  1.0685  0.6393
 8979SOL    HW238574   0.974   3.524   2.688  1.8697  0.9110 -1.3175
 8980SOL     OW38575   1.442   0.527   2.005 -0.3853  0.1111 -0.5288
 8980SOL    HW138576   1.370   0.574   2.046  0.0804  0.9451 -0.6663
 8980SOL    HW238577   1.514   0.535   2.068 -0.6282  0.7542 -0.3298
 8981SOL     OW38578   0.486   1.887   8.082 -0.3702 -0.6073 -0.6399
 8981SOL    HW138579   0.552   1.837   8.033  1.2557  1.0114 -0.1355
 8981SOL    HW238580   0.488   1.966   8.028 -1.9677 -0.5368 -0.5699
 8982SOL     OW38581   0.950   3.023   4.129  0.2725  0.5497  0.1221
 8982SOL    HW138582   0.980   3.110   4.103 -0.3374  1.2585  1.8206
 8982SOL    HW238583   0.865   3.036   4.171  0.7386  1.1374  0.8834
 8983SOL     OW38584   4.018   2.075   5.892  0.5020  0.0018  0.2515
 8983SOL    HW138585   4.075   2.056   5.818 -0.9812 -2.1435 -0.3458
 8983SOL    HW238586   4.085   2.099   5.956  0.1522 -0.6116  0.8482
 8984SOL     OW38587   4.515   4.088   8.258 -0.2605  0.2376 -0.4397
 8984SOL    HW138588   4.513   4.058   8.349  1.4635 -2.7262 -1.4111
 8984SOL    HW238589   4.608   4.085   8.234  0.1892 -0.5015  1.4244
 8985SOL     OW38590   2.506   3.085  17.234 -0.4033 -0.4561  0.6435
 8985SOL    HW138591   2.532   3.168  17.273  1.9210 -0.7118 -0.3404
 8985SOL    HW238592   2.587   3.034  17.226 -0.7348 -0.5603 -2.2240
 8986SOL     OW38593   0.547   2.638   0.534 -0.1759  0.0450  0.0312
 8986SOL    HW138594   0.507   2.623   0.448  0.6018 -1.9408  0.0189
 8986SOL    HW238595   0.483   2.698   0.575 -1.0611 -1.8163  1.3905
 8987SOL     OW38596   2.215   4.483   8.603 -1.0012  0.9469  0.2923
 8987SOL    HW138597   2.303   4.475   8.641 -1.0783 -0.9101  0.0645
 8987SOL    HW238598   2.177   4.402   8.637 -0.4562 -0.3818 -2.2890
 8988SOL     OW38599   3.603   2.143  17.340 -0.1250 -0.3503  0.7133
 8988SOL    HW138600   3.573   2.179  17.424 -1.9988 -1.3735  0.4971
 8988SOL    HW238601   3.560   2.057  17.336  1.3680 -1.0315 -0.5017
 8989SOL     OW38602   2.166   1.464  12.154 -0.2442  0.3519 -0.0162
 8989SOL    HW138603   2.193   1.479  12.063 -0.2381 -0.9144 -0.2224
 8989SOL    HW238604   2.149   1.370  12.157 -0.8634  0.3723 -2.6575
 8990SOL     OW38605   2.010   4.027   9.023 -0.0542  0.3027  0.0659
 8990SOL    HW138606   2.071   4.024   9.097 -2.6384 -4.0157  2.0620
 8990SOL    HW238607   2.065   3.987   8.956 -1.1416  0.2317 -0.7741
 8991SOL     OW38608   0.620   2.966  10.483  0.3281  0.0490 -0.1578
 8991SOL    HW138609   0.544   3.005  10.440 -0.1357 -0.7163 -0.0398
 8991SOL    HW238610   0.630   3.006  10.570 -0.1034  0.9324 -0.5130
 8992SOL     OW38611   0.612   3.944  14.836 -0.1224 -0.6008 -0.2362
 8992SOL    HW138612   0.614   3.867  14.893  0.0238  0.9314  1.8261
 8992SOL    HW238613   0.535   3.923  14.783  0.5693  0.9069 -1.8689
 8993SOL     OW38614   0.416   3.939   0.436 -0.1886  0.7146  0.1187
 8993SOL    HW138615   0.379   3.944   0.348  0.6134 -2.3982 -0.4087
 8993SOL    HW238616   0.345   3.951   0.498 -0.9620 -1.6716 -0.2904
 8994SOL     OW38617   0.210   2.559   6.471  0.1644 -0.4571  0.2083
 8994SOL    HW138618   0.186   2.645   6.436  0.0344 -1.5342 -2.3275
 8994SOL    HW238619   0.288   2.585   6.520 -1.3937  2.0789  1.3412
 8995SOL     OW38620   4.053   4.670   5.750 -0.0956 -0.0157 -0.1766
 8995SOL    HW138621   4.003   0.011   5.728 -0.3841  0.6504  2.8214
 8995SOL    HW238622   4.009   4.605   5.695 -1.5973  2.2438 -1.6639
 8996SOL     OW38623   2.107   3.957   3.830  0.1988 -0.0863  0.3880
 8996SOL    HW138624   2.061   3.937   3.911 -0.7338  1.7830  0.3191
 8996SOL    HW238625   2.097   3.881   3.772 -2.5320  2.1526 -2.0962
 8997SOL     OW38626   3.370   2.676   9.179  0.3102  0.4833 -0.2337
 8997SOL    HW138627   3.334   2.592   9.209  0.3534  0.8202  0.7521
 8997SOL    HW238628   3.346   2.657   9.088  0.1742 -1.5367  0.2195
 8998SOL     OW38629   4.187   0.104   8.950 -0.6031 -0.0454  0.0686
 8998SOL    HW138630   4.272   0.074   8.919 -1.2401 -0.5861 -1.1326
 8998SOL    HW238631   4.206   0.121   9.042 -1.2206  1.7749 -0.1454
 8999SOL     OW38632   3.870   4.474   5.166 -0.3802 -0.1816  0.0241
 8999SOL    HW138633   3.898   4.464   5.257  1.3876  0.1510 -0.4835
 8999SOL    HW238634   3.946   4.431   5.126  0.2716 -0.3100  1.3886
 9000SOL     OW38635   4.024   2.710  11.028 -0.1793 -0.6034  0.2355
 9000SOL    HW138636   3.965   2.725  11.102  0.6449  1.4025  0.4979
 9000SOL    HW238637   4.040   2.798  10.994  1.0275 -0.8588  0.1488
 9001SOL     OW38638   3.646   0.306   9.795  0.1744 -0.0548  0.4439
 9001SOL    HW138639   3.698   0.232   9.764  2.0223  1.7295 -0.7227
 9001SOL    HW238640   3.578   0.255   9.839 -1.2232 -0.1176 -1.7392
 9002SOL     OW38641   0.731   4.391   3.701  0.8845 -0.1877 -0.6903
 9002SOL    HW138642   0.722   4.482   3.675 -0.4490 -0.2107 -0.3072
 9002SOL    HW238643   0.725   4.360   3.611  0.0794  0.0284 -0.7104
 9003SOL     OW38644   4.173   0.746   0.611 -0.4034 -0.4842  0.5628
 9003SOL    HW138645   4.081   0.725   0.623 -0.0621 -2.6410 -0.6791
 9003SOL    HW238646   4.215   0.692   0.678  1.6365  0.4637  0.0640
 9004SOL     OW38647   2.309   1.061  13.338  0.0752  0.2014 -0.0461
 9004SOL    HW138648   2.277   1.071  13.427 -1.0701  0.8854 -0.5329
 9004SOL    HW238649   2.397   1.100  13.343 -0.0197  0.3845  0.1456
 9005SOL     OW38650   1.559   0.349   7.902  0.1463  0.5510  0.0560
 9005SOL    HW138651   1.625   0.410   7.869  0.1983  0.3489 -0.2087
 9005SOL    HW238652   1.601   0.263   7.902 -0.1474  0.4092 -0.2278
 9006SOL     OW38653   4.300   0.602  11.219  0.6942 -0.0549 -0.1251
 9006SOL    HW138654   4.221   0.632  11.175  0.0904 -1.3489  0.0818
 9006SOL    HW238655   4.266   0.522  11.260 -1.9519  0.6568 -0.9553
 9007SOL     OW38656   1.478   1.961   5.652 -0.3881 -0.2577  0.1380
 9007SOL    HW138657   1.444   1.886   5.602  1.3404 -0.7826 -0.2422
 9007SOL    HW238658   1.562   1.921   5.675 -0.4956 -0.3735  0.3305
 9008SOL     OW38659   3.058   0.945   0.303 -0.5529 -0.0960 -0.3150
 9008SOL    HW138660   3.115   1.016   0.274 -1.7752  1.2630  0.5838
 9008SOL    HW238661   3.068   0.948   0.398  1.3445  1.0665 -0.5458
 9009SOL     OW38662   3.002   0.356   8.737 -0.6797 -0.0404 -0.3349
 9009SOL    HW138663   3.093   0.328   8.747  0.3028  3.3837  0.2557
 9009SOL    HW238664   2.949   0.342   8.816  2.0355 -2.2943  1.0875
 9010SOL     OW38665   4.507   0.991   8.897  0.4936 -0.5888  0.1350
 9010SOL    HW138666   4.556   0.953   8.970 -0.1964 -1.1970  0.2773
 9010SOL    HW238667   4.533   1.083   8.901  0.0346 -0.5105  1.2819
 9011SOL     OW38668   3.921   1.329   8.159 -0.5295  0.6798 -0.1992
 9011SOL    HW138669   4.014   1.349   8.168 -0.1337 -0.3757 -1.8036
 9011SOL    HW238670   3.926   1.264   8.089  1.4431  0.6655 -0.0317
 9012SOL     OW38671   0.479   1.024   2.962 -0.2892 -0.7204  0.2497
 9012SOL    HW138672   0.436   1.064   3.038  1.6486 -1.9406  1.9801
 9012SOL    HW238673   0.395   0.989   2.930 -1.5812 -0.1611  3.0454
 9013SOL     OW38674   1.523   1.138   3.314 -0.7639 -0.3817 -0.4780
 9013SOL    HW138675   1.530   1.086   3.394 -0.0729  2.3298  1.2226
 9013SOL    HW238676   1.436   1.108   3.287  0.2334 -2.0035 -1.9145
 9014SOL     OW38677   3.845   2.227   8.257  0.3303  0.1547  0.0125
 9014SOL    HW138678   3.871   2.164   8.191  1.1453 -1.5816  2.0028
 9014SOL    HW238679   3.770   2.267   8.213  0.0510  1.9806  2.1542
 9015SOL     OW38680   3.177   3.546  13.670 -0.7896 -0.3743  0.2914
 9015SOL    HW138681   3.160   3.457  13.638 -0.1302 -0.2141 -0.4896
 9015SOL    HW238682   3.141   3.542  13.759  0.5554 -2.1688  0.7434
 9016SOL     OW38683   0.953   0.569   4.107 -0.3799 -0.0256  0.3754
 9016SOL    HW138684   0.881   0.540   4.164 -0.2468 -0.5813  0.2687
 9016SOL    HW238685   0.913   0.652   4.084  3.1461  1.7747  0.8040
 9017SOL     OW38686   0.706   2.230  12.940 -0.1225 -0.4842  0.4294
 9017SOL    HW138687   0.766   2.164  12.906  1.8196  1.0140  0.9000
 9017SOL    HW238688   0.750   2.267  13.017  1.2831  1.0283 -1.0873
 9018SOL     OW38689   2.893   1.222  17.661  0.5367  0.5146 -0.0970
 9018SOL    HW138690   2.974   1.266  17.634 -0.4739  1.7362 -1.1219
 9018SOL    HW238691   2.881   1.143  17.608  2.8086 -0.3082  0.5994
 9019SOL     OW38692   4.190   0.010   3.705 -0.3041  0.1982  0.3946
 9019SOL    HW138693   4.162   4.717   3.792  0.5692  0.7784  0.8823
 9019SOL    HW238694   4.279   0.040   3.724 -0.5374  0.8227  0.4912
 9020SOL     OW38695   3.062   0.851   9.079 -0.9054  0.2323 -0.2002
 9020SOL    HW138696   3.076   0.907   9.002 -2.2739  0.9252  0.0521
 9020SOL    HW238697   3.059   0.913   9.152  0.2031 -0.5103  0.4689
 9021SOL     OW38698   3.085   3.224   9.306 -0.1547 -0.3556  0.3147
 9021SOL    HW138699   3.135   3.291   9.260  0.1907 -0.1275  1.0236
 9021SOL    HW238700   3.092   3.245   9.399 -0.1709  1.6530 -0.1445
 9022SOL     OW38701   1.515   2.341   5.040  0.1157 -0.2110 -0.4923
 9022SOL    HW138702   1.485   2.288   5.113  4.5094 -1.5374  0.3574
 9022SOL    HW238703   1.437   2.352   4.986  1.1671  1.3247 -1.7011
 9023SOL     OW38704   1.601   0.717  17.031  0.2767 -0.3458  0.3320
 9023SOL    HW138705   1.692   0.745  17.029  0.5500 -1.3693 -1.7480
 9023SOL    HW238706   1.557   0.769  16.963 -0.5537 -0.1401  1.0239
 9024SOL     OW38707   2.169   2.529   5.361  0.1223  0.1273  0.5311
 9024SOL    HW138708   2.131   2.617   5.367 -2.1844 -0.8959  1.0286
 9024SOL    HW238709   2.262   2.552   5.366  0.8956 -2.6201 -1.0792
 9025SOL     OW38710   2.081   2.731   4.087  0.1592 -0.3863  0.4230
 9025SOL    HW138711   2.017   2.767   4.025 -0.0732  0.9476  1.4354
 9025SOL    HW238712   2.156   2.739   4.029 -0.5169  1.9492 -0.1510
 9026SOL     OW38713   1.587   3.729   6.447 -0.2978 -0.3303 -0.0942
 9026SOL    HW138714   1.629   3.811   6.422  2.3757 -1.2001  1.4755
 9026SOL    HW238715   1.514   3.732   6.386  0.3328 -1.3562 -0.8759
 9027SOL     OW38716   2.920   4.428  10.201 -0.2863  0.2780  0.6574
 9027SOL    HW138717   2.840   4.440  10.150  0.0242  2.7983  0.7465
 9027SOL    HW238718   2.954   4.355  10.150 -1.3585 -0.8649  1.5810
 9028SOL     OW38719   0.068   0.320   9.580  0.0667  0.3480 -0.5403
 9028SOL    HW138720   0.152   0.289   9.615 -1.0837 -2.2426 -0.0491
 9028SOL    HW238721   0.057   0.404   9.625 -1.5273  0.2733 -0.7825
 9029SOL     OW38722   2.978   1.505  16.479  0.0276  0.5136  0.2223
 9029SOL    HW138723   3.036   1.430  16.491  1.1153  0.7741 -3.3414
 9029SOL    HW238724   3.033   1.582  16.489  2.2387 -1.0317  0.0589
 9030SOL     OW38725   3.338   0.001  12.939  0.3715  0.6867  0.3232
 9030SOL    HW138726   3.314   0.027  12.850 -0.3075 -0.2265  0.2422
 9030SOL    HW238727   3.433   0.013  12.937  0.4471 -0.3786 -1.5306
 9031SOL     OW38728   4.186   0.337   7.472 -0.4737 -0.5183  0.0301
 9031SOL    HW138729   4.102   0.301   7.444 -0.7448 -0.0128  0.2052
 9031SOL    HW238730   4.146   0.384   7.545  1.8138  1.9360 -0.3165
 9032SOL     OW38731   2.634   3.817   0.460 -0.6184  0.6101  0.1184
 9032SOL    HW138732   2.608   3.854   0.544  2.0795 -2.9905  2.5359
 9032SOL    HW238733   2.589   3.874   0.397 -1.7640  1.8733  2.0802
 9033SOL     OW38734   3.201   0.818   8.584 -0.1366  0.7825  0.7888
 9033SOL    HW138735   3.175   0.729   8.610  2.9573 -0.9049 -1.9802
 9033SOL    HW238736   3.253   0.835   8.663  1.0162 -3.8035  1.0461
 9034SOL     OW38737   2.621   1.570   6.969 -0.5324  0.4689  0.5970
 9034SOL    HW138738   2.666   1.543   7.049  0.7157  1.3503  0.1900
 9034SOL    HW238739   2.694   1.541   6.914 -1.5052 -1.5417  0.3383
 9035SOL     OW38740   0.527   0.023   1.405 -0.8068 -0.0968  0.1671
 9035SOL    HW138741   0.537   4.701   1.331  1.7673  0.4834  0.0550
 9035SOL    HW238742   0.482   0.089   1.353  1.3578  0.6165 -0.7807
 9036SOL     OW38743   0.953   4.036  13.557  0.0919 -0.1185 -0.5090
 9036SOL    HW138744   1.029   4.033  13.499 -1.7087 -0.7793 -2.8374
 9036SOL    HW238745   0.987   3.982  13.628 -1.8111  2.9755  2.7769
 9037SOL     OW38746   4.457   4.669   8.092  0.4587  0.5392 -0.6464
 9037SOL    HW138747   4.542   4.660   8.136  0.4991  3.8470 -0.0443
 9037SOL    HW238748   4.480   0.003   8.033  1.4550  1.7934  1.2611
 9038SOL     OW38749   3.186   4.580  16.900 -0.2338 -0.3544  0.2499
 9038SOL    HW138750   3.144   4.630  16.830  2.9858 -0.4363 -1.7714
 9038SOL    HW238751   3.171   4.634  16.977 -2.0445  0.6872 -0.8307
 9039SOL     OW38752   4.019   3.476   5.115  0.4790 -0.0481 -0.4566
 9039SOL    HW138753   4.021   3.539   5.043  1.9682 -0.6702 -0.9618
 9039SOL    HW238754   4.104   3.433   5.104  0.2620 -0.3120 -1.0648
 9040SOL     OW38755   2.766   3.934  10.823  0.0033  0.4461 -0.4722
 9040SOL    HW138756   2.696   3.869  10.824 -0.1542  0.5807 -2.1180
 9040SOL    HW238757   2.846   3.882  10.817 -1.1012 -1.1657 -1.3416
 9041SOL     OW38758   2.808   0.350   0.154  0.2906 -0.4184 -0.2063
 9041SOL    HW138759   2.865   0.376   0.226 -0.0240  0.7263 -0.3715
 9041SOL    HW238760   2.756   0.282   0.197  0.5446  0.6957  1.8757
 9042SOL     OW38761   3.195   4.516  15.341  0.2370 -0.0711  0.1702
 9042SOL    HW138762   3.204   4.556  15.254  0.2028 -2.1975 -0.8192
 9042SOL    HW238763   3.207   4.423  15.322 -0.5710  0.0465 -0.9066
 9043SOL     OW38764   1.450   2.037  12.164  0.2619 -0.5865 -0.2258
 9043SOL    HW138765   1.459   1.946  12.191  0.6158 -0.6544 -0.5741
 9043SOL    HW238766   1.380   2.034  12.099  0.0746 -1.5329  0.0224
 9044SOL     OW38767   0.674   0.937   6.590 -0.0450  0.0948 -0.4336
 9044SOL    HW138768   0.701   1.003   6.526 -0.7664 -0.1459 -0.9829
 9044SOL    HW238769   0.726   0.965   6.665  0.4914  0.8240 -1.0702
 9045SOL     OW38770   1.290   4.376   7.508 -0.2589 -0.1730  0.7005
 9045SOL    HW138771   1.273   4.302   7.450  0.1947  0.3852 -0.1472
 9045SOL    HW238772   1.371   4.410   7.469  0.2848 -1.2698  0.8896
 9046SOL     OW38773   3.805   2.975   7.723  0.4658  0.1322  0.3037
 9046SOL    HW138774   3.836   3.040   7.786 -0.2040  1.0223 -0.2917
 9046SOL    HW238775   3.830   3.013   7.639  1.2048 -1.5855 -0.2657
 9047SOL     OW38776   2.967   4.619   1.643 -0.5494  0.0226  0.0990
 9047SOL    HW138777   2.926   4.532   1.641  0.6885 -0.5326 -1.6124
 9047SOL    HW238778   2.909   4.664   1.704 -2.1954  1.5209 -2.5251
 9048SOL     OW38779   4.696   2.068   7.758 -0.0144  0.4795  0.2085
 9048SOL    HW138780   4.730   2.129   7.693  2.3632 -0.4646  0.5628
 9048SOL    HW238781   0.029   2.069   7.822 -2.7887  1.6446  3.2301
 9049SOL     OW38782   0.466   3.256   3.840  0.1916  0.1617  0.0172
 9049SOL    HW138783   0.434   3.209   3.763  0.9337  1.3478 -0.9974
 9049SOL    HW238784   0.496   3.173   3.879  0.0589 -0.0525 -0.3308
 9050SOL     OW38785   3.203   1.380   9.093 -0.3094 -0.0183  0.2760
 9050SOL    HW138786   3.202   1.359   9.000 -0.7634  0.2312  0.2240
 9050SOL    HW238787   3.219   1.293   9.130 -0.7340 -1.5410 -3.1912
 9051SOL     OW38788   3.498   4.324   9.737 -0.7954  0.0711  0.1378
 9051SOL    HW138789   3.526   4.234   9.722  1.9725  0.8837  0.3784
 9051SOL    HW238790   3.578   4.367   9.768 -1.6324  1.9748 -0.3468
 9052SOL     OW38791   0.860   1.948  14.054  0.1845 -0.3158  0.6189
 9052SOL    HW138792   0.837   1.859  14.082 -0.5724  0.4631  2.4402
 9052SOL    HW238793   0.795   1.955  13.984  0.1905  0.7054  0.7199
 9053SOL     OW38794   1.314   3.722  13.385  0.2233 -0.2641 -0.0686
 9053SOL    HW138795   1.334   3.676  13.467 -0.1619 -0.7433 -0.2469
 9053SOL    HW238796   1.390   3.711  13.329 -0.8904 -3.8099 -0.8401
 9054SOL     OW38797   0.898   0.739  15.689 -0.1365  0.5531 -0.1938
 9054SOL    HW138798   0.974   0.756  15.633 -0.6470  0.7925 -0.8149
 9054SOL    HW238799   0.837   0.697  15.629  0.0779 -0.7122  0.4777
 9055SOL     OW38800   3.773   3.289   8.543 -0.3092 -0.0269 -0.2318
 9055SOL    HW138801   3.809   3.260   8.627  1.4552  1.4139 -0.5112
 9055SOL    HW238802   3.848   3.317   8.491  0.6806 -0.1876  1.1368
 9056SOL     OW38803   1.836   1.765   8.338  0.0438  0.1548 -0.7150
 9056SOL    HW138804   1.751   1.727   8.360  0.3800 -0.5140 -0.5850
 9056SOL    HW238805   1.818   1.859   8.341  2.1133  0.5418 -0.4666
 9057SOL     OW38806   3.582   0.728   9.161 -0.0874 -0.2931  0.1964
 9057SOL    HW138807   3.488   0.713   9.169 -0.1896  0.4286  0.3404
 9057SOL    HW238808   3.591   0.823   9.170 -0.1719 -0.1312 -1.5021
 9058SOL     OW38809   3.719   3.733  14.748  0.8674  0.2860  0.2702
 9058SOL    HW138810   3.670   3.777  14.679  3.4229  0.4291 -1.4825
 9058SOL    HW238811   3.724   3.644  14.714  1.8322  0.0833  0.9232
 9059SOL     OW38812   3.286   4.486  10.999 -0.0973 -0.3953  0.0401
 9059SOL    HW138813   3.363   4.482  11.055  1.1112  0.0813 -1.5647
 9059SOL    HW238814   3.274   4.580  11.013 -1.0645 -0.3413 -1.1025
 9060SOL     OW38815   3.735   1.674   2.302  0.3318 -0.1214  0.1170
 9060SOL    HW138816   3.664   1.618   2.271 -0.3100 -0.1229  1.5726
 9060SOL    HW238817   3.790   1.607   2.344  1.9587  1.9265  1.2650
 9061SOL     OW38818   4.647   0.236  15.424  0.3649 -0.1988  0.0602
 9061SOL    HW138819   4.735   0.273  15.410  1.6540 -2.4152  2.2199
 9061SOL    HW238820   4.633   0.299  15.495  0.6513  0.9699 -0.9302
 9062SOL     OW38821   2.782   2.244   5.558  0.1126  0.2447  0.3255
 9062SOL    HW138822   2.734   2.188   5.498  0.9145  0.0449 -0.1255
 9062SOL    HW238823   2.823   2.175   5.610  1.0610 -0.0253 -0.7962
 9063SOL     OW38824   3.556   0.747   8.155  0.0154  0.0688 -0.6556
 9063SOL    HW138825   3.479   0.772   8.105 -1.6254 -1.8278  0.9423
 9063SOL    HW238826   3.514   0.741   8.241  0.9376 -1.3804 -0.3054
 9064SOL     OW38827   1.886   1.614   6.760  0.2994  0.5036 -0.9048
 9064SOL    HW138828   1.893   1.635   6.666  1.7499 -0.7149 -1.0674
 9064SOL    HW238829   1.793   1.630   6.776  0.4370 -0.1138  0.4462
 9065SOL     OW38830   0.442   4.578   5.513  0.5348 -0.1054 -0.1030
 9065SOL    HW138831   0.465   4.512   5.579  1.1716 -0.7133 -0.9323
 9065SOL    HW238832   0.384   4.630   5.569  0.2920 -0.7810  0.2893
 9066SOL     OW38833   1.828   0.271  16.121 -1.1008  0.0269 -0.1468
 9066SOL    HW138834   1.807   0.178  16.113  1.2302 -0.4918  0.0122
 9066SOL    HW238835   1.837   0.279  16.216  2.6139 -0.5091 -0.4562
 9067SOL     OW38836   3.524   1.891   7.975  0.6450 -0.3826  0.6921
 9067SOL    HW138837   3.554   1.978   7.949  0.5452 -0.4864  0.2192
 9067SOL    HW238838   3.466   1.906   8.050 -2.4999  2.2146 -2.2486
 9068SOL     OW38839   3.494   3.334   9.811 -0.4430  0.0369 -0.2307
 9068SOL    HW138840   3.441   3.410   9.786  1.4211  1.0881 -0.9952
 9068SOL    HW238841   3.470   3.314   9.902  1.0137  0.5929  0.2596
 9069SOL     OW38842   1.904   3.102  13.197  0.1480  0.6706  0.2773
 9069SOL    HW138843   1.956   3.098  13.116 -1.2753 -1.0497 -0.5578
 9069SOL    HW238844   1.970   3.111  13.265 -1.5882 -4.2485  2.5523
 9070SOL     OW38845   0.150   4.393   5.863 -0.0289  0.4138  0.1651
 9070SOL    HW138846   0.081   4.455   5.839  0.5519  1.3255  0.8247
 9070SOL    HW238847   0.207   4.408   5.788 -1.3063 -0.2845 -0.9262
 9071SOL     OW38848   3.740   3.323   3.775 -0.5947  0.6264  0.0348
 9071SOL    HW138849   3.821   3.366   3.802 -0.9447  0.6499  1.0574
 9071SOL    HW238850   3.727   3.363   3.689  2.0093  0.8829 -0.2356
 9072SOL     OW38851   1.304   3.717   7.614 -0.2310  0.0738  0.4238
 9072SOL    HW138852   1.275   3.690   7.701 -0.9171 -1.3133 -0.2388
 9072SOL    HW238853   1.341   3.636   7.579 -0.6149  0.3604 -0.6720
 9073SOL     OW38854   3.340   3.608  17.285 -0.1946 -0.0715  0.0197
 9073SOL    HW138855   3.413   3.564  17.241 -2.0202 -0.4583 -2.6418
 9073SOL    HW238856   3.295   3.659  17.217  0.3517  1.2685  0.6664
 9074SOL     OW38857   1.623   1.586   8.520  0.4394 -0.4620 -0.6142
 9074SOL    HW138858   1.552   1.616   8.463  1.1327  1.5887 -0.4245
 9074SOL    HW238859   1.649   1.672   8.553  1.2667 -1.6717  1.8738
 9075SOL     OW38860   3.517   4.596   4.906 -0.1890 -0.1613  0.4078
 9075SOL    HW138861   3.435   4.618   4.950 -0.2899 -1.8397  1.0539
 9075SOL    HW238862   3.491   4.609   4.815  1.3251  1.6404  0.2304
 9076SOL     OW38863   3.223   4.559   9.555  0.7856 -0.3361  0.0741
 9076SOL    HW138864   3.203   4.466   9.563  0.1602 -0.1382  0.7405
 9076SOL    HW238865   3.202   4.572   9.462 -0.1468 -0.9547  0.1926
 9077SOL     OW38866   2.773   2.993   5.958  0.4088 -0.2017  0.5048
 9077SOL    HW138867   2.722   3.072   5.975 -0.0409 -0.1370 -1.1093
 9077SOL    HW238868   2.815   3.008   5.874  1.5237 -0.9192  0.9251
 9078SOL     OW38869   4.620   0.180  15.167  0.4780 -0.2383  0.2553
 9078SOL    HW138870   4.634   0.191  15.261 -0.0880 -0.2856  0.3446
 9078SOL    HW238871   4.711   0.180  15.138  0.7198 -1.1872  0.9945
 9079SOL     OW38872   2.451   0.651   1.349  0.0993  0.1545  0.0284
 9079SOL    HW138873   2.524   0.708   1.373 -0.3584  1.3929 -1.5548
 9079SOL    HW238874   2.490   0.565   1.330 -0.4546 -0.1351  0.2227
 9080SOL     OW38875   0.020   0.294   4.883 -0.1497 -0.4249 -0.7420
 9080SOL    HW138876   0.053   0.381   4.906 -1.3299 -0.3038  0.4947
 9080SOL    HW238877   4.669   0.317   4.858 -0.4107  0.3601  0.8662
 9081SOL     OW38878   1.143   0.079   9.086  0.4736 -0.1920 -0.0685
 9081SOL    HW138879   1.163   0.066   9.179  2.5884 -0.7526 -0.6185
 9081SOL    HW238880   1.153   4.722   9.073 -0.4925 -0.2042 -0.7632
 9082SOL     OW38881   4.535   2.949   6.477  0.1807  0.6704  0.1003
 9082SOL    HW138882   4.518   2.946   6.572 -2.1717  0.9139 -0.3211
 9082SOL    HW238883   4.621   2.990   6.489  0.3280  0.4172 -0.0979
 9083SOL     OW38884   2.499   2.823   2.210  0.1237 -0.5254  0.0551
 9083SOL    HW138885   2.528   2.802   2.121 -2.1424 -2.2220 -0.2839
 9083SOL    HW238886   2.450   2.742   2.219 -1.5899  0.5158  0.1702
 9084SOL     OW38887   2.991   3.923   3.489 -0.5747  0.2309  0.4794
 9084SOL    HW138888   2.930   3.881   3.550 -1.8697  0.0723 -0.9433
 9084SOL    HW238889   3.064   3.922   3.552  1.4495 -3.5116 -1.8957
 9085SOL     OW38890   0.497   4.716   2.371  0.2213 -1.0953  0.5409
 9085SOL    HW138891   0.524   4.626   2.350 -0.2101 -1.1335  0.1628
 9085SOL    HW238892   0.449   4.701   2.453  0.4355 -0.1118  0.8443
 9086SOL     OW38893   1.921   3.374  17.330  0.3995  0.0304  0.0871
 9086SOL    HW138894   1.925   3.296  17.274  0.4670 -0.3735  0.6495
 9086SOL    HW238895   1.998   3.354  17.383 -0.4775  0.6556  1.5862
 9087SOL     OW38896   2.187   4.199   8.392  0.2473 -0.2612 -0.1977
 9087SOL    HW138897   2.122   4.204   8.321 -0.6087  1.9216  0.7549
 9087SOL    HW238898   2.244   4.275   8.385 -2.9801  2.0370 -1.6358
 9088SOL     OW38899   4.496   3.778   9.066 -0.0814  0.0360  0.0745
 9088SOL    HW138900   4.477   3.815   9.152  0.7270  3.1393 -1.0506
 9088SOL    HW238901   4.498   3.685   9.084 -3.6713 -0.6205 -2.8758
 9089SOL     OW38902   3.800   2.920  12.659 -0.1027 -0.1216  0.1402
 9089SOL    HW138903   3.757   2.978  12.595  1.5252 -1.5924 -2.2938
 9089SOL    HW238904   3.855   2.855  12.615 -0.1564 -0.6218  0.8346
 9090SOL     OW38905   4.392   1.607  15.880  0.0944 -0.2113 -0.3321
 9090SOL    HW138906   4.313   1.571  15.840  1.6565 -2.2544 -1.5705
 9090SOL    HW238907   4.383   1.701  15.864 -0.2467 -0.1532  0.1956
 9091SOL     OW38908   2.473   0.864  14.635 -0.0549  0.1865 -0.1058
 9091SOL    HW138909   2.400   0.865  14.572 -1.6576  1.3000  1.7577
 9091SOL    HW238910   2.528   0.934  14.600  0.6816 -0.8550 -1.0160
 9092SOL     OW38911   0.607   4.455   2.424  0.4151 -0.7707  0.3382
 9092SOL    HW138912   0.628   4.365   2.397 -1.1399 -0.5199 -1.6445
 9092SOL    HW238913   0.691   4.499   2.430 -1.2759  2.3792  0.8402
 9093SOL     OW38914   4.464   3.232   6.607 -0.0393 -0.5413  0.5704
 9093SOL    HW138915   4.376   3.235   6.570  0.3213  1.7544 -0.0843
 9093SOL    HW238916   4.458   3.142   6.640 -0.2013 -0.3176  1.1510
 9094SOL     OW38917   0.790   2.266   3.764 -0.5766 -0.0912 -0.6321
 9094SOL    HW138918   0.777   2.222   3.848  1.1306 -0.9819 -0.8433
 9094SOL    HW238919   0.848   2.339   3.785  0.7008 -0.8038 -1.6415
 9095SOL     OW38920   4.400   1.032  10.277 -0.0956  0.4978 -0.1913
 9095SOL    HW138921   4.457   1.077  10.215 -1.1857  1.4588 -0.4816
 9095SOL    HW238922   4.327   1.093  10.288 -0.2355  0.5575 -1.4691
 9096SOL     OW38923   0.079   3.634   1.874  0.5576  0.0725  0.2678
 9096SOL    HW138924   4.726   3.606   1.871  0.8472 -0.9485  0.7930
 9096SOL    HW238925   0.092   3.611   1.966  0.2528 -3.1409 -0.5031
 9097SOL     OW38926   1.459   4.357   6.277 -0.1106 -0.2276 -0.2746
 9097SOL    HW138927   1.513   4.316   6.345  1.3557 -1.9693 -2.5017
 9097SOL    HW238928   1.376   4.315   6.296 -0.7410  0.5604 -1.2993
 9098SOL     OW38929   0.702   0.384   5.723  0.4495  0.1309 -0.1907
 9098SOL    HW138930   0.661   0.307   5.684  0.5890 -0.1122  0.1438
 9098SOL    HW238931   0.678   0.359   5.812  2.1734  0.0889  0.2527
 9099SOL     OW38932   2.397   0.372   6.605 -0.2089 -0.1931  0.2275
 9099SOL    HW138933   2.390   0.346   6.697 -2.7990 -1.4735 -0.3273
 9099SOL    HW238934   2.318   0.426   6.603  1.0338  1.5615 -1.2233
 9100SOL     OW38935   0.396   3.957   7.815 -0.6231  0.2984 -0.5873
 9100SOL    HW138936   0.405   3.893   7.745  0.0354 -1.8630  1.4916
 9100SOL    HW238937   0.369   4.037   7.769 -0.9485  0.1620 -0.6356
 9101SOL     OW38938   3.479   1.032   9.116 -0.1215  0.0209  0.6341
 9101SOL    HW138939   3.400   1.078   9.146  0.0615  0.4361  0.4775
 9101SOL    HW238940   3.534   1.108   9.099  0.7267 -0.2107  2.3205
 9102SOL     OW38941   1.194   4.073   6.036  0.4243  0.0915 -0.0637
 9102SOL    HW138942   1.184   4.056   6.130 -3.9852  2.7995 -0.0508
 9102SOL    HW238943   1.136   4.006   6.002 -0.7919  1.2697 -0.3110
 9103SOL     OW38944   0.619   0.311  14.000  0.3405  0.1583 -0.1357
 9103SOL    HW138945   0.631   0.401  13.971 -0.4964  0.7579  1.3760
 9103SOL    HW238946   0.695   0.310  14.058  0.1349 -2.1415  0.0844
 9104SOL     OW38947   3.296   2.577  16.839 -0.8194 -0.5179  0.5455
 9104SOL    HW138948   3.223   2.639  16.837 -0.4155 -0.1564 -2.1971
 9104SOL    HW238949   3.259   2.489  16.837 -1.7931 -0.0347 -2.7726
 9105SOL     OW38950   1.833   2.520  12.459 -0.0533 -0.2909  0.8538
 9105SOL    HW138951   1.818   2.543  12.368 -0.0316 -1.1322  0.6362
 9105SOL    HW238952   1.928   2.509  12.464 -0.1739 -2.3420 -1.6051
 9106SOL     OW38953   1.398   2.788   1.346  0.2253 -0.5466 -0.2809
 9106SOL    HW138954   1.465   2.771   1.280 -1.4119  3.4113 -2.9342
 9106SOL    HW238955   1.396   2.883   1.351 -0.4742 -0.5280 -0.8700
 9107SOL     OW38956   2.575   4.255  14.840  0.1373  0.3357 -0.3658
 9107SOL    HW138957   2.584   4.349  14.824 -2.0987  0.0266 -3.3806
 9107SOL    HW238958   2.667   4.236  14.820  0.0515  0.7550 -1.1685
 9108SOL     OW38959   1.775   3.140   5.165 -0.5506 -0.2287 -0.1473
 9108SOL    HW138960   1.757   3.215   5.109  1.4349 -0.1410 -0.6652
 9108SOL    HW238961   1.686   3.106   5.176 -0.5937 -0.3699 -0.9363
 9109SOL     OW38962   2.431   4.702   9.653 -0.3668  0.3097 -0.0393
 9109SOL    HW138963   2.395   4.704   9.565 -0.9132  0.6477  0.1926
 9109SOL    HW238964   2.484   0.042   9.638 -0.3053  0.9450  3.5230
 9110SOL     OW38965   4.671   3.816   7.120 -0.3974 -0.1435  0.6981
 9110SOL    HW138966   4.679   3.804   7.215  3.2345  1.1021  0.5443
 9110SOL    HW238967   4.640   3.906   7.111  0.5464  0.0030 -0.8900
 9111SOL     OW38968   1.416   2.818  16.471 -0.0157  0.3220  0.1900
 9111SOL    HW138969   1.505   2.854  16.477 -0.6463  1.8404  0.4915
 9111SOL    HW238970   1.374   2.857  16.548  1.2363 -1.0770  1.5953
 9112SOL     OW38971   4.383   3.859   9.514  0.1490 -0.0303  0.0324
 9112SOL    HW138972   4.378   3.779   9.566  3.0419 -1.5671 -2.0263
 9112SOL    HW238973   4.461   3.897   9.555  0.3478  0.0272 -0.3961
 9113SOL     OW38974   4.107   0.955  17.084  0.7978 -1.6407 -0.0149
 9113SOL    HW138975   4.093   1.040  17.125  1.7470 -0.2869 -2.4659
 9113SOL    HW238976   4.037   0.907  17.129 -0.9019 -0.9215 -1.8484
 9114SOL     OW38977   2.758   2.477   8.114  0.3230 -0.4039  0.3110
 9114SOL    HW138978   2.720   2.476   8.026 -0.1388 -1.6842  0.5354
 9114SOL    HW238979   2.838   2.528   8.098  0.0467 -0.2384 -0.5660
 9115SOL     OW38980   0.977   3.654   4.811 -0.5394 -0.0121 -0.4890
 9115SOL    HW138981   0.910   3.682   4.874  3.1737  1.5629  2.7293
 9115SOL    HW238982   1.000   3.568   4.846  1.4939  0.8960  0.4196
 9116SOL     OW38983   2.681   3.696   7.954  0.1439  0.3519 -0.5570
 9116SOL    HW138984   2.769   3.690   7.992  0.4039  0.3213 -1.1725
 9116SOL    HW238985   2.622   3.691   8.030 -0.6518  0.0077 -1.2057
 9117SOL     OW38986   1.573   1.821   3.495 -0.1473  0.0773  0.1602
 9117SOL    HW138987   1.626   1.878   3.550 -0.4221  1.2065 -0.7509
 9117SOL    HW238988   1.556   1.880   3.421  0.4111  1.9931  1.5610
 9118SOL     OW38989   1.626   0.720   6.590 -0.6703  0.6188 -0.6511
 9118SOL    HW138990   1.634   0.663   6.514  1.0032  0.4178 -0.3316
 9118SOL    HW238991   1.647   0.663   6.664 -1.7178  0.5855 -0.3860
 9119SOL     OW38992   3.819   2.062   1.633 -0.4917 -0.5126  0.7186
 9119SOL    HW138993   3.742   2.048   1.688 -0.6074 -2.0481  0.1611
 9119SOL    HW238994   3.899   2.024   1.670 -0.1222 -0.3223  0.1250
 9120SOL     OW38995   0.486   4.442   4.055  0.2495 -0.1371  0.1849
 9120SOL    HW138996   0.531   4.376   4.002 -0.5564  0.1103 -0.8065
 9120SOL    HW238997   0.542   4.440   4.133 -0.2655  0.4940  0.5614
 9121SOL     OW38998   2.125   3.678  13.082  0.0797  0.0658  0.6161
 9121SOL    HW138999   2.081   3.616  13.024  0.0806  0.3833  0.2763
 9121SOL    HW239000   2.220   3.661  13.083 -0.2751 -2.0763 -1.0080
 9122SOL     OW39001   1.658   3.876  16.807 -0.0463 -0.5355 -0.1575
 9122SOL    HW139002   1.695   3.844  16.725  0.2856  0.3367 -0.3498
 9122SOL    HW239003   1.613   3.800  16.843  0.4942 -0.6781  0.2278
 9123SOL     OW39004   1.642   2.741   1.179  0.5859 -0.3202  0.0919
 9123SOL    HW139005   1.712   2.686   1.216  1.7755 -0.7509 -2.7684
 9123SOL    HW239006   1.638   2.704   1.091  4.4632  1.4969 -0.8883
 9124SOL     OW39007   1.805   1.363   3.538  0.3323  0.6236 -0.6887
 9124SOL    HW139008   1.899   1.381   3.539  0.7143 -1.1753 -2.8732
 9124SOL    HW239009   1.770   1.451   3.534 -0.3676  0.4405  1.6634
 9125SOL     OW39010   0.103   4.707  15.674 -0.8518  0.3509  0.2028
 9125SOL    HW139011   0.038   0.038  15.668 -1.2142 -0.1021 -1.0146
 9125SOL    HW239012   0.048   4.628  15.675 -0.9326  0.4045 -0.4482
 9126SOL     OW39013   1.623   1.552  17.588 -0.0161  0.1564  0.1154
 9126SOL    HW139014   1.571   1.471  17.587  0.1013  0.1294 -2.6725
 9126SOL    HW239015   1.671   1.545  17.505 -0.4494  0.2085 -0.1384
 9127SOL     OW39016   3.135   1.282   2.285 -0.0078 -0.0623  0.3780
 9127SOL    HW139017   3.133   1.199   2.238 -1.6080  0.8784 -1.1830
 9127SOL    HW239018   3.042   1.296   2.269 -0.2671 -0.6664  1.3497
 9128SOL     OW39019   0.777   1.240   3.130  0.4678 -0.0852  0.4072
 9128SOL    HW139020   0.755   1.157   3.089  1.9509 -0.3139  0.0951
 9128SOL    HW239021   0.799   1.208   3.218 -2.1462 -0.8986  0.7872
 9129SOL     OW39022   0.824   3.792  15.866  1.1515 -0.4645  0.1407
 9129SOL    HW139023   0.784   3.773  15.781  1.6024 -2.3471  0.3476
 9129SOL    HW239024   0.761   3.846  15.914  2.0198  0.7744 -0.1100
 9130SOL     OW39025   0.543   0.400  14.372 -0.2322  0.0194  0.5624
 9130SOL    HW139026   0.525   0.494  14.368  0.6869  0.1826  0.2219
 9130SOL    HW239027   0.594   0.397  14.453  0.6789 -0.8922 -0.0340
 9131SOL     OW39028   3.749   4.350   5.402  0.3654 -0.0870  0.2466
 9131SOL    HW139029   3.720   4.340   5.311  0.3710 -0.4394  0.2810
 9131SOL    HW239030   3.669   4.314   5.441  0.1092 -0.7932 -0.8989
 9132SOL     OW39031   3.339   1.717   7.601 -0.4481 -0.1646  0.2159
 9132SOL    HW139032   3.402   1.682   7.664  0.0022  1.6474  0.7745
 9132SOL    HW239033   3.395   1.753   7.532 -0.5451  0.9294  0.7093
 9133SOL     OW39034   2.868   1.250   2.603  0.3814 -0.1579 -0.2503
 9133SOL    HW139035   2.819   1.283   2.528  0.7786 -1.4230 -1.0623
 9133SOL    HW239036   2.906   1.331   2.638 -0.8068  0.7671 -1.0975
 9134SOL     OW39037   3.311   4.154   6.296  0.6075  0.2406 -0.5158
 9134SOL    HW139038   3.237   4.214   6.283 -0.6767 -1.0057  1.0290
 9134SOL    HW239039   3.327   4.129   6.205 -0.6513 -0.5373 -0.5277
 9135SOL     OW39040   3.166   2.738   6.912 -0.1349  0.2347  0.0885
 9135SOL    HW139041   3.072   2.743   6.894  0.0647 -0.7509 -1.1861
 9135SOL    HW239042   3.188   2.652   6.878 -2.2932  0.3359 -1.5404
 9136SOL     OW39043   0.581   1.054  13.105 -0.1427 -0.3338 -0.0691
 9136SOL    HW139044   0.535   1.112  13.166  1.3687 -0.9162  1.5935
 9136SOL    HW239045   0.652   1.021  13.160 -1.5406  1.1845  2.6407
 9137SOL     OW39046   3.524   3.674   7.493  0.3480 -0.5058 -0.1170
 9137SOL    HW139047   3.442   3.668   7.541 -0.1150 -0.3050 -0.8892
 9137SOL    HW239048   3.589   3.631   7.548  0.5429  0.9831  0.8041
 9138SOL     OW39049   3.893   2.878   4.885  0.2589  0.1689  0.3242
 9138SOL    HW139050   3.943   2.856   4.963  0.6714  2.1973  0.6388
 9138SOL    HW239051   3.844   2.797   4.874  0.9292 -0.0185 -1.3518
 9139SOL     OW39052   4.554   3.928   1.905  0.7178 -0.0062 -0.2433
 9139SOL    HW139053   4.638   3.934   1.951  0.7587 -1.5683 -0.1098
 9139SOL    HW239054   4.492   3.930   1.978  0.2934  4.5303 -0.7316
 9140SOL     OW39055   3.852   4.104   3.253  0.1198 -0.6772 -0.2583
 9140SOL    HW139056   3.886   4.062   3.332  1.2885 -0.4811 -0.6501
 9140SOL    HW239057   3.903   4.186   3.254 -0.6674 -0.2150  1.3315
 9141SOL     OW39058   3.946   0.889   0.536  0.1951  0.3765 -0.2467
 9141SOL    HW139059   3.994   0.918   0.458  0.9264  2.7691  1.0795
 9141SOL    HW239060   3.888   0.963   0.553 -0.8274 -0.5015  0.0217
 9142SOL     OW39061   0.943   4.199   5.902 -0.1922 -0.7395 -0.0144
 9142SOL    HW139062   1.017   4.239   5.855 -0.9053  0.5176 -0.0692
 9142SOL    HW239063   0.910   4.124   5.853 -1.5824  0.4553 -0.9123
 9143SOL     OW39064   2.909   0.893   7.911 -0.0125  0.3017  0.4591
 9143SOL    HW139065   2.924   0.933   7.825 -1.0177  0.4526  0.3546
 9143SOL    HW239066   2.952   0.809   7.898 -1.4275 -0.1750 -1.2067
 9144SOL     OW39067   0.145   1.877   3.737  0.2220  0.2018  0.5239
 9144SOL    HW139068   0.115   1.852   3.649 -0.6125  0.1326  0.8299
 9144SOL    HW239069   0.070   1.849   3.790  0.4825 -0.8807  0.3288
 9145SOL     OW39070   4.533   1.395  17.565 -0.0096  0.2683  0.5186
 9145SOL    HW139071   4.599   1.464  17.565 -0.4367  0.6886 -1.0212
 9145SOL    HW239072   4.456   1.444  17.591  0.5053 -1.1749  4.7314
 9146SOL     OW39073   2.315   2.043   5.523 -0.2187  0.3345  0.5449
 9146SOL    HW139074   2.286   2.133   5.538 -1.6929  0.0335 -0.4871
 9146SOL    HW239075   2.234   1.995   5.540  0.4643 -0.2447  2.1634
 9147SOL     OW39076   1.970   2.181  12.358  0.0450  0.0119 -0.2298
 9147SOL    HW139077   1.952   2.201  12.266 -0.1618 -1.8472 -0.6029
 9147SOL    HW239078   1.887   2.138  12.381 -0.2381  0.8663  0.3311
 9148SOL     OW39079   2.983   2.696   5.922 -0.5493 -0.1292 -0.5601
 9148SOL    HW139080   2.928   2.741   5.987  0.8710  0.4948  0.2147
 9148SOL    HW239081   2.932   2.695   5.842 -0.6664 -0.6442 -0.4758
 9149SOL     OW39082   3.428   3.053   4.963  0.5398 -0.0573  0.2656
 9149SOL    HW139083   3.519   3.026   4.975  0.9659  1.5509  0.7377
 9149SOL    HW239084   3.405   3.069   5.054 -1.0337 -2.0317  0.2042
 9150SOL     OW39085   0.977   1.669   1.010  0.1392 -0.4910  0.0651
 9150SOL    HW139086   0.951   1.750   0.967 -0.5765 -0.7948 -0.0809
 9150SOL    HW239087   0.972   1.617   0.930  0.2261  0.6039 -0.6488
 9151SOL     OW39088   3.876   2.731   9.978 -0.5148  0.3873  0.0439
 9151SOL    HW139089   3.799   2.777   9.942 -1.0676  0.1251  0.8809
 9151SOL    HW239090   3.838   2.647  10.003 -1.0361  0.8252  0.7170
 9152SOL     OW39091   0.451   4.181  14.580 -0.1175 -0.6752 -0.0287
 9152SOL    HW139092   0.403   4.260  14.555  0.3303  0.1148  1.6313
 9152SOL    HW239093   0.544   4.201  14.572 -0.3203  0.8876  1.5853
 9153SOL     OW39094   2.096   2.084   7.022 -0.4302 -0.2720 -0.2150
 9153SOL    HW139095   2.018   2.028   7.017 -0.8613  0.5333 -2.9068
 9153SOL    HW239096   2.084   2.125   7.107  1.8331  0.3771 -0.2284
 9154SOL     OW39097   1.497   2.136   6.167 -0.1650 -0.4235 -0.3840
 9154SOL    HW139098   1.427   2.200   6.179 -0.2111 -0.5871  0.2467
 9154SOL    HW239099   1.483   2.072   6.237  0.2647 -0.4561 -0.3248
 9155SOL     OW39100   1.014   4.505  15.631 -0.2336  0.3208  0.6733
 9155SOL    HW139101   1.018   4.512  15.726  0.9891 -1.3124  0.7545
 9155SOL    HW239102   0.981   4.589  15.601  0.8554 -0.2103 -2.0173
 9156SOL     OW39103   1.123   3.878   7.834 -0.4878 -1.0509  0.0085
 9156SOL    HW139104   1.187   3.842   7.895 -0.5739  0.2815  0.8730
 9156SOL    HW239105   1.156   3.968   7.840 -0.6708 -1.2716  3.8608
 9157SOL     OW39106   0.773   4.009   5.808 -0.4044 -0.6377 -0.0710
 9157SOL    HW139107   0.689   4.028   5.850 -0.3083 -2.2219  0.8476
 9157SOL    HW239108   0.747   3.946   5.740 -0.5453  2.1419 -2.6045
 9158SOL     OW39109   2.861   2.160   1.363 -0.4130 -0.2071  0.0815
 9158SOL    HW139110   2.789   2.204   1.319 -1.4217 -2.2429 -0.3104
 9158SOL    HW239111   2.821   2.118   1.439  0.4903  1.6377  1.5814
 9159SOL     OW39112   1.914   2.922   0.147 -0.3497 -0.1845  0.5672
 9159SOL    HW139113   1.959   3.006   0.144 -1.1907  0.4320  5.1113
 9159SOL    HW239114   1.869   2.936   0.063  1.6893  0.0453 -0.4777
 9160SOL     OW39115   2.593   0.440  13.959 -0.5372  0.4567 -0.3359
 9160SOL    HW139116   2.624   0.497  13.888 -1.0710  0.7435 -0.3356
 9160SOL    HW239117   2.504   0.414  13.936  0.7624 -2.1545 -2.4546
 9161SOL     OW39118   4.220   3.063   4.853 -0.4608  0.5523  0.8363
 9161SOL    HW139119   4.251   2.975   4.834 -3.3718  0.0630 -1.6367
 9161SOL    HW239120   4.264   3.070   4.938 -4.2751 -0.5382  2.8615
 9162SOL     OW39121   3.064   4.249   2.495 -0.0139  0.3563  0.4249
 9162SOL    HW139122   3.091   4.190   2.425 -2.6114 -2.0793  1.4743
 9162SOL    HW239123   2.991   4.205   2.538  0.0346 -0.1644 -0.0307
 9163SOL     OW39124   3.528   3.748  11.552  1.0094  0.6894  0.5655
 9163SOL    HW139125   3.444   3.795  11.552  2.2638  2.9423  2.4648
 9163SOL    HW239126   3.517   3.719  11.643 -2.8215 -1.3393 -0.5266
 9164SOL     OW39127   2.159   3.779   9.752 -0.4004 -1.1772 -0.4868
 9164SOL    HW139128   2.141   3.797   9.844  2.3952  0.7357 -0.3406
 9164SOL    HW239129   2.156   3.862   9.705 -0.0556 -0.7263  0.2981
 9165SOL     OW39130   4.034   1.748   5.569 -0.0160  0.0645  0.1616
 9165SOL    HW139131   3.970   1.749   5.640 -1.3888  2.2864 -1.1335
 9165SOL    HW239132   4.075   1.663   5.585 -0.6348  0.3890  3.4811
 9166SOL     OW39133   3.709   1.035   6.447  0.5691 -0.1861  0.3850
 9166SOL    HW139134   3.688   1.051   6.355 -1.3041  1.3840  1.0881
 9166SOL    HW239135   3.665   0.950   6.453  2.8131 -1.5481 -2.5915
 9167SOL     OW39136   3.185   3.029   4.051  0.3690 -0.6383  0.2915
 9167SOL    HW139137   3.105   3.036   4.000  0.9713 -0.0700 -0.5831
 9167SOL    HW239138   3.217   2.941   4.031  0.7482 -0.7066  1.1982
 9168SOL     OW39139   3.161   1.091   7.339 -0.0583  0.0056 -0.3869
 9168SOL    HW139140   3.238   1.097   7.282  0.4410 -0.2904  0.2543
 9168SOL    HW239141   3.185   1.150   7.410  1.0304  1.0406 -1.6142
 9169SOL     OW39142   1.686   2.251   0.208 -0.0725  0.1825 -0.2013
 9169SOL    HW139143   1.703   2.330   0.157 -2.2543  0.4245 -0.5328
 9169SOL    HW239144   1.679   2.186   0.138 -1.5615 -0.0442  0.1547
 9170SOL     OW39145   2.908   2.019   5.181 -0.1126  0.2452  0.3087
 9170SOL    HW139146   2.855   2.096   5.157 -0.4507  0.6207  2.2328
 9170SOL    HW239147   2.995   2.038   5.145  0.5969 -1.1230  1.3176
 9171SOL     OW39148   2.750   4.089   6.060 -0.5538  0.1443 -0.3159
 9171SOL    HW139149   2.730   4.168   6.010 -0.3482 -0.6693 -1.6939
 9171SOL    HW239150   2.775   4.114   6.149 -0.5252  3.6008 -1.3107
 9172SOL     OW39151   2.425   2.597   5.061  0.1455  0.1722  0.4082
 9172SOL    HW139152   2.352   2.623   5.006 -0.3612 -0.3500  0.8289
 9172SOL    HW239153   2.488   2.661   5.027  0.8251 -0.5079  0.3699
 9173SOL     OW39154   3.475   4.165   2.577 -0.0323 -0.1795  0.2045
 9173SOL    HW139155   3.479   4.150   2.671  1.7210  0.5066  0.2347
 9173SOL    HW239156   3.400   4.113   2.546  0.3873  0.6876 -2.2452
 9174SOL     OW39157   1.014   1.013   2.991 -0.2223 -0.1564  0.1226
 9174SOL    HW139158   1.039   1.018   3.083 -0.1364 -1.0629  0.1456
 9174SOL    HW239159   0.920   1.000   3.006 -0.0434 -2.9995 -1.2433
 9175SOL     OW39160   1.243   2.296  11.203 -0.0097 -0.1609 -0.6174
 9175SOL    HW139161   1.186   2.368  11.229  0.0947 -0.1410 -0.4489
 9175SOL    HW239162   1.327   2.333  11.177 -0.6560  1.3028 -0.6205
 9176SOL     OW39163   2.119   4.205  10.096  0.3361 -0.2984 -0.0828
 9176SOL    HW139164   2.145   4.135  10.036  0.0693  0.1016 -0.6606
 9176SOL    HW239165   2.081   4.275  10.043  3.5109  1.3939 -0.1870
 9177SOL     OW39166   2.136   1.065   0.820  0.1414 -0.2076 -0.1010
 9177SOL    HW139167   2.084   1.060   0.739  0.2427  0.4319 -0.2068
 9177SOL    HW239168   2.188   0.990   0.793 -1.9049 -2.0207  0.9766
 9178SOL     OW39169   4.428   0.336   0.270 -0.2085 -0.0508 -0.1256
 9178SOL    HW139170   4.437   0.240   0.267 -1.2145 -0.2016  1.6371
 9178SOL    HW239171   4.434   0.361   0.178  1.1053  2.3114  0.6101
 9179SOL     OW39172   4.393   1.593   8.732  0.4560 -0.4142  0.3151
 9179SOL    HW139173   4.338   1.671   8.741 -0.6685 -0.9663 -1.9464
 9179SOL    HW239174   4.387   1.575   8.638 -0.4164  1.3596  0.0246
 9180SOL     OW39175   1.331   0.766   1.745 -0.6034 -0.3419 -0.0791
 9180SOL    HW139176   1.287   0.745   1.663  1.9516 -3.7030 -0.6053
 9180SOL    HW239177   1.355   0.858   1.733 -0.4495 -0.4384 -0.5183
 9181SOL     OW39178   0.783   2.757  15.856 -0.0280 -0.7444 -0.2322
 9181SOL    HW139179   0.750   2.764  15.946  2.4015 -1.8758  0.7351
 9181SOL    HW239180   0.743   2.832  15.810  1.3099  0.2296  0.2080
 9182SOL     OW39181   3.507   3.318   9.326 -0.2561 -0.7046  0.2053
 9182SOL    HW139182   3.432   3.330   9.268 -0.7084  1.3107  1.2053
 9182SOL    HW239183   3.474   3.361   9.404  2.5244  1.3524  0.2876
 9183SOL     OW39184   2.105   1.888   5.564 -0.4142  0.2646  0.1857
 9183SOL    HW139185   2.075   1.859   5.650  3.8354  1.3580  2.0150
 9183SOL    HW239186   2.026   1.935   5.536  0.7996  3.0158  1.3405
 9184SOL     OW39187   2.426   2.822   6.227  0.3355 -0.0362  0.3667
 9184SOL    HW139188   2.444   2.729   6.209  1.0586  0.5858 -2.1349
 9184SOL    HW239189   2.331   2.826   6.226  0.2288 -2.4445  1.1936
 9185SOL     OW39190   0.021   1.605   4.341 -0.1879 -0.0463 -0.2503
 9185SOL    HW139191   4.717   1.691   4.329  0.6988  0.4754  0.4158
 9185SOL    HW239192   4.722   1.578   4.425  0.4030  2.0742  0.7024
 9186SOL     OW39193   3.492   1.617  14.188 -0.3126  0.0892  0.1449
 9186SOL    HW139194   3.469   1.541  14.241  0.2070 -0.3813 -0.3020
 9186SOL    HW239195   3.411   1.635  14.141 -1.5938 -0.2252  2.1981
 9187SOL     OW39196   0.480   0.678  13.336 -0.1612 -0.2492  0.0757
 9187SOL    HW139197   0.449   0.718  13.255 -1.6703  0.0389  0.8070
 9187SOL    HW239198   0.561   0.729  13.343 -0.0178 -0.2074 -1.7301
 9188SOL     OW39199   0.302   3.653  15.394  0.0094 -0.1092  0.4281
 9188SOL    HW139200   0.299   3.746  15.418  0.5444 -0.3159  1.3142
 9188SOL    HW239201   0.250   3.645  15.314 -0.0439 -2.7295  0.7136
 9189SOL     OW39202   2.001   3.314   7.254  0.0009  0.6119  0.4920
 9189SOL    HW139203   2.094   3.304   7.238  0.0609  0.6387  0.8302
 9189SOL    HW239204   1.964   3.357   7.176  0.5655 -0.3808 -0.3156
 9190SOL     OW39205   0.692   3.761  11.256 -0.0967  0.3408  0.9608
 9190SOL    HW139206   0.640   3.729  11.329  0.4461 -0.7137  0.8905
 9190SOL    HW239207   0.767   3.702  11.263  0.1295  0.7541  2.0658
 9191SOL     OW39208   1.082   1.786   4.919  0.3348 -0.1425 -0.6235
 9191SOL    HW139209   1.052   1.696   4.904  1.2174 -0.5449 -0.0024
 9191SOL    HW239210   1.170   1.765   4.953 -0.3524 -2.5742 -0.3361
 9192SOL     OW39211   2.090   0.563  14.877 -0.2560 -0.2454  0.3718
 9192SOL    HW139212   2.101   0.574  14.972  1.4566  0.8233  0.0456
 9192SOL    HW239213   2.153   0.625  14.841  1.0358 -1.1537  1.1031
 9193SOL     OW39214   0.561   2.792  14.196  0.3125 -0.0067  0.2714
 9193SOL    HW139215   0.467   2.777  14.207  0.1368  1.7291  1.1070
 9193SOL    HW239216   0.567   2.878  14.153 -0.9544 -0.3289 -0.5462
 9194SOL     OW39217   2.730   3.415   3.097 -0.1563 -0.4161  0.3284
 9194SOL    HW139218   2.645   3.420   3.140  0.2115  0.6185  0.9193
 9194SOL    HW239219   2.776   3.341   3.138  0.5655 -0.0756  0.1455
 9195SOL     OW39220   3.062   2.306   3.727 -0.3079  0.5496  0.1047
 9195SOL    HW139221   3.115   2.386   3.727  0.2772  0.1562  0.2298
 9195SOL    HW239222   3.106   2.251   3.791 -1.0644  2.0450  1.8867
 9196SOL     OW39223   0.420   0.113   4.206 -0.2252 -0.1628 -0.1014
 9196SOL    HW139224   0.382   0.027   4.225 -2.4729  0.7579 -0.4433
 9196SOL    HW239225   0.454   0.147   4.288 -1.7519  1.4257 -0.1229
 9197SOL     OW39226   4.261   3.931   3.326  0.2357  0.3405 -0.2689
 9197SOL    HW139227   4.192   3.961   3.385  1.6524  1.9382  0.5635
 9197SOL    HW239228   4.287   3.850   3.370 -0.5339 -0.4412 -1.2300
 9198SOL     OW39229   3.511   2.876   7.461 -0.2567 -0.8133 -0.1483
 9198SOL    HW139230   3.462   2.793   7.459  0.9614 -1.6033  2.1597
 9198SOL    HW239231   3.496   2.922   7.379 -0.7487  0.7199  0.7987
 9199SOL     OW39232   3.250   1.519  11.165  0.2034 -0.1396  0.3354
 9199SOL    HW139233   3.262   1.433  11.204  1.1621  1.3520  3.2715
 9199SOL    HW239234   3.341   1.550  11.165  1.3636 -3.5516  1.9937
 9200SOL     OW39235   1.144   2.275  16.868 -0.5935  0.2281  0.2865
 9200SOL    HW139236   1.155   2.258  16.775 -1.2625 -0.9713  0.4277
 9200SOL    HW239237   1.090   2.204  16.903  1.8546 -0.9394  1.7074
 9201SOL     OW39238   0.567   2.376  10.098  0.0711  0.0369  0.0196
 9201SOL    HW139239   0.609   2.302  10.142  0.4802  0.1685 -0.1533
 9201SOL    HW239240   0.640   2.425  10.060 -0.0640  1.7071  1.9142
 9202SOL     OW39241   0.347   3.769   5.557  0.2851 -0.6133 -0.7175
 9202SOL    HW139242   0.311   3.801   5.639  1.8177 -0.7028 -0.0077
 9202SOL    HW239243   0.296   3.827   5.499 -0.8537 -0.0251  0.8733
 9203SOL     OW39244   2.293   3.823   7.904 -0.3574  0.3081 -0.0042
 9203SOL    HW139245   2.296   3.792   7.814  1.0060 -2.7213  1.0695
 9203SOL    HW239246   2.300   3.915   7.881 -5.1514  0.5601 -0.4752
 9204SOL     OW39247   1.661   3.167   8.016  0.1831  0.7993 -0.2845
 9204SOL    HW139248   1.664   3.262   8.029 -2.3853  0.8162  0.1805
 9204SOL    HW239249   1.745   3.141   8.054 -0.4515  0.0842  0.5961
 9205SOL     OW39250   0.482   4.116   6.243  0.0242  0.0997  0.1102
 9205SOL    HW139251   0.416   4.177   6.276  0.0786 -0.0066  0.4197
 9205SOL    HW239252   0.493   4.064   6.323  0.0762  1.3949  0.9485
 9206SOL     OW39253   0.286   1.181   1.800  0.1079  0.2898 -0.1018
 9206SOL    HW139254   0.342   1.116   1.757 -0.2854  0.9183 -1.5427
 9206SOL    HW239255   0.200   1.140   1.800 -0.8084  2.2491 -0.0764
 9207SOL     OW39256   1.641   0.595   5.028 -0.5105 -0.1753  0.3695
 9207SOL    HW139257   1.610   0.506   5.046 -2.2386  0.3501 -0.0341
 9207SOL    HW239258   1.605   0.610   4.941 -0.3760  0.3205  0.4026
 9208SOL     OW39259   2.643   4.108   5.285  0.3163  0.8950 -0.0927
 9208SOL    HW139260   2.727   4.152   5.274  0.6163  0.1804 -0.6611
 9208SOL    HW239261   2.605   4.151   5.208  0.3027  0.2787 -0.4265
 9209SOL     OW39262   3.786   0.092   0.242  0.0949 -0.3186 -0.2057
 9209SOL    HW139263   3.786   0.007   0.286 -0.7351  0.1749  0.7581
 9209SOL    HW239264   3.811   0.145   0.318 -0.0495 -1.3064  0.5273
 9210SOL     OW39265   2.016   1.598   3.467  0.3909 -0.3413 -0.0806
 9210SOL    HW139266   2.024   1.598   3.371  0.2870  0.6249 -0.0939
 9210SOL    HW239267   1.946   1.662   3.480  0.0064 -0.9207  0.6596
 9211SOL     OW39268   3.085   4.607   6.059 -0.0081  0.2536 -0.4539
 9211SOL    HW139269   3.151   4.672   6.035 -0.9279  1.6148  0.6830
 9211SOL    HW239270   3.062   4.646   6.143 -0.0117 -0.5120 -0.1022
 9212SOL     OW39271   0.829   4.376  15.488  0.8494  0.1983  0.3298
 9212SOL    HW139272   0.775   4.407  15.561 -0.8790  1.9138 -1.6692
 9212SOL    HW239273   0.903   4.429  15.519  0.5122 -0.9843  3.1280
 9213SOL     OW39274   3.613   2.482  17.563 -0.2020  0.4067  0.1847
 9213SOL    HW139275   3.584   2.391  17.568  2.4692 -0.2378  3.8633
 9213SOL    HW239276   3.614   2.503  17.656 -0.9703  1.6788 -0.1056
 9214SOL     OW39277   1.904   4.347  10.595  0.2435  0.2933 -0.4201
 9214SOL    HW139278   1.936   4.260  10.571  0.2430 -0.0747  0.9014
 9214SOL    HW239279   1.940   4.397  10.522  0.0472  1.0390 -0.0004
 9215SOL     OW39280   3.721   0.406   5.157  0.2642  0.0541 -0.0231
 9215SOL    HW139281   3.715   0.365   5.243 -2.9358  1.4830  0.4190
 9215SOL    HW239282   3.810   0.441   5.158 -0.6568  2.3328  0.3760
 9216SOL     OW39283   0.679   4.032   8.662 -0.6381  0.2410  0.5427
 9216SOL    HW139284   0.701   3.942   8.639 -0.5504  0.6820 -1.0971
 9216SOL    HW239285   0.742   4.076   8.606  0.6980 -0.4834  1.4847
 9217SOL     OW39286   1.552   4.623   4.262 -0.1596 -0.2404 -0.0510
 9217SOL    HW139287   1.543   4.718   4.269 -0.9513 -0.3257  0.0836
 9217SOL    HW239288   1.639   4.622   4.221 -0.5923  4.0665 -1.1178
 9218SOL     OW39289   4.537   1.273   7.317 -0.6248  0.7339 -0.0740
 9218SOL    HW139290   4.615   1.311   7.358 -0.5440  1.4972 -0.9187
 9218SOL    HW239291   4.464   1.302   7.371  0.0340 -0.5405  1.4732
 9219SOL     OW39292   3.795   3.977   5.347  0.0398  0.5446 -0.4257
 9219SOL    HW139293   3.793   4.072   5.359  1.3977  0.3269  1.5596
 9219SOL    HW239294   3.773   3.983   5.254 -0.5453 -0.4235 -0.3473
 9220SOL     OW39295   3.124   4.648   4.768  0.2054  0.5449 -0.0452
 9220SOL    HW139296   3.154   0.000   4.770 -2.6377  1.5363 -0.7396
 9220SOL    HW239297   3.035   4.655   4.732  0.5769  0.2905 -1.0367
 9221SOL     OW39298   3.973   1.399   6.496 -0.7921  0.1334  0.3871
 9221SOL    HW139299   3.976   1.336   6.424 -1.0677 -0.8667  1.2679
 9221SOL    HW239300   4.067   1.402   6.515 -1.2342  0.4381  2.4702
 9222SOL     OW39301   3.114   4.299   9.282 -0.5548  0.6507  0.3907
 9222SOL    HW139302   3.099   4.360   9.209  0.6219 -0.9911 -1.2383
 9222SOL    HW239303   3.051   4.232   9.256 -0.7357  0.1241  2.2234
 9223SOL     OW39304   1.829   0.034   3.456 -0.0491 -0.1457 -0.3082
 9223SOL    HW139305   1.774   0.030   3.534  0.0169  0.2198 -0.2431
 9223SOL    HW239306   1.771   0.064   3.386 -1.0105  2.0608  1.4449
 9224SOL     OW39307   2.912   0.826   2.393 -0.0233  0.7187  0.5407
 9224SOL    HW139308   2.888   0.828   2.486  0.2074  0.2133  0.6104
 9224SOL    HW239309   2.934   0.733   2.384 -0.2474  0.9235 -1.9401
 9225SOL     OW39310   1.583   3.049   5.513 -0.3254 -0.2057  0.2402
 9225SOL    HW139311   1.660   3.001   5.543 -0.7290 -0.3958  0.9651
 9225SOL    HW239312   1.512   3.011   5.565  0.7217 -0.1797  1.6880
 9226SOL     OW39313   2.007   1.206   1.026  0.1597  0.4735  0.2645
 9226SOL    HW139314   2.000   1.137   1.092 -1.5907  1.0897  0.7294
 9226SOL    HW239315   2.049   1.165   0.951  1.9892  0.9047  1.0494
 9227SOL     OW39316   2.161   3.295   8.610 -0.3651  0.4394  0.3523
 9227SOL    HW139317   2.139   3.284   8.518  0.6665 -0.7486  0.2490
 9227SOL    HW239318   2.099   3.365   8.629 -1.0964  0.7313 -3.2128
 9228SOL     OW39319   1.725   0.933   4.302  0.7126  0.3485  0.1631
 9228SOL    HW139320   1.673   0.866   4.347 -0.3686 -0.5360 -2.3997
 9228SOL    HW239321   1.805   0.884   4.283 -0.4484 -1.4403 -0.1181
 9229SOL     OW39322   2.958   2.318   9.383 -0.0965  0.1693  0.0100
 9229SOL    HW139323   2.975   2.328   9.289  2.2835 -0.1748  0.3897
 9229SOL    HW239324   2.873   2.354   9.407  1.0480  3.0220 -0.1629
 9230SOL     OW39325   0.814   3.003   3.741  0.4888 -0.1955  0.6802
 9230SOL    HW139326   0.763   2.922   3.743 -0.7185  0.5137 -1.2941
 9230SOL    HW239327   0.777   3.058   3.810 -0.5569  1.6948 -1.3697
 9231SOL     OW39328   0.845   4.355   2.822 -0.5064  0.1099  0.1736
 9231SOL    HW139329   0.877   4.269   2.852 -2.1624 -0.4789  0.2225
 9231SOL    HW239330   0.753   4.345   2.798 -1.0595 -0.4686  2.4735
 9232SOL     OW39331   1.460   3.828   7.296  0.1773  0.0513 -0.2104
 9232SOL    HW139332   1.425   3.739   7.292 -0.0595  0.0625  1.7372
 9232SOL    HW239333   1.497   3.834   7.208  0.0114 -2.3122 -0.4419
 9233SOL     OW39334   1.503   3.546   7.932 -0.0382 -0.0841  0.2817
 9233SOL    HW139335   1.544   3.579   7.852 -0.7406  0.1763  0.0275
 9233SOL    HW239336   1.410   3.535   7.912  0.3013 -2.1653 -0.1037
 9234SOL     OW39337   1.806   2.878   5.567 -0.2771 -0.1816 -0.6685
 9234SOL    HW139338   1.835   2.904   5.655 -4.2265 -0.0492  0.6243
 9234SOL    HW239339   1.878   2.918   5.519 -0.5057 -0.1818 -1.0106
 9235SOL     OW39340   2.299   0.416   8.691 -0.1879 -0.0887  0.4279
 9235SOL    HW139341   2.348   0.341   8.658  1.3799  0.4132  1.6545
 9235SOL    HW239342   2.294   0.483   8.622  0.0639 -1.4261 -0.8907
 9236SOL     OW39343   2.558   2.890   2.474  0.0235 -0.2617  0.0741
 9236SOL    HW139344   2.630   2.951   2.490  0.6804 -1.8336  3.1014
 9236SOL    HW239345   2.541   2.904   2.381 -1.7980 -0.3803  0.3984
 9237SOL     OW39346   3.941   0.930  14.888 -0.5503  0.5883  0.2155
 9237SOL    HW139347   3.920   0.858  14.948 -0.5120  0.3034 -0.1065
 9237SOL    HW239348   4.036   0.918  14.879 -0.7402 -0.6950 -0.1236
 9238SOL     OW39349   1.696   0.328   2.389  0.0757 -0.2348 -0.5933
 9238SOL    HW139350   1.601   0.317   2.391 -0.4224  4.2328 -1.0556
 9238SOL    HW239351   1.722   0.300   2.302  3.2389  1.2166 -0.1021
 9239SOL     OW39352   3.588   3.567   6.024 -0.2814  1.0333  0.8679
 9239SOL    HW139353   3.534   3.642   6.047 -0.9059  0.2611  1.9113
 9239SOL    HW239354   3.574   3.528   6.110  2.3297  0.5362  1.0710
 9240SOL     OW39355   0.810   1.365   5.025 -0.1061 -0.0019 -0.4039
 9240SOL    HW139356   0.732   1.334   5.071 -0.9591 -0.6313 -2.3084
 9240SOL    HW239357   0.872   1.363   5.099 -2.1050 -2.3567  1.2114
 9241SOL     OW39358   1.290   0.022   2.970 -0.9437 -0.5778 -0.3918
 9241SOL    HW139359   1.199   0.043   2.949 -0.9723 -2.3542 -2.0519
 9241SOL    HW239360   1.282   0.010   3.065  1.1343  0.8490 -0.0278
 9242SOL     OW39361   4.216   2.526   7.758  0.1219 -0.0366  0.1877
 9242SOL    HW139362   4.175   2.585   7.822  0.5159 -0.0371  0.4432
 9242SOL    HW239363   4.189   2.564   7.675  0.2903  0.0240  0.1601
 9243SOL     OW39364   1.908   0.442   2.516  0.0786  0.2204 -0.3758
 9243SOL    HW139365   1.898   0.437   2.611 -0.4505 -0.1055 -0.4499
 9243SOL    HW239366   1.822   0.412   2.485  0.3371 -0.1708 -0.7142
 9244SOL     OW39367   3.594   2.590  14.629 -0.1579  0.2649 -0.0010
 9244SOL    HW139368   3.617   2.645  14.704  0.1426  1.7530 -1.1638
 9244SOL    HW239369   3.644   2.624  14.555  1.4581  1.9173  1.8561
 9245SOL     OW39370   4.591   3.283   4.410 -0.3025 -0.0926  0.4027
 9245SOL    HW139371   4.635   3.208   4.370  0.4498  1.2780 -1.3796
 9245SOL    HW239372   4.509   3.278   4.360 -1.0779  0.5295  1.6123
 9246SOL     OW39373   1.531   3.305   5.401 -0.1649  0.5402  0.0895
 9246SOL    HW139374   1.458   3.284   5.343  0.2698 -0.0783 -0.2226
 9246SOL    HW239375   1.545   3.223   5.447 -2.1313  0.6643  0.9226
 9247SOL     OW39376   2.065   1.162   1.493 -0.3239  0.0860  0.4663
 9247SOL    HW139377   2.071   1.256   1.476 -1.2571 -0.0650 -0.7313
 9247SOL    HW239378   1.998   1.124   1.436  1.0715 -3.0719  0.9251
 9248SOL     OW39379   0.671   1.399   4.779 -0.0140 -0.3813  0.5945
 9248SOL    HW139380   0.733   1.403   4.852  2.0216 -0.1947 -1.1565
 9248SOL    HW239381   0.689   1.485   4.741 -0.0116 -0.6449  0.0030
 9249SOL     OW39382   1.783   1.787  17.692  0.3843  0.3455  0.4537
 9249SOL    HW139383   1.736   1.711  17.656  0.2565 -0.0710  1.5055
 9249SOL    HW239384   1.791   1.760   0.034 -1.6629  0.0416  0.5383
 9250SOL     OW39385   3.185   2.301  17.583  0.2292 -0.0390 -0.4619
 9250SOL    HW139386   3.124   2.266  17.649 -0.6181 -0.3386 -1.4032
 9250SOL    HW239387   3.124   2.358  17.535  0.4337  0.1693 -0.4747
 9251SOL     OW39388   1.716   1.924   2.030 -0.3334  0.2020  0.8002
 9251SOL    HW139389   1.687   2.007   1.994  0.7499  0.9536  1.6460
 9251SOL    HW239390   1.655   1.870   1.980 -0.3782 -0.3529  1.4566
 9252SOL     OW39391   1.469   4.411  13.966 -0.3597 -0.0197 -0.0445
 9252SOL    HW139392   1.489   4.384  13.876  0.2317  3.1900 -0.8920
 9252SOL    HW239393   1.539   4.366  14.013 -0.7980 -0.1960  0.4330
 9253SOL     OW39394   0.189   2.400   2.953 -0.0648 -0.0992  0.5344
 9253SOL    HW139395   0.235   2.351   3.021  0.4552 -1.0581 -0.4919
 9253SOL    HW239396   0.257   2.462   2.928  0.9842 -1.4567 -0.0323
 9254SOL     OW39397   3.675   2.710  13.953  0.5770  0.6821  0.0062
 9254SOL    HW139398   3.678   2.629  13.902  1.6249  0.7346 -0.0116
 9254SOL    HW239399   3.581   2.727  13.953  0.5590  0.6117 -2.0730
 9255SOL     OW39400   0.663   3.085   3.461 -0.5226  0.0216  0.1812
 9255SOL    HW139401   0.719   3.015   3.495 -0.5937 -0.2823 -0.3282
 9255SOL    HW239402   0.727   3.138   3.414  0.3171 -2.1618 -1.0821
 9256SOL     OW39403   0.084   2.342   9.006 -0.0648  0.2697  0.1905
 9256SOL    HW139404   0.178   2.347   9.022 -0.2669  2.3718  0.7247
 9256SOL    HW239405   0.052   2.375   9.090 -1.2940 -0.9995  0.2194
 9257SOL     OW39406   3.451   4.643   4.642 -0.4845  0.0367  0.1248
 9257SOL    HW139407   3.451   4.702   4.567  0.4596 -2.5398 -1.8950
 9257SOL    HW239408   3.376   4.584   4.636 -0.3135 -0.4591  2.7560
 9258SOL     OW39409   1.628   4.595   4.547  0.5775 -0.0189  0.0939
 9258SOL    HW139410   1.647   4.660   4.480  0.0886 -1.9858 -1.9454
 9258SOL    HW239411   1.532   4.600   4.542  0.7587  0.6151 -2.6967
 9259SOL     OW39412   2.101   3.245  11.274 -0.8677  0.1680  0.4368
 9259SOL    HW139413   2.057   3.221  11.193 -0.6207  1.3396 -0.0485
 9259SOL    HW239414   2.145   3.163  11.294  0.9493  1.0579  0.1471
 9260SOL     OW39415   0.087   2.841  11.001  0.1102 -0.6710  0.0699
 9260SOL    HW139416   0.100   2.774  10.934 -3.0664 -0.8236 -0.3954
 9260SOL    HW239417   0.172   2.842  11.045 -0.2965 -1.9078  0.8971
 9261SOL     OW39418   0.343   1.849  12.436  0.1016 -0.3278  0.3023
 9261SOL    HW139419   0.258   1.821  12.470  0.0903  0.0251  0.5643
 9261SOL    HW239420   0.333   1.836  12.341  0.8098 -0.9392  0.3046
 9262SOL     OW39421   3.806   4.387   2.467  0.3903  0.4181  0.1915
 9262SOL    HW139422   3.713   4.385   2.488  0.4203 -1.7911  0.1224
 9262SOL    HW239423   3.848   4.365   2.551  1.0049  0.2228 -0.1655
 9263SOL     OW39424   0.964   0.147  16.484  0.3497 -0.1557  0.5714
 9263SOL    HW139425   0.973   0.184  16.396  3.4050 -1.1098  0.4947
 9263SOL    HW239426   0.968   0.059  16.447 -0.0210 -1.5741  3.8933
 9264SOL     OW39427   4.509   1.231   1.785  0.3332 -0.3209  0.0668
 9264SOL    HW139428   4.503   1.141   1.816  0.8391  0.7177  3.1700
 9264SOL    HW239429   4.540   1.262   1.870 -1.4341  0.6358  0.3579
 9265SOL     OW39430   0.077   0.483   1.983 -0.4866 -0.4984  0.0320
 9265SOL    HW139431   0.171   0.496   1.971 -0.8502  1.0038 -1.1146
 9265SOL    HW239432   0.074   0.389   2.001  0.6161 -0.3883  0.7985
 9266SOL     OW39433   0.140   3.729  16.028 -0.1399  0.3582  0.1926
 9266SOL    HW139434   0.229   3.695  16.029 -0.6850 -1.1484 -0.8761
 9266SOL    HW239435   0.094   3.653  16.064  0.9123 -1.3006 -1.9717
 9267SOL     OW39436   2.112   4.652   0.806  0.5662 -0.6554  0.0817
 9267SOL    HW139437   2.052   4.725   0.817 -0.8228 -1.5362 -1.7041
 9267SOL    HW239438   2.115   4.618   0.896  0.7706 -1.9972 -0.4349
 9268SOL     OW39439   2.679   0.102   5.702 -0.6334  0.5760 -0.0610
 9268SOL    HW139440   2.599   0.136   5.742 -0.9606  0.7811 -0.8878
 9268SOL    HW239441   2.723   0.185   5.685  2.6118 -0.9583  0.9141
 9269SOL     OW39442   3.790   0.135   1.311  0.4199 -0.5207  0.0029
 9269SOL    HW139443   3.757   0.165   1.226 -1.7866 -2.2952  0.2281
 9269SOL    HW239444   3.843   0.065   1.272 -0.2262 -0.7842 -0.4132
 9270SOL     OW39445   0.380   0.793  13.107 -0.9760  0.8916 -0.1241
 9270SOL    HW139446   0.417   0.875  13.072 -2.0051  0.3907 -2.4108
 9270SOL    HW239447   0.286   0.811  13.099 -0.7763  2.3875  0.7584
 9271SOL     OW39448   3.022   1.635   0.447  0.1462  0.3180  0.1920
 9271SOL    HW139449   3.087   1.638   0.377  0.4063  0.2827  0.4357
 9271SOL    HW239450   2.941   1.591   0.420  0.6876  0.8029 -2.1680
 9272SOL     OW39451   2.896   2.961   6.611  0.3579 -0.2438 -0.0013
 9272SOL    HW139452   2.900   2.999   6.699 -0.3154 -0.2255  0.0192
 9272SOL    HW239453   2.807   2.930   6.593  0.5767 -1.3289  0.8125
 9273SOL     OW39454   4.558   1.985   8.537 -0.4505  0.1645  0.4055
 9273SOL    HW139455   4.590   1.957   8.451 -2.4671  2.0910 -0.9632
 9273SOL    HW239456   4.635   1.988   8.593 -1.1794 -1.4460  1.5086
 9274SOL     OW39457   3.664   0.569   8.656 -0.1297 -0.2554  0.2793
 9274SOL    HW139458   3.705   0.482   8.663  1.3063  0.3968 -0.0838
 9274SOL    HW239459   3.656   0.588   8.749  3.8945 -1.0124  0.8086
 9275SOL     OW39460   3.644   4.131   0.769 -0.0984 -0.7235  0.5243
 9275SOL    HW139461   3.668   4.187   0.843  1.4451 -4.1578  2.6206
 9275SOL    HW239462   3.620   4.054   0.822  1.5603 -0.6615  1.3501
 9276SOL     OW39463   0.700   1.674   7.200  0.4860  0.4489  0.0914
 9276SOL    HW139464   0.782   1.639   7.235 -0.0297  1.3426  2.2342
 9276SOL    HW239465   0.709   1.766   7.225  3.2461  0.2398 -0.1340
 9277SOL     OW39466   0.533   4.450   4.805  0.0689  0.1347  0.2152
 9277SOL    HW139467   0.446   4.418   4.781  0.0478 -0.7099  1.4072
 9277SOL    HW239468   0.524   4.545   4.800 -0.1670  0.1722  1.4695
 9278SOL     OW39469   1.596   0.067  11.622  0.0049  0.5480 -0.0381
 9278SOL    HW139470   1.546   4.724  11.608  0.3014  0.2390  0.6789
 9278SOL    HW239471   1.598   0.056  11.718 -0.3584 -2.2790 -0.3586
 9279SOL     OW39472   0.045   4.584   4.118  0.6287  0.0789  0.6683
 9279SOL    HW139473   0.022   4.666   4.075  1.5728  0.0708  0.1567
 9279SOL    HW239474   0.123   4.611   4.166  0.3815 -0.1409  1.2013
 9280SOL     OW39475   3.850   2.949   9.699 -0.3471 -0.4945 -0.1058
 9280SOL    HW139476   3.794   2.954   9.777  0.3683  3.9390  0.0757
 9280SOL    HW239477   3.801   2.894   9.638 -1.1549  0.7452 -0.5597
 9281SOL     OW39478   2.002   0.811   8.746  0.2759  0.1084  0.0806
 9281SOL    HW139479   1.937   0.815   8.816  0.0924  2.5221 -0.2528
 9281SOL    HW239480   2.033   0.720   8.755 -0.5607 -0.4647 -2.8501
 9282SOL     OW39481   0.299   1.032   5.866 -0.3250  0.0899 -0.8313
 9282SOL    HW139482   0.347   1.024   5.784 -0.0569 -1.1697 -0.5474
 9282SOL    HW239483   0.344   1.101   5.916 -0.6136 -0.2717 -0.0766
 9283SOL     OW39484   3.458   1.005   5.025 -0.2259 -0.1739 -0.0760
 9283SOL    HW139485   3.401   1.077   4.999 -1.6433 -1.0394  0.6438
 9283SOL    HW239486   3.439   1.001   5.119 -2.7974 -1.5642 -0.6577
 9284SOL     OW39487   1.721   2.915  17.401 -0.1960 -0.0533  0.2152
 9284SOL    HW139488   1.682   2.990  17.356  1.5399  0.7473  0.0502
 9284SOL    HW239489   1.675   2.846  17.353 -0.1914 -0.3340  0.6113
 9285SOL     OW39490   2.226   3.886   2.522 -0.2150  0.0229 -0.6421
 9285SOL    HW139491   2.190   3.832   2.451 -0.2635  1.0946 -1.4334
 9285SOL    HW239492   2.320   3.882   2.503  0.4215 -0.9458  2.7753
 9286SOL     OW39493   1.448   3.646   0.443  0.3881 -0.7319  0.0422
 9286SOL    HW139494   1.495   3.592   0.379  2.9259 -0.8736  2.0541
 9286SOL    HW239495   1.358   3.652   0.409  0.0935  1.2218  1.1460
 9287SOL     OW39496   2.528   3.956   8.273  0.7802 -0.4223  0.1478
 9287SOL    HW139497   2.529   3.895   8.199 -2.0224 -1.3136  0.8471
 9287SOL    HW239498   2.435   3.957   8.297  1.1659  3.1124  1.4105
 9288SOL     OW39499   1.929   0.213   9.280 -0.6292  0.3410  0.8287
 9288SOL    HW139500   1.959   0.260   9.202 -1.5033  0.8987  0.8247
 9288SOL    HW239501   1.867   0.278   9.314  0.2498  1.2245  0.7281
 9289SOL     OW39502   3.009   3.249   0.463 -0.3761 -0.3209 -0.1002
 9289SOL    HW139503   2.975   3.338   0.458  1.2060  0.2663 -0.2416
 9289SOL    HW239504   3.063   3.245   0.384 -0.7719  3.1322 -0.5242
 9290SOL     OW39505   0.696   0.377   4.124 -0.6661 -0.3219 -0.3111
 9290SOL    HW139506   0.751   0.315   4.075 -1.8921  0.3761 -2.5735
 9290SOL    HW239507   0.645   0.407   4.049 -0.0709  1.2253 -0.0996
 9291SOL     OW39508   3.363   4.235   3.178  0.5393 -0.3190  0.3453
 9291SOL    HW139509   3.353   4.330   3.189 -0.3374 -0.0215 -2.9566
 9291SOL    HW239510   3.458   4.239   3.163  0.5524 -0.7253  0.3372
 9292SOL     OW39511   0.927   0.881   2.022  0.1000 -0.0916 -0.5477
 9292SOL    HW139512   0.853   0.882   1.961  0.6779  3.1105 -1.1712
 9292SOL    HW239513   0.991   0.943   1.988 -0.0772  0.5385  0.2825
 9293SOL     OW39514   1.098   3.539   6.819 -0.0706 -0.1752 -0.1864
 9293SOL    HW139515   1.148   3.519   6.898  2.9782 -0.3339 -2.1206
 9293SOL    HW239516   1.009   3.520   6.850  0.1802  0.9564  1.2116
 9294SOL     OW39517   1.810   1.454   3.982  0.7424 -0.5411 -0.3894
 9294SOL    HW139518   1.866   1.420   3.912  0.6679  1.5553 -1.4750
 9294SOL    HW239519   1.720   1.433   3.956  0.1535  0.4334  0.9156
 9295SOL     OW39520   2.122   0.301  16.487 -0.2268 -0.0817 -0.4428
 9295SOL    HW139521   2.181   0.241  16.533  0.2249  1.2979  0.8000
 9295SOL    HW239522   2.114   0.377  16.545 -0.7794 -0.6120  0.1751
 9296SOL     OW39523   3.070   3.794   3.974 -0.2304 -0.0939  0.2661
 9296SOL    HW139524   3.031   3.710   3.950 -1.1421  0.0554  1.1844
 9296SOL    HW239525   3.018   3.853   3.918  0.5947  1.4795  1.1479
 9297SOL     OW39526   1.935   3.960   3.015  0.1258  0.1600 -0.3172
 9297SOL    HW139527   1.918   4.050   3.041 -2.7934 -0.5363  0.1866
 9297SOL    HW239528   1.895   3.962   2.928  0.1877  3.2522 -0.2450
 9298SOL     OW39529   0.088   2.182   2.019  0.0958 -0.1380  0.7310
 9298SOL    HW139530   0.018   2.173   1.954  0.6221 -0.2185  0.1741
 9298SOL    HW239531   0.070   2.097   2.058  2.4320 -0.0521  2.0002
 9299SOL     OW39532   4.659   4.661   1.458 -0.4093 -0.0426 -0.0691
 9299SOL    HW139533   4.729   4.645   1.522  0.4171 -0.9669 -1.1921
 9299SOL    HW239534   4.611   4.579   1.471  1.2908 -0.6799  2.2389
 9300SOL     OW39535   0.364   0.181   7.777  0.1037 -0.1480  0.3283
 9300SOL    HW139536   0.384   0.168   7.869  1.9132  2.6161  0.3556
 9300SOL    HW239537   0.444   0.143   7.739  0.5825  1.6293 -0.4784
 9301SOL     OW39538   3.689   3.847   6.049  0.2479 -0.1340  0.1761
 9301SOL    HW139539   3.756   3.818   5.987  0.1833  4.1900 -1.8871
 9301SOL    HW239540   3.610   3.824   6.000  0.9479 -4.3409  0.9738
 9302SOL     OW39541   2.644   0.703   7.423 -0.3501 -0.0233 -0.5304
 9302SOL    HW139542   2.560   0.732   7.458 -0.2177  1.2461 -1.2422
 9302SOL    HW239543   2.650   0.761   7.347  0.9964 -1.3023 -1.4070
 9303SOL     OW39544   1.459   2.601  16.751  0.5365 -0.3459 -0.1963
 9303SOL    HW139545   1.502   2.519  16.775  1.8248  0.2783 -0.3829
 9303SOL    HW239546   1.378   2.594  16.801  0.3904  0.8772 -0.2693
 9304SOL     OW39547   0.306   3.108   2.397  0.2937  0.6400  0.6282
 9304SOL    HW139548   0.319   3.198   2.428 -0.6280  0.7697  0.6345
 9304SOL    HW239549   0.216   3.103   2.365  0.3678 -1.9635  0.8658
 9305SOL     OW39550   3.828   1.032   5.204  0.9807  0.3004 -0.5075
 9305SOL    HW139551   3.812   0.940   5.228  1.0185  0.1564 -1.0204
 9305SOL    HW239552   3.763   1.074   5.260  0.6428 -0.9796  0.0752
 9306SOL     OW39553   3.890   4.086   5.620 -0.2057  0.2378 -0.3732
 9306SOL    HW139554   3.964   4.084   5.682 -0.7586 -1.0234  0.2543
 9306SOL    HW239555   3.902   3.995   5.591  0.3033 -0.0237  0.6326
 9307SOL     OW39556   0.487   3.110   7.192 -0.1199  0.0888 -0.3737
 9307SOL    HW139557   0.460   3.094   7.282  1.9894 -1.6284 -0.0424
 9307SOL    HW239558   0.494   3.021   7.158 -0.6956  0.4557 -1.4461
 9308SOL     OW39559   1.044   0.239   5.955  0.0740 -0.2899 -0.1043
 9308SOL    HW139560   0.981   0.287   6.008  1.1678  1.4900 -0.3861
 9308SOL    HW239561   1.054   0.163   6.012 -0.5866 -1.4716 -1.5418
 9309SOL     OW39562   3.308   2.460   5.000 -0.0586  0.3851 -0.2239
 9309SOL    HW139563   3.335   2.498   5.084  0.2778 -0.0890 -0.1199
 9309SOL    HW239564   3.365   2.510   4.941  2.5546 -1.3622  0.8099
 9310SOL     OW39565   4.534   3.941   4.814  1.0503  0.4036 -0.4540
 9310SOL    HW139566   4.460   4.002   4.819  1.6888  1.1825 -0.5123
 9310SOL    HW239567   4.565   3.975   4.730  0.3817  2.2070  0.0424
 9311SOL     OW39568   4.404   4.548   2.608 -0.4270  0.2052 -0.0935
 9311SOL    HW139569   4.433   4.637   2.587  0.9898  0.5146  3.1764
 9311SOL    HW239570   4.413   4.510   2.520 -1.0973 -0.5078  0.1507
 9312SOL     OW39571   1.218   1.528  15.557 -0.7390  0.0570  0.0578
 9312SOL    HW139572   1.163   1.452  15.537 -0.1029 -0.9723  2.1957
 9312SOL    HW239573   1.207   1.585  15.481  2.3676  0.7120  0.0920
 9313SOL     OW39574   0.671   2.784   3.787 -0.3329 -0.7880  0.0630
 9313SOL    HW139575   0.702   2.730   3.714  0.6380 -0.0267 -0.0928
 9313SOL    HW239576   0.578   2.785   3.765 -0.9155 -1.0438  2.5372
 9314SOL     OW39577   2.743   4.558   4.058  0.3489 -0.7244  0.5354
 9314SOL    HW139578   2.828   4.517   4.071  0.4365 -0.7339 -0.0714
 9314SOL    HW239579   2.724   4.609   4.137 -0.1572  0.2765 -0.2334
 9315SOL     OW39580   3.908   0.726   8.881 -0.2779  0.6819  0.7316
 9315SOL    HW139581   4.004   0.726   8.881 -0.2827  0.8564 -1.3303
 9315SOL    HW239582   3.892   0.818   8.860 -1.5475  0.6434  1.5209
 9316SOL     OW39583   2.554   0.564   3.161 -0.0908  0.2395  0.2905
 9316SOL    HW139584   2.639   0.522   3.173 -2.1568 -3.4322  1.9804
 9316SOL    HW239585   2.564   0.655   3.133 -1.7122  0.2528 -0.2633
 9317SOL     OW39586   4.207   0.325   3.843 -0.3956  0.2055  0.6611
 9317SOL    HW139587   4.248   0.325   3.757  3.6329  1.6866  2.6320
 9317SOL    HW239588   4.218   0.418   3.859  1.7318  0.3351 -1.4624
 9318SOL     OW39589   2.656   1.808   9.301  0.4004  0.0079  0.4851
 9318SOL    HW139590   2.641   1.784   9.210  0.6294  1.2358  0.1216
 9318SOL    HW239591   2.567   1.820   9.332  0.0904  0.9834 -0.7848
 9319SOL     OW39592   0.547   0.542   2.992  0.2576  0.0211 -0.3078
 9319SOL    HW139593   0.521   0.482   2.921 -0.6045  0.7710 -0.6275
 9319SOL    HW239594   0.533   0.622   2.940 -0.9339  1.1003  1.6764
 9320SOL     OW39595   0.985   1.627  14.343 -0.3034  0.0814 -0.7434
 9320SOL    HW139596   0.963   1.543  14.384  0.7384 -0.2032 -0.7612
 9320SOL    HW239597   0.980   1.682  14.420  1.3238  0.4204 -0.8755
 9321SOL     OW39598   2.946   1.226   1.279 -0.1298 -0.1185 -0.1244
 9321SOL    HW139599   2.907   1.306   1.314 -1.8061 -0.5743 -1.0084
 9321SOL    HW239600   2.996   1.267   1.209  1.5011 -2.0170 -0.0974
 9322SOL     OW39601   1.715   2.274  12.581 -0.3835  0.1564  0.0596
 9322SOL    HW139602   1.786   2.322  12.539  1.9245 -1.7028  1.8013
 9322SOL    HW239603   1.720   2.184  12.546  0.8357 -0.2644  1.3183
 9323SOL     OW39604   2.261   0.913   6.867 -0.0832  0.4020  0.6726
 9323SOL    HW139605   2.175   0.952   6.849 -1.4410 -2.4716  0.8722
 9323SOL    HW239606   2.295   0.922   6.778 -0.9932 -2.5404  0.0278
 9324SOL     OW39607   1.002   2.240  10.732 -0.2393 -0.5633 -0.2169
 9324SOL    HW139608   1.006   2.161  10.786 -2.0951 -1.6476 -1.7004
 9324SOL    HW239609   1.095   2.265  10.726 -0.6336  0.5428 -1.6515
 9325SOL     OW39610   2.744   2.998   0.099  0.5109  0.0911  0.7680
 9325SOL    HW139611   2.764   3.035   0.185  0.0668  0.4552  0.7180
 9325SOL    HW239612   2.692   2.923   0.125 -1.0275  0.8619 -0.0761
 9326SOL     OW39613   0.868   2.151   1.766 -0.0794  0.3027 -0.8447
 9326SOL    HW139614   0.932   2.214   1.733  0.5181  0.6805  1.0495
 9326SOL    HW239615   0.840   2.112   1.683  0.1328 -0.9742 -0.3136
 9327SOL     OW39616   0.335   2.293   6.655 -0.4163  0.5503  0.3351
 9327SOL    HW139617   0.311   2.233   6.584  2.4263 -0.0729 -0.0765
 9327SOL    HW239618   0.378   2.363   6.607 -0.7629 -0.1092 -0.9470
 9328SOL     OW39619   4.368   1.409   4.964 -0.8989 -0.4602 -0.0762
 9328SOL    HW139620   4.321   1.330   4.989  0.3979 -1.0202  0.5947
 9328SOL    HW239621   4.453   1.388   5.003 -0.5777  0.9499 -0.0191
 9329SOL     OW39622   1.320   0.344   6.964  0.2181  0.2143  0.1623
 9329SOL    HW139623   1.234   0.329   6.924  0.3994  1.7977 -0.8154
 9329SOL    HW239624   1.349   0.417   6.910 -0.4636 -1.5981 -2.6747
 9330SOL     OW39625   4.473   2.744   0.446  0.0861  0.4471 -0.5709
 9330SOL    HW139626   4.401   2.708   0.497  1.1604  1.1978  1.4825
 9330SOL    HW239627   4.416   2.815   0.417 -1.3744  0.1050  1.4742
 9331SOL     OW39628   4.045   0.299   6.046 -0.1213 -0.1879 -0.4812
 9331SOL    HW139629   3.990   0.329   5.973  0.5239  0.9408 -0.4992
 9331SOL    HW239630   4.113   0.249   6.002 -1.5000 -0.3875 -2.3983
 9332SOL     OW39631   3.553   1.507   4.345  0.4872 -0.1222 -1.0875
 9332SOL    HW139632   3.541   1.497   4.439  1.0717  0.3808 -0.9571
 9332SOL    HW239633   3.616   1.437   4.325  0.7036 -0.6323  1.4149
 9333SOL     OW39634   0.308   2.823   8.923  0.3211  0.4726 -0.0667
 9333SOL    HW139635   0.217   2.828   8.954 -0.7100  1.7085 -3.2513
 9333SOL    HW239636   0.329   2.732   8.942  1.0858  0.5314 -0.6309
 9334SOL     OW39637   1.424   2.325   1.713  0.0442 -0.3846  0.3274
 9334SOL    HW139638   1.379   2.266   1.773 -0.4669  1.1379  1.4497
 9334SOL    HW239639   1.356   2.337   1.648  1.0695 -0.4968 -0.7618
 9335SOL     OW39640   1.247   1.299   8.393 -0.1570  0.4289 -0.0978
 9335SOL    HW139641   1.310   1.336   8.455 -0.8861  1.7531 -0.1510
 9335SOL    HW239642   1.318   1.284   8.331 -0.6725 -0.0918 -0.5561
 9336SOL     OW39643   1.006   0.817   1.076  0.0312 -0.0412  0.1539
 9336SOL    HW139644   0.936   0.773   1.027 -0.9484  1.1474  0.4726
 9336SOL    HW239645   1.080   0.806   1.017 -0.5876  1.1078 -0.8468
 9337SOL     OW39646   4.253   0.092  11.445  1.0055 -0.0689  0.4444
 9337SOL    HW139647   4.334   0.053  11.413  2.6078  1.8449  2.2270
 9337SOL    HW239648   4.192   0.079  11.372  1.4612 -1.0642  0.2304
 9338SOL     OW39649   1.283   4.379  15.018  0.0455 -0.1945 -0.0789
 9338SOL    HW139650   1.360   4.323  15.006  1.7572  1.9128  0.9757
 9338SOL    HW239651   1.217   4.310  15.020  0.6577 -0.7809  0.5398
 9339SOL     OW39652   1.368   3.263   6.210 -0.3955 -0.5222 -0.4633
 9339SOL    HW139653   1.385   3.356   6.225 -1.6906 -0.5692  1.2077
 9339SOL    HW239654   1.273   3.260   6.212 -0.5294  1.3065 -3.1926
 9340SOL     OW39655   2.619   2.796  13.783 -0.5541  0.6013 -0.7457
 9340SOL    HW139656   2.562   2.722  13.760 -0.7728  0.8112 -0.8821
 9340SOL    HW239657   2.569   2.816  13.862 -0.6597  0.4408 -0.7716
 9341SOL     OW39658   3.338   0.532  14.709 -0.1838  0.1127  0.2350
 9341SOL    HW139659   3.331   0.474  14.633  0.5135  1.1257 -0.6093
 9341SOL    HW239660   3.431   0.529  14.733 -0.4258  0.5613  1.2329
 9342SOL     OW39661   1.868   1.140  10.461  0.1070  0.2390 -0.2248
 9342SOL    HW139662   1.881   1.048  10.482  0.1641  0.2516 -0.2043
 9342SOL    HW239663   1.774   1.138  10.442  0.1670 -0.1634 -0.4739
 9343SOL     OW39664   1.628   2.549   2.033  0.3128 -0.1501 -0.3698
 9343SOL    HW139665   1.534   2.548   2.015  0.2840  3.2128 -0.3254
 9343SOL    HW239666   1.657   2.464   1.999 -3.0579 -1.6844  0.5448
 9344SOL     OW39667   2.870   3.348   0.148 -0.2298  0.1389 -0.0982
 9344SOL    HW139668   2.875   3.411   0.220 -0.5174 -1.5835  1.4232
 9344SOL    HW239669   2.964   3.328   0.145  0.1943  2.2183 -0.5169
 9345SOL     OW39670   0.865   0.768   3.280  0.5466 -0.0658 -0.2006
 9345SOL    HW139671   0.859   0.862   3.262 -2.4073 -0.1652  0.2125
 9345SOL    HW239672   0.812   0.729   3.210 -1.0685  0.5205  0.7222
 9346SOL     OW39673   1.114   0.368   2.250  0.2182  0.6874 -0.5643
 9346SOL    HW139674   1.101   0.274   2.241  0.6677  0.6087 -0.3716
 9346SOL    HW239675   1.045   0.397   2.309  0.6380 -2.5255  1.4656
 9347SOL     OW39676   1.495   4.585   9.260  0.1944 -0.8472 -0.4400
 9347SOL    HW139677   1.457   4.583   9.347  1.5324 -1.1385  0.1313
 9347SOL    HW239678   1.424   4.593   9.195 -1.3664  0.4691  1.4086
 9348SOL     OW39679   3.193   1.835   8.400  0.4557 -0.5893  0.1015
 9348SOL    HW139680   3.261   1.902   8.404 -1.6010  1.4774  0.8213
 9348SOL    HW239681   3.118   1.881   8.440  0.1582 -2.0359  1.1827
 9349SOL     OW39682   2.033   1.107   1.766 -0.1455 -0.0064 -0.2502
 9349SOL    HW139683   2.055   1.014   1.769 -3.1565 -0.7346 -0.6723
 9349SOL    HW239684   2.048   1.117   1.672 -1.0825  4.7720  0.1319
 9350SOL     OW39685   2.335   0.376   9.660 -0.5473  0.0290 -0.0101
 9350SOL    HW139686   2.269   0.318   9.699  0.6375 -0.6655  0.9630
 9350SOL    HW239687   2.334   0.440   9.731  0.3671  0.3433 -0.2861
 9351SOL     OW39688   0.987   1.035  13.366  0.4442  0.1723  0.3299
 9351SOL    HW139689   0.968   1.072  13.452 -3.1895  1.2602 -0.9894
 9351SOL    HW239690   1.082   1.050  13.373  0.0363  2.2941  1.1284
 9352SOL     OW39691   3.361   4.212   7.506 -0.5824  0.1299  0.4372
 9352SOL    HW139692   3.352   4.226   7.411 -0.8683  0.1519  0.4660
 9352SOL    HW239693   3.407   4.128   7.510 -1.3027 -0.3414 -0.9322
 9353SOL     OW39694   1.215   0.799   2.817 -0.9989 -0.0590  0.4415
 9353SOL    HW139695   1.307   0.780   2.831 -1.3273 -2.7900 -1.1984
 9353SOL    HW239696   1.199   0.875   2.873  1.7180 -0.6882  2.0530
 9354SOL     OW39697   1.170   0.148  17.457 -0.1811  0.0122  0.0481
 9354SOL    HW139698   1.212   0.199  17.387 -0.6195  2.0002  1.2407
 9354SOL    HW239699   1.192   0.063  17.418 -1.2756 -0.1029 -0.3201
 9355SOL     OW39700   2.765   0.573   1.560 -0.5794  0.0423 -0.1735
 9355SOL    HW139701   2.694   0.521   1.600  0.2595  0.1154  1.4101
 9355SOL    HW239702   2.719   0.651   1.529 -1.6269 -0.8930 -1.0028
 9356SOL     OW39703   3.465   1.138  16.887  0.6983 -0.2887 -0.2240
 9356SOL    HW139704   3.429   1.123  16.974  0.0138 -0.0427 -0.4673
 9356SOL    HW239705   3.383   1.162  16.844  1.7711 -1.4227 -2.8774
 9357SOL     OW39706   2.610   1.652   2.657 -0.2080 -0.7312  0.3510
 9357SOL    HW139707   2.604   1.557   2.646  2.1572 -0.5542 -2.4142
 9357SOL    HW239708   2.650   1.642   2.744  1.1647  1.4501 -0.0417
 9358SOL     OW39709   1.634   2.401  15.451 -0.1237 -0.3678 -0.0674
 9358SOL    HW139710   1.656   2.440  15.536  2.2741 -2.3380  0.2261
 9358SOL    HW239711   1.579   2.459  15.400  0.2230  0.6226  0.6920
 9359SOL     OW39712   1.302   2.321   7.803 -0.1296 -0.4737  0.1149
 9359SOL    HW139713   1.361   2.345   7.875 -0.6560 -2.9014  1.3453
 9359SOL    HW239714   1.236   2.390   7.805 -0.1580 -0.5110  0.3969
 9360SOL     OW39715   3.904   2.728   8.236 -0.0232 -0.6282 -0.0986
 9360SOL    HW139716   3.919   2.634   8.225 -0.2412 -0.6590 -0.1308
 9360SOL    HW239717   3.854   2.747   8.315  0.1290  0.4118 -0.2573
 9361SOL     OW39718   0.591   2.250   2.164 -0.1496 -0.0223 -0.2257
 9361SOL    HW139719   0.523   2.183   2.170  1.8793 -2.0369  0.1855
 9361SOL    HW239720   0.649   2.200   2.106 -0.9560 -1.1230 -0.0957
 9362SOL     OW39721   0.848   2.124   0.591  0.5799  0.3670 -0.1114
 9362SOL    HW139722   0.775   2.067   0.616 -0.4910  1.1790 -1.3918
 9362SOL    HW239723   0.794   2.202   0.581 -1.6551 -1.3922 -1.6551
 9363SOL     OW39724   3.312   2.972   4.705  0.2679 -0.3263  0.1261
 9363SOL    HW139725   3.384   2.927   4.749  0.3222  0.7213  1.1226
 9363SOL    HW239726   3.344   3.062   4.716  1.8278 -0.4381 -3.4920
 9364SOL     OW39727   1.673   3.362   6.113  0.4818  0.1444  0.0469
 9364SOL    HW139728   1.712   3.326   6.193 -0.6594 -0.9526  0.1151
 9364SOL    HW239729   1.626   3.280   6.097 -0.3184  0.9638 -1.8116
 9365SOL     OW39730   0.739   3.762   8.568  0.2680  0.4502  0.6003
 9365SOL    HW139731   0.795   3.696   8.610 -0.7783 -1.9149 -1.7467
 9365SOL    HW239732   0.688   3.705   8.511 -0.2576 -1.3405  2.8573
 9366SOL     OW39733   3.376   1.118   9.540  0.0661 -0.6992  1.1796
 9366SOL    HW139734   3.460   1.073   9.545  0.5465  0.3730  3.0778
 9366SOL    HW239735   3.347   1.115   9.631  1.3858  0.5125  1.6518
 9367SOL     OW39736   4.186   1.653   2.923 -0.3280  0.3970 -0.2548
 9367SOL    HW139737   4.215   1.705   2.847 -0.7071 -0.7222 -1.1644
 9367SOL    HW239738   4.169   1.571   2.876  0.6271 -1.7059  3.0967
 9368SOL     OW39739   3.513   2.120   3.838 -0.5536  0.1294 -0.0820
 9368SOL    HW139740   3.469   2.093   3.919 -0.4016 -0.2554 -0.1256
 9368SOL    HW239741   3.547   2.201   3.875  2.5438 -1.0469 -0.3628
 9369SOL     OW39742   4.037   2.660  16.840  0.4116  0.5447 -0.1895
 9369SOL    HW139743   4.014   2.747  16.807  2.1165  1.1474  0.2180
 9369SOL    HW239744   4.128   2.654  16.810  0.6281  0.5633  0.4714
 9370SOL     OW39745   2.376   1.205   5.857 -0.3547 -0.0889 -0.2463
 9370SOL    HW139746   2.361   1.287   5.906  1.6414 -0.5948  1.2174
 9370SOL    HW239747   2.384   1.143   5.929 -2.7648 -0.2395 -0.0803
 9371SOL     OW39748   4.590   1.393  12.697  0.1043  0.2371  0.2579
 9371SOL    HW139749   4.517   1.378  12.758 -0.0134  0.9568  0.2941
 9371SOL    HW239750   4.615   1.302  12.684  0.8080  0.7627 -1.9394
 9372SOL     OW39751   0.013   0.153  12.581 -0.5305 -0.4764  0.2668
 9372SOL    HW139752   0.007   0.194  12.668  1.0163 -0.7691  0.5101
 9372SOL    HW239753   0.104   0.176  12.562 -1.6308  2.2124 -1.6950
 9373SOL     OW39754   3.730   1.053   5.859 -0.8366  0.1560 -0.1278
 9373SOL    HW139755   3.681   1.108   5.798 -0.7696 -0.5649 -0.8457
 9373SOL    HW239756   3.653   1.001   5.880 -0.2958 -0.7074 -0.2668
 9374SOL     OW39757   2.531   3.564   0.408  0.4920 -0.1341 -0.3375
 9374SOL    HW139758   2.440   3.594   0.410 -0.5299 -3.3272  0.6011
 9374SOL    HW239759   2.561   3.653   0.425  1.7702 -0.3393 -1.5694
 9375SOL     OW39760   0.935   0.747   6.354  0.6413 -0.1479 -0.1143
 9375SOL    HW139761   0.892   0.718   6.274  2.0625 -0.9498 -0.5903
 9375SOL    HW239762   1.019   0.775   6.319  0.5070  1.4416  0.8304
 9376SOL     OW39763   1.652   4.090  10.521  0.3031 -0.1969 -0.4703
 9376SOL    HW139764   1.649   4.185  10.533  1.7412 -0.2137  0.0749
 9376SOL    HW239765   1.686   4.065  10.607 -0.7222  1.5002  0.4411
 9377SOL     OW39766   0.247   3.382   6.196 -0.1219 -0.0899  0.4776
 9377SOL    HW139767   0.162   3.339   6.194 -1.0175  1.7346 -0.0874
 9377SOL    HW239768   0.295   3.312   6.240 -1.5144 -0.5555  1.2462
 9378SOL     OW39769   0.998   1.270   8.559  0.0370  0.1622 -0.1880
 9378SOL    HW139770   1.029   1.255   8.648 -1.5190 -0.2064  0.2968
 9378SOL    HW239771   1.079   1.284   8.510  0.7280  1.5741  1.3605
 9379SOL     OW39772   3.985   0.941   6.497 -0.1936 -0.1260 -0.0388
 9379SOL    HW139773   4.067   0.980   6.528 -0.7485  1.3081 -0.3653
 9379SOL    HW239774   3.920   1.011   6.490 -0.9885 -1.0066 -1.3850
 9380SOL     OW39775   0.849   2.114   9.831 -0.3161  0.0966  0.0190
 9380SOL    HW139776   0.848   2.027   9.871  1.0913  0.4521  0.8033
 9380SOL    HW239777   0.942   2.135   9.832 -0.3396  0.0768  1.8684
 9381SOL     OW39778   4.619   0.101   8.800 -0.1748 -0.2318  0.1397
 9381SOL    HW139779   4.695   0.058   8.840  0.2258  0.0967 -0.2821
 9381SOL    HW239780   4.611   0.052   8.719  1.3441  1.5582 -1.0823
 9382SOL     OW39781   4.510   1.872   9.864  0.3527  0.6630 -0.1873
 9382SOL    HW139782   4.462   1.791   9.882  0.8704  0.4347  0.1589
 9382SOL    HW239783   4.600   1.844   9.883 -0.9218 -1.7115  2.3258
 9383SOL     OW39784   2.596   4.514   9.020 -0.3757 -0.2889 -0.4717
 9383SOL    HW139785   2.580   4.604   9.048 -1.0505 -0.5217 -0.1052
 9383SOL    HW239786   2.633   4.482   9.102 -1.5275 -1.5065 -0.4174
 9384SOL     OW39787   2.085   0.388   5.005  0.2845  0.5281 -0.3265
 9384SOL    HW139788   2.175   0.422   5.003  0.9686 -1.3199 -1.7042
 9384SOL    HW239789   2.034   0.469   5.000  1.9467  1.5360 -1.1071
 9385SOL     OW39790   4.457   0.954   3.236  0.2178 -0.5789 -0.3341
 9385SOL    HW139791   4.496   0.988   3.155 -0.1530  1.1926  0.2413
 9385SOL    HW239792   4.434   1.040   3.270  1.0452 -1.0259  1.3196
 9386SOL     OW39793   2.508   4.308  12.556  0.0412 -0.1195 -0.6511
 9386SOL    HW139794   2.585   4.316  12.500 -0.7195 -0.2678 -1.7193
 9386SOL    HW239795   2.508   4.397  12.592 -0.5111 -0.6401  0.6372
 9387SOL     OW39796   3.834   2.972   0.576  0.4040 -0.3269 -0.3877
 9387SOL    HW139797   3.889   2.981   0.654  0.0287 -3.1590  0.1981
 9387SOL    HW239798   3.748   2.963   0.617 -0.0833 -1.8756 -1.7545
 9388SOL     OW39799   0.445   4.474   6.572  0.7016  0.1333  0.6427
 9388SOL    HW139800   0.442   4.466   6.667  1.3196 -0.8852  0.5690
 9388SOL    HW239801   0.499   4.403   6.538  2.7682  3.3645 -2.8035
 9389SOL     OW39802   3.593   2.949   2.490  0.9339 -0.1454 -0.3112
 9389SOL    HW139803   3.598   2.880   2.556 -0.2252  1.9298  1.9538
 9389SOL    HW239804   3.675   2.939   2.442  0.4804 -3.9605 -0.2649
 9390SOL     OW39805   3.040   2.556  12.776 -0.0207 -0.3272 -0.0280
 9390SOL    HW139806   3.067   2.469  12.808 -0.9333  0.1953  2.1801
 9390SOL    HW239807   2.983   2.542  12.701 -0.5681 -0.3110  0.3828
 9391SOL     OW39808   3.265   1.642   8.014 -0.2968  0.3107  0.2036
 9391SOL    HW139809   3.235   1.733   8.021 -2.3787 -0.1765 -2.7207
 9391SOL    HW239810   3.230   1.605   8.095 -0.8202 -1.6383 -0.9071
 9392SOL     OW39811   1.908   2.360   1.590  0.2535 -0.1224  0.0013
 9392SOL    HW139812   1.977   2.360   1.524  2.6399  0.9228  2.5168
 9392SOL    HW239813   1.929   2.432   1.650 -2.0586  1.6146 -1.2766
 9393SOL     OW39814   2.430   4.118   6.216 -0.1737 -0.5747 -0.2810
 9393SOL    HW139815   2.468   4.198   6.251 -1.1814  0.6330 -1.9858
 9393SOL    HW239816   2.360   4.128   6.281  0.3013  1.4236 -0.0974
 9394SOL     OW39817   0.287   2.044  15.173  0.2506 -0.0843  0.4619
 9394SOL    HW139818   0.301   2.091  15.091 -0.0125  1.3390  1.2296
 9394SOL    HW239819   0.194   2.060  15.191  0.0004 -0.6756 -0.3229
 9395SOL     OW39820   1.109   3.248   4.081 -0.5632  0.1645 -0.2680
 9395SOL    HW139821   1.069   3.302   4.013 -0.2368  0.4978 -0.1951
 9395SOL    HW239822   1.118   3.315   4.149  1.7490 -0.1170 -0.3104
 9396SOL     OW39823   3.004   0.142   4.998 -0.6205  0.2288 -0.1921
 9396SOL    HW139824   2.910   0.128   4.989 -0.3134 -1.5070 -0.8853
 9396SOL    HW239825   2.999   0.195   5.077  1.0878  2.6235 -1.6780
 9397SOL     OW39826   2.873   3.058   4.821  0.1224 -0.2971 -0.3596
 9397SOL    HW139827   2.955   3.079   4.867  0.5728 -2.0576 -0.3483
 9397SOL    HW239828   2.828   3.140   4.837  1.7457  0.4277  0.4931
 9398SOL     OW39829   4.198   1.327   8.132 -0.1690  0.0332  0.3171
 9398SOL    HW139830   4.292   1.326   8.112 -0.4531 -1.7856 -0.9699
 9398SOL    HW239831   4.180   1.415   8.099  1.7498  0.4599  0.4159
 9399SOL     OW39832   1.026   1.914   6.845  0.2582  0.3520 -0.4651
 9399SOL    HW139833   0.992   1.901   6.934  0.8280  0.6823 -0.2002
 9399SOL    HW239834   0.982   1.838   6.808 -1.0715  1.6774 -1.6400
 9400SOL     OW39835   0.646   4.550   6.994  0.2493  0.4863 -0.1886
 9400SOL    HW139836   0.597   4.631   6.982  1.6907  1.4988  0.7828
 9400SOL    HW239837   0.683   4.539   6.906  1.6314 -0.7405  0.5402
 9401SOL     OW39838   0.437   3.697  17.258  0.0139 -0.2413 -0.0425
 9401SOL    HW139839   0.427   3.724  17.350  4.6547 -2.4523  1.0971
 9401SOL    HW239840   0.517   3.740  17.230  0.8818 -1.4844  0.5190
 9402SOL     OW39841   0.534   3.739   9.862  0.2310  0.0179  0.2699
 9402SOL    HW139842   0.547   3.739   9.767 -2.0164 -3.6198 -0.0070
 9402SOL    HW239843   0.581   3.657   9.878  0.0934  0.0948  1.0583
 9403SOL     OW39844   2.104   0.329   9.069  0.0845 -0.0435  0.0580
 9403SOL    HW139845   2.103   0.301   8.977 -1.6245 -0.7770  0.3020
 9403SOL    HW239846   2.164   0.404   9.072  0.9219 -0.7098  0.0906
 9404SOL     OW39847   4.460   0.293  13.618  0.1925  0.4119 -0.2964
 9404SOL    HW139848   4.506   0.377  13.623  0.6998 -0.0175  2.4196
 9404SOL    HW239849   4.373   0.316  13.651  1.3939  0.6150  2.7195
 9405SOL     OW39850   1.268   0.478  11.557 -0.3444  0.5275  0.2453
 9405SOL    HW139851   1.306   0.503  11.641  1.4250  2.3815 -1.1022
 9405SOL    HW239852   1.253   0.384  11.566 -1.5706  0.5411 -1.4234
 9406SOL     OW39853   3.906   0.199  12.875  0.3468  0.6854 -0.3986
 9406SOL    HW139854   3.866   0.201  12.787  1.7564  3.6846 -0.9779
 9406SOL    HW239855   3.997   0.205  12.848  0.2188  0.2479 -0.9260
 9407SOL     OW39856   1.989   0.388  12.113 -0.4566 -0.5992 -0.8759
 9407SOL    HW139857   2.046   0.403  12.038  1.2351 -3.3343 -0.1742
 9407SOL    HW239858   2.046   0.326  12.160 -0.5694 -0.7149 -0.8900
 9408SOL     OW39859   3.539   4.693   1.616  0.5749  0.4151 -0.0959
 9408SOL    HW139860   3.475   0.008   1.569 -0.6425 -0.8077  0.1873
 9408SOL    HW239861   3.515   4.606   1.583 -1.9972  1.2135 -0.3598
 9409SOL     OW39862   1.639   3.990   2.438  0.2832  0.3535  0.6140
 9409SOL    HW139863   1.546   3.975   2.426 -0.3521  3.4636  1.7571
 9409SOL    HW239864   1.670   4.012   2.350  3.2745  1.1025  1.8229
 9410SOL     OW39865   2.506   4.661   6.200  0.3811  0.2981  0.3560
 9410SOL    HW139866   2.581   4.720   6.211  1.4879 -0.6029 -2.4980
 9410SOL    HW239867   2.477   4.692   6.114 -0.1761 -1.8285 -0.2190
 9411SOL     OW39868   0.245   2.939   7.652  0.5467 -0.1083  0.0159
 9411SOL    HW139869   0.308   2.868   7.666  2.4558  1.7264  0.5838
 9411SOL    HW239870   0.265   2.995   7.727  0.1320 -0.9419  0.7548
 9412SOL     OW39871   4.266   3.732   9.295 -0.5307  0.2427  0.4396
 9412SOL    HW139872   4.197   3.741   9.361 -1.0267  2.3892 -0.3545
 9412SOL    HW239873   4.324   3.804   9.320 -1.5858  0.5576  1.9786
 9413SOL     OW39874   2.142   1.155   4.722 -0.7959  0.1208  0.4926
 9413SOL    HW139875   2.197   1.104   4.780 -0.8033 -0.1060  0.2992
 9413SOL    HW239876   2.196   1.157   4.643  0.8476 -2.0827  1.5926
 9414SOL     OW39877   4.233   4.117  15.440  0.1049  0.5187  0.1995
 9414SOL    HW139878   4.247   4.125  15.535  4.2628  0.7127 -0.4490
 9414SOL    HW239879   4.175   4.192  15.426 -2.6715 -0.9712  3.6136
 9415SOL     OW39880   1.938   3.905   4.302 -0.1286 -0.1039 -0.4645
 9415SOL    HW139881   1.930   3.809   4.305  1.4558 -0.2030  0.4962
 9415SOL    HW239882   1.923   3.918   4.396  1.6461 -3.0369  0.2516
 9416SOL     OW39883   4.273   3.408   2.962 -0.0590  0.2747  0.0450
 9416SOL    HW139884   4.352   3.433   3.009  0.0393  0.2257 -0.0962
 9416SOL    HW239885   4.276   3.469   2.888  2.5959  2.3892  1.8867
 9417SOL     OW39886   3.807   0.454   6.869 -0.4100 -0.0204  0.1227
 9417SOL    HW139887   3.886   0.503   6.893  0.5883 -1.1579 -0.8862
 9417SOL    HW239888   3.812   0.437   6.775  2.5040 -1.0067  0.4624
 9418SOL     OW39889   2.102   4.617  10.183 -0.0653 -0.6762  0.5889
 9418SOL    HW139890   2.194   4.604  10.205  0.1813  1.8921  1.0425
 9418SOL    HW239891   2.110   4.582  10.094  2.3039  3.9258 -0.9802
 9419SOL     OW39892   1.906   3.987   5.019 -0.6797  0.4870 -0.6384
 9419SOL    HW139893   1.954   3.997   4.937 -1.5281 -0.9911 -1.3154
 9419SOL    HW239894   1.872   4.076   5.024  3.4607  1.8951  2.3033
 9420SOL     OW39895   3.606   2.418  11.295  0.0487  0.0186 -0.1237
 9420SOL    HW139896   3.681   2.387  11.347  1.6040  1.0789 -1.7226
 9420SOL    HW239897   3.543   2.346  11.293  1.1170 -0.9598  1.1528
 9421SOL     OW39898   4.356   1.828   3.076  0.2236  0.2043 -0.2172
 9421SOL    HW139899   4.380   1.800   3.164 -0.2537 -2.2707 -0.8556
 9421SOL    HW239900   4.312   1.747   3.050 -0.5671  1.1391 -1.8025
 9422SOL     OW39901   0.942   3.062  14.777  0.2450 -0.3144  0.0630
 9422SOL    HW139902   1.020   3.092  14.731  2.1876  0.2014  3.6533
 9422SOL    HW239903   0.915   3.137  14.831  0.7727 -0.7726  0.9737
 9423SOL     OW39904   1.512   4.133   2.897  0.6626 -0.1213  0.2241
 9423SOL    HW139905   1.494   4.040   2.912  0.4644  0.1699  1.7328
 9423SOL    HW239906   1.425   4.166   2.916 -0.8721 -2.8640 -1.9398
 9424SOL     OW39907   1.783   1.595   0.851 -0.6137 -0.1054  0.0993
 9424SOL    HW139908   1.781   1.691   0.855 -1.7661 -0.3442  4.5970
 9424SOL    HW239909   1.855   1.580   0.789  0.9595  1.8234  1.4335
 9425SOL     OW39910   4.485   2.569  14.356 -0.5186 -0.1702  0.9033
 9425SOL    HW139911   4.449   2.641  14.407  0.4160 -0.8430  2.4834
 9425SOL    HW239912   4.517   2.512  14.425 -1.5829  1.2218  2.5507
 9426SOL     OW39913   0.737   2.541   1.801  0.4692  0.0613 -0.1339
 9426SOL    HW139914   0.754   2.518   1.893 -0.2448 -2.2678 -0.5690
 9426SOL    HW239915   0.792   2.618   1.791  0.1421 -0.0158 -2.4077
 9427SOL     OW39916   2.498   0.014  10.694  1.1764 -0.2848  0.4405
 9427SOL    HW139917   2.547   4.673  10.720  0.4150 -2.3880 -4.5064
 9427SOL    HW239918   2.554   0.075  10.742 -0.0963 -0.0135  1.5447
 9428SOL     OW39919   2.903   3.931   6.750 -0.0076  0.3427 -0.0939
 9428SOL    HW139920   2.828   3.872   6.754  0.7118 -0.4719  1.5193
 9428SOL    HW239921   2.972   3.880   6.793  0.2622  1.8862  1.2878
 9429SOL     OW39922   4.553   3.388   8.020  0.6842 -0.6175 -0.6027
 9429SOL    HW139923   4.509   3.309   7.989 -0.4914 -0.5235  0.8625
 9429SOL    HW239924   4.577   3.439   7.942  0.4752  2.8411  1.6019
 9430SOL     OW39925   3.552   4.678  12.514  0.8783 -0.6052 -0.5596
 9430SOL    HW139926   3.613   4.624  12.461  0.8466  0.7176 -1.9430
 9430SOL    HW239927   3.467   4.643  12.486  0.2741 -0.0094  0.5640
 9431SOL     OW39928   4.220   3.780   7.381 -0.5836  0.2934 -0.2541
 9431SOL    HW139929   4.158   3.776   7.454  0.2771 -1.4498  0.3672
 9431SOL    HW239930   4.251   3.870   7.388  2.6572 -0.9799  1.9994
 9432SOL     OW39931   0.902   3.018  17.033  0.2118  0.3003 -0.5869
 9432SOL    HW139932   0.895   2.923  17.036 -2.7459  0.5607  1.8280
 9432SOL    HW239933   0.809   3.039  17.024 -0.2339 -2.1483 -1.4668
 9433SOL     OW39934   3.661   3.402  10.343 -0.4349  0.0333 -0.5426
 9433SOL    HW139935   3.630   3.359  10.423  1.7177 -1.2101 -0.3974
 9433SOL    HW239936   3.631   3.492  10.352  0.1787  0.1898 -0.0926
 9434SOL     OW39937   2.495   1.220   2.285  0.8519 -0.0429  0.0230
 9434SOL    HW139938   2.454   1.236   2.200  0.5045  1.6655  0.4974
 9434SOL    HW239939   2.533   1.133   2.272  0.4694 -0.0445 -1.0807
 9435SOL     OW39940   2.242   2.969   4.631  0.3329 -0.3257 -0.5254
 9435SOL    HW139941   2.259   3.022   4.709  1.1874 -0.7114 -0.4516
 9435SOL    HW239942   2.253   3.029   4.557 -0.1832 -0.9596 -1.1134
 9436SOL     OW39943   3.005   1.891   1.594 -0.7009  0.4031 -0.3074
 9436SOL    HW139944   2.993   1.899   1.499 -1.3687  0.6083 -0.2071
 9436SOL    HW239945   3.013   1.796   1.603 -0.6825  0.1084 -3.3246
 9437SOL     OW39946   0.556   1.460   4.446  0.4755  0.6254  0.0161
 9437SOL    HW139947   0.641   1.450   4.490 -0.5809  1.1573  2.1549
 9437SOL    HW239948   0.538   1.378   4.401 -1.0554  1.1244 -0.2813
 9438SOL     OW39949   1.957   2.921   5.064  0.2517 -0.0135 -0.5292
 9438SOL    HW139950   1.897   2.993   5.079  1.9881  1.6097 -1.3210
 9438SOL    HW239951   1.949   2.907   4.970  1.3351 -0.6750 -0.5323
 9439SOL     OW39952   0.647   0.994   4.194  0.2499  0.0342  0.1261
 9439SOL    HW139953   0.663   1.045   4.114  1.0314 -0.1777  0.1463
 9439SOL    HW239954   0.727   0.997   4.246 -0.6478 -1.1238  1.5584
 9440SOL     OW39955   4.611   4.433   4.976 -0.1755  0.0419  0.2385
 9440SOL    HW139956   4.531   4.481   4.954  0.7308  1.2122 -0.5185
 9440SOL    HW239957   4.623   4.369   4.907 -3.1765  0.0396 -0.2471
 9441SOL     OW39958   2.928   3.660   1.559  0.0906 -0.0866  0.0366
 9441SOL    HW139959   3.019   3.645   1.534 -0.1529  2.5082 -2.2971
 9441SOL    HW239960   2.890   3.692   1.478  0.8672  1.8308  0.4307
 9442SOL     OW39961   3.603   3.259   0.614 -0.3302  0.3832 -0.9165
 9442SOL    HW139962   3.611   3.187   0.677  0.9826  1.7934  0.5009
 9442SOL    HW239963   3.692   3.257   0.580  0.6976 -4.3799  2.1189
 9443SOL     OW39964   4.557   3.502   1.881  0.2841 -0.0529  0.1778
 9443SOL    HW139965   4.470   3.523   1.848  1.1672  1.6746 -1.0160
 9443SOL    HW239966   4.546   3.458   1.966 -1.4592  0.6807  0.3287
 9444SOL     OW39967   3.487   2.359   5.892  0.4098  0.2990 -0.1625
 9444SOL    HW139968   3.530   2.293   5.945  0.9801  1.6015  1.0045
 9444SOL    HW239969   3.491   2.311   5.810  1.6374  0.1155  0.0094
 9445SOL     OW39970   1.089   0.599  16.754  0.0096  0.0586  0.3077
 9445SOL    HW139971   1.033   0.641  16.819 -0.4241 -1.5752  0.9883
 9445SOL    HW239972   1.122   0.517  16.790  1.7551 -0.3358 -2.1463
 9446SOL     OW39973   1.573   4.372  15.415  0.2426 -0.8559 -0.0723
 9446SOL    HW139974   1.530   4.288  15.406 -0.6938 -0.3792 -0.0305
 9446SOL    HW239975   1.503   4.411  15.468  0.3232  2.0361 -2.0767
 9447SOL     OW39976   0.183   2.059   9.169 -0.5668  1.0850  0.1968
 9447SOL    HW139977   0.119   2.066   9.239 -1.3148  1.8697 -0.5563
 9447SOL    HW239978   0.136   2.083   9.089  0.9944 -0.1187 -1.0695
 9448SOL     OW39979   1.637   2.838   4.094 -0.6235 -0.1418 -0.2787
 9448SOL    HW139980   1.663   2.871   4.180  0.3776 -0.6837 -0.3816
 9448SOL    HW239981   1.548   2.812   4.120  0.5213 -2.9543  0.7283
 9449SOL     OW39982   4.346   3.282   4.244 -0.2751  0.2821  0.4977
 9449SOL    HW139983   4.331   3.190   4.226  0.8575  0.1534  0.2531
 9449SOL    HW239984   4.332   3.323   4.159 -0.9251  1.9337  1.3870
 9450SOL     OW39985   3.587   2.417   7.841 -0.0081 -0.1199 -0.2044
 9450SOL    HW139986   3.497   2.451   7.847  0.8657  2.2240 -0.5487
 9450SOL    HW239987   3.623   2.465   7.767 -2.0750  1.8046  0.0264
 9451SOL     OW39988   3.453   0.646   5.794  0.0597  0.1706  0.0777
 9451SOL    HW139989   3.379   0.586   5.797 -1.7516  2.2774 -1.7838
 9451SOL    HW239990   3.485   0.626   5.705 -1.3964 -1.4399 -0.0679
 9452SOL     OW39991   1.847   2.072   2.711 -0.4522  0.4532 -0.0457
 9452SOL    HW139992   1.820   1.994   2.760 -0.1920 -0.2456 -1.0306
 9452SOL    HW239993   1.868   2.034   2.626 -0.5350  0.0444  0.1189
 9453SOL     OW39994   0.922   0.740   9.062 -0.0857 -0.6473  0.6871
 9453SOL    HW139995   1.016   0.721   9.061  0.1798  0.6642 -0.5425
 9453SOL    HW239996   0.896   0.753   9.153  0.2639  0.3063  0.6503
 9454SOL     OW39997   1.779   3.803   5.173 -0.3200 -0.9543 -0.7278
 9454SOL    HW139998   1.802   3.885   5.130  1.0195 -1.3449 -0.7780
 9454SOL    HW239999   1.817   3.743   5.109 -1.4173 -0.4103 -1.8650
 9455SOL     OW40000   3.209   2.005   1.732 -0.1162 -0.3536  0.7018
 9455SOL    HW140001   3.184   1.956   1.810  0.0223  0.6165  1.3518
 9455SOL    HW240002   3.144   1.963   1.675 -0.5376 -1.5887  2.0905
 9456SOL     OW40003   3.809   0.440   8.012  0.2298 -0.3568 -0.0236
 9456SOL    HW140004   3.792   0.349   7.989 -0.2539 -0.3165  0.1548
 9456SOL    HW240005   3.891   0.432   8.059  0.6234 -0.0035 -0.6448
 9457SOL     OW40006   1.928   4.029   3.391  0.0964 -0.8973  0.0056
 9457SOL    HW140007   1.963   4.060   3.475 -0.8912  1.7520 -0.5683
 9457SOL    HW240008   2.010   4.015   3.343 -0.3970 -2.7580 -0.2987
 9458SOL     OW40009   0.822   4.089   4.046  0.3113  0.4967 -0.3496
 9458SOL    HW140010   0.743   4.052   4.086 -0.8427  2.8907 -0.3599
 9458SOL    HW240011   0.861   4.006   4.019 -1.7530 -0.1801 -1.3262
 9459SOL     OW40012   3.974   2.423   5.648 -0.3235 -0.4583 -0.6011
 9459SOL    HW140013   3.964   2.376   5.731  2.1314  1.9866  1.0839
 9459SOL    HW240014   3.920   2.371   5.588  0.3047 -2.0262  0.2066
 9460SOL     OW40015   0.981   0.275   6.279 -0.2793 -0.1059 -0.3681
 9460SOL    HW140016   0.972   0.345   6.214  0.1127  0.8508  0.6260
 9460SOL    HW240017   1.029   0.324   6.345  1.3527 -0.2140 -1.4743
 9461SOL     OW40018   2.971   2.496   6.094  0.2704  0.2824 -0.0065
 9461SOL    HW140019   3.025   2.450   6.029  0.4363 -1.7156  1.5682
 9461SOL    HW240020   2.959   2.576   6.042 -1.6566 -0.1657 -0.2216
 9462SOL     OW40021   4.252   2.781   4.566 -0.1562  0.1921  0.2832
 9462SOL    HW140022   4.222   2.770   4.656 -0.3479  0.7554  0.2899
 9462SOL    HW240023   4.346   2.765   4.576 -0.1460 -1.2785 -2.2717
 9463SOL     OW40024   4.518   4.115   3.338  0.4523  0.8424  0.5738
 9463SOL    HW140025   4.446   4.054   3.321 -0.4392  3.0284 -3.3424
 9463SOL    HW240026   4.551   4.076   3.419  0.3323 -2.1322 -0.8105
 9464SOL     OW40027   1.052   1.463   1.912  0.4319 -0.0890 -0.4872
 9464SOL    HW140028   1.138   1.429   1.939  0.3792 -0.4518 -0.7731
 9464SOL    HW240029   1.053   1.517   1.991 -1.0589  1.7938 -1.7708
 9465SOL     OW40030   1.740   2.744   7.774  0.0110  0.3953  0.1602
 9465SOL    HW140031   1.834   2.761   7.782  0.5245 -1.3113 -2.0657
 9465SOL    HW240032   1.701   2.821   7.816 -0.4984  0.3522 -0.2382
 9466SOL     OW40033   0.562   2.522   5.393 -0.0553  0.3217 -0.1623
 9466SOL    HW140034   0.530   2.611   5.385  1.6932  0.9290 -0.4416
 9466SOL    HW240035   0.582   2.514   5.486 -2.5813 -1.6429  0.2172
 9467SOL     OW40036   0.853   3.295   7.465  0.3281 -0.2215  0.4044
 9467SOL    HW140037   0.860   3.316   7.558  1.0486  1.9039 -0.1417
 9467SOL    HW240038   0.777   3.348   7.440  0.2813 -0.4753  0.0119
 9468SOL     OW40039   2.461   2.301   6.730 -0.3259 -0.0120  0.2108
 9468SOL    HW140040   2.526   2.238   6.761 -0.7648 -1.8909 -2.5962
 9468SOL    HW240041   2.408   2.233   6.687  0.5030 -0.1317 -0.6305
 9469SOL     OW40042   2.868   4.163   5.641  0.4659 -0.5289  0.2758
 9469SOL    HW140043   2.825   4.248   5.652  0.9826 -0.3395  0.8397
 9469SOL    HW240044   2.953   4.178   5.600  0.5257 -0.1453  0.5425
 9470SOL     OW40045   0.396   4.101   8.856 -0.3751  0.2083  0.0318
 9470SOL    HW140046   0.446   4.165   8.907 -2.6575  1.2164  1.0363
 9470SOL    HW240047   0.308   4.121   8.888 -0.2942 -0.8589  0.9416
 9471SOL     OW40048   3.605   3.360   6.586  0.0614 -0.1699  0.1280
 9471SOL    HW140049   3.547   3.287   6.566  0.0592 -0.8099  2.5482
 9471SOL    HW240050   3.648   3.327   6.664 -2.3024 -2.4633  0.4515
 9472SOL     OW40051   2.890   3.256   7.494  0.0614 -0.4752 -0.1357
 9472SOL    HW140052   2.920   3.329   7.548 -0.5265  0.8270 -1.5655
 9472SOL    HW240053   2.796   3.273   7.494 -0.1752 -1.8041  0.3393
 9473SOL     OW40054   4.016   2.495   5.314  0.2377 -0.1617 -0.2870
 9473SOL    HW140055   3.996   2.514   5.222 -0.0299  0.6417 -0.0648
 9473SOL    HW240056   3.966   2.419   5.343 -2.5631  1.4546 -0.8543
 9474SOL     OW40057   3.157   3.855   5.443  0.5142  0.3729  0.1598
 9474SOL    HW140058   3.099   3.838   5.518 -0.1846 -0.7078 -0.6272
 9474SOL    HW240059   3.217   3.782   5.460  1.2835  0.3249 -2.8315
 9475SOL     OW40060   1.997   3.941  13.062 -0.7106  0.3666 -0.8121
 9475SOL    HW140061   2.019   3.909  12.975  1.7588 -1.3935  0.4742
 9475SOL    HW240062   2.002   3.857  13.107  0.4502  0.3813 -0.9279
 9476SOL     OW40063   3.303   4.494   0.775  0.0223 -0.2462 -0.2512
 9476SOL    HW140064   3.345   4.503   0.861  0.5075 -0.1373 -0.5010
 9476SOL    HW240065   3.350   4.422   0.735 -2.8074 -1.6427 -1.0423
 9477SOL     OW40066   2.545   0.845   3.637 -0.1002 -0.2318 -0.0122
 9477SOL    HW140067   2.523   0.757   3.607  0.9191 -0.8167  0.9630
 9477SOL    HW240068   2.535   0.827   3.730 -1.2180 -1.7192 -0.4095
 9478SOL     OW40069   4.150   4.541   7.402 -0.6894  0.3317  0.6253
 9478SOL    HW140070   4.061   4.512   7.385  0.0070 -1.4612 -0.0082
 9478SOL    HW240071   4.150   4.625   7.356  1.5883 -0.6935 -1.2682
 9479SOL     OW40072   2.125   0.810  13.055  0.2301 -0.7231 -0.5117
 9479SOL    HW140073   2.062   0.831  13.123 -1.1873  0.7113 -2.2631
 9479SOL    HW240074   2.178   0.884  13.084 -2.3646  0.2825  1.6128
 9480SOL     OW40075   3.285   0.992  14.549 -0.3230  0.8020 -0.3712
 9480SOL    HW140076   3.368   0.988  14.596 -0.5085 -2.3373 -0.3309
 9480SOL    HW240077   3.254   0.906  14.575  1.3445 -0.0315 -1.1469
 9481SOL     OW40078   4.048   0.870   6.202  0.0986 -0.0327  0.3927
 9481SOL    HW140079   4.022   0.869   6.294  0.2555  0.4288  0.4378
 9481SOL    HW240080   4.043   0.775   6.187 -0.9615 -0.1512  1.4475
 9482SOL     OW40081   2.883   2.876  10.713 -0.1664 -0.5021 -0.7555
 9482SOL    HW140082   2.961   2.831  10.680 -0.4736 -0.0954 -1.9991
 9482SOL    HW240083   2.918   2.888  10.802  0.2364 -0.6945 -0.8848
 9483SOL     OW40084   0.534   3.060   2.727  0.0167 -0.1177  0.1559
 9483SOL    HW140085   0.596   3.039   2.797  0.3298  0.8800  0.1821
 9483SOL    HW240086   0.595   3.062   2.654  1.0598 -2.5759  0.9519
 9484SOL     OW40087   0.964   2.017  16.437 -0.1206  0.8201  0.4351
 9484SOL    HW140088   1.051   2.012  16.398 -1.0619 -1.2674 -1.3770
 9484SOL    HW240089   0.917   1.973  16.366  0.7705 -0.5585  0.7012
 9485SOL     OW40090   2.114   2.017   6.638 -0.3668  0.2597  0.2125
 9485SOL    HW140091   2.070   2.092   6.677 -0.1301 -0.1423  1.2485
 9485SOL    HW240092   2.104   1.952   6.708  1.8228 -1.5747 -1.1668
 9486SOL     OW40093   2.847   2.250   8.794  0.0499  0.7326  0.3005
 9486SOL    HW140094   2.867   2.172   8.847 -0.8022  1.0954  1.1507
 9486SOL    HW240095   2.770   2.284   8.840  0.3027 -3.1356  3.7016
 9487SOL     OW40096   4.212   0.630  14.732 -0.0782 -0.1640  0.3849
 9487SOL    HW140097   4.214   0.726  14.738  2.4800 -0.3475  2.3154
 9487SOL    HW240098   4.245   0.611  14.819  0.8544  1.2175  0.3372
 9488SOL     OW40099   0.238   3.487  13.939 -0.1070 -0.0029 -0.3628
 9488SOL    HW140100   0.263   3.503  14.030 -1.9160 -2.2254  0.5370
 9488SOL    HW240101   0.247   3.574  13.900 -1.7108 -0.5783 -2.0446
 9489SOL     OW40102   3.510   2.995   8.218  0.5289  0.3356 -0.1873
 9489SOL    HW140103   3.571   2.956   8.156 -1.5084 -0.1450 -1.8677
 9489SOL    HW240104   3.525   3.087   8.198  1.8253  0.0133 -0.6530
 9490SOL     OW40105   1.870   2.594   1.018 -0.7798 -0.6270  0.3472
 9490SOL    HW140106   1.941   2.545   0.976 -1.5067  0.8910 -2.6714
 9490SOL    HW240107   1.900   2.630   1.102  1.5765  1.0380 -1.1974
 9491SOL     OW40108   4.138   4.706  17.038 -0.5085 -0.3557 -0.2815
 9491SOL    HW140109   4.075   4.721  17.108 -2.1491  2.1406 -2.3108
 9491SOL    HW240110   4.097   4.640  16.983 -0.9588  0.9296 -1.4891
 9492SOL     OW40111   4.033   4.296   2.986  0.2234 -0.4750 -0.5509
 9492SOL    HW140112   4.056   4.252   2.904  0.6564 -0.3321 -0.5080
 9492SOL    HW240113   4.081   4.252   3.056 -1.3042  1.0908  1.4666
 9493SOL     OW40114   1.700   3.423   8.069 -0.2537 -0.9413 -0.4659
 9493SOL    HW140115   1.629   3.468   8.025 -0.5231 -0.2511  0.6776
 9493SOL    HW240116   1.739   3.484   8.131 -0.4807 -2.4081  1.1266
 9494SOL     OW40117   0.252   3.038   5.543  0.2422 -0.1370 -0.4521
 9494SOL    HW140118   0.297   3.012   5.463  0.4950  1.9459 -0.9807
 9494SOL    HW240119   0.163   3.012   5.518 -0.4552  2.2645 -0.4945
 9495SOL     OW40120   3.665   3.267   6.820  0.2233 -0.1183 -0.3056
 9495SOL    HW140121   3.606   3.235   6.888  1.3668  0.6462  1.0604
 9495SOL    HW240122   3.747   3.272   6.870 -0.6627  0.0485  1.1256
 9496SOL     OW40123   0.208   2.161   7.936  0.0863  0.0473  0.3668
 9496SOL    HW140124   0.205   2.110   8.017  0.1376  1.4213  1.2352
 9496SOL    HW240125   0.250   2.244   7.957 -0.6100 -0.0174  1.9952
 9497SOL     OW40126   0.605   0.976   3.618 -0.2327 -0.0443  0.3599
 9497SOL    HW140127   0.606   1.029   3.538 -0.0328 -0.8585 -0.1790
 9497SOL    HW240128   0.598   1.045   3.684  0.7222  1.4535 -1.1063
 9498SOL     OW40129   4.646   3.535   5.805 -0.2459  0.1540  0.5356
 9498SOL    HW140130   4.698   3.606   5.842  1.9061 -1.0690 -0.1343
 9498SOL    HW240131   4.716   3.472   5.791 -0.5726  0.4673 -2.4732
 9499SOL     OW40132   4.305   1.512   4.284 -0.0746 -0.1442 -0.4521
 9499SOL    HW140133   4.382   1.460   4.310 -0.9138 -1.6753 -0.9960
 9499SOL    HW240134   4.269   1.543   4.367  0.7411 -0.2789 -0.0452
 9500SOL     OW40135   1.611   0.022  11.884  0.9589 -0.1697  0.3066
 9500SOL    HW140136   1.584   0.087  11.949 -0.5542  0.7680 -1.2459
 9500SOL    HW240137   1.678   4.717  11.937 -0.4212 -0.4977  1.7763
 9501SOL     OW40138   4.510   4.456   8.480 -0.0119 -0.3108 -0.3674
 9501SOL    HW140139   4.596   4.429   8.513  0.7869  1.8941 -0.6126
 9501SOL    HW240140   4.465   4.372   8.468  1.5667 -0.8382 -2.6375
 9502SOL     OW40141   3.937   4.014  16.536  0.7597  0.4347  0.4728
 9502SOL    HW140142   3.861   3.962  16.509 -0.0657  2.1587 -0.5494
 9502SOL    HW240143   3.948   4.068  16.458  0.5715  0.8141  0.7104
 9503SOL     OW40144   2.753   1.654  14.026 -0.4234  0.3318  0.4436
 9503SOL    HW140145   2.724   1.607  14.104  1.9290 -1.2127  0.3848
 9503SOL    HW240146   2.686   1.620  13.966  0.6650  0.2533 -0.7334
 9504SOL     OW40147   4.453   2.204   5.814 -0.2178  0.4975  0.4285
 9504SOL    HW140148   4.398   2.282   5.817 -0.9881 -0.0217 -0.2350
 9504SOL    HW240149   4.415   2.138   5.872  2.0861  0.8359  2.3350
 9505SOL     OW40150   0.018   4.156   7.905 -0.3186  0.6889 -0.2436
 9505SOL    HW140151   0.026   4.192   7.817 -1.0549 -1.1881 -1.0761
 9505SOL    HW240152   4.698   4.222   7.943 -1.9789 -1.0380  0.2407
 9506SOL     OW40153   0.357   2.128   9.921 -0.2456 -0.0141 -0.3784
 9506SOL    HW140154   0.353   2.170  10.007  1.0952 -0.9925  0.1609
 9506SOL    HW240155   0.422   2.059   9.934 -0.6818 -0.8820 -2.9576
 9507SOL     OW40156   1.581   4.036  11.469  0.3543 -0.2722 -0.3855
 9507SOL    HW140157   1.575   3.941  11.452  1.4179 -0.6660  1.4546
 9507SOL    HW240158   1.532   4.037  11.551  1.0130  2.2894 -0.0273
 9508SOL     OW40159   0.584   3.459   8.356 -0.4443 -0.5222 -0.4636
 9508SOL    HW140160   0.533   3.528   8.314  0.2283  0.2772  0.0075
 9508SOL    HW240161   0.518   3.397   8.385 -1.1583  0.7007  0.5371
 9509SOL     OW40162   0.106   0.689   1.098 -0.2878  0.1431 -0.2522
 9509SOL    HW140163   0.122   0.783   1.108 -1.5430  0.3231  0.0830
 9509SOL    HW240164   0.164   0.663   1.026 -1.1697  0.3927 -1.0574
 9510SOL     OW40165   2.279   2.334  14.329  0.0505 -0.2296 -0.1782
 9510SOL    HW140166   2.339   2.407  14.344 -1.4920  1.2624 -1.2787
 9510SOL    HW240167   2.313   2.283  14.403 -0.5788  1.5868  1.3537
 9511SOL     OW40168   0.730   0.120  14.275  0.1211  0.2429 -0.0026
 9511SOL    HW140169   0.795   0.054  14.253 -1.6361 -1.3691 -0.2888
 9511SOL    HW240170   0.763   0.200  14.233  0.8618 -1.9817 -3.5905
 9512SOL     OW40171   3.169   0.074   4.312  0.2984  0.5888  0.5817
 9512SOL    HW140172   3.136   0.104   4.396 -0.9188  0.6512  0.0756
 9512SOL    HW240173   3.150   4.719   4.328 -1.5456  0.7430 -0.8369
 9513SOL     OW40174   3.034   3.568  11.397 -0.0423  0.3699 -0.1316
 9513SOL    HW140175   3.014   3.559  11.490 -1.3939 -1.5662 -0.6063
 9513SOL    HW240176   2.966   3.629  11.369  1.5152  2.6664  1.0901
 9514SOL     OW40177   2.297   1.579   1.438  0.4143 -0.6158  0.5465
 9514SOL    HW140178   2.360   1.634   1.392 -1.0972  0.7509  0.0863
 9514SOL    HW240179   2.320   1.495   1.399 -0.7498 -2.8713  4.6313
 9515SOL     OW40180   4.236   1.165   9.119  0.2711  0.1496 -0.2543
 9515SOL    HW140181   4.234   1.090   9.060  1.5921 -1.1530  1.3812
 9515SOL    HW240182   4.250   1.246   9.069  2.8160  0.9459  1.7647
 9516SOL     OW40183   4.463   2.776   8.265 -0.4336  0.1801  0.2010
 9516SOL    HW140184   4.420   2.852   8.305  0.2740  0.8644 -0.3339
 9516SOL    HW240185   4.410   2.698   8.283  2.6408 -1.9674 -0.1415
 9517SOL     OW40186   1.771   2.080   0.404  0.7360 -0.4879  0.3323
 9517SOL    HW140187   1.759   2.157   0.349  0.3597 -1.0656 -0.3793
 9517SOL    HW240188   1.757   2.012   0.339 -2.2756  0.7274 -0.2675
 9518SOL     OW40189   2.267   2.708  11.630  0.3785  0.3729 -0.7614
 9518SOL    HW140190   2.188   2.748  11.666  1.0190  0.5348  0.4887
 9518SOL    HW240191   2.296   2.673  11.715 -0.1971  0.7643 -0.4058
 9519SOL     OW40192   0.211   3.850   5.781  0.4871  0.1618 -0.2805
 9519SOL    HW140193   0.116   3.847   5.767  0.5288  2.6321 -1.1233
 9519SOL    HW240194   0.218   3.923   5.843  1.4710 -0.6925  0.6063
 9520SOL     OW40195   4.465   0.410  13.959  0.2924  0.3531 -0.0278
 9520SOL    HW140196   4.415   0.476  14.008  0.2335 -0.4288  0.9583
 9520SOL    HW240197   4.503   0.364  14.034  0.1540  0.0155 -0.1683
 9521SOL     OW40198   4.424   2.432  15.388 -0.1702  0.1494 -0.1941
 9521SOL    HW140199   4.384   2.461  15.470  1.0288  1.1623  0.0248
 9521SOL    HW240200   4.495   2.495  15.382  1.0991 -1.3713 -1.0373
 9522SOL     OW40201   2.868   2.072  11.360  0.8111 -0.5246  0.0877
 9522SOL    HW140202   2.952   2.063  11.403  0.2912 -1.1261  0.9818
 9522SOL    HW240203   2.874   2.026  11.276  3.1768 -2.2526  1.2241
 9523SOL     OW40204   2.760   2.668   9.901 -0.3043 -0.0515 -0.6616
 9523SOL    HW140205   2.849   2.698   9.919 -0.7863  1.3096 -0.5426
 9523SOL    HW240206   2.715   2.729   9.960  0.5527  0.0377 -0.0989
 9524SOL     OW40207   0.222   3.603   4.027 -0.1087 -0.0588  0.3824
 9524SOL    HW140208   0.309   3.576   3.996  0.2297  0.2747  1.0183
 9524SOL    HW240209   0.245   3.612   4.120  0.4972 -0.6873  0.2992
 9525SOL     OW40210   1.106   3.981  16.293 -0.1586  0.4787  0.0782
 9525SOL    HW140211   1.155   3.957  16.371 -0.6743 -2.7206 -0.5616
 9525SOL    HW240212   1.112   3.899  16.245 -0.6640 -1.5158  3.4158
 9526SOL     OW40213   1.386   0.626   5.257 -0.8770  0.2666 -0.2272
 9526SOL    HW140214   1.429   0.581   5.330  1.4062  1.9408 -0.5564
 9526SOL    HW240215   1.405   0.572   5.180 -0.6992 -2.0868  1.4713
 9527SOL     OW40216   0.443   2.981   1.584 -0.2876 -0.1750  0.5680
 9527SOL    HW140217   0.502   2.927   1.637  0.4097  1.2170  1.2044
 9527SOL    HW240218   0.386   3.001   1.657 -0.6130 -0.3400  0.3573
 9528SOL     OW40219   0.941   0.929   4.874  0.0243  0.2880 -0.5731
 9528SOL    HW140220   0.990   1.011   4.879  0.1074  0.1923  0.1679
 9528SOL    HW240221   0.919   0.934   4.781 -1.1636  0.0313 -0.3019
 9529SOL     OW40222   1.142   4.338   5.527  0.2309  0.4414 -0.3608
 9529SOL    HW140223   1.229   4.310   5.553  0.2615  0.9559  0.0872
 9529SOL    HW240224   1.155   4.422   5.483 -1.7652  0.5299 -0.7857
 9530SOL     OW40225   3.543   1.187   3.634  0.1534  0.2942  0.9088
 9530SOL    HW140226   3.518   1.273   3.601 -0.1334  0.0421  0.4543
 9530SOL    HW240227   3.628   1.168   3.595  0.4773 -0.5425  2.0203
 9531SOL     OW40228   1.051   0.643  11.507 -0.0169  0.4336 -0.0790
 9531SOL    HW140229   1.125   0.584  11.520 -0.4779  0.0437  0.7904
 9531SOL    HW240230   1.092   0.718  11.464  1.8215 -0.9623 -0.7623
 9532SOL     OW40231   3.728   3.436   8.871 -0.1075  0.2908 -0.4142
 9532SOL    HW140232   3.821   3.428   8.848 -0.5407  0.7548 -2.3547
 9532SOL    HW240233   3.705   3.351   8.834  0.2294 -0.0247  0.1114
 9533SOL     OW40234   0.989   4.519   9.063  0.0750  0.8082 -0.1365
 9533SOL    HW140235   1.057   4.452   9.067 -1.9443 -1.2151  0.2168
 9533SOL    HW240236   0.947   4.499   8.979 -0.1583  0.2985  0.1056
 9534SOL     OW40237   1.673   4.437   9.153 -0.1180  0.1097  0.1467
 9534SOL    HW140238   1.745   4.445   9.215 -0.2343  0.0747  0.2850
 9534SOL    HW240239   1.603   4.461   9.213  1.1209 -0.6733  1.8929
 9535SOL     OW40240   1.556   0.169   4.696 -0.0783  0.4585 -0.3159
 9535SOL    HW140241   1.641   0.132   4.720  0.2661  1.1609 -0.4514
 9535SOL    HW240242   1.523   0.086   4.661 -1.2118  1.1251 -0.8401
 9536SOL     OW40243   2.754   0.548   8.290  1.1649 -0.0197 -0.5020
 9536SOL    HW140244   2.762   0.624   8.233 -1.1407  1.5305  1.2607
 9536SOL    HW240245   2.848   0.539   8.306  0.9030 -2.1964 -0.1772
 9537SOL     OW40246   2.123   0.141   2.996 -0.0718 -0.5181 -0.1495
 9537SOL    HW140247   2.149   0.050   2.984  1.1009 -0.1108 -0.6055
 9537SOL    HW240248   2.073   0.142   3.078  3.1762 -0.4124  1.7939
 9538SOL     OW40249   4.189   1.713   8.259 -0.3425  0.4260  1.1089
 9538SOL    HW140250   4.122   1.645   8.249  0.2007 -0.1157  1.1448
 9538SOL    HW240251   4.139   1.778   8.307 -1.2818  0.8198 -0.3996
 9539SOL     OW40252   4.498   2.858   4.353  0.6548  0.3126  0.0544
 9539SOL    HW140253   4.522   2.772   4.319  1.3597  0.7226 -0.4975
 9539SOL    HW240254   4.473   2.831   4.441  0.0392 -0.5309 -0.3707
 9540SOL     OW40255   1.203   3.241   5.553  0.2110 -0.8896  0.0100
 9540SOL    HW140256   1.267   3.224   5.484  0.2765 -1.6174  0.2448
 9540SOL    HW240257   1.149   3.161   5.554  0.4498 -1.0570 -0.5213
 9541SOL     OW40258   0.346   1.325   5.048 -0.2957  0.7887 -0.6271
 9541SOL    HW140259   0.340   1.263   4.976  0.1046 -1.5609  1.3640
 9541SOL    HW240260   0.259   1.366   5.052 -0.5575  0.2789 -1.1009
 9542SOL     OW40261   0.780   2.597  10.832 -0.1090  0.1046 -0.1687
 9542SOL    HW140262   0.784   2.504  10.855  0.2351  0.1947  0.1428
 9542SOL    HW240263   0.810   2.629  10.918 -0.4552 -0.0658  0.0139
 9543SOL     OW40264   1.526   0.033   7.262  0.2588  0.0954 -0.1558
 9543SOL    HW140265   1.455   0.033   7.198 -0.4548  0.9860  0.6374
 9543SOL    HW240266   1.597   0.070   7.210 -1.2106  1.2824 -1.3313
 9544SOL     OW40267   1.798   3.176   2.217 -0.3821  0.3199 -0.3581
 9544SOL    HW140268   1.706   3.168   2.190 -0.2083  0.5364 -1.0198
 9544SOL    HW240269   1.824   3.084   2.218  0.0493  0.4469  0.0434
 9545SOL     OW40270   2.886   0.267   5.976  0.2279 -0.0345 -0.1164
 9545SOL    HW140271   2.896   0.223   5.892 -2.5255 -0.3851 -0.2399
 9545SOL    HW240272   2.972   0.281   6.015 -0.0047 -0.0631  0.3963
 9546SOL     OW40273   4.707   4.670   4.464 -0.2026  0.0566 -0.2811
 9546SOL    HW140274   4.654   4.698   4.539 -0.4467 -0.9138 -0.0965
 9546SOL    HW240275   0.041   4.733   4.458 -0.2158 -0.0483 -1.5561
 9547SOL     OW40276   0.952   0.003  13.038  0.1307  0.1682  0.6884
 9547SOL    HW140277   0.860   4.721  13.019  0.4288  0.4023 -0.9576
 9547SOL    HW240278   0.997   4.699  12.964  0.5867  0.1970  0.9475
 9548SOL     OW40279   2.554   1.713   3.279  0.4915 -0.9018  0.5284
 9548SOL    HW140280   2.596   1.796   3.300 -2.3557  0.5664  0.4959
 9548SOL    HW240281   2.466   1.735   3.311  2.2113  1.0632  3.9378
 9549SOL     OW40282   2.551   3.381   7.296 -0.6717 -0.5503 -0.3039
 9549SOL    HW140283   2.465   3.412   7.325 -0.6500 -0.5807 -0.2059
 9549SOL    HW240284   2.607   3.405   7.370  0.3636  2.2242 -1.9601
 9550SOL     OW40285   1.347   1.814  10.575  0.3267 -0.0825  0.6333
 9550SOL    HW140286   1.320   1.904  10.556 -0.1263 -0.3975 -0.2235
 9550SOL    HW240287   1.390   1.778  10.497  1.5374  1.2091  0.7024
 9551SOL     OW40288   1.594   2.263   0.868  0.7312  0.1450 -0.8287
 9551SOL    HW140289   1.536   2.226   0.935 -0.5353 -0.5454 -2.2805
 9551SOL    HW240290   1.682   2.258   0.904  0.0988 -0.5196  0.6476
 9552SOL     OW40291   4.709   3.388   5.426  0.1026 -0.1533 -0.2097
 9552SOL    HW140292   0.054   3.421   5.461 -0.5318  0.9013  0.3026
 9552SOL    HW240293   4.674   3.327   5.491  0.1813  0.0142 -0.0114
 9553SOL     OW40294   0.767   4.001  10.691 -0.2939 -0.2818 -0.5407
 9553SOL    HW140295   0.839   4.015  10.751 -0.1120  0.5744 -0.9654
 9553SOL    HW240296   0.793   3.919  10.648  0.5733  0.5568 -1.6026
 9554SOL     OW40297   0.883   1.285  12.011 -0.3291  0.2079 -0.3309
 9554SOL    HW140298   0.850   1.199  11.988  0.0883  0.1993 -0.8976
 9554SOL    HW240299   0.836   1.290  12.095  0.7320  0.0993  0.2661
 9555SOL     OW40300   2.723   4.145   8.189 -0.3791 -0.0217 -0.0232
 9555SOL    HW140301   2.686   4.077   8.246 -2.5245  1.1437 -0.0371
 9555SOL    HW240302   2.721   4.101   8.104  0.5783  2.0878 -1.1097
 9556SOL     OW40303   3.705   0.857  12.127 -0.7729  1.0131  0.2650
 9556SOL    HW140304   3.663   0.877  12.043 -0.7911  0.0152  0.0444
 9556SOL    HW240305   3.641   0.888  12.191 -0.8846  1.2390  0.0477
 9557SOL     OW40306   3.475   0.496  15.190  0.3678  0.0307 -0.1783
 9557SOL    HW140307   3.503   0.574  15.143  0.4542  0.7845  1.1358
 9557SOL    HW240308   3.549   0.439  15.174  1.0306  0.9396 -0.3210
 9558SOL     OW40309   1.784   4.371  10.251 -0.2515 -0.2303  0.4125
 9558SOL    HW140310   1.871   4.380  10.290  0.4421  0.3188 -1.2749
 9558SOL    HW240311   1.729   4.434  10.298 -0.4879  0.3538 -0.6579
 9559SOL     OW40312   1.865   0.848   8.270  0.3953  0.2266  0.3634
 9559SOL    HW140313   1.873   0.762   8.229  2.5548 -0.5373  2.4241
 9559SOL    HW240314   1.926   0.834   8.342  0.7813  0.5827  0.1064
 9560SOL     OW40315   2.330   2.028   9.094  0.2247 -0.0446 -0.3346
 9560SOL    HW140316   2.338   1.949   9.146 -1.2840  1.2853  1.9325
 9560SOL    HW240317   2.289   2.089   9.155 -2.1673 -1.2415 -0.7678
 9561SOL     OW40318   1.018   3.855   3.484  0.3068 -0.3303 -0.1063
 9561SOL    HW140319   0.979   3.897   3.561 -2.6824 -0.5838 -1.4809
 9561SOL    HW240320   1.103   3.899   3.488  0.9039 -1.4211 -0.9171
 9562SOL     OW40321   2.283   4.094   0.195 -0.0899  0.2414 -0.6659
 9562SOL    HW140322   2.199   4.052   0.216 -0.0581 -0.2140 -1.4521
 9562SOL    HW240323   2.310   4.133   0.278  1.4608  1.6516 -1.8486
 9563SOL     OW40324   0.524   4.147  13.870 -0.6662  0.2924 -0.1596
 9563SOL    HW140325   0.495   4.224  13.918  0.9685 -0.7671  2.5223
 9563SOL    HW240326   0.609   4.170  13.832 -0.3167 -0.9964 -0.1669
 9564SOL     OW40327   1.280   2.083   1.786 -0.6473 -0.7736  0.0563
 9564SOL    HW140328   1.313   2.008   1.737  1.8952 -1.3638  2.6820
 9564SOL    HW240329   1.263   2.042   1.871  2.5993  2.1370  2.1165
 9565SOL     OW40330   0.028   0.095  16.045 -0.5442 -0.6619 -0.0484
 9565SOL    HW140331   0.090   0.042  15.995 -1.3842 -1.5779 -0.1092
 9565SOL    HW240332   4.691   0.046  16.010  0.7406 -2.4882 -0.2177
 9566SOL     OW40333   4.410   2.296   3.278 -0.1247 -0.0057 -0.3535
 9566SOL    HW140334   4.412   2.278   3.372  0.1271  0.0664 -0.3466
 9566SOL    HW240335   4.316   2.302   3.261  0.2078 -0.6699 -2.4112
 9567SOL     OW40336   3.927   1.347   3.403  0.3613  0.0006 -0.0853
 9567SOL    HW140337   4.010   1.375   3.440 -1.2029  1.0588  2.5573
 9567SOL    HW240338   3.964   1.340   3.315  0.7271 -0.0432  0.0750
 9568SOL     OW40339   3.694   4.275   0.993  0.2804  0.4067 -0.5861
 9568SOL    HW140340   3.771   4.319   1.032 -1.5401  0.2155  3.2671
 9568SOL    HW240341   3.633   4.295   1.064 -0.6042  0.3889 -1.3555
 9569SOL     OW40342   4.016   4.197   1.980  0.2429 -0.3638  0.6355
 9569SOL    HW140343   4.085   4.202   2.046  0.9516 -0.2457 -0.1271
 9569SOL    HW240344   3.991   4.104   1.981  1.5416 -0.7251 -0.2535
   4.73765   4.73765  17.74882
