Membrane in water
40344
    1TMC1    C1    1   4.315   1.914  11.289  0.2074  0.1569  0.4802
    1TMC1    C2    2   4.445   1.947  11.294  0.5597  0.5267 -0.4985
    1TMC1    C3    3   4.476   2.082  11.273 -0.4123  0.0308 -0.1562
    1TMC1    C4    4   4.215   2.010  11.268 -0.4643 -0.1281  0.1458
    1TMC1    C5    5   4.252   2.139  11.250  0.0980 -0.2311  0.3566
    1TMC1    C6    6   4.383   2.177  11.239 -0.4221  0.0557 -0.1385
    1TMC1     C    7   4.268   1.779  11.308  0.3506 -0.1748 -0.3093
    1TMC1     O    8   4.148   1.759  11.323 -0.1897  0.3713  0.3015
    1TMC1     H    9   4.514   1.875  11.335  0.8857  1.7886  1.1939
    1TMC1    H1   10   4.108   1.992  11.269 -0.5104  0.1605  0.9409
    1TMC1    H2   11   4.405   2.283  11.229 -1.0858 -0.0077 -2.1978
    1TMC1    C7   12   4.147   2.239  11.227  0.4368  0.1017  0.0698
    1TMC1    C8   13   4.618   2.115  11.294 -0.1965  0.2816 -0.2228
    1TMC1    O1   14   4.160   2.357  11.260 -0.3087 -0.3345 -0.0303
    1TMC1    O2   15   4.693   2.059  11.374  0.0038  0.3190  0.7039
    1TMC1    O3   16   4.057   2.192  11.134  0.6750  0.3365 -0.2400
    1TMC1    H3   17   4.080   2.110  11.085 -1.8067  0.2558 -1.2531
    1TMC1    O5   18   4.649   2.208  11.200  0.4276  0.3730 -0.4271
    1TMC1    H5   19   4.576   2.256  11.155 -0.2232 -0.6394 -0.4577
    2MPD2     C   20   4.332   1.275  11.362 -1.2356  0.1392  0.1517
    2MPD2    C1   21   4.222   1.355  11.373 -0.2232 -0.0656  0.2781
    2MPD2    C2   22   4.231   1.490  11.363 -0.0231  0.0191 -0.0175
    2MPD2    C3   23   4.355   1.550  11.343 -0.6069 -0.0846  0.2421
    2MPD2    C4   24   4.464   1.473  11.320 -0.0486  0.2630 -0.0056
    2MPD2    C5   25   4.456   1.336  11.343  1.3881  0.2034  0.3910
    2MPD2     H   26   4.138   1.544  11.382 -1.0384 -1.3820 -0.9943
    2MPD2    H1   27   4.564   1.515  11.319 -0.0558  0.3496  3.3459
    2MPD2    H2   28   4.315   1.168  11.371 -2.7639  0.6073  2.9045
    2MPD2    H3   29   4.545   1.275  11.356 -0.0574 -1.6634  1.4325
    2MPD2     N   30   4.375   1.689  11.314  0.0190  0.4999  0.7668
    2MPD2    H5   31   4.467   1.725  11.291  0.5589 -1.3590 -0.0335
    2MPD2    N1   32   4.095   1.300  11.399  0.7374  0.1348 -0.0734
    2MPD2    H7   33   4.024   1.371  11.414 -1.3109 -1.8986 -0.2675
    3TMC1    C1   34   3.476   2.183  10.623 -0.8716 -0.5039 -0.2048
    3TMC1    C2   35   3.463   2.304  10.561  0.6815 -0.5055 -0.1979
    3TMC1    C3   36   3.541   2.323  10.448  0.6243  0.0267 -0.4473
    3TMC1    C4   37   3.547   2.080  10.565 -0.2922 -0.2111  0.5855
    3TMC1    C5   38   3.627   2.106  10.461  0.5924  0.4020 -0.0884
    3TMC1    C6   39   3.632   2.227  10.400 -0.2307 -0.2563 -0.1728
    3TMC1     C   40   3.376   2.132  10.708 -0.0778  0.1938 -0.2716
    3TMC1     O   41   3.349   2.014  10.695 -0.2432 -0.2925  0.4453
    3TMC1     H   42   3.391   2.376  10.598  0.8700  0.7692 -2.3536
    3TMC1    H1   43   3.557   1.983  10.611  1.3643  0.6229  2.0153
    3TMC1    H2   44   3.690   2.249  10.311  1.9597 -2.0961  0.8084
    3TMC1    C7   45   3.731   2.001  10.435  0.2245  0.3076 -0.0320
    3TMC1    C8   46   3.524   2.441  10.369 -0.0716 -0.3829  0.0609
    3TMC1    O1   47   3.708   1.882  10.462  0.4571  0.5413 -0.7357
    3TMC1    O2   48   3.601   2.489  10.289 -0.0138 -0.1268 -0.1649
    3TMC1    O3   49   3.830   2.058  10.371  0.4223 -0.6944  0.4149
    3TMC1    H3   50   3.852   2.149  10.399 -1.0630 -1.1835  3.2349
    3TMC1    O5   51   3.388   2.454  10.361  0.0144 -0.2844 -0.2449
    3TMC1    H5   52   3.332   2.403  10.424  2.6788 -2.3833  0.4229
    4MPD2     C   53   2.999   2.192  11.049 -0.0575  0.3479  0.2229
    4MPD2    C1   54   3.043   2.319  11.014 -0.4946 -0.1028 -0.6745
    4MPD2    C2   55   3.159   2.332  10.936  0.3519 -0.4318 -0.3888
    4MPD2    C3   56   3.202   2.214  10.873 -0.2540  0.2923 -1.1066
    4MPD2    C4   57   3.149   2.088  10.903 -0.2081  0.5763  0.6129
    4MPD2    C5   58   3.051   2.086  10.991 -0.0369 -0.2049  0.7205
    4MPD2     H   59   3.205   2.428  10.917  3.4294 -1.4984  1.6381
    4MPD2    H1   60   3.185   1.994  10.862 -0.7724  1.0044 -0.8746
    4MPD2    H2   61   2.916   2.178  11.117 -1.1368  0.5558 -1.0398
    4MPD2    H3   62   3.016   1.985  11.013 -0.6087 -0.2194 -0.2219
    4MPD2     N   63   3.312   2.229  10.780 -0.1466 -0.1157  0.3619
    4MPD2    H5   64   3.344   2.324  10.766  1.5829 -0.7138  0.2025
    4MPD2    N1   65   2.997   2.435  11.080 -0.3465 -0.1687 -0.1374
    4MPD2    H7   66   3.050   2.521  11.064  0.0473 -0.6643 -1.5125
    5TCq1    O1   67   4.319   3.941  12.308  0.0662 -0.1527  0.1322
    5TCq1    C1   68   4.334   4.011  12.201 -0.3329  0.3475 -0.0777
    5TCq1    O2   69   4.435   4.012  12.126  0.2435 -0.2310  0.8414
    5TCq1    C2   70   4.201   4.021  12.148  0.6404  0.0196  0.8105
    5TCq1    C3   71   4.094   3.999  12.236  0.4056  0.6956 -0.8247
    5TCq1    C4   72   3.978   3.962  12.186 -0.2249  0.2040 -0.2415
    5TCq1    C5   73   3.958   3.940  12.051 -0.0203  0.9878  0.3700
    5TCq1    C6   74   4.063   3.975  11.967  0.4490 -0.1919  0.3016
    5TCq1    C7   75   4.194   4.008  12.012  0.3573 -0.2032  0.5934
    5TCq1    C8   76   4.026   4.022  11.828 -0.0136  0.2207 -0.1366
    5TCq1    O4   77   4.122   4.023  11.750  0.5167  0.3452 -0.7417
    5TCq1    C9   78   3.865   3.947  12.267  0.8374 -0.2168  0.2343
    5TCq1    O5   79   3.874   3.981  12.386  0.1644  0.0766  0.5125
    5TCq1    O6   80   3.751   3.909  12.211  0.0510  0.1749  0.2992
    5TCq1    H1   81   4.225   3.918  12.325 -0.1174  0.5646  0.1016
    5TCq1    H2   82   4.102   4.040  12.336 -0.9716  0.8840 -0.7937
    5TCq1    H3   83   3.862   3.913  12.009  0.8979 -0.7640 -0.5708
    5TCq1    H4   84   4.270   4.022  11.936  1.0231  0.5113  1.3770
    6MPD2     C   85   3.682   4.091  11.676 -0.2251 -0.1576 -0.5512
    6MPD2    C1   86   3.823   4.078  11.687 -0.2370  0.5285  0.2234
    6MPD2    C2   87   3.898   4.084  11.571 -0.2708  0.1273 -0.4440
    6MPD2    C3   88   3.843   4.108  11.449 -0.0930 -0.0820  0.4323
    6MPD2    C4   89   3.710   4.132  11.444 -0.5798 -0.3782 -0.6423
    6MPD2    C5   90   3.628   4.128  11.556 -0.2881 -0.0735 -0.3754
    6MPD2     H   91   4.005   4.066  11.573 -0.2238  0.5278  0.4678
    6MPD2    H1   92   3.666   4.171  11.353 -0.0886  0.7340 -0.4026
    6MPD2    H2   93   3.624   4.093  11.767 -0.6748 -0.3144 -0.8346
    6MPD2    H3   94   3.523   4.144  11.536 -0.1759 -0.5772 -1.3854
    6MPD2     N   95   3.930   4.105  11.341  0.4001  0.7914 -0.0894
    6MPD2    H5   96   4.028   4.099  11.368  0.3859 -0.1323 -0.2372
    6MPD2    N1   97   3.887   4.047  11.811 -0.1543  0.0940  0.2830
    6MPD2    H7   98   3.827   4.021  11.888  2.0244 -3.2263  0.8543
    7TCq1    O1   99   0.985   3.728  13.369 -0.2789 -0.0722 -0.3937
    7TCq1    C1  100   0.982   3.602  13.422 -0.0504  0.1201 -0.2036
    7TCq1    O2  101   1.066   3.556  13.497 -0.1284  0.7287 -0.2411
    7TCq1    C2  102   0.847   3.542  13.396 -0.6955 -0.1038  0.9719
    7TCq1    C3  103   0.735   3.614  13.426  0.3162 -0.3799 -0.0156
    7TCq1    C4  104   0.617   3.552  13.448 -0.3978  0.3648 -0.2857
    7TCq1    C5  105   0.608   3.416  13.446  0.1785  0.3391 -0.3211
    7TCq1    C6  106   0.721   3.351  13.412  0.6320  0.1187  0.0735
    7TCq1    C7  107   0.843   3.409  13.388 -0.0354  0.0676  1.0387
    7TCq1    C8  108   0.726   3.206  13.413 -0.7168  0.6020 -0.6425
    7TCq1    O4  109   0.825   3.147  13.451 -0.7755 -0.2021  0.7342
    7TCq1    C9  110   0.504   3.638  13.482  0.3594 -0.1993 -0.6302
    7TCq1    O5  111   0.401   3.581  13.517  0.5194  0.4153  0.6149
    7TCq1    O6  112   0.525   3.760  13.477 -0.1219 -0.6265 -0.2669
    7TCq1    H1  113   0.922   3.746  13.297 -2.4518 -0.2352  1.4637
    7TCq1    H2  114   0.745   3.721  13.436 -2.6304  0.2894 -4.0437
    7TCq1    H3  115   0.515   3.365  13.470  0.6494 -0.3572  0.0497
    7TCq1    H4  116   0.928   3.351  13.353  0.7816  1.9262 -0.0464
    8MPD2     C  117   0.452   2.769  13.409  0.4564  0.3682  0.1354
    8MPD2    C1  118   0.590   2.787  13.422 -0.3044 -0.1225  0.5751
    8MPD2    C2  119   0.637   2.917  13.428 -0.0328 -0.7391  1.3308
    8MPD2    C3  120   0.560   3.021  13.393  0.4661 -0.3169  0.1772
    8MPD2    C4  121   0.424   3.000  13.379 -0.0531  0.0598  0.4989
    8MPD2    C5  122   0.369   2.873  13.378  0.0608  0.1610  0.9158
    8MPD2     H  123   0.739   2.936  13.460  0.1921 -1.4788  1.0539
    8MPD2    H1  124   0.363   3.086  13.354 -2.5599 -1.5999  0.8866
    8MPD2    H2  125   0.407   2.671  13.416 -2.6109  1.7765  0.3951
    8MPD2    H3  126   0.262   2.860  13.369  0.0428  0.9635  0.0183
    8MPD2     N  127   0.599   3.160  13.382  0.1152 -0.1050 -0.5880
    8MPD2    H5  128   0.525   3.222  13.350 -0.1524  0.8630  1.9524
    8MPD2    N1  129   0.664   2.679  13.463  0.1407 -0.2877  0.2706
    8MPD2    H7  130   0.613   2.592  13.453  0.5602 -0.5909  0.7670
    9TMC1    C1  131   3.777   2.712  11.312  0.4382 -0.1363  0.2132
    9TMC1    C2  132   3.808   2.767  11.194  0.0646 -0.3257  0.4679
    9TMC1    C3  133   3.850   2.898  11.188  0.0029  0.2187 -0.1350
    9TMC1    C4  134   3.783   2.784  11.433 -0.0969  0.8435 -0.0620
    9TMC1    C5  135   3.816   2.913  11.419  0.0327  0.1474 -0.0562
    9TMC1    C6  136   3.847   2.980  11.303 -0.3852 -0.2987 -0.9999
    9TMC1     C  137   3.719   2.578  11.313 -0.2042  0.3300 -0.3457
    9TMC1     O  138   3.686   2.535  11.202 -0.1037 -0.1458  0.2921
    9TMC1     H  139   3.784   2.708  11.106  0.9020  1.5892 -1.0378
    9TMC1    H1  140   3.775   2.743  11.533  2.8331 -1.2205 -0.6644
    9TMC1    H2  141   3.863   3.088  11.305 -1.2631 -0.1465 -2.5015
    9TMC1    C7  142   3.880   2.952  11.543  0.6797  0.8025  0.0420
    9TMC1    C8  143   3.826   2.971  11.064 -0.1254  0.6384  0.4547
    9TMC1    O1  144   3.838   2.928  11.657  0.3221  0.1723  0.2080
    9TMC1    O2  145   3.835   3.094  11.065 -0.0003 -0.0164  0.2327
    9TMC1    O3  146   4.011   2.949  11.505  0.2016  0.2996  0.5104
    9TMC1    H3  147   4.004   2.966  11.409 -0.6460  1.6171  0.8063
    9TMC1    O5  148   3.836   2.886  10.961 -0.1535  0.7709  0.3586
    9TMC1    H5  149   3.849   2.792  10.986  0.4042  1.0473  1.1065
   10MPD2     C  150   3.731   2.295  11.345  0.3922  0.5383  0.2614
   10MPD2    C1  151   3.690   2.379  11.447  0.3505  0.0331 -0.2144
   10MPD2    C2  152   3.648   2.324  11.561  1.0737  0.0245 -0.1790
   10MPD2    C3  153   3.630   2.190  11.579  0.0111  0.3083  0.1635
   10MPD2    C4  154   3.676   2.107  11.479 -0.3108  0.3088  0.4873
   10MPD2    C5  155   3.727   2.159  11.362  0.5160  0.3005  0.1061
   10MPD2     H  156   3.607   2.402  11.625  0.1414 -1.7455  1.3566
   10MPD2    H1  157   3.677   1.998  11.484 -1.8412  0.1116 -3.5761
   10MPD2    H2  158   3.786   2.324  11.257 -1.7885 -0.8383 -1.5388
   10MPD2    H3  159   3.784   2.100  11.291 -1.1837 -1.7207  0.4242
   10MPD2     N  160   3.569   2.128  11.693  0.7535  0.8483  0.2974
   10MPD2    H5  161   3.571   2.027  11.698  2.7783  0.8966  0.3949
   10MPD2    N1  162   3.703   2.517  11.434  0.4218  0.4064  0.2804
   10MPD2    H7  163   3.690   2.573  11.517 -1.1245  1.6753 -0.8315
   11TCq1    O1  164   4.365   2.258  14.640  0.0121 -0.5439  0.0061
   11TCq1    C1  165   4.467   2.249  14.553  0.1931  0.2986  0.6098
   11TCq1    O2  166   4.582   2.276  14.578  0.3244 -0.6256  0.3627
   11TCq1    C2  167   4.422   2.186  14.436 -0.2258  0.1801 -0.5348
   11TCq1    C3  168   4.523   2.121  14.362  0.6051  0.2918  0.1674
   11TCq1    C4  169   4.492   2.071  14.238 -0.4092 -0.5384 -0.0713
   11TCq1    C5  170   4.370   2.084  14.188  0.0998 -0.2067 -0.5155
   11TCq1    C6  171   4.275   2.153  14.262  0.0127 -0.5228 -0.0888
   11TCq1    C7  172   4.295   2.208  14.384  0.2403  0.0687  1.0841
   11TCq1    C8  173   4.135   2.134  14.217  0.9635  0.4162  0.0382
   11TCq1    O4  174   4.058   2.186  14.294 -0.1576 -0.0097  0.1807
   11TCq1    C9  175   4.598   2.010  14.167  0.0740 -0.0745 -1.0093
   11TCq1    O5  176   4.717   2.023  14.209 -0.5572  0.3416 -0.0833
   11TCq1    O6  177   4.555   1.933  14.078 -0.4386  0.3624  0.0662
   11TCq1    H1  178   4.284   2.210  14.613  1.7612 -1.3151 -3.8666
   11TCq1    H2  179   4.620   2.096  14.402  0.6570 -0.5559 -0.5039
   11TCq1    H3  180   4.361   2.064  14.082  1.4662  0.4288 -0.7550
   11TCq1    H4  181   4.218   2.263  14.437 -3.0658 -1.7978 -1.8093
   12MPD2     C  182   3.867   2.064  14.100 -0.8258 -0.1331  0.1275
   12MPD2    C1  183   3.987   2.023  14.046  0.1068  0.0527  0.5990
   12MPD2    C2  184   3.990   1.940  13.944  0.0009  0.0721  0.3417
   12MPD2    C3  185   3.871   1.897  13.883  0.0021  0.4454  0.2092
   12MPD2    C4  186   3.750   1.945  13.929 -0.6349 -0.2585  0.0698
   12MPD2    C5  187   3.749   2.019  14.044 -0.2384  0.1936 -0.3943
   12MPD2     H  188   4.087   1.911  13.908 -0.7133  0.3744 -1.8277
   12MPD2    H1  189   3.656   1.915  13.883 -1.4450  0.9381  0.9546
   12MPD2    H2  190   3.868   2.136  14.181  2.1488 -1.6896  1.4568
   12MPD2    H3  191   3.651   2.049  14.078 -0.7757 -3.1421  1.0236
   12MPD2     N  192   3.879   1.799  13.785  0.0187 -0.4030 -0.5467
   12MPD2    H5  193   3.792   1.766  13.744 -0.9312 -0.5860  1.6210
   12MPD2    N1  194   4.113   2.053  14.107 -0.1104  0.1321  0.0004
   12MPD2    H7  195   4.189   2.014  14.052 -0.5199 -0.4486 -0.1457
   13TCq1    O1  196   4.275   3.007  11.103  0.3830 -0.1986 -0.2801
   13TCq1    C1  197   4.351   2.968  11.000 -0.0233 -0.2594  0.9643
   13TCq1    O2  198   4.468   3.016  10.993  0.1495 -0.8346 -0.1003
   13TCq1    C2  199   4.334   2.824  11.002  0.0449  0.6116 -0.3408
   13TCq1    C3  200   4.444   2.747  11.033 -0.0724 -0.1830 -0.2932
   13TCq1    C4  201   4.424   2.618  11.037  0.1059  0.0001 -0.2540
   13TCq1    C5  202   4.310   2.554  11.005  0.6209  0.9991 -0.7044
   13TCq1    C6  203   4.207   2.633  10.963  0.0775  0.0288 -1.4542
   13TCq1    C7  204   4.218   2.765  10.964  0.1233  0.1165  0.7600
   13TCq1    C8  205   4.073   2.573  10.949  0.2411  0.7224 -0.6490
   13TCq1    O4  206   3.974   2.644  10.955 -0.7859  0.0084 -0.0252
   13TCq1    C9  207   4.536   2.536  11.082  0.0483 -0.1615  0.0245
   13TCq1    O5  208   4.528   2.413  11.068  0.2898  0.4676  0.0505
   13TCq1    O6  209   4.638   2.596  11.129 -0.0217 -0.0447  0.1479
   13TCq1    H1  210   4.217   2.931  11.127  2.4396 -0.8224  2.7341
   13TCq1    H2  211   4.542   2.792  11.042  0.8773 -2.8433  2.5473
   13TCq1    H3  212   4.314   2.446  11.008 -0.0008  0.9820 -0.4818
   13TCq1    H4  213   4.130   2.820  10.932  1.5893  1.4164 -1.0231
   14MPD2     C  214   3.980   2.242  10.834  0.5568 -0.6995  0.6462
   14MPD2    C1  215   3.959   2.362  10.896  0.4437  0.9082 -0.2222
   14MPD2    C2  216   3.841   2.395  10.966  0.3307 -0.3149  0.1460
   14MPD2    C3  217   3.738   2.306  10.959  0.8312 -1.0308  0.0658
   14MPD2    C4  218   3.749   2.200  10.877  0.9171 -0.1676  0.0028
   14MPD2    C5  219   3.865   2.173  10.814  0.4820  0.2148  0.4930
   14MPD2     H  220   3.843   2.477  11.037  1.1802 -1.2285  1.1844
   14MPD2    H1  221   3.663   2.138  10.853  0.5921 -0.1464  1.0828
   14MPD2    H2  222   4.072   2.204  10.791 -0.2156  1.9703 -3.3585
   14MPD2    H3  223   3.869   2.080  10.759  0.2169  1.9135 -2.3795
   14MPD2     N  224   3.623   2.317  11.041 -0.1926  0.1857 -0.0955
   14MPD2    H5  225   3.625   2.403  11.095  0.3701  0.6252 -0.8255
   14MPD2    N1  226   4.072   2.445  10.907  0.5909  0.6591 -0.8267
   14MPD2    H7  227   4.159   2.405  10.874  0.9850  2.1658 -1.6117
   15TCq1    O1  228   0.928   1.106   1.877  0.0424 -0.0070  0.3293
   15TCq1    C1  229   1.009   1.027   1.804 -0.3384  0.1894 -0.3260
   15TCq1    O2  230   1.063   0.920   1.838 -0.2041  0.0493 -0.0744
   15TCq1    C2  231   1.050   1.092   1.680  0.0935  0.8353 -0.1100
   15TCq1    C3  232   1.177   1.053   1.635  0.3393 -0.0239  0.3401
   15TCq1    C4  233   1.202   1.064   1.508 -0.0411 -0.4081 -0.3028
   15TCq1    C5  234   1.105   1.101   1.415  0.4298 -0.0320 -0.0183
   15TCq1    C6  235   0.978   1.128   1.465  0.2555  0.8425  0.0402
   15TCq1    C7  236   0.945   1.121   1.597  0.2357 -0.0051  0.7599
   15TCq1    C8  237   0.868   1.135   1.369  0.1764 -0.1216  0.5975
   15TCq1    O4  238   0.767   1.179   1.413  0.3369  0.1201 -0.1768
   15TCq1    C9  239   1.329   1.018   1.453  0.2857 -0.5207 -0.4258
   15TCq1    O5  240   1.351   1.049   1.330 -0.2428 -0.3095 -0.8882
   15TCq1    O6  241   1.415   0.993   1.538 -0.1501  0.3281  0.5429
   15TCq1    H1  242   0.918   1.199   1.845  2.0689 -0.0440 -0.3754
   15TCq1    H2  243   1.257   1.031   1.705  0.1902 -2.6514 -0.3041
   15TCq1    H3  244   1.134   1.108   1.311  2.1127  0.7645  0.4887
   15TCq1    H4  245   0.845   1.144   1.633 -0.2052 -1.2982  0.3697
   16MPD2     C  246   0.670   1.088   1.170  0.1058  0.1842  0.2872
   16MPD2    C1  247   0.787   1.016   1.176  0.0245  0.0646 -0.4229
   16MPD2    C2  248   0.800   0.901   1.094  0.0705  0.4338 -0.4800
   16MPD2    C3  249   0.696   0.872   1.005  0.2059 -0.2309  0.6764
   16MPD2    C4  250   0.581   0.951   1.003  0.2972  0.5140 -0.1150
   16MPD2    C5  251   0.572   1.060   1.080 -0.2608 -0.0899  0.9984
   16MPD2     H  252   0.888   0.838   1.098 -1.0516 -0.9021  2.8022
   16MPD2    H1  253   0.502   0.922   0.934 -1.7962  2.2075  1.5979
   16MPD2    H2  254   0.647   1.181   1.222  1.2148  0.4960  0.2232
   16MPD2    H3  255   0.492   1.132   1.064  0.2933  0.7001  1.8409
   16MPD2     N  256   0.711   0.758   0.922 -0.2672  0.0767  0.0502
   16MPD2    H5  257   0.796   0.702   0.921 -1.1480 -1.2743  1.1938
   16MPD2    N1  258   0.888   1.053   1.266  0.2311 -0.3416  0.0770
   16MPD2    H7  259   0.971   0.996   1.255  0.2177 -0.5188  0.8517
   17TMC1    C1  260   3.318   1.483  11.318  0.4256  0.0255  0.1321
   17TMC1    C2  261   3.194   1.466  11.367  0.4157  0.1167 -0.1628
   17TMC1    C3  262   3.149   1.559  11.458  0.8616  0.6387  0.0196
   17TMC1    C4  263   3.398   1.589  11.344  0.4999 -0.6086  1.0570
   17TMC1    C5  264   3.352   1.681  11.432 -0.5992 -0.8505 -0.2087
   17TMC1    C6  265   3.231   1.665  11.499 -0.1643 -0.5114 -0.0208
   17TMC1     C  266   3.361   1.399  11.205  0.2987  0.6364 -0.4249
   17TMC1     O  267   3.273   1.340  11.145  0.7816  0.0711  0.2072
   17TMC1     H  268   3.123   1.391  11.334  1.1292 -0.1995 -0.9518
   17TMC1    H1  269   3.495   1.602  11.299  0.2997 -0.6012  0.6317
   17TMC1    H2  270   3.200   1.729  11.580 -0.9940 -0.3491 -0.4754
   17TMC1    C7  271   3.449   1.782  11.464 -0.0413  0.3722  0.2878
   17TMC1    C8  272   3.050   1.517  11.560 -0.7177 -0.0779  0.6916
   17TMC1    O1  273   3.449   1.836  11.572  0.1578 -0.0836  0.1581
   17TMC1    O2  274   3.020   1.593  11.651 -0.2029  0.6074  0.4874
   17TMC1    O3  275   3.485   1.845  11.346 -0.1813  0.2889  0.2907
   17TMC1    H3  276   3.442   1.809  11.266 -0.8486  1.4615  0.1326
   17TMC1    O5  277   3.057   1.385  11.568  0.0182 -0.3266 -0.2822
   17TMC1    H5  278   3.108   1.345  11.494  1.3747  1.0616 -0.0974
   18MPD2     C  279   3.500   1.309  10.962  0.4620  0.5238 -0.4971
   18MPD2    C1  280   3.563   1.362  11.076  0.2236 -0.1520  0.2988
   18MPD2    C2  281   3.703   1.387  11.087 -0.5268  0.5329  0.1635
   18MPD2    C3  282   3.782   1.349  10.983 -0.6026 -0.3103  0.1051
   18MPD2    C4  283   3.725   1.299  10.871 -1.0309 -0.4005  0.4113
   18MPD2    C5  284   3.587   1.282  10.858  0.0060 -0.2320 -0.0214
   18MPD2     H  285   3.747   1.432  11.175  0.8553  2.8866 -1.7542
   18MPD2    H1  286   3.780   1.277  10.780 -1.7266  2.8349 -0.8111
   18MPD2    H2  287   3.394   1.289  10.956  0.6740 -0.9599  0.5043
   18MPD2    H3  288   3.553   1.228  10.770 -1.3440 -1.5029  1.2877
   18MPD2     N  289   3.920   1.363  10.993  0.4734 -0.1285 -0.0120
   18MPD2    H5  290   3.965   1.322  10.912  0.4121  0.9432 -0.5927
   18MPD2    N1  291   3.497   1.398  11.193  0.3931  0.1579  1.1606
   18MPD2    H7  292   3.556   1.450  11.257 -0.4919 -0.5552  2.5540
   19TMC2    C1  293   0.458   1.787  14.138 -0.2915 -0.0499 -0.1554
   19TMC2    C2  294   0.420   1.906  14.192 -0.6302 -0.2960 -0.3701
   19TMC2    C3  295   0.283   1.916  14.226 -0.9240 -0.3922 -0.3171
   19TMC2    C4  296   0.364   1.685  14.110 -0.1105 -0.2119  0.2641
   19TMC2    C5  297   0.234   1.703  14.131 -0.8183 -0.3028  0.2241
   19TMC2    C6  298   0.194   1.818  14.194  0.6381  0.3118  0.1634
   19TMC2     C  299   0.604   1.768  14.102 -0.1786  0.4432  0.0553
   19TMC2     O  300   0.683   1.861  14.122 -0.3977 -0.0529 -0.3364
   19TMC2     H  301   0.492   1.980  14.224  0.7694 -1.2968 -1.1935
   19TMC2    H1  302   0.391   1.588  14.072  0.6382 -0.2204  0.8202
   19TMC2    H2  303   0.088   1.828  14.215  0.7438  0.3539  0.6789
   19TMC2    C7  304   0.144   1.597  14.097  0.1509  0.2735  0.1136
   19TMC2    C8  305   0.270   1.970  14.362 -0.4089 -0.4070 -0.1083
   19TMC2    O1  306   0.190   1.493  14.057  0.0778  0.3536 -0.2920
   19TMC2    O2  307   0.362   1.945  14.440  0.2767  0.4351  0.5103
   19TMC2    O5  308   0.141   1.988  14.391  0.1969  0.1752  0.2595
   19TMC2    H5  309   0.087   2.006  14.311 -0.6342  0.2434  0.8356
   20MPD2     C  310   0.849   1.670  13.987  0.1043  0.1230  0.4176
   20MPD2    C1  311   0.744   1.585  14.027  0.3389 -0.4308  0.2405
   20MPD2    C2  312   0.755   1.446  14.001  0.1114 -0.2560  0.2594
   20MPD2    C3  313   0.873   1.391  13.964  0.2725 -0.1599 -0.3502
   20MPD2    C4  314   0.989   1.475  13.931 -0.3567  0.6642  0.5139
   20MPD2    C5  315   0.965   1.611  13.943  0.0392 -0.1831 -1.0518
   20MPD2     H  316   0.668   1.383  14.016 -0.1566  0.3280  1.1288
   20MPD2    H1  317   1.086   1.438  13.902 -0.3275  0.8075  0.4277
   20MPD2    H2  318   0.843   1.778  13.982  2.3716  0.4382  4.4632
   20MPD2    H3  319   1.047   1.676  13.913  0.6690 -0.8672 -0.7953
   20MPD2     N  320   0.905   1.252  13.959  0.4694  0.2391  0.4309
   20MPD2    H5  321   0.995   1.223  13.922  0.6618  1.6095 -0.1539
   20MPD2    N1  322   0.625   1.640  14.077 -0.0010 -0.0663  0.8223
   20MPD2    H7  323   0.543   1.581  14.087  1.3744 -2.1949 -0.5102
   21TMC2    C1  324   3.066   2.023  14.995 -0.7860  0.3265 -0.3900
   21TMC2    C2  325   3.012   2.136  15.048 -0.2362  0.3157  0.0633
   21TMC2    C3  326   2.882   2.161  15.022  0.0207 -0.5745  0.4937
   21TMC2    C4  327   2.998   1.933  14.916 -0.1252  0.2285 -0.4835
   21TMC2    C5  328   2.872   1.964  14.888 -0.2809  0.8227 -0.8230
   21TMC2    C6  329   2.812   2.081  14.928 -0.0428 -0.3213 -0.4474
   21TMC2     C  330   3.207   1.997  15.028  0.1732 -0.3758  0.4097
   21TMC2     O  331   3.264   1.912  14.965 -0.5336  0.5581 -0.9363
   21TMC2     H  332   3.083   2.200  15.098 -2.5567  0.1719  3.6104
   21TMC2    H1  333   3.045   1.841  14.886 -1.6408 -1.1834  1.4519
   21TMC2    H2  334   2.705   2.088  14.916 -0.1320 -3.0871 -1.1905
   21TMC2    C7  335   2.822   1.918  14.766  0.3274 -0.4254  0.3692
   21TMC2    C8  336   2.820   2.290  15.064  0.7548 -0.1583 -0.0774
   21TMC2    O1  337   2.844   1.803  14.727  0.0582  0.4966 -0.3428
   21TMC2    O2  338   2.721   2.346  15.021  0.2518 -0.1555  0.4719
   21TMC2    O5  339   2.885   2.328  15.170 -0.3224  0.0877  0.1006
   21TMC2    H5  340   2.919   2.258  15.229  1.7583  0.5929 -0.4958
   22MPD2     C  341   3.589   1.959  15.359 -0.4896 -0.5810 -0.1402
   22MPD2    C1  342   3.580   1.912  15.231  0.7232  0.3245 -0.0471
   22MPD2    C2  343   3.457   1.931  15.171 -0.0724  1.0767 -0.2344
   22MPD2    C3  344   3.360   2.021  15.217 -0.5321  0.3496  0.2506
   22MPD2    C4  345   3.379   2.056  15.343  0.4209 -0.3696  0.0314
   22MPD2    C5  346   3.492   2.032  15.410 -0.4704  0.5234 -0.0496
   22MPD2     H  347   3.445   1.887  15.073 -3.3706  1.0127  0.2197
   22MPD2    H1  348   3.299   2.116  15.386 -1.8140 -2.7677 -0.7701
   22MPD2    H2  349   3.676   1.952  15.423 -0.8237  2.0996  0.6243
   22MPD2    H3  350   3.513   2.072  15.508  0.6775  0.7641 -0.3965
   22MPD2     N  351   3.241   2.045  15.156  0.4736  0.0319  0.5813
   22MPD2    H5  352   3.168   2.096  15.205 -1.3311 -2.1011  0.1360
   22MPD2    N1  353   3.691   1.844  15.167 -0.0957 -0.2989  0.1619
   22MPD2    H7  354   3.679   1.816  15.070 -2.6440  1.6897 -0.1132
   23TMC2    C1  355   4.385   3.349  15.035 -0.1230 -0.5455  0.3960
   23TMC2    C2  356   4.370   3.461  14.968 -0.1750  0.0943 -0.2342
   23TMC2    C3  357   4.276   3.467  14.869  0.2649  0.3963  0.8824
   23TMC2    C4  358   4.297   3.242  15.017  0.4598  0.7205  0.4383
   23TMC2    C5  359   4.209   3.246  14.913  0.3470 -0.0648  0.3178
   23TMC2    C6  360   4.201   3.359  14.835  0.5929 -0.0918 -0.1702
   23TMC2     C  361   4.484   3.335  15.141 -0.0474 -0.5847 -0.5871
   23TMC2     O  362   4.446   3.251  15.223  0.1726 -0.1969 -0.2010
   23TMC2     H  363   4.434   3.547  14.984  0.1593  0.1582 -1.8895
   23TMC2    H1  364   4.320   3.148  15.067  0.7286 -0.1676 -1.3416
   23TMC2    H2  365   4.147   3.360  14.741  0.3572 -2.5796 -0.0803
   23TMC2    C7  366   4.139   3.126  14.864  0.0838  0.2443  0.3978
   23TMC2    C8  367   4.240   3.598  14.831 -0.0369 -0.4614  0.8126
   23TMC2    O1  368   4.180   3.025  14.911 -0.1385  0.1116  0.7276
   23TMC2    O2  369   4.297   3.701  14.852  0.3033  0.1974 -0.9983
   23TMC2    O5  370   4.108   3.599  14.806 -0.1398  0.3223  0.6815
   23TMC2    H5  371   4.067   3.510  14.818 -1.8501  0.8972 -0.9161
   24MPD2     C  372   0.216   3.342  15.342 -0.0778  0.2434 -0.5793
   24MPD2    C1  373   0.108   3.262  15.369  0.4406 -0.2065 -0.1643
   24MPD2    C2  374   4.723   3.277  15.304 -0.2385  0.7118 -0.4272
   24MPD2    C3  375   4.718   3.382  15.206 -0.6219  0.2266 -0.4877
   24MPD2    C4  376   0.089   3.460  15.185  0.7566 -0.3632 -0.4827
   24MPD2    C5  377   0.202   3.440  15.247  0.0192  0.4494 -0.0056
   24MPD2     H  378   4.634   3.221  15.329 -0.8797  1.6045 -0.7004
   24MPD2    H1  379   0.090   3.531  15.103  1.3464 -1.5394 -1.5031
   24MPD2    H2  380   0.314   3.328  15.387  0.9576  1.5129 -2.4240
   24MPD2    H3  381   0.287   3.502  15.221  0.3403  0.3246  0.7541
   24MPD2     N  382   4.603   3.399  15.120 -0.3646  0.0816 -0.6518
   24MPD2    H5  383   4.611   3.472  15.049  0.5817 -0.6457 -1.3044
   24MPD2    N1  384   0.116   3.145  15.447 -0.5531 -0.5832 -0.3370
   24MPD2    H7  385   0.029   3.094  15.461 -0.3328 -0.7259  0.4808
   25TMC2    C1  386   3.608   0.644  11.487 -0.1779 -0.6349 -0.5673
   25TMC2    C2  387   3.739   0.631  11.523 -0.2670  0.1131  1.2281
   25TMC2    C3  388   3.778   0.589  11.647 -0.0749  0.9450 -0.3302
   25TMC2    C4  389   3.512   0.637  11.588  0.2970  0.3721  0.1279
   25TMC2    C5  390   3.554   0.603  11.716  0.1471 -0.4747 -0.0874
   25TMC2    C6  391   3.683   0.581  11.753 -0.4005 -0.5148  0.0398
   25TMC2     C  392   3.577   0.693  11.358  0.5364 -0.0401 -0.5079
   25TMC2     O  393   3.653   0.771  11.302  0.1513 -0.4827 -0.0139
   25TMC2     H  394   3.814   0.651  11.447 -0.6938 -1.0547  0.4965
   25TMC2    H1  395   3.408   0.637  11.556  0.7443  2.1390 -1.3890
   25TMC2    H2  396   3.707   0.541  11.851  0.3060 -1.4095 -0.5096
   25TMC2    C7  397   3.456   0.630  11.820  0.0170  0.2273  0.3602
   25TMC2    C8  398   3.917   0.607  11.687 -0.4193 -0.2163  0.0214
   25TMC2    O1  399   3.425   0.535  11.892 -0.0593 -0.1261 -0.1054
   25TMC2    O2  400   3.951   0.706  11.748  0.1586  0.1266  0.3430
   25TMC2    O5  401   3.984   0.551  11.586  0.1479  0.6481 -0.1184
   25TMC2    H5  402   3.937   0.486  11.529 -1.6339  2.3791 -0.6815
   26MPD2     C  403   3.303   0.697  10.909  0.5337  0.0687  0.2111
   26MPD2    C1  404   3.249   0.602  10.995 -0.3682 -0.0964 -0.8325
   26MPD2    C2  405   3.303   0.594  11.125 -0.7045  0.1113  0.5420
   26MPD2    C3  406   3.408   0.670  11.171 -0.4146  0.3691  0.4006
   26MPD2    C4  407   3.460   0.761  11.083  1.1751  0.1456  0.0436
   26MPD2    C5  408   3.409   0.767  10.951  0.0997 -0.8109  0.1066
   26MPD2     H  409   3.267   0.526  11.201 -0.0049 -0.4930  0.3290
   26MPD2    H1  410   3.555   0.810  11.102  1.3045  0.4967 -1.5098
   26MPD2    H2  411   3.276   0.712  10.805  2.0535 -0.5789 -0.2766
   26MPD2    H3  412   3.450   0.846  10.891 -1.0016  0.7672  1.4159
   26MPD2     N  413   3.461   0.641  11.301  0.0317  0.5385  0.1978
   26MPD2    H5  414   3.408   0.570  11.351 -0.8202  0.1810 -1.1962
   26MPD2    N1  415   3.136   0.539  10.953 -0.6543  0.4046  0.2358
   26MPD2    H7  416   3.113   0.549  10.854  0.1779 -1.5409 -0.1525
   27TMC2    C1  417   2.295   2.830  12.172 -0.4726  0.3672  1.1283
   27TMC2    C2  418   2.212   2.932  12.177  0.1582  0.0051  0.9345
   27TMC2    C3  419   2.248   3.053  12.219  0.0337  0.6997  0.0786
   27TMC2    C4  420   2.407   2.839  12.252  0.0781 -0.1794  0.0342
   27TMC2    C5  421   2.437   2.954  12.319 -0.1458 -0.1645  0.0274
   27TMC2    C6  422   2.355   3.067  12.295  0.1125 -0.4651 -0.3222
   27TMC2     C  423   2.236   2.698  12.176 -0.2570 -0.1761 -0.2070
   27TMC2     O  424   2.302   2.593  12.175  0.4953  0.0477  0.3016
   27TMC2     H  425   2.122   2.926  12.117  2.3790  0.1875 -2.4673
   27TMC2    H1  426   2.464   2.749  12.270 -1.3007 -1.0460  0.0597
   27TMC2    H2  427   2.385   3.168  12.320 -1.3449  0.0713 -0.7691
   27TMC2    C7  428   2.439   2.931  12.461 -0.3447  0.7369  0.3042
   27TMC2    C8  429   2.166   3.169  12.193 -0.4481 -0.3768 -0.1847
   27TMC2    O1  430   2.444   2.817  12.506  0.1275 -0.0771 -0.1314
   27TMC2    O2  431   2.055   3.189  12.245  0.3283  0.1010 -0.0784
   27TMC2    O5  432   2.238   3.267  12.132  0.3782 -0.5908  0.1187
   27TMC2    H5  433   2.325   3.229  12.107  0.7732 -0.9127  2.0194
   28MPD2     C  434   1.831   2.394  12.314  0.0931  0.1669 -0.3926
   28MPD2    C1  435   1.796   2.530  12.323 -0.1811 -0.0338  0.5272
   28MPD2    C2  436   1.891   2.623  12.301  0.0335  1.0949 -0.4237
   28MPD2    C3  437   2.013   2.597  12.248 -0.3457  0.4449  0.4536
   28MPD2    C4  438   2.043   2.469  12.212 -0.0981  0.2849 -1.0404
   28MPD2    C5  439   1.955   2.369  12.252 -0.2700  0.3372  0.2624
   28MPD2     H  440   1.871   2.729  12.312 -0.9163  0.9675 -0.9350
   28MPD2    H1  441   2.147   2.448  12.188 -0.8002 -0.1942 -3.6370
   28MPD2    H2  442   1.760   2.320  12.348  1.0884  0.9477  3.3100
   28MPD2    H3  443   1.987   2.266  12.245  0.0350  0.5792 -2.0669
   28MPD2     N  444   2.106   2.702  12.227 -0.2361  0.3329 -0.9028
   28MPD2    H5  445   2.078   2.796  12.254 -1.1327  0.6983 -3.1199
   28MPD2    N1  446   1.673   2.559  12.385  0.3867  0.2110 -0.3858
   28MPD2    H7  447   1.614   2.482  12.414 -0.5332  0.8483 -0.5460
   29TMC2    C1  448   2.032   0.300  14.460 -0.1041  0.3244 -0.1259
   29TMC2    C2  449   2.004   0.317  14.590 -0.6203 -0.5726 -0.2444
   29TMC2    C3  450   2.072   0.416  14.655 -0.8136 -0.0107  0.8340
   29TMC2    C4  451   2.119   0.371  14.383  0.7851  0.0641  0.1987
   29TMC2    C5  452   2.183   0.473  14.450  0.0627  0.3581  0.2521
   29TMC2    C6  453   2.164   0.489  14.585  0.0256  0.1750 -0.6271
   29TMC2     C  454   1.951   0.207  14.390  0.4832 -0.0155  0.9519
   29TMC2     O  455   2.008   0.124  14.315 -0.0498 -0.1451 -0.2486
   29TMC2     H  456   1.956   0.236  14.642 -1.8694 -0.1212 -0.7134
   29TMC2    H1  457   2.130   0.352  14.277  0.1003 -0.1519  0.1689
   29TMC2    H2  458   2.183   0.585  14.632  1.1328  0.0369 -0.7944
   29TMC2    C7  459   2.239   0.580  14.366  0.3000 -0.1844 -0.0239
   29TMC2    C8  460   2.088   0.401  14.800 -0.5961  0.9887 -0.0423
   29TMC2    O1  461   2.220   0.575  14.245 -0.8890  0.0999  0.1735
   29TMC2    O2  462   2.192   0.424  14.860 -0.2707 -0.0852 -0.3874
   29TMC2    O5  463   1.972   0.402  14.859 -0.2495 -0.8176  0.0264
   29TMC2    H5  464   1.895   0.371  14.805 -0.9347 -0.3796  0.7654
   30MPD2     C  465   1.497   0.030  14.252  0.1246  0.8130  0.2605
   30MPD2    C1  466   1.616   4.695  14.259 -0.2489 -0.5559  0.4081
   30MPD2    C2  467   1.726   0.024  14.313 -0.2947  0.2226 -0.5303
   30MPD2    C3  468   1.712   0.161  14.353  0.3520  0.7677  0.8504
   30MPD2    C4  469   1.588   0.217  14.361  0.3644 -0.9259 -0.4801
   30MPD2    C5  470   1.479   0.158  14.303  0.0799 -0.2733  0.0412
   30MPD2     H  471   1.823   4.711  14.318 -0.6981 -0.4450  0.7616
   30MPD2    H1  472   1.576   0.312  14.413  0.8034 -1.7648  1.1579
   30MPD2    H2  473   1.410   4.717  14.209  0.9327 -0.3102 -0.0738
   30MPD2    H3  474   1.385   0.212  14.302 -0.0249 -0.4707 -0.6274
   30MPD2     N  475   1.819   0.237  14.401 -0.0016 -0.2523  0.6280
   30MPD2    H5  476   1.787   0.327  14.438 -1.1010  0.2578 -1.5327
   30MPD2    N1  477   1.629   4.556  14.221  0.5928 -0.0952 -0.6121
   30MPD2    H7  478   1.723   4.517  14.229  1.4794  2.1479 -0.2281
   31TMC2    C1  479   4.112   3.595  15.531  0.3603 -0.1070  0.2696
   31TMC2    C2  480   3.990   3.637  15.572  0.1032  0.1199 -0.0396
   31TMC2    C3  481   3.945   3.607  15.696  0.2944  0.1203 -0.2267
   31TMC2    C4  482   4.195   3.519  15.625  0.0096 -0.0649  0.1787
   31TMC2    C5  483   4.136   3.502  15.752  0.2611 -0.1110  0.4215
   31TMC2    C6  484   4.014   3.542  15.790  0.1208  0.6404  0.6294
   31TMC2     C  485   4.175   3.674  15.424 -1.0174  0.4641  0.1806
   31TMC2     O  486   4.107   3.760  15.374  0.5631 -0.3866  0.0756
   31TMC2     H  487   3.942   3.715  15.514  1.8164  1.8033  0.8121
   31TMC2    H1  488   4.289   3.466  15.611 -0.1899  0.0261 -1.4361
   31TMC2    H2  489   3.967   3.518  15.885  0.6026  2.3840  1.3089
   31TMC2    C7  490   4.208   3.420  15.847 -0.4634  0.4636  0.6650
   31TMC2    C8  491   3.812   3.643  15.736 -0.5363 -0.0542  0.2720
   31TMC2    O1  492   4.267   3.319  15.808 -0.0377  0.0645  0.2251
   31TMC2    O2  493   3.776   3.661  15.850  0.3402 -0.2676  0.7500
   31TMC2    O5  494   3.739   3.672  15.626 -0.4573  0.5247 -0.2342
   31TMC2    H5  495   3.771   3.643  15.538 -0.3283 -1.1469  0.3616
   32MPD2     C  496   4.578   3.858  15.158  0.0987  0.0948 -0.3464
   32MPD2    C1  497   4.445   3.890  15.149  0.3199  0.0783  0.3277
   32MPD2    C2  498   4.353   3.821  15.221 -0.1169 -0.5451 -0.0469
   32MPD2    C3  499   4.386   3.714  15.310  0.0801  0.3021 -0.9232
   32MPD2    C4  500   4.520   3.680  15.320 -0.2745 -1.0748  0.5268
   32MPD2    C5  501   4.608   3.746  15.231 -0.4632 -0.2314  0.0309
   32MPD2     H  502   4.249   3.854  15.227  0.2344  0.5497 -0.0115
   32MPD2    H1  503   4.562   3.609  15.391  2.2302  0.1909  0.3179
   32MPD2    H2  504   4.650   3.904  15.093  0.0654  1.0195  0.2710
   32MPD2    H3  505   4.709   3.705  15.229 -0.0465  0.8756 -1.1977
   32MPD2     N  506   4.309   3.649  15.411  0.3141  0.2811 -0.6066
   32MPD2    H5  507   4.351   3.576  15.468 -3.2684 -2.1938 -1.1476
   32MPD2    N1  508   4.406   3.991  15.061 -0.4948 -0.1912 -0.9419
   32MPD2    H7  509   4.480   4.031  15.005  0.3126 -1.0309 -0.4621
   33TMC2    C1  510   4.387   1.512  10.086 -0.0870 -0.0302 -0.9145
   33TMC2    C2  511   4.372   1.373  10.066  0.3244  0.1672 -0.3545
   33TMC2    C3  512   4.294   1.331   9.969  0.4328  0.2803 -0.2491
   33TMC2    C4  513   4.318   1.602  10.010  0.6045 -0.6868 -0.0175
   33TMC2    C5  514   4.238   1.552   9.912  0.3478  0.1206 -0.3207
   33TMC2    C6  515   4.237   1.418   9.884 -0.1798 -0.1358 -0.5083
   33TMC2     C  516   4.437   1.561  10.212  0.9093  0.3583 -0.3882
   33TMC2     O  517   4.465   1.473  10.292 -0.5796  0.7414 -0.3026
   33TMC2     H  518   4.437   1.310  10.125 -1.0977 -3.0741 -2.2426
   33TMC2    H1  519   4.321   1.708  10.036 -0.6154 -0.5803 -0.3226
   33TMC2    H2  520   4.181   1.381   9.799  0.3733 -0.3538 -0.7820
   33TMC2    C7  521   4.211   1.626   9.794  0.6626  0.2462 -0.0180
   33TMC2    C8  522   4.242   1.190   9.957 -0.0895 -0.0178  0.2177
   33TMC2    O1  523   4.123   1.593   9.718 -0.1400  0.4773  0.1914
   33TMC2    O2  524   4.171   1.163   9.861 -0.1507  0.4335 -0.2656
   33TMC2    O5  525   4.219   1.139  10.075  0.1489 -0.3338  0.3615
   33TMC2    H5  526   4.270   1.188  10.144 -1.5611  2.9907 -0.7256
   34MPD2     C  527   4.319   1.863  10.608  0.7611 -0.1199 -0.4893
   34MPD2    C1  528   4.336   1.730  10.605 -0.8581  0.3278 -0.2662
   34MPD2    C2  529   4.369   1.670  10.480  0.5177 -0.5846 -0.5189
   34MPD2    C3  530   4.384   1.744  10.366 -0.9398  0.0362  0.3726
   34MPD2    C4  531   4.356   1.881  10.375 -0.2765  0.4024 -0.3009
   34MPD2    C5  532   4.327   1.941  10.497  0.3481 -0.0279  0.1540
   34MPD2     H  533   4.382   1.562  10.479 -0.3827 -0.6729 -2.2741
   34MPD2    H1  534   4.347   1.941  10.285  2.1489  0.9776 -0.1539
   34MPD2    H2  535   4.286   1.917  10.695 -0.0447 -0.4994 -0.5552
   34MPD2    H3  536   4.304   2.047  10.501 -0.0043 -0.0665 -0.9525
   34MPD2     N  537   4.419   1.692  10.241  0.1968 -0.1267 -0.6130
   34MPD2    H5  538   4.405   1.759  10.167  0.9621  0.6447 -0.0603
   34MPD2    N1  539   4.334   1.644  10.721 -0.4988 -0.0091 -0.2733
   34MPD2    H7  540   4.364   1.551  10.694 -0.4004  0.0087 -0.2278
   35TMC2    C1  541   0.388   2.600  11.230  0.1557  0.2283 -0.5029
   35TMC2    C2  542   0.363   2.566  11.102  0.8229  0.0915 -0.2815
   35TMC2    C3  543   0.249   2.495  11.081  0.1832 -0.6203 -0.0863
   35TMC2    C4  544   0.303   2.590  11.331  0.2711 -0.4171 -0.3668
   35TMC2    C5  545   0.179   2.538  11.302  0.3375  0.2172  0.0164
   35TMC2    C6  546   0.151   2.475  11.182  0.1789  0.2880 -0.1559
   35TMC2     C  547   0.493   2.700  11.248 -0.3596 -0.4234  0.0190
   35TMC2     O  548   0.527   2.758  11.147  0.8194 -0.5296 -0.3038
   35TMC2     H  549   0.441   2.580  11.027  0.6793 -2.6051 -0.9114
   35TMC2    H1  550   0.323   2.617  11.434  0.9890 -0.0291 -0.6068
   35TMC2    H2  551   0.064   2.411  11.171  0.8155 -0.6427  0.2194
   35TMC2    C7  552   0.091   2.511  11.419  0.0449 -0.3002  0.0832
   35TMC2    C8  553   0.216   2.441  10.953  0.8072  0.0194  0.3143
   35TMC2    O1  554   0.137   2.491  11.528 -0.0984 -0.2446  0.2070
   35TMC2    O2  555   0.297   2.434  10.867  0.1760 -0.3588  0.3246
   35TMC2    O5  556   0.080   2.457  10.939  0.3783  0.3217  0.3047
   35TMC2    H5  557   0.023   2.488  11.012 -0.1687  0.0765 -0.0124
   36MPD2     C  558   0.846   2.978  11.498  0.3948  0.0848  0.5524
   36MPD2    C1  559   0.811   2.872  11.573 -0.2892 -0.7074  0.2461
   36MPD2    C2  560   0.712   2.792  11.520 -0.3517  0.2727  0.0169
   36MPD2    C3  561   0.654   2.811  11.401 -0.7401  0.1770  0.0577
   36MPD2    C4  562   0.694   2.919  11.322 -0.3379 -0.4353  0.3919
   36MPD2    C5  563   0.792   2.998  11.374  0.2117 -0.2493  0.1172
   36MPD2     H  564   0.681   2.706  11.578  1.1686  0.0986  0.5762
   36MPD2    H1  565   0.641   2.951  11.234 -0.9086 -1.8399  0.2294
   36MPD2    H2  566   0.932   3.031  11.537 -0.1788  0.3134  1.4806
   36MPD2    H3  567   0.822   3.084  11.316 -1.2693  0.3788  0.2733
   36MPD2     N  568   0.551   2.713  11.372  0.1749 -0.1432 -0.3229
   36MPD2    H5  569   0.529   2.642  11.441 -0.9552  0.9531  0.4355
   36MPD2    N1  570   0.875   2.852  11.695  0.3659 -0.2739  0.0020
   36MPD2    H7  571   0.932   2.928  11.732 -0.1118 -0.5322  1.2860
   37TMC2    C1  572   2.858   3.156  12.206 -0.1609  0.1993 -0.4848
   37TMC2    C2  573   2.737   3.147  12.144 -0.0205  0.2320 -0.1496
   37TMC2    C3  574   2.731   3.181  12.014  0.3043  0.0760  0.5554
   37TMC2    C4  575   2.972   3.190  12.140  0.6903  0.1305 -0.5378
   37TMC2    C5  576   2.963   3.216  12.010  0.1054 -0.0433  0.1610
   37TMC2    C6  577   2.842   3.231  11.947  0.1861 -0.3908  0.0262
   37TMC2     C  578   2.862   3.112  12.344  0.3373 -0.0873  0.6814
   37TMC2     O  579   2.754   3.104  12.396  0.0031  0.2779  0.4216
   37TMC2     H  580   2.648   3.130  12.203 -0.1535 -0.5731 -0.5843
   37TMC2    H1  581   3.067   3.195  12.193  1.5800  0.7322 -2.1987
   37TMC2    H2  582   2.836   3.285  11.853  1.7124 -0.1330  0.0744
   37TMC2    C7  583   3.089   3.244  11.938  0.2363 -0.1642  0.6381
   37TMC2    C8  584   2.598   3.224  11.966 -0.1721 -0.2479  0.0808
   37TMC2    O1  585   3.184   3.244  12.014 -0.0426  0.2174  0.2246
   37TMC2    O2  586   2.500   3.218  12.046 -0.4358  0.4842 -0.7596
   37TMC2    O5  587   2.597   3.248  11.833 -0.1655  0.4382  0.4889
   37TMC2    H5  588   2.679   3.240  11.781  1.2067  3.8259  2.1549
   38MPD2     C  589   3.079   3.049  12.818 -0.4657  0.8161 -0.1961
   38MPD2    C1  590   3.171   3.027  12.718  0.1377  0.6200  0.2460
   38MPD2    C2  591   3.138   3.026  12.585  0.3752 -0.4050  0.6382
   38MPD2    C3  592   3.010   3.055  12.539 -0.4838  0.1378  0.9031
   38MPD2    C4  593   2.918   3.073  12.648 -0.6286  0.2751 -0.8079
   38MPD2    C5  594   2.948   3.059  12.778 -0.4176  0.1202  0.1858
   38MPD2     H  595   3.217   3.019  12.512  1.2022  0.6484  1.4319
   38MPD2    H1  596   2.814   3.087  12.622 -0.3722 -0.4337 -2.2061
   38MPD2    H2  597   3.112   3.074  12.918  0.6166 -1.3617 -0.0003
   38MPD2    H3  598   2.863   3.086  12.840  0.4116 -2.5436  2.4806
   38MPD2     N  599   2.978   3.077  12.401  0.3354  0.6033  0.4853
   38MPD2    H5  600   3.052   3.074  12.332  0.2738  1.4997  0.3853
   38MPD2    N1  601   3.306   3.005  12.743  0.5597  0.0268  0.0515
   38MPD2    H7  602   3.360   2.989  12.659  0.4074  2.0771 -0.4489
   39TMC2    C1  603   0.934   4.558   1.597 -0.7711  0.1809  0.1816
   39TMC2    C2  604   0.920   4.453   1.681 -0.5143  0.3163  0.1773
   39TMC2    C3  605   1.015   4.443   1.779  0.1605 -0.0962 -0.8905
   39TMC2    C4  606   1.042   4.646   1.600 -0.1720  0.6567 -0.5482
   39TMC2    C5  607   1.147   4.618   1.685 -0.2855 -0.3787  0.7455
   39TMC2    C6  608   1.133   4.511   1.771 -0.5877 -0.2370 -0.6225
   39TMC2     C  609   0.841   4.578   1.485  0.4628  0.2033 -0.3055
   39TMC2     O  610   0.818   4.694   1.447  0.0379  0.6117 -0.3713
   39TMC2     H  611   0.828   4.395   1.680  0.8211 -1.8435  1.2030
   39TMC2    H1  612   1.046   4.711   1.514  0.4584 -1.4645 -2.1033
   39TMC2    H2  613   1.219   4.510   1.836 -1.8787 -1.8804  1.0769
   39TMC2    C7  614   1.277   4.667   1.647  0.8295 -0.0908  0.4378
   39TMC2    C8  615   0.990   4.343   1.875 -0.5851  0.2098  0.1173
   39TMC2    O1  616   1.368   4.589   1.680 -0.2713  0.2913  0.4929
   39TMC2    O2  617   0.910   4.251   1.854  0.0232  0.8966  0.0692
   39TMC2    O5  618   1.025   4.381   1.994 -0.0435 -0.4607 -0.5375
   39TMC2    H5  619   1.089   4.455   2.001 -0.1256 -0.2111 -2.4113
   40MPD2     C  620   0.626   4.312   1.347 -0.3756  0.3290 -0.0958
   40MPD2    C1  621   0.681   4.443   1.356  0.0426  0.0462 -0.5478
   40MPD2    C2  622   0.624   4.545   1.283  0.4322 -0.2689  0.3806
   40MPD2    C3  623   0.514   4.523   1.199 -0.3738  0.0753 -0.9583
   40MPD2    C4  624   0.474   4.398   1.191 -0.5770  0.3093  0.5702
   40MPD2    C5  625   0.523   4.290   1.263 -0.2772  1.0375 -0.5078
   40MPD2     H  626   0.674   4.641   1.289  0.3808 -0.0674 -2.5225
   40MPD2    H1  627   0.400   4.372   1.116 -0.7552 -0.0532  0.8666
   40MPD2    H2  628   0.671   4.224   1.391  1.0752  0.7762 -0.6780
   40MPD2    H3  629   0.496   4.192   1.227 -1.7442  0.3316  2.4762
   40MPD2     N  630   0.454   4.626   1.113 -0.6865 -0.1932  0.1387
   40MPD2    H5  631   0.388   4.585   1.048  0.1848 -0.4192 -0.6028
   40MPD2    N1  632   0.794   4.460   1.443 -1.2212 -0.0938  0.1178
   40MPD2    H7  633   0.838   4.374   1.477 -0.7155 -0.2471 -0.9342
   41TMC2    C1  634   4.667   3.223  13.769 -0.2969  0.1292 -1.1471
   41TMC2    C2  635   0.044   3.290  13.798  0.4721  0.1208  0.5199
   41TMC2    C3  636   0.084   3.378  13.703 -0.1743  0.3466 -0.0230
   41TMC2    C4  637   4.609   3.232  13.653  0.6467  0.3121  0.1324
   41TMC2    C5  638   4.657   3.313  13.554 -0.1835 -0.1992  0.5734
   41TMC2    C6  639   0.027   3.393  13.582  0.0762 -0.1992  0.1762
   41TMC2     C  640   4.609   3.124  13.858  0.2906 -0.1495 -0.0084
   41TMC2     O  641   4.538   3.036  13.807  0.3236 -0.5588 -0.4748
   41TMC2     H  642   0.097   3.282  13.891 -0.4853 -1.8525  0.9084
   41TMC2    H1  643   4.521   3.174  13.630  0.1399  1.3354 -0.5280
   41TMC2    H2  644   0.056   3.478  13.523 -0.1048 -0.9920 -1.0628
   41TMC2    C7  645   4.635   3.281  13.415  0.0880  0.5886  0.4526
   41TMC2    C8  646   0.227   3.398  13.697  0.1096 -0.1127 -0.1059
   41TMC2    O1  647   4.523   3.250  13.375 -0.4986 -0.0050  0.4662
   41TMC2    O2  648   0.308   3.378  13.788  0.3024 -0.0353  0.1121
   41TMC2    O5  649   0.254   3.384  13.571  0.5555  0.7160 -0.0450
   41TMC2    H5  650   0.325   3.447  13.545 -0.8068  0.3409 -4.6917
   42MPD2     C  651   4.555   2.929  14.082  0.1849 -0.3023 -0.5725
   42MPD2    C1  652   4.626   3.049  14.097 -0.0344  0.0172  0.2679
   42MPD2    C2  653   4.676   3.086  14.221 -0.5103 -0.3987 -0.3233
   42MPD2    C3  654   4.647   3.002  14.329  0.2274  0.0232  0.2170
   42MPD2    C4  655   4.573   2.886  14.316 -0.1232  0.4847  0.0462
   42MPD2    C5  656   4.531   2.849  14.194 -0.2059 -0.5684 -0.3841
   42MPD2     H  657   0.004   3.173  14.231 -1.1379 -0.0148  0.4014
   42MPD2    H1  658   4.550   2.833  14.408  0.5955 -0.7834 -0.5057
   42MPD2    H2  659   4.521   2.891  13.986  0.3913  3.4016 -2.1237
   42MPD2    H3  660   4.485   2.753  14.173 -2.9662  1.1471 -2.2537
   42MPD2     N  661   4.709   3.006  14.454  0.4862 -0.9716  0.3875
   42MPD2    H5  662   4.713   2.924  14.514  1.7609 -0.5544  0.8806
   42MPD2    N1  663   4.660   3.136  13.988  0.1444  0.2164  0.1453
   42MPD2    H7  664   4.720   3.213  14.013 -1.7924  1.5452  0.6116
   43TMC2    C1  665   1.330   1.685   1.201 -0.4436 -0.3244  0.3709
   43TMC2    C2  666   1.214   1.758   1.226 -0.0267  0.0428 -0.2440
   43TMC2    C3  667   1.218   1.856   1.323 -0.8435  0.3416 -0.1238
   43TMC2    C4  668   1.449   1.704   1.279  0.2261 -0.2384  0.4180
   43TMC2    C5  669   1.453   1.813   1.361 -0.2028 -0.8251 -0.1532
   43TMC2    C6  670   1.341   1.892   1.380 -0.3481 -0.7046  0.3261
   43TMC2     C  671   1.334   1.592   1.095  0.8080  0.3084 -1.1820
   43TMC2     O  672   1.421   1.509   1.083 -0.2764 -0.6993  0.0657
   43TMC2     H  673   1.113   1.740   1.190  0.3473 -2.5803 -0.0459
   43TMC2    H1  674   1.527   1.632   1.262  1.3411  1.7700 -3.0462
   43TMC2    H2  675   1.347   1.983   1.439  3.6063 -1.5005  1.1439
   43TMC2    C7  676   1.585   1.860   1.411 -0.3256  0.3318  0.1813
   43TMC2    C8  677   1.093   1.941   1.356  0.8461 -0.1345  0.1819
   43TMC2    O1  678   1.687   1.806   1.382  0.0368  0.2790 -0.6666
   43TMC2    O2  679   0.990   1.910   1.298  0.0148 -0.0933 -0.2610
   43TMC2    O5  680   1.097   1.996   1.482 -0.4919  0.2153 -0.2252
   43TMC2    H5  681   1.187   1.991   1.521  0.0638  0.1144 -1.5019
   44MPD2     C  682   1.136   1.442   0.640  0.4528 -0.3439 -0.0586
   44MPD2    C1  683   1.241   1.392   0.708  0.4706  0.2498  0.7452
   44MPD2    C2  684   1.279   1.448   0.830 -0.5591 -1.1669 -0.0184
   44MPD2    C3  685   1.208   1.562   0.878  0.6537  0.6978 -0.2090
   44MPD2    C4  686   1.119   1.622   0.799 -0.5754  0.2764 -0.1319
   44MPD2    C5  687   1.072   1.554   0.687 -0.5530  0.1155  0.2037
   44MPD2     H  688   1.355   1.403   0.893  0.3024 -0.8494 -0.8229
   44MPD2    H1  689   1.063   1.709   0.831  1.5264  1.9083 -0.9641
   44MPD2    H2  690   1.096   1.392   0.553  0.9108  0.2987 -0.6298
   44MPD2    H3  691   0.996   1.599   0.624  1.0593 -0.0054 -1.8195
   44MPD2     N  692   1.239   1.623   1.003 -0.0725 -0.0914  0.5183
   44MPD2    H5  693   1.190   1.709   1.024 -0.7202 -0.1693 -0.6651
   44MPD2    N1  694   1.308   1.272   0.669 -0.1320  0.7162 -0.5691
   44MPD2    H7  695   1.370   1.240   0.743 -0.0072 -0.1535 -1.0559
   45TMC2    C1  696   3.130   3.164   9.845  0.0320 -0.4354 -0.1237
   45TMC2    C2  697   3.245   3.099   9.821 -0.8641 -0.2748 -0.2176
   45TMC2    C3  698   3.355   3.177   9.797  0.2962  0.3213 -0.3292
   45TMC2    C4  699   3.116   3.301   9.833  0.1025 -0.0917  0.1457
   45TMC2    C5  700   3.224   3.375   9.791  0.1009 -0.1643  0.1732
   45TMC2    C6  701   3.344   3.312   9.772  0.1519  0.6029  0.4882
   45TMC2     C  702   3.015   3.076   9.864 -0.6014  0.3892 -0.9139
   45TMC2     O  703   3.028   2.956   9.876 -1.0064  0.8499 -0.0186
   45TMC2     H  704   3.260   3.000   9.861 -1.3996  0.4537  1.7718
   45TMC2    H1  705   3.026   3.361   9.846  0.3592  0.3566 -0.1308
   45TMC2    H2  706   3.430   3.374   9.752  1.6694 -1.7772 -0.4093
   45TMC2    C7  707   3.231   3.509   9.837 -0.2449  0.2733 -1.1800
   45TMC2    C8  708   3.486   3.111   9.816  0.0319  0.1144  0.8120
   45TMC2    O1  709   3.163   3.530   9.936  0.5803 -0.6661  0.1284
   45TMC2    O2  710   3.497   3.015   9.890  0.4005  0.0617 -0.0789
   45TMC2    O5  711   3.558   3.129   9.703  0.1555  0.5227  0.1870
   45TMC2    H5  712   3.538   3.202   9.641 -1.4605  0.6874  0.8973
   46MPD2     C  713   2.745   2.958   9.866  0.0706 -0.1091 -0.3525
   46MPD2    C1  714   2.772   3.090   9.849 -0.3854 -0.1236 -0.2223
   46MPD2    C2  715   2.660   3.163   9.824  0.6198  0.0293  0.8380
   46MPD2    C3  716   2.538   3.121   9.789  0.2606 -0.4141 -0.9782
   46MPD2    C4  717   2.518   2.983   9.807  0.2983  0.1870  0.2982
   46MPD2    C5  718   2.621   2.910   9.849  0.4324  0.0077 -0.0698
   46MPD2     H  719   2.680   3.270   9.818 -0.0678  0.1815  1.2407
   46MPD2    H1  720   2.426   2.931   9.783 -0.7534  0.5612  3.5363
   46MPD2    H2  721   2.818   2.879   9.878 -0.2811 -0.3593  0.1246
   46MPD2    H3  722   2.609   2.802   9.849 -1.8298  0.2658 -0.5437
   46MPD2     N  723   2.437   3.215   9.750 -0.3927 -0.4891 -0.4691
   46MPD2    H5  724   2.464   3.312   9.744 -0.6013 -0.3580  0.6706
   46MPD2    N1  725   2.900   3.150   9.856 -0.6147  0.4272  0.5249
   46MPD2    H7  726   2.909   3.251   9.860 -1.3464  0.4816  0.8277
   47TMC2    C1  727   4.531   4.097   9.081 -0.6356 -0.3677 -0.3074
   47TMC2    C2  728   4.552   4.011   8.973 -0.8912 -0.4541  0.4102
   47TMC2    C3  729   4.521   4.060   8.851  0.2514  1.0181  0.0791
   47TMC2    C4  730   4.480   4.230   9.059 -0.6320  0.0323 -0.3861
   47TMC2    C5  731   4.429   4.264   8.941 -0.0909  0.4961 -0.4721
   47TMC2    C6  732   4.457   4.181   8.832 -0.2537  0.2582 -0.3791
   47TMC2     C  733   4.558   4.052   9.220  0.4043  0.7018  0.0592
   47TMC2     O  734   4.536   4.132   9.311 -0.4425  0.3250 -0.0085
   47TMC2     H  735   4.600   3.916   8.992 -0.0093 -0.4390 -1.7123
   47TMC2    H1  736   4.484   4.304   9.138  0.5855 -1.2485  0.7469
   47TMC2    H2  737   4.418   4.211   8.735 -1.6833 -2.2812 -0.5966
   47TMC2    C7  738   4.353   4.388   8.929  0.2628 -0.4951 -0.3180
   47TMC2    C8  739   4.509   3.978   8.733 -0.1450  0.1249  0.4678
   47TMC2    O1  740   4.322   4.424   8.818  0.1624 -0.0477  0.5740
   47TMC2    O2  741   4.515   4.023   8.617 -0.5330  0.7895  0.2626
   47TMC2    O5  742   4.540   3.853   8.764 -0.1407 -0.1411 -0.0194
   47TMC2    H5  743   4.501   3.824   8.850 -1.1599  1.1831 -0.0371
   48MPD2     C  744   4.693   3.948   9.469 -0.2341 -0.1190 -0.3415
   48MPD2    C1  745   4.682   3.881   9.346  0.1635  0.2776  0.3035
   48MPD2    C2  746   4.732   3.749   9.340 -0.0797  0.0145 -0.3841
   48MPD2    C3  747   0.071   3.696   9.443 -0.8072 -0.1624  0.3110
   48MPD2    C4  748   0.076   3.757   9.562 -0.0385 -0.0890  0.1075
   48MPD2    C5  749   0.018   3.881   9.571  0.4286  0.2664  0.1949
   48MPD2     H  750   4.734   3.698   9.245 -0.6665 -2.5506  0.9729
   48MPD2    H1  751   0.127   3.718   9.649  0.7991 -1.6957 -1.1047
   48MPD2    H2  752   4.660   4.050   9.491  1.4258  0.4334 -0.4047
   48MPD2    H3  753   0.006   3.928   9.668  1.5252  2.1769 -0.5943
   48MPD2     N  754   0.136   3.571   9.416  0.2741  0.5295  0.7503
   48MPD2    H5  755   0.098   3.526   9.333 -2.0730  1.2065  1.4316
   48MPD2    N1  756   4.623   3.933   9.229 -0.0657 -0.3455 -0.7550
   48MPD2    H7  757   4.635   3.879   9.144  0.8365 -4.3988  1.9713
   49TMC2    C1  758   3.154   1.325   9.923 -0.7649 -0.9248 -0.1012
   49TMC2    C2  759   3.141   1.199   9.885 -0.2701 -0.4289  0.2004
   49TMC2    C3  760   3.016   1.157   9.851 -0.1609  0.5119 -0.4078
   49TMC2    C4  761   3.043   1.402   9.962 -0.6517  0.2049  0.7534
   49TMC2    C5  762   2.922   1.357   9.924 -0.2238 -0.8485  0.1581
   49TMC2    C6  763   2.899   1.229   9.875  0.0910  0.3731 -0.4153
   49TMC2     C  764   3.285   1.377   9.937  0.2405  0.1254 -0.1655
   49TMC2     O  765   3.371   1.356   9.849  0.3518  0.6202 -0.2803
   49TMC2     H  766   3.231   1.142   9.866 -2.0734 -3.4721  0.8484
   49TMC2    H1  767   3.068   1.505   9.985  1.9530 -0.3736  0.5644
   49TMC2    H2  768   2.814   1.202   9.813 -1.5707  2.1571  1.0763
   49TMC2    C7  769   2.811   1.439   9.965 -0.3168  0.0717 -0.3551
   49TMC2    C8  770   3.009   1.025   9.798  0.3222 -0.5893 -0.7814
   49TMC2    O1  771   2.837   1.552  10.003 -0.4874  0.3574  0.3775
   49TMC2    O2  772   3.098   0.976   9.731 -0.2763  0.2374  0.0923
   49TMC2    O5  773   2.898   0.960   9.840 -0.3754  0.0450  0.0616
   49TMC2    H5  774   2.844   1.017   9.899  3.0644  1.3642  1.9495
   50MPD2     C  775   3.524   1.512  10.031 -0.4670 -0.0692  0.7113
   50MPD2    C1  776   3.417   1.488  10.120 -1.2169  0.0945 -0.6066
   50MPD2    C2  777   3.421   1.525  10.254 -0.1302  0.4197 -0.3435
   50MPD2    C3  778   3.535   1.584  10.307  0.1979 -0.3449 -0.3102
   50MPD2    C4  779   3.642   1.595  10.222 -0.1528 -0.2406  0.2472
   50MPD2    C5  780   3.638   1.570  10.086  0.1639  0.4092  0.7274
   50MPD2     H  781   3.339   1.509  10.323  3.0870 -0.0170  3.4351
   50MPD2    H1  782   3.731   1.646  10.259 -0.9125 -0.0097  1.7577
   50MPD2    H2  783   3.523   1.504   9.923 -0.4935 -0.8554  0.7701
   50MPD2    H3  784   3.719   1.586  10.016  0.3836 -1.5771  0.5310
   50MPD2     N  785   3.560   1.622  10.441 -0.5000  0.1881  0.0991
   50MPD2    H5  786   3.638   1.685  10.456 -2.0613  2.2998 -0.6591
   50MPD2    N1  787   3.303   1.423  10.071 -0.0456  0.1985 -0.2493
   50MPD2    H7  788   3.226   1.402  10.134  0.1754 -0.8407 -0.3236
   51TMC2    C1  789   4.715   4.208   1.784 -0.4221  0.2116  0.8732
   51TMC2    C2  790   0.086   4.218   1.863  0.0418  0.6874 -0.2519
   51TMC2    C3  791   0.104   4.335   1.928 -0.4622  0.4637  0.0024
   51TMC2    C4  792   4.622   4.307   1.781  0.5500 -0.3514  0.2052
   51TMC2    C5  793   4.645   4.423   1.856 -0.1173  0.1982  0.3416
   51TMC2    C6  794   0.021   4.441   1.928  0.7337 -0.0174 -1.2779
   51TMC2     C  795   4.696   4.091   1.696 -0.0286 -0.5515 -0.3519
   51TMC2     O  796   4.589   4.074   1.638 -0.2421 -0.0058  0.5421
   51TMC2     H  797   0.171   4.151   1.860  0.1260  0.8833 -1.7890
   51TMC2    H1  798   4.545   4.305   1.704 -0.4535  0.3100  1.1887
   51TMC2    H2  799   0.041   4.534   1.980  0.9140 -0.1497 -1.1107
   51TMC2    C7  800   4.549   4.531   1.843  0.2480 -0.3767 -0.1452
   51TMC2    C8  801   0.233   4.353   1.984  0.2952  0.0907 -0.4595
   51TMC2    O1  802   4.587   4.638   1.880 -0.7985 -0.5505 -0.3657
   51TMC2    O2  803   0.341   4.325   1.936  0.0561 -0.3371  0.0327
   51TMC2    O5  804   0.220   4.444   2.080  0.1464  0.2327 -0.0190
   51TMC2    H5  805   0.135   4.430   2.127  0.4065  2.1690  1.0034
   52MPD2     C  806   0.086   3.682   1.399 -0.3227  0.1920  0.6235
   52MPD2    C1  807   4.700   3.741   1.425 -0.1992  0.0104 -1.1645
   52MPD2    C2  808   4.696   3.845   1.515  0.4093  0.1524  0.2703
   52MPD2    C3  809   0.064   3.881   1.598  0.0838  0.0541  0.5846
   52MPD2    C4  810   0.184   3.808   1.582 -0.2010  0.4680  0.5028
   52MPD2    C5  811   0.187   3.707   1.492  0.1686 -0.2570  0.0764
   52MPD2     H  812   4.607   3.906   1.509  0.3817  0.2991  2.2839
   52MPD2    H1  813   0.272   3.831   1.641  1.3411 -3.2074 -0.3215
   52MPD2    H2  814   0.100   3.609   1.321 -0.5092  0.4748  0.3249
   52MPD2    H3  815   0.285   3.670   1.462  0.2347 -0.8489  1.0272
   52MPD2     N  816   0.063   3.994   1.686  0.5689 -0.0482 -0.3299
   52MPD2    H5  817   0.141   4.003   1.750 -1.8805  0.2248  2.6287
   52MPD2    N1  818   4.591   3.715   1.347  0.2058 -0.3331  0.5707
   52MPD2    H7  819   4.505   3.769   1.355  0.0954 -0.7663  2.1496
   53TMC2    C1  820   3.767   3.196  11.752 -0.3510  0.1718 -0.2320
   53TMC2    C2  821   3.894   3.243  11.740  0.9894  0.9836 -0.2504
   53TMC2    C3  822   3.973   3.242  11.849  0.2705 -0.4538 -0.5363
   53TMC2    C4  823   3.718   3.148  11.869  0.1941  0.0384  0.2037
   53TMC2    C5  824   3.803   3.142  11.975 -0.3365  0.0178  0.0403
   53TMC2    C6  825   3.931   3.197  11.972  0.2965 -0.5822 -0.4774
   53TMC2     C  826   3.670   3.258  11.666 -0.3638  0.8447 -0.0709
   53TMC2     O  827   3.689   3.278  11.547  0.5659 -0.5639 -0.5483
   53TMC2     H  828   3.929   3.291  11.649 -1.0721  1.0781 -1.0045
   53TMC2    H1  829   3.622   3.098  11.876 -0.4626  0.9672 -2.1903
   53TMC2    H2  830   3.990   3.207  12.062  1.3760 -0.9512 -1.1418
   53TMC2    C7  831   3.719   3.180  12.084 -0.1176  0.7050  0.1274
   53TMC2    C8  832   4.103   3.279  11.823 -0.1233 -0.0775 -0.5556
   53TMC2    O1  833   3.604   3.211  12.049  0.2934  0.7828 -0.2967
   53TMC2    O2  834   4.132   3.344  11.723 -0.5849  0.0230 -0.3965
   53TMC2    O5  835   4.190   3.198  11.880 -0.2810 -0.0168 -0.7466
   53TMC2    H5  836   4.151   3.121  11.925 -1.3201  2.8498  3.2355
   54MPD2     C  837   3.406   3.357  11.565  0.3181 -0.1367 -0.0305
   54MPD2    C1  838   3.432   3.300  11.688 -0.4749 -0.5051 -0.2377
   54MPD2    C2  839   3.319   3.272  11.765  0.5705 -0.0392 -0.4031
   54MPD2    C3  840   3.192   3.298  11.721  0.0224  0.6569  0.0151
   54MPD2    C4  841   3.174   3.357  11.598 -0.0383  0.1271  0.8633
   54MPD2    C5  842   3.277   3.382  11.523 -0.4419  0.0075  0.0290
   54MPD2     H  843   3.345   3.224  11.859 -1.6250  0.7681  0.6151
   54MPD2    H1  844   3.075   3.391  11.570  0.0480 -1.3390 -1.2056
   54MPD2    H2  845   3.488   3.372  11.496  0.2930  1.0801  0.2050
   54MPD2    H3  846   3.261   3.428  11.427  0.5133  0.3452  0.0361
   54MPD2     N  847   3.078   3.267  11.804 -0.2616  0.2758  0.5186
   54MPD2    H5  848   2.990   3.275  11.755 -1.0312  1.9335  2.1655
   54MPD2    N1  849   3.554   3.259  11.736  0.0946 -0.4027 -0.1234
   54MPD2    H7  850   3.549   3.214  11.827 -0.2650 -0.9403 -0.4062
   55TMC2    C1  851   4.236   1.558   0.417  0.8366  0.2028 -0.6327
   55TMC2    C2  852   4.338   1.509   0.335 -0.1649 -0.4654 -0.4314
   55TMC2    C3  853   4.464   1.505   0.382  1.1981 -0.3596  0.5589
   55TMC2    C4  854   4.268   1.585   0.550 -0.0616  0.1133  0.6349
   55TMC2    C5  855   4.402   1.570   0.586  0.8701  0.6618  0.2610
   55TMC2    C6  856   4.499   1.537   0.501 -0.4213  0.0698 -0.1441
   55TMC2     C  857   4.118   1.627   0.372  0.0122 -0.1112 -0.8484
   55TMC2     O  858   4.035   1.659   0.455  0.2769  0.4438  0.4468
   55TMC2     H  859   4.316   1.483   0.232 -0.8432 -0.5963 -0.2562
   55TMC2    H1  860   4.183   1.619   0.607 -1.5907  0.2859 -1.7274
   55TMC2    H2  861   4.596   1.518   0.546 -0.0705 -1.7359 -1.6510
   55TMC2    C7  862   4.416   1.529   0.725 -0.1864 -0.2259  0.2237
   55TMC2    C8  863   4.574   1.439   0.311 -0.4521  0.0512  0.7026
   55TMC2    O1  864   4.492   1.436   0.746 -0.2506  0.2489  0.3783
   55TMC2    O2  865   4.663   1.386   0.379 -0.6331 -0.2760 -0.4481
   55TMC2    O5  866   4.595   1.518   0.198  0.0315  0.0138 -0.6992
   55TMC2    H5  867   4.512   1.555   0.161 -0.5237  0.3686  0.9434
   56MPD2     C  868   4.037   1.757   0.028 -0.1139 -0.4142 -0.4605
   56MPD2    C1  869   4.022   1.730   0.165 -0.2559 -0.0673  0.0157
   56MPD2    C2  870   3.919   1.797   0.235 -0.5317  0.1093 -0.4995
   56MPD2    C3  871   3.829   1.883   0.172  0.0982 -0.1466 -1.1135
   56MPD2    C4  872   3.833   1.898   0.034  0.5638  0.4224 -0.3008
   56MPD2    C5  873   3.938   1.834  17.708  0.2114  0.0654 -0.0862
   56MPD2     H  874   3.904   1.783   0.342  0.5576  0.7901 -0.2617
   56MPD2    H1  875   3.755   1.952  17.726 -1.6499 -0.6574  1.8796
   56MPD2    H2  876   4.129   1.723  17.725 -0.4928  0.1012 -1.5635
   56MPD2    H3  877   3.961   1.849  17.603 -0.9527  1.9976 -0.0639
   56MPD2     N  878   3.743   1.965   0.250 -1.2077  0.2610  0.2230
   56MPD2    H5  879   3.755   1.954   0.350  1.4477 -0.3021 -0.1528
   56MPD2    N1  880   4.121   1.663   0.234  0.3444 -0.2863  0.6177
   56MPD2    H7  881   4.199   1.629   0.178 -0.1594  0.6490 -0.6663
   57TMC2    C1  882   3.634   2.046  12.964 -0.0713 -0.2746 -0.0940
   57TMC2    C2  883   3.570   2.089  12.854 -0.1789  0.4550  0.1067
   57TMC2    C3  884   3.628   2.185  12.775  0.2717 -0.5768 -0.2702
   57TMC2    C4  885   3.754   2.108  13.002 -0.8087 -0.7200 -0.2461
   57TMC2    C5  886   3.811   2.194  12.919  0.6631 -0.0169 -0.9375
   57TMC2    C6  887   3.744   2.242  12.809  0.7144  0.1644  0.1325
   57TMC2     C  888   3.567   1.962  13.064 -0.0493 -0.3546 -0.0152
   57TMC2     O  889   3.617   1.975  13.174  0.5177  0.4794 -0.5332
   57TMC2     H  890   3.473   2.051  12.826 -1.3453  2.8012  0.8964
   57TMC2    H1  891   3.798   2.075  13.095 -0.4900  2.2986  0.6586
   57TMC2    H2  892   3.806   2.300  12.741 -0.9514 -0.6723 -2.0922
   57TMC2    C7  893   3.946   2.236  12.950 -0.2269 -0.4987  0.3901
   57TMC2    C8  894   3.559   2.208  12.653  0.3525 -0.7168  0.3106
   57TMC2    O1  895   3.997   2.336  12.895 -0.0626 -0.3042  0.3974
   57TMC2    O2  896   3.487   2.128  12.589  0.0266 -0.0632 -0.0854
   57TMC2    O5  897   3.604   2.321  12.602 -0.4048  0.4389  0.7161
   57TMC2    H5  898   3.623   2.391  12.668 -0.1803 -0.1174  1.2391
   58MPD2     C  899   3.198   1.671  13.275 -0.9084 -0.0455 -0.1218
   58MPD2    C1  900   3.269   1.773  13.317 -0.0020  0.3829  0.5227
   58MPD2    C2  901   3.355   1.844  13.234 -0.4466  0.5496 -0.2571
   58MPD2    C3  902   3.375   1.810  13.102 -0.8603 -0.0756  0.1094
   58MPD2    C4  903   3.308   1.697  13.054 -0.2609 -0.5366 -0.2539
   58MPD2    C5  904   3.223   1.632  13.143  0.4968 -0.7146  0.1837
   58MPD2     H  905   3.402   1.937  13.267 -0.0116  0.5850 -0.9728
   58MPD2    H1  906   3.315   1.668  12.950  1.6465 -0.3872 -0.1841
   58MPD2    H2  907   3.135   1.611  13.340  0.4221 -1.9850 -0.6335
   58MPD2    H3  908   3.172   1.542  13.111 -1.4199  0.2998  0.3922
   58MPD2     N  909   3.461   1.885  13.024 -0.4568 -0.1086  0.3256
   58MPD2    H5  910   3.471   1.845  12.931 -0.4806  1.5333 -0.3933
   58MPD2    N1  911   3.249   1.830  13.447  0.3207  0.0772 -0.0493
   58MPD2    H7  912   3.322   1.896  13.469 -1.1444  1.8175 -0.4508
   59TMC2    C1  913   1.270   2.014  12.819  0.0075 -0.1770 -0.3093
   59TMC2    C2  914   1.299   1.893  12.865 -0.2565 -0.0906  0.6580
   59TMC2    C3  915   1.326   1.803  12.767 -0.4668  0.2500  0.1553
   59TMC2    C4  916   1.271   2.055  12.686 -0.2214  0.0767 -0.4384
   59TMC2    C5  917   1.300   1.959  12.598 -0.2911  0.1200  0.7166
   59TMC2    C6  918   1.330   1.830  12.633  0.4095  0.1027  0.5192
   59TMC2     C  919   1.263   2.132  12.911 -0.5637 -0.2531 -0.1514
   59TMC2     O  920   1.250   2.243  12.863  0.4259 -0.7565 -0.1405
   59TMC2     H  921   1.267   1.858  12.963 -0.5083 -1.1751  0.1888
   59TMC2    H1  922   1.276   2.159  12.655  1.4284  0.1327 -0.0244
   59TMC2    H2  923   1.378   1.762  12.564  0.0263  0.7756 -0.4042
   59TMC2    C7  924   1.279   1.979  12.449 -0.3157  0.1763 -0.0618
   59TMC2    C8  925   1.318   1.662  12.792  0.1005 -0.3087  0.5889
   59TMC2    O1  926   1.310   1.885  12.377 -0.5046 -0.2851  0.2665
   59TMC2    O2  927   1.231   1.611  12.861  0.3229 -0.0923  0.0949
   59TMC2    O5  928   1.425   1.609  12.734 -0.7038 -0.2463  0.6775
   59TMC2    H5  929   1.496   1.673  12.713  0.7236 -1.7096  1.0724
   60MPD2     C  930   1.245   2.295  13.161  0.6853 -0.5643  0.4241
   60MPD2    C1  931   1.322   2.188  13.146 -0.3148 -0.4063  0.2064
   60MPD2    C2  932   1.424   2.156  13.235 -0.0344 -0.5030 -0.2160
   60MPD2    C3  933   1.461   2.244  13.333  0.1350  0.7923  0.4483
   60MPD2    C4  934   1.377   2.343  13.361  0.5178  0.6144 -0.2761
   60MPD2    C5  935   1.267   2.361  13.284  0.4361  0.0161  0.5235
   60MPD2     H  936   1.489   2.075  13.204 -0.5533 -0.9502 -0.1494
   60MPD2    H1  937   1.416   2.404  13.441 -2.2903  2.2861 -0.1892
   60MPD2    H2  938   1.156   2.321  13.105  1.7248 -0.1728 -1.0281
   60MPD2    H3  939   1.190   2.435  13.302 -0.3441 -0.6225 -0.1957
   60MPD2     N  940   1.579   2.234  13.408  0.0708 -0.1276  0.3800
   60MPD2    H5  941   1.606   2.312  13.466  0.6970  0.2555 -0.4228
   60MPD2    N1  942   1.307   2.093  13.038 -1.0986  0.6772  0.0141
   60MPD2    H7  943   1.361   2.007  13.048 -1.7236  0.2554 -0.2310
   61TMC2    C1  944   0.936   3.220  15.778  0.5545  0.3579  0.7727
   61TMC2    C2  945   0.950   3.188  15.916  0.5166  0.7754  0.7698
   61TMC2    C3  946   0.884   3.272  16.005 -0.0175 -0.1185 -0.0605
   61TMC2    C4  947   0.868   3.326  15.740 -0.2278  0.5099 -0.2438
   61TMC2    C5  948   0.805   3.404  15.830  0.0139  0.1290  0.5301
   61TMC2    C6  949   0.816   3.386  15.959  0.4287 -0.3783  0.8200
   61TMC2     C  950   1.014   3.153  15.675 -0.5566 -0.2075  0.0178
   61TMC2     O  951   1.082   3.063  15.716  0.2552  0.1926 -0.0960
   61TMC2     H  952   0.999   3.100  15.956 -0.9705  0.2611  1.4654
   61TMC2    H1  953   0.857   3.352  15.635  1.2897 -0.5398 -0.6609
   61TMC2    H2  954   0.759   3.451  16.024  0.9449  1.7047 -0.7842
   61TMC2    C7  955   0.759   3.537  15.787 -0.2279 -0.0484  0.0405
   61TMC2    C8  956   0.902   3.268  16.146 -0.2519  0.1995  0.0571
   61TMC2    O1  957   0.763   3.631  15.866 -0.3948 -0.2868 -0.1367
   61TMC2    O2  958   0.812   3.302  16.223 -0.2183 -0.0707  0.0943
   61TMC2    O5  959   0.984   3.166  16.175  0.1602 -0.5004  0.0227
   61TMC2    H5  960   1.054   3.162  16.106  0.1139 -1.3690  0.0169
   62MPD2     C  961   1.160   3.069  15.437 -0.3632 -0.0816  0.4669
   62MPD2    C1  962   1.111   3.197  15.449  0.0094  0.2484 -0.1913
   62MPD2    C2  963   1.132   3.292  15.355  0.6717 -0.0755 -0.2066
   62MPD2    C3  964   1.194   3.255  15.234  0.6729 -0.4742 -0.7802
   62MPD2    C4  965   1.257   3.131  15.229  0.0783 -0.2239  0.0323
   62MPD2    C5  966   1.230   3.042  15.326 -0.5565 -0.0015  0.3650
   62MPD2     H  967   1.110   3.397  15.372  2.4216  0.3410 -0.4668
   62MPD2    H1  968   1.311   3.093  15.143  2.4324 -0.0219  1.4384
   62MPD2    H2  969   1.146   2.989  15.509 -1.6150  0.3125  0.6612
   62MPD2    H3  970   1.278   2.945  15.311 -0.2635  0.4585 -1.7254
   62MPD2     N  971   1.200   3.357  15.130  0.1265 -0.1215  0.0166
   62MPD2    H5  972   1.137   3.435  15.143  1.6601  1.2204 -0.6670
   62MPD2    N1  973   1.028   3.225  15.557 -0.8273  0.3963 -0.1697
   62MPD2    H7  974   0.978   3.313  15.554  0.3993  1.1295  1.0439
   63TMC2    C1  975   0.276   3.694  10.033  0.2914  0.3920  0.0380
   63TMC2    C2  976   0.322   3.707  10.159 -0.4681  0.3154  0.5362
   63TMC2    C3  977   0.347   3.833  10.209 -0.3392  0.1910 -0.0867
   63TMC2    C4  978   0.247   3.793   9.954 -0.2012  0.6537 -0.3651
   63TMC2    C5  979   0.264   3.918  10.013  0.6466  0.3928 -0.0650
   63TMC2    C6  980   0.312   3.940  10.140  0.1703 -0.6476 -0.2142
   63TMC2     C  981   0.221   3.563   9.992 -0.7798 -0.1810  0.0229
   63TMC2     O  982   0.173   3.562   9.880  0.4349  0.0607  0.1477
   63TMC2     H  983   0.361   3.619  10.209 -0.9450  0.2758  0.8443
   63TMC2    H1  984   0.208   3.771   9.855  1.3452  1.4970 -1.1807
   63TMC2    H2  985   0.327   4.039  10.181  3.1487 -0.1881 -2.4599
   63TMC2    C7  986   0.191   4.026   9.952 -0.3726 -0.2394  0.4740
   63TMC2    C8  987   0.413   3.851  10.337 -0.1183  0.0806 -0.7545
   63TMC2    O1  988   0.081   3.994   9.906 -0.3758  0.0194 -0.3106
   63TMC2    O2  989   0.506   3.926  10.348  0.2238 -0.4664  0.6280
   63TMC2    O5  990   0.380   3.756  10.423 -0.2862 -0.0815 -0.2224
   63TMC2    H5  991   0.284   3.739  10.410 -0.6746  1.5686  0.4668
   64MPD2     C  992   0.080   3.084  10.038 -0.1907  0.1339 -0.3713
   64MPD2    C1  993   0.133   3.125  10.159 -0.6201 -0.3358 -0.6202
   64MPD2    C2  994   0.185   3.255  10.163  0.6678 -0.4187  0.4474
   64MPD2    C3  995   0.179   3.335  10.055 -0.4807  0.9050  0.3982
   64MPD2    C4  996   0.118   3.294   9.943  0.5783 -0.0009 -0.0436
   64MPD2    C5  997   0.077   3.168   9.935 -1.1218 -0.1773 -0.1647
   64MPD2     H  998   0.221   3.305  10.252  0.3003 -0.0240  0.3741
   64MPD2    H1  999   0.113   3.360   9.857 -0.1666  1.4590  1.1202
   64MPD2    H2 1000   0.035   2.987  10.023  0.2079 -0.3183  1.3816
   64MPD2    H3 1001   0.030   3.138   9.842  0.7075  0.3074 -1.2412
   64MPD2     N 1002   0.233   3.459  10.083  0.3448  0.0359 -0.8079
   64MPD2    H5 1003   0.261   3.480  10.178 -2.7249 -0.7358  0.2758
   64MPD2    N1 1004   0.136   3.051  10.275  0.9469  0.0409 -0.0381
   64MPD2    H7 1005   0.197   3.084  10.349  1.2401  2.1362 -1.2419
   65TMC2    C1 1006   1.648   2.948  15.688  0.1170 -0.5742  0.1666
   65TMC2    C2 1007   1.680   2.945  15.557  0.4027 -0.1511  0.2069
   65TMC2    C3 1008   1.623   3.042  15.477 -0.3765 -0.4436  0.1117
   65TMC2    C4 1009   1.563   3.041  15.743  0.5695 -0.5181  0.6899
   65TMC2    C5 1010   1.501   3.126  15.658  0.5883 -0.2497 -0.4806
   65TMC2    C6 1011   1.528   3.136  15.521  0.1658  0.3550  0.1149
   65TMC2     C 1012   1.710   2.851  15.770  0.0614 -0.3123 -0.0652
   65TMC2     O 1013   1.726   2.881  15.888  0.2427  0.1847  0.4408
   65TMC2     H 1014   1.744   2.871  15.511  1.9289  1.6909 -0.6014
   65TMC2    H1 1015   1.543   3.038  15.849  1.7297 -3.6096  0.8016
   65TMC2    H2 1016   1.468   3.186  15.447  0.7369 -0.0388 -0.6168
   65TMC2    C7 1017   1.404   3.222  15.709 -0.1220 -0.4225  0.1359
   65TMC2    C8 1018   1.624   3.040  15.335 -0.6070 -0.6497  0.0892
   65TMC2    O1 1019   1.373   3.195  15.827 -0.4578  0.9048 -0.2632
   65TMC2    O2 1020   1.602   3.137  15.261 -0.7076 -0.6821 -0.4441
   65TMC2    O5 1021   1.621   2.915  15.294  0.9651 -0.3648  0.6712
   65TMC2    H5 1022   1.612   2.854  15.369  0.9873  0.9804  1.7690
   66MPD2     C 1023   1.804   2.590  15.895  0.3875 -0.1286  0.4900
   66MPD2    C1 1024   1.752   2.607  15.763 -0.0464  0.2802  0.4242
   66MPD2    C2 1025   1.724   2.497  15.688 -0.0902 -0.0684 -0.3749
   66MPD2    C3 1026   1.756   2.370  15.744  0.3550  0.1515  0.2931
   66MPD2    C4 1027   1.813   2.352  15.865  0.7909  0.2618 -0.3352
   66MPD2    C5 1028   1.836   2.465  15.937  0.6575  0.0134 -0.4132
   66MPD2     H 1029   1.683   2.502  15.587 -1.8969  0.4286  0.3908
   66MPD2    H1 1030   1.834   2.252  15.900 -0.4983 -0.0649 -0.4968
   66MPD2    H2 1031   1.831   2.670  15.963  3.9969 -0.4069 -0.6226
   66MPD2    H3 1032   1.885   2.452  16.033 -1.8768 -1.4653  0.6800
   66MPD2     N 1033   1.713   2.252  15.676  0.1360 -0.2719 -0.2487
   66MPD2    H5 1034   1.704   2.170  15.735  1.6511  0.7092  1.3453
   66MPD2    N1 1035   1.713   2.727  15.705 -0.7266 -0.2082  0.0964
   66MPD2    H7 1036   1.671   2.722  15.613  0.1419 -1.1165 -0.2570
   67TMC2    C1 1037   1.806   2.119  14.130  0.8071 -0.4649  0.7195
   67TMC2    C2 1038   1.888   2.226  14.138  0.4959  0.1795  0.0157
   67TMC2    C3 1039   1.939   2.252  14.260 -0.6736 -0.0920 -0.1926
   67TMC2    C4 1040   1.776   2.040  14.235 -0.6962 -0.1962  0.1890
   67TMC2    C5 1041   1.836   2.073  14.356  0.3603 -0.1227  0.7235
   67TMC2    C6 1042   1.914   2.179  14.371 -0.3516 -0.9684  0.1792
   67TMC2     C 1043   1.752   2.090  14.000 -0.8458 -1.0064  0.3143
   67TMC2     O 1044   1.819   2.114  13.901 -0.4570 -0.0269  0.1655
   67TMC2     H 1045   1.928   2.278  14.051  0.6596  0.7766  0.4508
   67TMC2    H1 1046   1.709   1.956  14.219  0.2198 -0.7726 -0.6194
   67TMC2    H2 1047   1.959   2.199  14.468 -1.0872  2.1778 -0.1508
   67TMC2    C7 1048   1.795   1.992  14.469 -0.2009 -0.0379  0.0576
   67TMC2    C8 1049   1.985   2.383  14.287 -0.1336  0.9559 -0.0202
   67TMC2    O1 1050   1.774   1.873  14.445 -0.0373  0.3089  0.2132
   67TMC2    O2 1051   2.060   2.410  14.383  0.2230 -0.2971  0.6342
   67TMC2    O5 1052   1.896   2.466  14.233 -0.5883 -0.4461 -0.4180
   67TMC2    H5 1053   1.829   2.421  14.176 -0.6916 -0.2997 -0.4125
   68MPD2     C 1054   1.558   2.018  13.773 -0.1041  0.3156 -0.5869
   68MPD2    C1 1055   1.521   2.032  13.909  0.1020 -0.0701  0.2036
   68MPD2    C2 1056   1.390   2.008  13.944 -0.2944 -0.3159  0.6484
   68MPD2    C3 1057   1.295   1.999  13.846 -0.4827  0.4334 -0.5906
   68MPD2    C4 1058   1.334   1.988  13.714  0.3821  0.2897 -0.4329
   68MPD2    C5 1059   1.464   2.002  13.679 -0.0587  0.1199  0.2056
   68MPD2     H 1060   1.362   2.018  14.049  0.3365  0.4044  0.7435
   68MPD2    H1 1061   1.256   1.986  13.639 -0.3172 -0.5743  0.3196
   68MPD2    H2 1062   1.663   2.024  13.748  0.0191  2.1959  0.3952
   68MPD2    H3 1063   1.485   1.997  13.573  0.8283  1.3632  0.3171
   68MPD2     N 1064   1.156   1.996  13.878  0.1566  0.2643  0.2059
   68MPD2    H5 1065   1.091   1.986  13.801  2.0417  0.4628 -1.4295
   68MPD2    N1 1066   1.616   2.067  14.012  0.0005 -0.3798  0.2276
   68MPD2    H7 1067   1.580   2.077  14.107  2.3335 -0.9011  1.1530
   69TMC2    C1 1068   3.755   3.647  12.536 -0.3404 -0.0660 -0.1079
   69TMC2    C2 1069   3.634   3.677  12.478 -0.4285  0.1262  1.6279
   69TMC2    C3 1070   3.618   3.651  12.346  0.1570 -0.3492 -0.0832
   69TMC2    C4 1071   3.860   3.617  12.458 -0.3226 -0.1756 -0.5063
   69TMC2    C5 1072   3.854   3.617  12.318  0.0942 -0.4334  0.9714
   69TMC2    C6 1073   3.730   3.624  12.264 -0.4916 -0.4353  0.0535
   69TMC2     C 1074   3.791   3.679  12.671 -0.1177  0.2395  0.2988
   69TMC2     O 1075   3.899   3.726  12.697 -0.3758  0.0874 -0.1692
   69TMC2     H 1076   3.555   3.713  12.544  0.7568  1.3345  2.3821
   69TMC2    H1 1077   3.953   3.589  12.505  0.0247  0.6083 -0.7296
   69TMC2    H2 1078   3.720   3.627  12.157  0.4980  2.7366  0.0528
   69TMC2    C7 1079   3.967   3.595  12.227  0.5673 -0.2914 -0.4137
   69TMC2    C8 1080   3.492   3.687  12.280 -0.3146 -0.3440 -0.6179
   69TMC2    O1 1081   3.960   3.654  12.120  0.1071  0.0763 -0.1019
   69TMC2    O2 1082   3.381   3.642  12.318 -0.0590 -0.0659 -0.6772
   69TMC2    O5 1083   3.522   3.784  12.190 -0.0758  0.0018  0.6981
   69TMC2    H5 1084   3.612   3.815  12.212 -0.0280  0.2660  0.1210
   70MPD2     C 1085   3.819   3.702  12.963  0.4174 -0.2853 -0.7594
   70MPD2    C1 1086   3.736   3.613  12.897 -0.3973  0.0096  0.0321
   70MPD2    C2 1087   3.677   3.509  12.969  0.0545 -0.7704  0.2475
   70MPD2    C3 1088   3.715   3.479  13.091 -0.2231  0.0713  0.0379
   70MPD2    C4 1089   3.803   3.565  13.163 -0.0039  0.2715 -0.0643
   70MPD2    C5 1090   3.853   3.678  13.098 -0.7729 -0.5549  0.6525
   70MPD2     H 1091   3.625   3.436  12.908 -0.1091  0.2576 -0.8476
   70MPD2    H1 1092   3.818   3.546  13.269 -0.7255  0.1450  0.0184
   70MPD2    H2 1093   3.857   3.795  12.923  1.7465  0.1100  1.3862
   70MPD2    H3 1094   3.906   3.756  13.152  0.9593 -1.1598 -0.1495
   70MPD2     N 1095   3.651   3.379  13.157  0.6916  0.4531 -0.2373
   70MPD2    H5 1096   3.688   3.344  13.246 -0.4486 -0.2602 -0.0460
   70MPD2    N1 1097   3.704   3.625  12.759  0.3613 -0.1399 -0.0053
   70MPD2    H7 1098   3.631   3.564  12.722  0.0345  2.2486 -3.2768
   71TMC2    C1 1099   0.976   4.397   0.665 -0.0387 -0.2812  0.0489
   71TMC2    C2 1100   1.066   4.503   0.664 -0.2682  0.2028 -0.2195
   71TMC2    C3 1101   1.155   4.508   0.769  0.3841  0.1852  0.3742
   71TMC2    C4 1102   0.990   4.299   0.761  0.6961  0.9385 -0.5084
   71TMC2    C5 1103   1.091   4.302   0.857 -0.1569  0.3366 -0.9265
   71TMC2    C6 1104   1.169   4.411   0.868  0.7130  0.3713  0.4367
   71TMC2     C 1105   0.875   4.391   0.563 -0.4039  0.1362 -0.1391
   71TMC2     O 1106   0.863   4.480   0.477  0.1706  0.3741 -0.1284
   71TMC2     H 1107   1.071   4.580   0.588  0.1469  0.3855 -0.0098
   71TMC2    H1 1108   0.937   4.205   0.758 -1.6486  2.1867  2.3878
   71TMC2    H2 1109   1.242   4.412   0.948 -0.0403 -3.9482  1.1799
   71TMC2    C7 1110   1.096   4.207   0.963 -0.5170 -0.3643  0.2904
   71TMC2    C8 1111   1.236   4.624   0.785  0.4289 -0.5214 -0.4692
   71TMC2    O1 1112   1.196   4.196   1.029 -0.2081 -0.2154 -0.0214
   71TMC2    O2 1113   1.352   4.609   0.828 -0.0874 -0.1297 -0.2155
   71TMC2    O5 1114   1.161   0.001   0.781 -0.1042  0.1557  0.0721
   71TMC2    H5 1115   1.075   4.711   0.740  0.1738 -0.5239 -0.0847
   72MPD2     C 1116   0.563   4.109   0.263  0.0248 -0.1965  0.1361
   72MPD2    C1 1117   0.572   4.245   0.280 -0.3143  0.8829  1.0299
   72MPD2    C2 1118   0.659   4.291   0.376 -0.1781 -0.5281  0.2904
   72MPD2    C3 1119   0.744   4.208   0.447  1.1308 -0.3485 -0.0736
   72MPD2    C4 1120   0.735   4.074   0.416  0.0329  0.3189 -0.5625
   72MPD2    C5 1121   0.644   4.024   0.325 -0.9645 -0.3609  0.1111
   72MPD2     H 1122   0.652   4.395   0.406  2.8224 -0.5771  1.2087
   72MPD2    H1 1123   0.788   3.998   0.473 -0.9725  0.8238  1.0324
   72MPD2    H2 1124   0.490   4.070   0.193  1.5400 -1.3123 -0.8072
   72MPD2    H3 1125   0.637   3.918   0.302  0.1516  0.0255 -1.9105
   72MPD2     N 1126   0.830   4.257   0.548  0.3129 -0.0386  0.2310
   72MPD2    H5 1127   0.879   4.186   0.603  0.7734  0.4956  0.5160
   72MPD2    N1 1128   0.483   4.338   0.218 -0.6636  1.2469  0.5971
   72MPD2    H7 1129   0.493   4.433   0.252 -0.9046  1.0676  1.1619
   73TMC2    C1 1130   0.331   1.091  13.927  0.3632  0.1530 -0.0353
   73TMC2    C2 1131   0.313   1.119  14.061  0.6940  0.8403  0.1641
   73TMC2    C3 1132   0.380   1.035  14.145 -0.7308  0.9528 -0.0667
   73TMC2    C4 1133   0.382   0.976  13.877  0.3353  0.5488 -0.1433
   73TMC2    C5 1134   0.454   0.900  13.962  0.2217  0.8165 -0.0751
   73TMC2    C6 1135   0.453   0.925  14.100 -0.0560 -0.7219 -0.8873
   73TMC2     C 1136   0.409   1.194  13.857  0.3995  0.4684  0.2056
   73TMC2     O 1137   0.500   1.146  13.791 -0.4685  0.5905  0.0834
   73TMC2     H 1138   0.267   1.209  14.100  3.5372  1.8507  1.1570
   73TMC2    H1 1139   0.382   0.948  13.773  1.7533  0.7833 -0.1962
   73TMC2    H2 1140   0.517   0.866  14.165  0.3660  0.9880  0.2527
   73TMC2    C7 1141   0.579   0.837  13.914  0.3568  0.2994 -0.6310
   73TMC2    C8 1142   0.345   1.052  14.283  0.2312 -0.9883  0.2258
   73TMC2    O1 1143   0.624   0.746  13.985 -0.2227 -0.1228 -0.4404
   73TMC2    O2 1144   0.249   1.125  14.313  0.5431  0.3904 -0.5770
   73TMC2    O5 1145   0.409   0.964  14.363  0.2590  0.2096  0.4173
   73TMC2    H5 1146   0.503   0.984  14.383  1.2328 -2.8634 -1.1599
   74MPD2     C 1147   0.566   1.661  13.707 -0.1782 -0.0702  0.5236
   74MPD2    C1 1148   0.623   1.532  13.685  0.3406 -0.2080 -0.3030
   74MPD2    C2 1149   0.569   1.424  13.752 -0.3307 -0.2709  0.0424
   74MPD2    C3 1150   0.449   1.436  13.822  0.1472  0.4175  0.4706
   74MPD2    C4 1151   0.391   1.566  13.829 -0.1583 -0.2054 -0.3773
   74MPD2    C5 1152   0.453   1.679  13.778  0.4415 -0.3362  0.1034
   74MPD2     H 1153   0.617   1.327  13.740 -0.3504 -0.3251  0.4072
   74MPD2    H1 1154   0.293   1.580  13.873 -0.3054 -0.3519 -0.6539
   74MPD2    H2 1155   0.609   1.747  13.659  0.1605 -0.4748  0.1096
   74MPD2    H3 1156   0.419   1.781  13.785 -1.8600 -1.1960  1.2425
   74MPD2     N 1157   0.368   1.325  13.874 -0.3768 -0.3242 -0.0175
   74MPD2    H5 1158   0.284   1.353  13.924  1.3504 -0.5082  2.9917
   74MPD2    N1 1159   0.740   1.502  13.609  0.5817  0.6020  0.0039
   74MPD2    H7 1160   0.763   1.403  13.608 -1.4133  0.1615 -1.7735
   75TMC2    C1 1161   0.962   2.025  14.001  0.4364 -0.1451 -0.1716
   75TMC2    C2 1162   0.904   2.027  14.129 -0.3079 -0.2439  0.1533
   75TMC2    C3 1163   0.800   2.111  14.140 -0.0139 -0.6031  0.8001
   75TMC2    C4 1164   0.912   2.094  13.893 -0.2336  0.2984 -0.1695
   75TMC2    C5 1165   0.804   2.179  13.913  0.0639 -0.5605 -0.4604
   75TMC2    C6 1166   0.742   2.181  14.037  0.6238  0.1163  0.0653
   75TMC2     C 1167   1.101   2.009  14.003  0.0247 -0.5226 -0.1721
   75TMC2     O 1168   1.160   2.025  14.106 -0.0612  1.1158  0.3616
   75TMC2     H 1169   0.947   1.964  14.206 -1.7638 -2.0697 -0.5001
   75TMC2    H1 1170   0.971   2.110  13.804  0.6634  1.0110  0.5581
   75TMC2    H2 1171   0.653   2.240  14.058  0.6784 -0.0793  0.8593
   75TMC2    C7 1172   0.735   2.235  13.793 -0.3984  0.3975  0.0610
   75TMC2    C8 1173   0.758   2.148  14.274 -0.6201 -1.1021 -0.1654
   75TMC2    O1 1174   0.771   2.184  13.690 -0.4215  0.3303  0.4201
   75TMC2    O2 1175   0.699   2.246  14.310  0.4382  0.1437 -0.9453
   75TMC2    O5 1176   0.754   2.026  14.332  0.2873  0.6835  0.0413
   75TMC2    H5 1177   0.758   1.960  14.260  0.3922  2.7435 -1.8297
   76TMC2    C1 1178   0.331   2.983  11.977  0.3654  0.5074 -0.1552
   76TMC2    C2 1179   0.303   2.923  11.858 -0.2073 -0.0617 -0.7023
   76TMC2    C3 1180   0.387   2.823  11.815  0.1344  0.0577 -0.9575
   76TMC2    C4 1181   0.432   2.943  12.059  0.3001 -1.2877 -0.0264
   76TMC2    C5 1182   0.505   2.836  12.021 -0.0571 -0.0437  0.7353
   76TMC2    C6 1183   0.484   2.778  11.900 -0.1134  0.1379 -0.1953
   76TMC2     C 1184   0.277   3.121  11.982  0.4139 -0.0451 -0.0191
   76TMC2     O 1185   0.157   3.134  11.954 -0.0111 -0.0143  0.2817
   76TMC2     H 1186   0.225   2.962  11.792 -1.2120 -0.7859  0.0582
   76TMC2    H1 1187   0.447   3.004  12.148  0.8494  0.7865 -1.5634
   76TMC2    H2 1188   0.550   2.698  11.869  2.8319  2.9742 -1.2965
   76TMC2    C7 1189   0.603   2.775  12.104 -0.1854  0.5930 -0.3760
   76TMC2    C8 1190   0.389   2.790  11.676 -0.4906 -0.2247 -0.2806
   76TMC2    O1 1191   0.646   2.667  12.071 -0.1120 -0.7652 -0.1681
   76TMC2    O2 1192   0.376   2.881  11.599 -0.1651 -0.5448 -0.1364
   76TMC2    O5 1193   0.454   2.669  11.664 -0.5174 -0.3213  0.2837
   76TMC2    H5 1194   0.449   2.615  11.745  0.2653  1.9929  1.8687
   77MPD2     C 1195   0.370   3.625  12.016 -0.1652 -0.8578  0.2408
   77MPD2    C1 1196   0.262   3.551  11.960  0.0401 -0.1106  0.6134
   77MPD2    C2 1197   0.265   3.412  11.961  0.0265 -0.0913 -0.5759
   77MPD2    C3 1198   0.369   3.341  12.013  0.4222 -0.7540  0.3805
   77MPD2    C4 1199   0.478   3.410  12.069  0.0677  0.4984 -0.0030
   77MPD2    C5 1200   0.471   3.549  12.072 -0.1893 -0.3522  0.0508
   77MPD2     H 1201   0.182   3.360  11.916 -0.5349  1.0701 -0.8712
   77MPD2    H1 1202   0.567   3.361  12.108 -0.0965 -0.8128 -1.2629
   77MPD2    H2 1203   0.375   3.732  12.033  1.2667 -0.9359  0.3241
   77MPD2    H3 1204   0.550   3.603  12.123  1.1070 -0.7498 -1.5296
   77MPD2     N 1205   0.374   3.206  12.030 -0.2302 -0.4082  0.7286
   77MPD2    H5 1206   0.463   3.169  12.063  1.3669  1.8132 -1.0759
   77MPD2    N1 1207   0.146   3.617  11.914  0.0801 -0.0815 -0.2147
   77MPD2    H7 1208   0.073   3.553  11.884 -0.9828  1.0865 -0.0800
   78TMC2    C1 1209   0.258   3.403   1.265 -0.2913 -0.0066  0.0717
   78TMC2    C2 1210   0.206   3.419   1.136  0.1682 -0.1613  0.2574
   78TMC2    C3 1211   0.291   3.475   1.047  0.2440  0.5414  0.7569
   78TMC2    C4 1212   0.391   3.442   1.297  0.2837 -0.3535  0.1272
   78TMC2    C5 1213   0.466   3.499   1.197  0.7064 -0.4458 -0.4235
   78TMC2    C6 1214   0.416   3.522   1.075 -0.5815  0.0018  0.0585
   78TMC2     C 1215   0.181   3.355   1.376  0.3964  0.1794  0.8211
   78TMC2     O 1216   0.233   3.362   1.486  0.3513  0.8590 -0.2142
   78TMC2     H 1217   0.109   3.377   1.114  1.3755 -2.0029 -1.4499
   78TMC2    H1 1218   0.428   3.441   1.399  0.2578  0.5895  0.1465
   78TMC2    H2 1219   0.487   3.567   1.007  0.4689  1.7174  2.3009
   78TMC2    C7 1220   0.599   3.546   1.225 -0.0197 -0.2172  0.3147
   78TMC2    C8 1221   0.234   3.538   0.926 -0.0592  0.4797 -0.3218
   78TMC2    O1 1222   0.652   3.616   1.143  0.1998 -0.5450  0.4726
   78TMC2    O2 1223   0.310   3.571   0.835 -0.1121 -0.4361 -0.1144
   78TMC2    O5 1224   0.110   3.576   0.940 -0.1212  0.4232  0.0929
   78TMC2    H5 1225   0.067   3.550   1.024 -0.2989  1.6455  0.3825
   79MPD1     C 1226   4.506   3.103   1.498 -0.5359  0.1412 -0.4041
   79MPD1    C1 1227   4.610   3.144   1.578 -0.2017 -0.3495 -0.3254
   79MPD1    C2 1228   4.714   3.221   1.527  0.2174 -0.5351  0.3296
   79MPD1    C3 1229   4.700   3.257   1.398 -0.0911 -0.8043 -0.2038
   79MPD1    C4 1230   4.593   3.227   1.314  0.3180 -0.4209  0.7456
   79MPD1    C5 1231   4.502   3.140   1.366  0.1872 -0.1112 -0.5652
   79MPD1     H 1232   0.063   3.249   1.587 -0.0902 -0.1596  0.5920
   79MPD1    H1 1233   4.588   3.258   1.210  0.2160 -0.7809  0.6415
   79MPD1    H2 1234   4.437   3.026   1.532 -0.7721 -0.0055 -1.2158
   79MPD1    H3 1235   4.409   3.117   1.315 -0.1817  1.6572 -0.7174
   79MPD1     N 1236   0.054   3.325   1.328  0.1725 -0.0958 -0.4507
   79MPD1    H5 1237   0.023   3.354   1.236 -0.8254 -0.2724 -0.1640
   79MPD1    N1 1238   4.613   3.077   1.700  0.0092  0.1896  0.2718
   79MPD1    H6 1239   4.667   3.117   1.777 -3.1577  3.1239  0.9631
   79MPD1    H7 1240   4.516   3.085   1.730 -0.1390 -1.6831  0.2563
   80TMC2    C1 1241   3.256   2.886  11.856  0.1168 -0.3297 -0.2436
   80TMC2    C2 1242   3.221   2.942  11.735  0.0007  0.2113 -0.2263
   80TMC2    C3 1243   3.087   2.955  11.713  0.4844  0.1162  0.3637
   80TMC2    C4 1244   3.167   2.860  11.951 -0.1526 -0.4324  0.3523
   80TMC2    C5 1245   3.037   2.868  11.922 -0.1904 -0.1393  0.2492
   80TMC2    C6 1246   2.994   2.919  11.804  0.1449  0.8312 -1.0419
   80TMC2     C 1247   3.402   2.882  11.887  0.7127  0.1162 -0.1716
   80TMC2     O 1248   3.469   2.874  11.783  0.1083  0.0096  0.0007
   80TMC2     H 1249   3.299   2.965  11.664 -0.1670  3.1982  0.5734
   80TMC2    H1 1250   3.198   2.826  12.049  0.8159  0.7871  0.4807
   80TMC2    H2 1251   2.889   2.927  11.778  0.0182  1.4904 -0.3425
   80TMC2    C7 1252   2.937   2.819  12.021  0.1446 -0.0485  0.1197
   80TMC2    C8 1253   3.036   2.948  11.574 -0.2434 -0.8187 -0.0662
   80TMC2    O1 1254   2.821   2.848  12.003  0.2136  0.3399  0.7024
   80TMC2    O2 1255   2.945   3.028  11.549  0.2420  0.3139 -0.0268
   80TMC2    O5 1256   3.125   2.887  11.494 -0.2152  0.3863  0.2153
   80TMC2    H5 1257   3.174   2.811  11.533  0.9234  1.6321  1.2071
   81MPD2     C 1258   3.682   2.839  12.018  0.2650 -0.3001  0.0218
   81MPD2    C1 1259   3.561   2.876  12.085 -0.1615 -0.5877 -0.0343
   81MPD2    C2 1260   3.570   2.893  12.225  0.6122  0.4190  0.8641
   81MPD2    C3 1261   3.686   2.870  12.295 -0.5247 -0.0186  0.0625
   81MPD2    C4 1262   3.795   2.830  12.225  0.0039 -0.5666 -0.3014
   81MPD2    C5 1263   3.792   2.809  12.089 -0.1810 -0.1070  0.3069
   81MPD2     H 1264   3.477   2.922  12.273  0.4310  1.3787 -0.0519
   81MPD2    H1 1265   3.891   2.810  12.271  0.4526  0.1511 -0.9228
   81MPD2    H2 1266   3.696   2.833  11.911 -3.0317  0.8194 -0.4874
   81MPD2    H3 1267   3.883   2.788  12.035 -1.7517 -0.7392 -2.1011
   81MPD2     N 1268   3.695   2.880  12.436 -0.4751 -0.4254 -0.3497
   81MPD2    H5 1269   3.781   2.849  12.480 -0.7081 -0.2784  0.2059
   81MPD2    N1 1270   3.437   2.901  12.020  0.3211 -0.2843 -0.2721
   81MPD2    H7 1271   3.362   2.929  12.082  2.1956 -0.4874  2.1023
   82TMC2    C1 1272   1.997   1.547  11.087  0.3146 -0.0850  0.7501
   82TMC2    C2 1273   2.132   1.535  11.123  0.1988  0.3479  0.1265
   82TMC2    C3 1274   2.165   1.436  11.212  0.6722 -0.0056  0.5142
   82TMC2    C4 1275   1.897   1.457  11.134 -0.2379 -0.1441  0.3830
   82TMC2    C5 1276   1.936   1.360  11.224 -0.2033 -0.3720 -0.3674
   82TMC2    C6 1277   2.070   1.345  11.258  0.1385  0.3752  0.5140
   82TMC2     C 1278   1.953   1.674  11.027 -0.0864  0.2750 -0.3005
   82TMC2     O 1279   1.839   1.667  10.984  0.1033  0.9952 -0.0983
   82TMC2     H 1280   2.213   1.583  11.069 -0.9349  1.8071 -0.2998
   82TMC2    H1 1281   1.793   1.456  11.104  0.3116 -1.2183 -1.5032
   82TMC2    H2 1282   2.098   1.269  11.330 -0.5745 -0.9348 -0.6011
   82TMC2    C7 1283   1.835   1.291  11.296 -0.1243  1.0641 -0.1145
   82TMC2    C8 1284   2.305   1.407  11.238  0.9827 -0.5906 -0.3890
   82TMC2    O1 1285   1.854   1.268  11.415 -0.3289  0.0928  0.0164
   82TMC2    O2 1286   2.343   1.293  11.267 -0.2327  0.0175 -0.3456
   82TMC2    O5 1287   2.376   1.520  11.225 -0.8586 -0.0530  0.2266
   82TMC2    H5 1288   2.324   1.603  11.229  0.1862  0.6021  0.2628
   83MPD2     C 1289   1.988   2.179  10.994 -0.5923  0.1533 -0.3120
   83MPD2    C1 1290   1.922   2.091  10.906  1.0358 -0.2534  0.7294
   83MPD2    C2 1291   1.931   1.956  10.939 -0.4541  0.7605 -0.7685
   83MPD2    C3 1292   2.014   1.920  11.042  0.4517  0.1288  0.0492
   83MPD2    C4 1293   2.072   2.004  11.130 -0.0715  0.1400  0.1774
   83MPD2    C5 1294   2.053   2.135  11.106 -0.6875 -0.5818  0.3764
   83MPD2     H 1295   1.883   1.877  10.881  0.9241  2.4172 -4.1698
   83MPD2    H1 1296   2.114   1.972  11.225 -0.9111 -0.9574  0.1810
   83MPD2    H2 1297   1.982   2.286  10.978  3.4113  0.0248 -2.5589
   83MPD2    H3 1298   2.103   2.207  11.171  0.1867 -1.7120  0.9632
   83MPD2     N 1299   2.034   1.781  11.068 -0.4892  0.0671 -0.7046
   83MPD2    H5 1300   2.106   1.756  11.135 -1.3690 -0.9722 -0.1459
   83MPD2    N1 1301   1.841   2.143  10.801 -0.7498 -0.6951 -0.1803
   83MPD2    H7 1302   1.846   2.244  10.810  1.8975 -0.9581  1.3737
   84TMC2    C1 1303   3.463   1.709  10.900  0.2769  0.8750  0.4433
   84TMC2    C2 1304   3.595   1.724  10.924  1.1805  0.2905  0.1295
   84TMC2    C3 1305   3.680   1.699  10.825  0.0389  0.2459 -0.3192
   84TMC2    C4 1306   3.417   1.697  10.767  0.1827  0.0552  1.1081
   84TMC2    C5 1307   3.516   1.666  10.675  0.1931  0.1746  0.0191
   84TMC2    C6 1308   3.646   1.665  10.704 -0.0459  0.2794 -0.2750
   84TMC2     C 1309   3.364   1.743  11.000 -0.4134 -0.3048  0.5440
   84TMC2     O 1310   3.408   1.772  11.111  0.0768 -0.5603 -0.1276
   84TMC2     H 1311   3.623   1.742  11.027  1.0035  0.1450  0.2029
   84TMC2    H1 1312   3.313   1.711  10.739  0.6635  0.9433 -0.2410
   84TMC2    H2 1313   3.723   1.651  10.630 -0.4517 -2.3271 -0.1992
   84TMC2    C7 1314   3.474   1.601  10.550 -0.2710 -0.5327  0.0748
   84TMC2    C8 1315   3.828   1.708  10.842  0.1677 -0.2397 -0.1624
   84TMC2    O1 1316   3.367   1.543  10.555 -0.8512 -0.1140  0.1250
   84TMC2    O2 1317   3.914   1.674  10.766  0.2543 -0.3318 -0.3932
   84TMC2    O5 1318   3.858   1.774  10.955 -0.4814  0.3015 -0.2342
   84TMC2    H5 1319   3.778   1.786  11.011  0.3309  0.3422  0.9045
   85TMC2    C1 1320   3.726   4.230  16.115 -0.7040 -1.0138 -0.3763
   85TMC2    C2 1321   3.604   4.263  16.081 -0.1161 -0.1962  0.6268
   85TMC2    C3 1322   3.602   4.338  15.968  0.1636 -1.2555 -0.3401
   85TMC2    C4 1323   3.842   4.256  16.055  0.8107 -0.0996 -0.5635
   85TMC2    C5 1324   3.832   4.331  15.942  0.4206 -0.7997 -0.3267
   85TMC2    C6 1325   3.710   4.367  15.891 -0.5862 -0.1534  0.0985
   85TMC2     C 1326   3.747   4.156  16.238 -0.2415  0.4740  0.1872
   85TMC2     O 1327   3.817   4.194  16.330  0.3480 -0.4669  0.0386
   85TMC2     H 1328   3.510   4.259  16.136 -0.1379  1.0296  0.6792
   85TMC2    H1 1329   3.934   4.216  16.097 -0.6838 -1.6613  1.2137
   85TMC2    H2 1330   3.694   4.435  15.808  2.2715 -0.8585 -1.0083
   85TMC2    C7 1331   3.942   4.332  15.854  0.2709  0.5212  0.2450
   85TMC2    C8 1332   3.489   4.420  15.942  0.4372 -0.0593  0.0163
   85TMC2    O1 1333   4.030   4.248  15.874 -0.1541  0.2689 -0.3097
   85TMC2    O2 1334   3.500   4.539  15.913 -0.2526 -0.1709 -0.1959
   85TMC2    O5 1335   3.379   4.346  15.957 -0.5446 -0.1986  0.0565
   85TMC2    H5 1336   3.403   4.251  15.968  1.3882  0.1010 -1.5078
   86MPD2     C 1337   3.633   3.712  16.477 -0.7909 -0.0859  0.3480
   86MPD2    C1 1338   3.610   3.696  16.344  0.2297  0.2703  0.0839
   86MPD2    C2 1339   3.636   3.800  16.258 -0.3042  0.2947  0.2764
   86MPD2    C3 1340   3.676   3.922  16.303 -0.9549  0.3766  0.0503
   86MPD2    C4 1341   3.688   3.944  16.439  0.6011  0.5852 -0.1953
   86MPD2    C5 1342   3.668   3.835  16.513  0.9601  0.6884  0.0115
   86MPD2     H 1343   3.603   3.799  16.154  2.0680  2.1585 -0.4956
   86MPD2    H1 1344   3.726   4.039  16.477  0.4419  0.6437 -0.1841
   86MPD2    H2 1345   3.623   3.638  16.555  0.5607 -0.2456  0.3754
   86MPD2    H3 1346   3.678   3.854  16.620 -0.0596  2.1629 -0.1579
   86MPD2     N 1347   3.691   4.031  16.212 -0.2751 -0.1718 -0.5555
   86MPD2    H5 1348   3.672   4.009  16.114 -1.8448 -1.2195 -0.0104
   86MPD2    N1 1349   3.565   3.567  16.283 -0.2031 -0.1555 -0.1076
   86MPD2    H7 1350   3.556   3.561  16.182  1.3322 -0.1272 -0.2436
   87TMC2    C1 1351   0.906   2.227   1.096 -0.2314 -0.6166 -0.5392
   87TMC2    C2 1352   0.775   2.251   1.121 -0.4600 -0.3882  0.1269
   87TMC2    C3 1353   0.731   2.352   1.197 -0.1205 -0.1152 -0.3774
   87TMC2    C4 1354   0.999   2.310   1.151  0.1459 -0.4810 -0.1096
   87TMC2    C5 1355   0.959   2.411   1.226 -0.9886 -0.0347 -0.2240
   87TMC2    C6 1356   0.829   2.439   1.250  0.0370  0.6527  0.1112
   87TMC2     C 1357   0.945   2.142   0.981  0.2856 -0.3504 -0.4169
   87TMC2     O 1358   1.058   2.148   0.936 -0.3054 -0.0498  0.7949
   87TMC2     H 1359   0.688   2.198   1.084  1.1039 -3.6501  1.1173
   87TMC2    H1 1360   1.105   2.288   1.139 -0.1912 -1.2693 -1.5619
   87TMC2    H2 1361   0.802   2.521   1.316 -1.3852  1.0176 -0.9112
   87TMC2    C7 1362   1.069   2.503   1.266 -0.2644  0.0186  0.9674
   87TMC2    C8 1363   0.601   2.411   1.166 -0.6125  0.4725  0.6554
   87TMC2    O1 1364   1.180   2.453   1.267 -0.5938 -0.3284 -0.7628
   87TMC2    O2 1365   0.492   2.359   1.169  0.1289  0.1634  0.7690
   87TMC2    O5 1366   0.630   2.516   1.084 -0.4148 -0.6509 -0.3693
   87TMC2    H5 1367   0.717   2.557   1.100  0.5675 -2.2054 -1.7755
   88MPD2     C 1368   1.248   2.731   1.309  0.5535  0.3642 -0.2610
   88MPD2    C1 1369   1.108   2.739   1.304 -0.3532 -0.2408  0.7235
   88MPD2    C2 1370   1.056   2.861   1.290 -0.4952  0.0265  0.1371
   88MPD2    C3 1371   1.131   2.979   1.285 -0.5224  0.0067 -0.5072
   88MPD2    C4 1372   1.268   2.967   1.294 -0.7465 -0.7684  0.4080
   88MPD2    C5 1373   1.323   2.846   1.314 -0.8783 -0.8235  0.0210
   88MPD2     H 1374   0.949   2.860   1.276 -1.0163  0.5831  3.8683
   88MPD2    H1 1375   1.319   3.062   1.283  1.0719 -1.7230  0.6729
   88MPD2    H2 1376   1.298   2.635   1.304 -0.5490 -0.3844  2.6281
   88MPD2    H3 1377   1.430   2.828   1.310 -1.2053 -3.0224  1.5653
   88MPD2     N 1378   1.084   3.105   1.238  0.1729  0.5177  0.2792
   88MPD2    H5 1379   1.152   3.177   1.218  2.2553 -1.6108 -0.3203
   88MPD2    N1 1380   1.025   2.627   1.288  0.2487 -0.0344 -0.4591
   88MPD2    H7 1381   0.925   2.642   1.284  0.0001 -1.8011 -0.8503
   89TMC2    C1 1382   1.451   0.605   1.185  0.5968  0.4153 -0.6377
   89TMC2    C2 1383   1.328   0.647   1.227 -0.3089 -0.2060 -0.3612
   89TMC2    C3 1384   1.281   0.759   1.168 -0.3621  0.6381  0.3608
   89TMC2    C4 1385   1.524   0.673   1.087  0.3863  0.2536  0.0916
   89TMC2    C5 1386   1.465   0.781   1.029  0.0203 -0.1067 -0.1737
   89TMC2    C6 1387   1.343   0.830   1.063 -0.4097 -0.5347 -0.2565
   89TMC2     C 1388   1.513   0.492   1.252 -0.3896  0.1495 -0.2883
   89TMC2     O 1389   1.628   0.466   1.221 -0.3325 -0.4158  0.1074
   89TMC2     H 1390   1.272   0.595   1.304  0.2509  0.4194  0.4654
   89TMC2    H1 1391   1.621   0.638   1.055 -0.7123 -1.9793 -0.7648
   89TMC2    H2 1392   1.291   0.904   1.004  0.8485  0.1638 -0.4923
   89TMC2    C7 1393   1.550   0.856   0.944  0.0027 -0.5452 -0.3310
   89TMC2    C8 1394   1.158   0.803   1.221  0.3663 -0.1539 -0.4009
   89TMC2    O1 1395   1.632   0.797   0.874  0.4382 -0.1923  0.1961
   89TMC2    O2 1396   1.102   0.750   1.315  0.0629  0.3538  0.2710
   89TMC2    O5 1397   1.109   0.907   1.146 -0.0374 -0.2986  0.0584
   89TMC2    H5 1398   1.182   0.950   1.097 -0.9540  0.5865 -0.5198
   90MPD2     C 1399   1.498   0.047   1.509 -0.1921 -0.4839  0.3112
   90MPD2    C1 1400   1.379   0.114   1.522 -0.5704  0.5691 -0.2514
   90MPD2    C2 1401   1.352   0.236   1.459  0.6377  0.5893  0.0908
   90MPD2    C3 1402   1.451   0.291   1.381 -0.1644 -0.0891 -0.1142
   90MPD2    C4 1403   1.570   0.220   1.372  0.4361  0.1620  0.0431
   90MPD2    C5 1404   1.601   0.109   1.444  0.0433 -1.2298 -0.0361
   90MPD2     H 1405   1.259   0.292   1.452  0.6548  0.6800  0.6028
   90MPD2    H1 1406   1.648   0.254   1.305  2.0455 -0.8754  1.3968
   90MPD2    H2 1407   1.523   4.688   1.553  0.2096  0.7810  2.8169
   90MPD2    H3 1408   1.696   0.057   1.437 -0.2623 -1.5440 -1.8087
   90MPD2     N 1409   1.418   0.414   1.322  0.3026  0.0964 -0.4508
   90MPD2    H5 1410   1.320   0.435   1.310  0.2966  0.0535 -0.4782
   90MPD2    N1 1411   1.272   0.052   1.581 -0.4894 -0.0609 -0.2359
   90MPD2    H7 1412   1.183   0.099   1.590  0.2909  0.9839  1.8826
   91TMC2    C1 1413   3.607   0.040  16.760 -0.3659  0.1733 -0.2224
   91TMC2    C2 1414   3.675   0.058  16.645  0.0100  0.5060 -0.1758
   91TMC2    C3 1415   3.612   0.091  16.530  0.0117  0.0891 -0.4431
   91TMC2    C4 1416   3.467   0.043  16.767 -0.5086  0.5695  0.2197
   91TMC2    C5 1417   3.399   0.064  16.648 -0.3735 -0.2013 -0.3215
   91TMC2    C6 1418   3.466   0.089  16.530  0.3908  0.5431  0.5319
   91TMC2     C 1419   3.676   0.037  16.879 -0.1408 -0.2092 -0.5461
   91TMC2     O 1420   3.625   4.719  16.975 -0.4924  0.0586  0.2081
   91TMC2     H 1421   3.781   0.038  16.632 -0.3930 -1.6697 -0.1010
   91TMC2    H1 1422   3.418   0.047  16.864  0.3834  1.6835  0.6299
   91TMC2    H2 1423   3.415   0.114  16.438  2.6129  0.4644 -0.7368
   91TMC2    C7 1424   3.251   0.066  16.663  0.1226 -0.1032 -1.1588
   91TMC2    C8 1425   3.674   0.060  16.400 -0.6197  0.6293  0.2180
   91TMC2    O1 1426   3.203   0.049  16.772 -0.4171 -0.4702  0.2397
   91TMC2    O2 1427   3.603   0.046  16.300 -0.7387 -0.0150  0.3383
   91TMC2    O5 1428   3.807   0.083  16.390  0.0798  0.4530  0.2805
   91TMC2    H5 1429   3.845   0.121  16.472  1.2513  1.1386 -0.5764
   92MPD2     C 1430   3.877   0.094  17.098 -0.1999  0.1465  0.3635
   92MPD2    C1 1431   3.891   0.130  16.966  0.4207  0.2469  0.0355
   92MPD2    C2 1432   4.000   0.209  16.934  0.7184  0.5019  0.3885
   92MPD2    C3 1433   4.100   0.243  17.026 -0.2134 -0.2878 -0.0207
   92MPD2    C4 1434   4.089   0.197  17.162  0.1350 -0.1683  0.2741
   92MPD2    C5 1435   3.981   0.118  17.193  0.0518 -0.4912  0.2240
   92MPD2     H 1436   4.012   0.248  16.834 -0.7673  1.0691  0.4303
   92MPD2    H1 1437   4.161   0.225  17.238 -2.0007  0.1328  2.1782
   92MPD2    H2 1438   3.786   0.045  17.132 -1.1049  2.2026  0.9122
   92MPD2    H3 1439   3.957   0.091  17.295 -0.6323  1.5375  0.6120
   92MPD2     N 1440   4.203   0.337  16.985  0.7241  0.0077  0.1010
   92MPD2    H5 1441   4.203   0.367  16.888 -0.1031  0.9050  0.3816
   92MPD2    N1 1442   3.797   0.101  16.863 -0.1452  0.4791  0.4588
   92MPD2    H7 1443   3.806   0.147  16.773 -1.0104  0.3187  0.2962
   93TMC2    C1 1444   0.953   0.105  14.236  0.1864  1.0228 -0.6908
   93TMC2    C2 1445   0.863   0.155  14.324  0.2215  0.0832 -0.0692
   93TMC2    C3 1446   0.886   0.282  14.382 -0.4506 -0.1557 -0.5021
   93TMC2    C4 1447   1.069   0.183  14.209  1.2501 -0.5103  0.7617
   93TMC2    C5 1448   1.084   0.307  14.260 -0.3484  0.0009  0.3178
   93TMC2    C6 1449   0.992   0.361  14.341 -0.0588  1.1643 -0.1955
   93TMC2     C 1450   0.916   4.726  14.160  0.3469 -0.2070 -0.1008
   93TMC2     O 1451   1.010   4.673  14.101  0.0793  0.2943  0.1923
   93TMC2     H 1452   0.787   0.089  14.365  0.9710 -0.0386  1.1273
   93TMC2    H1 1453   1.136   0.149  14.131  0.4288  1.1678 -0.6674
   93TMC2    H2 1454   0.989   0.467  14.365  0.5554  0.1115  4.6450
   93TMC2    C7 1455   1.213   0.381  14.226 -0.0235  0.7022 -0.1296
   93TMC2    C8 1456   0.802   0.325  14.490  0.4562 -0.2558 -0.2449
   93TMC2    O1 1457   1.278   0.329  14.133  0.5413  0.4509  0.0561
   93TMC2    O2 1458   0.850   0.402  14.571 -0.5008 -0.8807 -0.3222
   93TMC2    O5 1459   0.669   0.287  14.483  0.5452 -0.0756  0.0737
   93TMC2    H5 1460   0.651   0.240  14.399  1.9203 -0.9340  0.2625
   94MPD2     C 1461   0.788   4.532  13.987 -0.3623 -0.0099  0.1170
   94MPD2    C1 1462   0.716   4.616  14.067 -0.7932  0.6021 -0.3258
   94MPD2    C2 1463   0.585   4.640  14.038  0.2703 -0.1150  0.4919
   94MPD2    C3 1464   0.527   4.590  13.919  0.1603 -0.4862  0.7142
   94MPD2    C4 1465   0.603   4.500  13.848  0.3475  0.1827 -0.0239
   94MPD2    C5 1466   0.737   4.484  13.872 -0.0459  0.3073 -0.7251
   94MPD2     H 1467   0.525   4.686  14.116 -1.5016  0.6118 -1.3272
   94MPD2    H1 1468   0.566   4.454  13.757 -0.7335  1.9193 -0.4570
   94MPD2    H2 1469   0.890   4.506  14.014  0.7154  2.7119 -1.3810
   94MPD2    H3 1470   0.793   4.405  13.823  0.7390  0.4167 -0.0061
   94MPD2     N 1471   0.395   4.621  13.872  0.3616 -0.3350 -0.6081
   94MPD2    H5 1472   0.371   4.582  13.781 -0.8721  0.7489 -0.7405
   94MPD2    N1 1473   0.782   4.707  14.151 -0.6536 -0.3156 -0.0401
   94MPD2    H7 1474   0.724   0.038  14.200 -1.9196  0.2594 -2.3447
   95TMC2    C1 1475   1.015   2.019  16.319 -0.3795 -0.4648 -0.4029
   95TMC2    C2 1476   0.953   1.925  16.394 -0.3501 -0.2392  0.2473
   95TMC2    C3 1477   0.941   1.949  16.530  0.8050  0.4878  0.0765
   95TMC2    C4 1478   1.077   2.123  16.379 -0.5598 -0.9761  0.1397
   95TMC2    C5 1479   1.055   2.143  16.517 -0.4113 -1.0414  0.0647
   95TMC2    C6 1480   0.991   2.056  16.597  0.5389 -0.2883 -0.0719
   95TMC2     C 1481   1.034   2.002  16.174  0.6696  0.1620 -0.0856
   95TMC2     O 1482   1.121   2.071  16.123 -0.3768  0.0510  0.0736
   95TMC2     H 1483   0.914   1.829  16.363 -1.3859  0.6533 -1.2175
   95TMC2    H1 1484   1.125   2.202  16.324  0.6799 -2.8800 -1.5205
   95TMC2    H2 1485   0.993   2.053  16.705  1.1623  5.3921  0.0397
   95TMC2    C7 1486   1.072   2.280  16.557  0.4012 -0.2107  0.0502
   95TMC2    C8 1487   0.850   1.859  16.600 -0.5893  0.1873 -0.8963
   95TMC2    O1 1488   1.117   2.358  16.475 -0.0493  0.3104 -0.3241
   95TMC2    O2 1489   0.866   1.815  16.712  0.1050  0.4426  0.1470
   95TMC2    O5 1490   0.730   1.892  16.554  0.2049 -0.3582 -0.0407
   95TMC2    H5 1491   0.734   1.933  16.465 -0.9565 -0.6305 -0.2107
   96MPD2     C 1492   0.962   1.815  15.713  0.2117  0.6113  0.1059
   96MPD2    C1 1493   1.069   1.880  15.759  0.3600  0.1272 -0.0121
   96MPD2    C2 1494   1.074   1.909  15.892  0.1926  0.7888  0.0052
   96MPD2    C3 1495   0.968   1.869  15.976  0.2488 -0.3196 -0.4590
   96MPD2    C4 1496   0.856   1.811  15.921 -0.1595  0.2742 -0.0792
   96MPD2    C5 1497   0.860   1.768  15.791  0.0900 -0.7634 -0.5221
   96MPD2     H 1498   1.155   1.970  15.930  0.5158 -0.5490  1.4710
   96MPD2    H1 1499   0.770   1.787  15.982 -1.6801  1.2869 -1.8205
   96MPD2    H2 1500   0.958   1.791  15.608 -3.5151  0.7622  0.2276
   96MPD2    H3 1501   0.776   1.711  15.754 -0.9895  0.2830  0.3081
   96MPD2     N 1502   0.958   1.903  16.113  0.5376 -0.6325  0.2138
   96MPD2    H5 1503   0.871   1.880  16.160  0.8412 -0.5526  0.8079
   96MPD2    N1 1504   1.169   1.918  15.667 -0.5644 -0.0976  0.0821
   96MPD2    H7 1505   1.169   1.901  15.567 -3.6357  0.0668  0.0419
   97TMC2    C1 1506   3.281   4.726   0.575 -0.2770  0.5818  0.6913
   97TMC2    C2 1507   3.400   4.667   0.543 -0.4880  0.0277 -0.1303
   97TMC2    C3 1508   3.507   0.009   0.532 -0.3458 -0.4247 -0.2974
   97TMC2    C4 1509   3.267   0.126   0.596 -0.3920 -0.0017  0.1921
   97TMC2    C5 1510   3.383   0.196   0.582  0.1018  0.0667 -0.2306
   97TMC2    C6 1511   3.505   0.144   0.545 -0.7358  0.2557 -0.7219
   97TMC2     C 1512   3.172   4.648   0.621  0.2002  0.4999  0.2035
   97TMC2     O 1513   3.073   4.710   0.653  0.5969  0.0060 -0.8815
   97TMC2     H 1514   3.407   4.561   0.526 -0.0614  0.0314  0.0228
   97TMC2    H1 1515   3.172   0.159   0.634 -0.0972  0.1263  0.8093
   97TMC2    H2 1516   3.595   0.203   0.530 -0.8722  0.1988 -1.7525
   97TMC2    C7 1517   3.371   0.338   0.585  0.0062  0.2920 -0.3214
   97TMC2    C8 1518   3.629   4.689   0.467 -0.4256 -0.2462 -0.0366
   97TMC2    O1 1519   3.473   0.403   0.611  0.5898  0.0397  0.1475
   97TMC2    O2 1520   3.627   4.578   0.419 -0.2937 -0.6513 -0.8841
   97TMC2    O5 1521   3.734   0.000   0.539 -0.1704 -0.0690  0.6396
   97TMC2    H5 1522   3.703   0.071   0.600  1.1153  1.0188  0.0212
   98MPD2     C 1523   2.968   4.255   0.877 -0.2887 -0.1115  0.7500
   98MPD2    C1 1524   2.911   4.352   0.797  0.0745  0.9424 -0.6255
   98MPD2    C2 1525   2.990   4.433   0.722  0.2310  0.2670  1.1201
   98MPD2    C3 1526   3.124   4.420   0.714 -0.4327  0.2957  0.1298
   98MPD2    C4 1527   3.181   4.322   0.790 -1.2997  0.2623 -0.6178
   98MPD2    C5 1528   3.101   4.234   0.859 -0.5949 -0.1532  1.0241
   98MPD2     H 1529   2.942   4.507   0.660  1.5175  0.4692  0.3579
   98MPD2    H1 1530   3.288   4.307   0.799 -1.1846  0.7723 -1.0952
   98MPD2    H2 1531   2.914   4.198   0.952 -1.3295 -1.3065 -0.9098
   98MPD2    H3 1532   3.152   4.163   0.923  0.1908 -0.4079  0.1249
   98MPD2     N 1533   3.209   4.522   0.660  0.2984 -0.8968  0.2162
   98MPD2    H5 1534   3.309   4.506   0.657  0.8058  2.3889 -0.0962
   98MPD2    N1 1535   2.770   4.363   0.802 -0.1080 -0.4869 -0.2897
   98MPD2    H7 1536   2.724   4.288   0.853  0.5087 -0.6542  0.0192
   99TMC2    C1 1537   1.757   2.502   1.950 -0.0557  0.1094 -0.4429
   99TMC2    C2 1538   1.827   2.551   2.061 -0.1361  0.1905 -0.1483
   99TMC2    C3 1539   1.767   2.646   2.136 -0.2527 -0.0847 -0.6680
   99TMC2    C4 1540   1.634   2.538   1.915  0.5967  0.1666  0.0414
   99TMC2    C5 1541   1.578   2.633   1.998 -0.3459  0.6489 -0.5988
   99TMC2    C6 1542   1.639   2.686   2.111 -0.2533  0.1097 -0.5718
   99TMC2     C 1543   1.815   2.381   1.887  0.0944 -0.1420  0.1534
   99TMC2     O 1544   1.938   2.374   1.892 -0.7119 -0.2029  0.2391
   99TMC2     H 1545   1.927   2.518   2.089 -0.1689 -0.8597 -1.2468
   99TMC2    H1 1546   1.578   2.503   1.829  2.1741  2.1889 -1.8269
   99TMC2    H2 1547   1.587   2.725   2.198  0.0020  0.0163 -0.3781
   99TMC2    C7 1548   1.439   2.669   1.994 -0.7806  0.0201  0.0102
   99TMC2    C8 1549   1.819   2.675   2.270 -0.3710  0.4147  0.1999
   99TMC2    O1 1550   1.405   2.770   2.052  1.0094  0.5303 -0.8086
   99TMC2    O2 1551   1.845   2.790   2.307 -0.2172 -0.2169  0.4175
   99TMC2    O5 1552   1.744   2.587   2.344 -0.2808  0.7336 -0.0418
   99TMC2    H5 1553   1.695   2.523   2.289  0.7970 -0.8018  0.7926
  100MPD2     C 1554   1.885   2.143   1.733 -0.5273  0.0983  0.2191
  100MPD2    C1 1555   1.758   2.194   1.735  0.7016 -0.0624 -0.4271
  100MPD2    C2 1556   1.663   2.127   1.662  0.2843  0.1589  0.1843
  100MPD2    C3 1557   1.688   2.024   1.575  0.0191 -0.3329  0.5572
  100MPD2    C4 1558   1.817   1.977   1.569 -1.0899  0.2219  0.3385
  100MPD2    C5 1559   1.916   2.044   1.644  0.3985 -0.2179  0.0173
  100MPD2     H 1560   1.562   2.167   1.661  0.6081  0.9712  0.9281
  100MPD2    H1 1561   1.851   1.907   1.493 -1.0762 -0.5330  1.0360
  100MPD2    H2 1562   1.968   2.177   1.794 -0.5327 -2.2306  1.5439
  100MPD2    H3 1563   2.021   2.017   1.636  0.4067 -0.2187  0.1198
  100MPD2     N 1564   1.580   1.966   1.497 -0.1280 -0.3334 -0.0347
  100MPD2    H5 1565   1.487   2.003   1.515  0.3787  0.8678  0.1147
  100MPD2    N1 1566   1.725   2.307   1.818  0.3748  0.7712 -0.3227
  100MPD2    H7 1567   1.628   2.332   1.837  0.6896  1.4144  0.4287
  101TMC2    C1 1568   2.478   2.898  13.407 -0.4028  1.2161 -0.6922
  101TMC2    C2 1569   2.469   2.934  13.538 -0.5182  0.9387 -0.0202
  101TMC2    C3 1570   2.560   3.019  13.584 -0.3704  0.1470 -0.5084
  101TMC2    C4 1571   2.552   2.966  13.313  0.7188 -0.7813  0.3219
  101TMC2    C5 1572   2.647   3.048  13.368 -0.3143 -0.2255  1.3678
  101TMC2    C6 1573   2.649   3.083  13.502  0.1997 -0.2450  0.1363
  101TMC2     C 1574   2.396   2.784  13.365  0.2131  0.6719 -0.6084
  101TMC2     O 1575   2.312   2.741  13.445 -0.3526  0.3540  0.4251
  101TMC2     H 1576   2.413   2.870  13.605  0.1711 -0.4344 -0.7566
  101TMC2    H1 1577   2.561   2.948  13.206  1.0291  2.4292 -0.1852
  101TMC2    H2 1578   2.714   3.156  13.548  2.7031 -2.2882 -0.1876
  101TMC2    C7 1579   2.754   3.092  13.277 -0.4737  0.0854 -0.2698
  101TMC2    C8 1580   2.576   3.030  13.731 -0.5507 -0.0696  0.1421
  101TMC2    O1 1581   2.722   3.106  13.160 -0.3098  0.1773 -0.4792
  101TMC2    O2 1582   2.679   3.014  13.794  0.3492 -0.1606  0.2654
  101TMC2    O5 1583   2.447   3.045  13.779 -0.1672  0.2800 -0.7612
  101TMC2    H5 1584   2.391   3.075  13.705 -1.5639  2.8933  1.3555
  102MPD2     C 1585   2.415   2.576  13.060  0.0192  0.6714  0.0732
  102MPD2    C1 1586   2.395   2.605  13.196  0.2820 -0.5089 -1.1232
  102MPD2    C2 1587   2.333   2.513  13.281 -0.2664  0.4286 -0.3918
  102MPD2    C3 1588   2.291   2.394  13.234  0.1698 -0.1973  0.8272
  102MPD2    C4 1589   2.300   2.364  13.094 -0.3501 -0.3481  0.1454
  102MPD2    C5 1590   2.363   2.459  13.012  0.1528  0.0432  0.1459
  102MPD2     H 1591   2.311   2.536  13.385  1.1440 -2.1045  0.4907
  102MPD2    H1 1592   2.268   2.271  13.048 -1.0482 -0.1935  0.3166
  102MPD2    H2 1593   2.474   2.631  12.987  1.8894 -1.8707 -0.3761
  102MPD2    H3 1594   2.374   2.439  12.906  0.3262 -1.0396  0.3647
  102MPD2     N 1595   2.212   2.315  13.331  0.2996  0.0812 -0.3542
  102MPD2    H5 1596   2.207   2.339  13.430 -0.0788  1.5696 -0.7331
  102MPD2    N1 1597   2.443   2.730  13.245  0.4205  0.5154 -0.0887
  102MPD2    H7 1598   2.504   2.778  13.180  0.8432 -0.4005 -0.3756
  103TMC2    C1 1599   0.664   3.102  12.820  0.4430  0.7241 -0.4398
  103TMC2    C2 1600   0.786   3.105  12.879  0.3630  0.5147  0.2453
  103TMC2    C3 1601   0.799   3.189  12.982  0.1751 -0.0452  0.2193
  103TMC2    C4 1602   0.555   3.172  12.857 -0.6015  0.3926  0.3165
  103TMC2    C5 1603   0.573   3.251  12.970  0.5334  0.1149 -0.0808
  103TMC2    C6 1604   0.695   3.261  13.029 -0.3752  0.5125  0.1979
  103TMC2     C 1605   0.642   3.009  12.708 -0.2255 -0.4074 -0.0561
  103TMC2     O 1606   0.542   3.026  12.644  1.4382 -0.1857 -0.2851
  103TMC2     H 1607   0.875   3.053  12.845 -0.0046  0.0696 -0.0290
  103TMC2    H1 1608   0.460   3.137  12.820 -1.4930  2.8199  0.3256
  103TMC2    H2 1609   0.688   3.311  13.125  0.7589 -0.5396  0.8220
  103TMC2    C7 1610   0.453   3.297  13.037  0.2821  0.2296 -0.2631
  103TMC2    C8 1611   0.911   3.163  13.068 -0.5001 -0.1926 -0.4472
  103TMC2    O1 1612   0.476   3.307  13.156 -0.0395  0.3506 -0.1022
  103TMC2    O2 1613   0.960   3.049  13.079 -0.2082 -0.3804  0.0706
  103TMC2    O5 1614   0.933   3.272  13.137  0.7533  0.0503  0.0206
  103TMC2    H5 1615   0.888   3.354  13.107  1.5505  0.1088 -0.9928
  104MPD2     C 1616   0.828   2.737  12.551  0.3504 -0.1281 -0.1105
  104MPD2    C1 1617   0.744   2.842  12.558 -0.3830 -0.0593 -0.1467
  104MPD2    C2 1618   0.675   2.870  12.443 -0.4419  0.0188 -0.6695
  104MPD2    C3 1619   0.689   2.796  12.330 -0.3040  0.8852 -0.1176
  104MPD2    C4 1620   0.775   2.690  12.326  0.3197  0.8053 -0.6564
  104MPD2    C5 1621   0.841   2.660  12.440 -0.0684  0.2497 -0.2707
  104MPD2     H 1622   0.611   2.958  12.436 -0.6852 -0.3225 -2.6194
  104MPD2    H1 1623   0.798   2.639  12.234  1.4426  1.9029 -0.9878
  104MPD2    H2 1624   0.887   2.708  12.637  0.8490 -2.8825 -1.3804
  104MPD2    H3 1625   0.904   2.573  12.446  0.6944  0.8633  0.5851
  104MPD2     N 1626   0.610   2.835  12.226  0.2397  0.2977  0.3436
  104MPD2    H5 1627   0.564   2.924  12.244 -0.6005  0.1584 -1.1523
  104MPD2    N1 1628   0.748   2.921  12.682  0.1212  0.2412 -0.4376
  104MPD2    H7 1629   0.818   2.899  12.752 -1.0406  0.5738  0.8302
  105TMC2    C1 1630   1.240   1.849   0.140 -0.3751  0.2175 -0.5123
  105TMC2    C2 1631   1.266   1.977   0.136 -0.4180 -0.1844  0.2780
  105TMC2    C3 1632   1.189   2.066   0.210  0.1866  0.9917 -0.4412
  105TMC2    C4 1633   1.141   1.807   0.218 -0.6387 -0.8460 -0.0508
  105TMC2    C5 1634   1.064   1.897   0.291 -0.4008 -0.7309  0.3982
  105TMC2    C6 1635   1.089   2.029   0.288 -0.0816  0.0307 -0.3047
  105TMC2     C 1636   1.290   1.761   0.037 -0.6876 -0.0808  0.0691
  105TMC2     O 1637   1.227   1.658   0.009  0.0182  0.3335  0.8875
  105TMC2     H 1638   1.351   2.015   0.081 -0.6793  0.4244  0.3044
  105TMC2    H1 1639   1.121   1.703   0.239 -0.4077 -0.8050  0.3780
  105TMC2    H2 1640   1.018   2.097   0.334  1.2560  1.9077 -1.0378
  105TMC2    C7 1641   0.968   1.847   0.392 -0.7132 -0.2438 -0.0412
  105TMC2    C8 1642   1.226   2.206   0.190  0.0058 -0.4576  0.3648
  105TMC2    O1 1643   0.895   1.755   0.357 -0.3329 -0.1071  0.3414
  105TMC2    O2 1644   1.327   2.240   0.132  0.1912 -0.3701  0.3033
  105TMC2    O5 1645   1.177   2.277   0.295  0.1657  0.2619  0.6521
  105TMC2    H5 1646   1.114   2.223   0.346 -2.7158  2.8484 -0.2034
  106MPD2     C 1647   1.598   1.693  17.364  0.6396  0.1325 -0.5131
  106MPD2    C1 1648   1.620   1.818  17.424 -0.0558  0.2816  0.1150
  106MPD2    C2 1649   1.536   1.853  17.527 -0.2483  0.2605 -0.3005
  106MPD2    C3 1650   1.451   1.764  17.596 -0.0921  0.3224 -0.0937
  106MPD2    C4 1651   1.430   1.636  17.542 -0.2388  0.6372  0.8658
  106MPD2    C5 1652   1.509   1.612  17.429  0.2901  0.5485 -0.0767
  106MPD2     H 1653   1.541   1.949  17.576 -0.2361  0.8577 -1.4685
  106MPD2    H1 1654   1.370   1.556  17.584 -1.2113  1.3092  0.7431
  106MPD2    H2 1655   1.666   1.650  17.291  1.2531  0.6715 -0.2630
  106MPD2    H3 1656   1.518   1.506  17.410 -1.1478  0.0423  2.1588
  106MPD2     N 1657   1.386   1.817  17.702  0.0289  0.5190 -0.1055
  106MPD2    H5 1658   1.416   1.908  17.736  1.5355  0.2089 -0.5844
  106MPD2    N1 1659   1.713   1.917  17.381  0.4848 -0.0605 -0.2383
  106MPD2    H7 1660   1.713   2.011  17.419 -1.0572 -0.3091  0.4059
  107TMC2    C1 1661   2.754   2.088  11.712  0.0102  0.2261  0.1874
  107TMC2    C2 1662   2.765   2.208  11.654 -0.3442  0.0318 -0.5678
  107TMC2    C3 1663   2.833   2.224  11.545  0.2064  0.0826  0.1733
  107TMC2    C4 1664   2.829   1.989  11.660  0.3856 -0.1902 -0.3171
  107TMC2    C5 1665   2.901   2.002  11.543  0.3696 -0.5517 -0.3569
  107TMC2    C6 1666   2.904   2.125  11.486 -0.2298  0.2928  0.7933
  107TMC2     C 1667   2.648   2.060  11.809 -0.2449  0.8957 -0.4305
  107TMC2     O 1668   2.655   1.958  11.870 -0.2438  0.1570 -1.0668
  107TMC2     H 1669   2.712   2.284  11.710  0.5004  0.9936 -1.0905
  107TMC2    H1 1670   2.828   1.888  11.700 -0.3477 -0.1085 -0.1224
  107TMC2    H2 1671   2.961   2.138  11.395 -0.7789 -0.3888  0.3479
  107TMC2    C7 1672   2.886   1.901  11.439  0.0396  0.2230  0.5514
  107TMC2    C8 1673   2.864   2.358  11.513 -0.2264  0.1594 -0.0126
  107TMC2    O1 1674   2.777   1.840  11.437 -0.0481 -0.3174  0.1582
  107TMC2    O2 1675   2.970   2.413  11.544 -0.0260  0.6226  0.6902
  107TMC2    O5 1676   2.744   2.427  11.516 -0.2992  0.7181 -0.1410
  107TMC2    H5 1677   2.662   2.372  11.512 -0.0807  0.5787 -2.6476
  108MPD2     C 1678   2.336   2.242  11.842 -0.3756 -0.3213  0.8189
  108MPD2    C1 1679   2.435   2.154  11.879 -0.8449 -0.6664 -0.3621
  108MPD2    C2 1680   2.411   2.074  11.991  0.6653  0.2003  0.2022
  108MPD2    C3 1681   2.289   2.083  12.063 -0.6579 -0.5368  0.4431
  108MPD2    C4 1682   2.191   2.170  12.030  0.1715  0.2641 -0.5222
  108MPD2    C5 1683   2.216   2.246  11.915  0.6475 -0.5044  0.6981
  108MPD2     H 1684   2.497   2.016  12.023  0.9395  0.5277  0.0646
  108MPD2    H1 1685   2.091   2.175  12.070  0.0585  0.5080 -0.8357
  108MPD2    H2 1686   2.362   2.321  11.772 -1.0254  0.2822  1.2509
  108MPD2    H3 1687   2.143   2.322  11.890 -2.6832 -4.3911 -1.2613
  108MPD2     N 1688   2.252   1.992  12.167  0.4237 -0.8484 -0.1621
  108MPD2    H5 1689   2.159   2.005  12.204  0.4119  0.7672 -0.7558
  108MPD2    N1 1690   2.548   2.153  11.799 -0.7411  0.1879 -0.1200
  108MPD2    H7 1691   2.542   2.212  11.716  1.6389  0.2944 -0.2079
  109TMC2    C1 1692   1.397   4.597   0.406  0.5221 -0.1095 -0.4105
  109TMC2    C2 1693   1.345   4.722   0.408  0.2186  0.3965 -0.6639
  109TMC2    C3 1694   1.423   0.091   0.433 -0.3997  0.0557  0.1823
  109TMC2    C4 1695   1.526   4.579   0.442  0.1783  0.2994 -0.9861
  109TMC2    C5 1696   1.607   4.692   0.466  0.8242  0.7412 -0.3608
  109TMC2    C6 1697   1.549   0.084   0.477  0.0232  0.5720 -0.7039
  109TMC2     C 1698   1.295   4.491   0.403  0.1244  0.7466  0.1923
  109TMC2     O 1699   1.185   4.505   0.351 -0.5611 -0.2000  0.0325
  109TMC2     H 1700   1.237   4.733   0.400  0.1346  1.9681  2.9341
  109TMC2    H1 1701   1.577   4.484   0.439 -1.0777 -0.4409  1.4451
  109TMC2    H2 1702   1.600   0.176   0.499  0.6141  0.4264 -1.4554
  109TMC2    C7 1703   1.747   4.671   0.474  0.3715 -0.5029  0.1951
  109TMC2    C8 1704   1.358   0.218   0.445  0.6833 -0.3673  0.7415
  109TMC2    O1 1705   1.790   4.559   0.452 -0.4528  0.1321  0.2790
  109TMC2    O2 1706   1.237   0.224   0.459  0.2855 -0.4064  0.2010
  109TMC2    O5 1707   1.439   0.317   0.401  0.4539 -0.0103  0.2503
  109TMC2    H5 1708   1.527   0.291   0.367  0.7851  1.4977 -0.0499
  110MPD2     C 1709   1.114   4.043   0.560  0.6766  0.1049  0.1926
  110MPD2    C1 1710   1.223   4.073   0.641  0.3838 -0.3507 -0.1206
  110MPD2    C2 1711   1.296   4.183   0.606 -0.0514 -0.2394  0.0915
  110MPD2    C3 1712   1.267   4.259   0.495 -0.6973 -0.5101 -0.2033
  110MPD2    C4 1713   1.164   4.219   0.416  0.1907 -0.2302 -0.2762
  110MPD2    C5 1714   1.092   4.104   0.442  0.2176 -0.7865  0.8053
  110MPD2     H 1715   1.384   4.219   0.658 -1.9405  2.6392  1.3283
  110MPD2    H1 1716   1.144   4.275   0.326  0.2595 -1.1943 -0.8884
  110MPD2    H2 1717   1.052   3.955   0.579 -1.4778  1.4761 -0.5098
  110MPD2    H3 1718   1.007   4.068   0.385 -0.2068  1.4017  0.0589
  110MPD2     N 1719   1.334   4.385   0.477  0.2618  0.0299  0.6449
  110MPD2    H5 1720   1.425   4.391   0.521  0.7914  0.4825 -0.5051
  110MPD2    N1 1721   1.240   3.996   0.765 -0.4814  0.6717  0.0933
  110MPD2    H7 1722   1.171   3.926   0.790 -1.3748  0.6257 -2.5367
  111TMC2    C1 1723   2.290   3.555  11.875  0.1214 -0.3567 -0.1255
  111TMC2    C2 1724   2.204   3.659  11.909 -0.6711 -0.4319  0.1110
  111TMC2    C3 1725   2.217   3.700  12.036 -0.2253  0.2756  0.2179
  111TMC2    C4 1726   2.382   3.505  11.957  0.4780  0.0400 -0.9379
  111TMC2    C5 1727   2.389   3.553  12.086  0.3968  0.4516 -0.1708
  111TMC2    C6 1728   2.296   3.638  12.129  0.8845 -0.0071 -0.1759
  111TMC2     C 1729   2.327   3.553  11.734  0.2544  0.2387 -0.2213
  111TMC2     O 1730   2.287   3.642  11.658  0.4626  0.1940 -0.3924
  111TMC2     H 1731   2.128   3.698  11.841 -0.7105 -0.6738  0.0185
  111TMC2    H1 1732   2.455   3.430  11.928  0.0930 -0.9105  0.5321
  111TMC2    H2 1733   2.313   3.694  12.220 -1.1181  0.1736  0.0855
  111TMC2    C7 1734   2.520   3.562  12.146 -0.0598 -0.4093  0.5064
  111TMC2    C8 1735   2.133   3.807  12.080 -0.4757  0.7696  0.1450
  111TMC2    O1 1736   2.532   3.587  12.265  0.2057  0.5053 -0.0494
  111TMC2    O2 1737   2.025   3.797  12.140 -0.0724  0.3180  0.0887
  111TMC2    O5 1738   2.179   3.915  12.012 -0.4385 -0.1557  0.4461
  111TMC2    H5 1739   2.276   3.904  12.005 -0.2606  1.2351  0.8362
  112MPD2     C 1740   2.546   3.292  11.348  0.3384  0.3666  0.5334
  112MPD2    C1 1741   2.513   3.424  11.361 -0.4692  0.1412  0.0689
  112MPD2    C2 1742   2.449   3.477  11.467 -0.0446 -0.9049 -0.4412
  112MPD2    C3 1743   2.417   3.389  11.572 -0.2041 -0.3114 -0.4258
  112MPD2    C4 1744   2.453   3.258  11.560 -0.2251  0.0555  0.3839
  112MPD2    C5 1745   2.511   3.210  11.444 -0.1234 -0.2644 -0.5436
  112MPD2     H 1746   2.422   3.582  11.472 -0.5817 -1.1479  1.5365
  112MPD2    H1 1747   2.421   3.197  11.643  3.4765 -0.6470  1.3046
  112MPD2    H2 1748   2.603   3.245  11.268  1.6753  2.7104  0.1200
  112MPD2    H3 1749   2.523   3.103  11.428  2.4881  0.2532 -2.1291
  112MPD2     N 1750   2.374   3.428  11.695 -0.1025 -0.2682 -0.4603
  112MPD2    H5 1751   2.370   3.352  11.762  1.1736 -0.9672 -1.1763
  112MPD2    N1 1752   2.531   3.507  11.254 -0.2349  0.1998  0.8683
  112MPD2    H7 1753   2.498   3.602  11.259  0.1443  0.3859 -0.1785
  113TMC2    C1 1754   0.148   2.318   1.614  0.1048  0.8817 -0.2056
  113TMC2    C2 1755   0.060   2.404   1.681 -0.0774 -0.0702  0.0405
  113TMC2    C3 1756   4.666   2.372   1.686 -0.0789  0.1693  0.2369
  113TMC2    C4 1757   0.104   2.207   1.551  0.0414  0.6307  0.2510
  113TMC2    C5 1758   4.703   2.178   1.564  0.3777 -0.8804  0.5454
  113TMC2    C6 1759   4.617   2.259   1.632  0.1799  0.6425  0.1332
  113TMC2     C 1760   0.291   2.347   1.604  0.4674  0.1281  0.2096
  113TMC2     O 1761   0.322   2.461   1.635 -0.1136  0.2474  0.1678
  113TMC2     H 1762   0.097   2.499   1.719 -0.6053 -1.2267  3.4959
  113TMC2    H1 1763   0.159   2.152   1.475 -0.1612  1.4304 -0.4707
  113TMC2    H2 1764   4.513   2.229   1.640  0.9171 -1.4642  1.7640
  113TMC2    C7 1765   4.648   2.063   1.500  0.3549  0.0411 -0.1955
  113TMC2    C8 1766   4.593   2.460   1.768 -0.1953  0.2652 -0.3024
  113TMC2    O1 1767   4.530   2.067   1.467  0.4439 -0.0314 -0.1604
  113TMC2    O2 1768   4.639   2.512   1.867  0.6560 -0.1166  0.2521
  113TMC2    O5 1769   4.462   2.439   1.761  0.2508 -0.1376 -0.4197
  113TMC2    H5 1770   4.428   2.403   1.676 -1.5029 -2.1772  1.1267
  114MPD2     C 1771   0.788   2.273   1.546 -0.0087  0.0026  0.5048
  114MPD2    C1 1772   0.719   2.381   1.593  0.0672  0.6846  0.2832
  114MPD2    C2 1773   0.583   2.365   1.610 -0.2955 -0.1180  0.0503
  114MPD2    C3 1774   0.515   2.251   1.564 -0.4802 -0.6029 -0.5812
  114MPD2    C4 1775   0.589   2.151   1.503 -0.1929 -0.1771 -0.6956
  114MPD2    C5 1776   0.726   2.160   1.494 -0.4262 -0.7969  0.0306
  114MPD2     H 1777   0.547   2.460   1.648 -2.5809 -0.7669 -0.4755
  114MPD2    H1 1778   0.538   2.070   1.452 -3.0130  1.3734 -0.3023
  114MPD2    H2 1779   0.894   2.267   1.524  0.0285 -1.4030  1.0604
  114MPD2    H3 1780   0.780   2.079   1.447 -0.3141 -1.5693  1.4773
  114MPD2     N 1781   0.374   2.244   1.569  0.3759 -0.1421 -0.1991
  114MPD2    H5 1782   0.339   2.158   1.530 -1.5100  0.0419  1.0949
  114MPD2    N1 1783   0.780   2.506   1.619 -0.1329 -0.1271  0.2408
  114MPD2    H7 1784   0.726   2.572   1.674 -2.6942 -1.8693 -0.1774
  115TMC2    C1 1785   1.514   4.074  17.548 -0.5918 -0.6004  0.1276
  115TMC2    C2 1786   1.626   4.060  17.621  0.2947 -0.7938 -0.0335
  115TMC2    C3 1787   1.715   4.164  17.636  0.2305 -0.2402 -0.3653
  115TMC2    C4 1788   1.476   4.195  17.498  1.0761 -0.4657 -0.3427
  115TMC2    C5 1789   1.569   4.299  17.514  0.1302  0.6470  0.5592
  115TMC2    C6 1790   1.684   4.289  17.581 -0.1378 -0.3368 -0.4331
  115TMC2     C 1791   1.457   3.949  17.505 -0.3362 -0.6411 -0.2085
  115TMC2     O 1792   1.511   3.842  17.528  0.3187 -0.0617 -0.3829
  115TMC2     H 1793   1.656   3.965  17.663 -0.5745 -0.0175  2.3459
  115TMC2    H1 1794   1.374   4.215  17.467  0.6071 -2.2422  0.0273
  115TMC2    H2 1795   1.750   4.373  17.600 -2.7931  2.0351 -1.8113
  115TMC2    C7 1796   1.519   4.433  17.468 -0.0578  0.2077 -0.3320
  115TMC2    C8 1797   1.825   4.137  17.728  0.4455 -0.1643 -0.3588
  115TMC2    O1 1798   1.401   4.453  17.429  0.0122  0.1374 -0.0800
  115TMC2    O2 1799   1.877   4.024  17.724 -0.4415  0.5824  1.0372
  115TMC2    O5 1800   1.868   4.254   0.039  0.2668  0.2789  0.1302
  115TMC2    H5 1801   1.800   4.325   0.034 -0.3311 -0.3820 -1.0264
  116MPD2     C 1802   1.085   3.686  17.257  0.8915 -0.0554  0.1503
  116MPD2    C1 1803   1.195   3.641  17.330  0.4390  0.0817 -0.7309
  116MPD2    C2 1804   1.281   3.729  17.393  0.1105 -0.2300  0.7056
  116MPD2    C3 1805   1.254   3.869  17.386 -0.6250 -0.0791  0.4404
  116MPD2    C4 1806   1.154   3.911  17.304 -0.3278 -0.9553  0.2740
  116MPD2    C5 1807   1.068   3.820  17.241  0.6051  0.0780  0.5652
  116MPD2     H 1808   1.369   3.696  17.447 -0.5885 -1.5964  1.0201
  116MPD2    H1 1809   1.135   4.017  17.289  2.1669 -0.5005  0.3178
  116MPD2    H2 1810   1.023   3.611  17.209  1.2456  0.7244 -1.5641
  116MPD2    H3 1811   0.993   3.851  17.169  2.1708  0.2872 -0.9563
  116MPD2     N 1812   1.337   3.968  17.436  0.2396 -0.2664  0.1926
  116MPD2    H5 1813   1.311   4.063  17.413 -0.3046 -1.2393 -3.3028
  116MPD2    N1 1814   1.223   3.504  17.320  0.2463 -0.1742 -0.0719
  116MPD2    H7 1815   1.158   3.441  17.274  2.1117 -1.4689 -0.9153
  117TMC2    C1 1816   4.592   0.845  13.854 -0.0318 -0.2312  0.4718
  117TMC2    C2 1817   4.651   0.735  13.906 -0.5888  0.3357  0.3577
  117TMC2    C3 1818   4.701   0.753  14.035  0.7826 -0.2126 -0.1639
  117TMC2    C4 1819   4.573   0.961  13.927 -0.3133  0.7387 -0.4951
  117TMC2    C5 1820   4.617   0.971  14.055  0.2689 -0.5360 -0.1803
  117TMC2    C6 1821   4.696   0.872  14.101  0.8678  0.1143 -0.1199
  117TMC2     C 1822   4.491   0.824  13.752  0.8035 -0.6549 -0.3009
  117TMC2     O 1823   4.460   0.710  13.725  0.8887  0.2224 -0.0983
  117TMC2     H 1824   4.682   0.657  13.838 -1.3192  0.5651 -0.2441
  117TMC2    H1 1825   4.510   1.046  13.901  0.7108  1.3406 -1.0020
  117TMC2    H2 1826   0.028   0.902  14.179 -0.8436  2.8699  0.3457
  117TMC2    C7 1827   4.650   1.104  14.094  0.2344 -0.2248  0.5591
  117TMC2    C8 1828   0.076   0.665  14.065  0.7723  0.1250 -0.4621
  117TMC2    O1 1829   0.017   1.127  14.150 -0.8090  0.4469  0.2791
  117TMC2    O2 1830   0.182   0.703  14.015  0.1133 -0.3718 -0.6295
  117TMC2    O5 1831   0.055   0.642  14.198  0.5444 -0.0146 -0.2551
  117TMC2    H5 1832   4.700   0.634  14.233  0.7959  2.5999  1.0055
  118MPD2     C 1833   4.413   1.386  14.106  0.4383  0.1445  0.0249
  118MPD2    C1 1834   4.538   1.327  14.098  0.7924 -0.2091  0.4997
  118MPD2    C2 1835   4.654   1.403  14.107  0.1415 -0.4877  0.5866
  118MPD2    C3 1836   4.640   1.535  14.134 -0.5891 -0.0495  0.6709
  118MPD2    C4 1837   4.522   1.596  14.130  0.1077 -0.0722 -0.6814
  118MPD2    C5 1838   4.403   1.524  14.124 -0.4319  0.1251  0.0563
  118MPD2     H 1839   0.011   1.350  14.111  0.6386  0.2922 -0.9338
  118MPD2    H1 1840   4.523   1.704  14.139 -1.7257 -0.0646 -0.6113
  118MPD2    H2 1841   4.315   1.339  14.100  0.2085  0.6249 -0.0183
  118MPD2    H3 1842   4.305   1.560  14.150 -0.1248  1.4043 -0.5579
  118MPD2     N 1843   0.014   1.627  14.139 -0.6892 -0.1468  0.0586
  118MPD2    H5 1844   4.734   1.719  14.177 -0.3701 -0.1132  0.1128
  118MPD2    N1 1845   4.541   1.188  14.091 -0.0105 -0.0868 -0.5752
  118MPD2    H7 1846   4.455   1.140  14.068 -1.1143  0.4759  2.4274
  119TMC2    C1 1847   2.870   2.375  13.301 -0.7449 -0.6025  0.0489
  119TMC2    C2 1848   2.866   2.441  13.183  0.6007 -0.2784  0.0616
  119TMC2    C3 1849   2.767   2.408  13.090  0.4570  0.4782 -0.0008
  119TMC2    C4 1850   2.777   2.278  13.330  0.2540  0.6462  0.4984
  119TMC2    C5 1851   2.686   2.245  13.235  0.4617  0.3268  0.4219
  119TMC2    C6 1852   2.689   2.299  13.107  0.0946  0.8444  0.3116
  119TMC2     C 1853   2.976   2.393  13.396  0.5738  0.2296  0.1288
  119TMC2     O 1854   2.949   2.348  13.505 -0.4728 -0.1475  0.2143
  119TMC2     H 1855   2.922   2.531  13.161  2.2741 -1.1522  0.7841
  119TMC2    H1 1856   2.786   2.228  13.426  2.3431  0.3450  0.1344
  119TMC2    H2 1857   2.605   2.280  13.041  0.1273 -1.1247  0.8254
  119TMC2    C7 1858   2.588   2.151  13.257 -0.2746 -0.2575  0.2549
  119TMC2    C8 1859   2.765   2.463  12.955 -0.3843 -0.4808  0.1548
  119TMC2    O1 1860   2.506   2.128  13.175  0.1222  0.2934  0.3722
  119TMC2    O2 1861   2.667   2.458  12.885 -0.1922  0.4957  0.9912
  119TMC2    O5 1862   2.886   2.505  12.918 -0.2857  0.4855 -0.1223
  119TMC2    H5 1863   2.955   2.484  12.984 -1.8937 -0.7500  1.1810
  120MPD2     C 1864   3.458   2.450  13.528  0.8640  0.6483  0.4500
  120MPD2    C1 1865   3.356   2.377  13.582  0.6468  0.1160  0.1209
  120MPD2    C2 1866   3.232   2.379  13.522 -0.1332 -0.5005  0.3561
  120MPD2    C3 1867   3.205   2.463  13.415 -0.8767  0.6425 -0.5032
  120MPD2    C4 1868   3.307   2.541  13.363 -0.0911 -0.3974  0.3589
  120MPD2    C5 1869   3.431   2.542  13.421 -0.0804 -0.2139 -0.1374
  120MPD2     H 1870   3.155   2.312  13.558 -0.5505 -0.3282 -0.2085
  120MPD2    H1 1871   3.298   2.601  13.274  0.8328  0.4566  0.8475
  120MPD2    H2 1872   3.558   2.433  13.566  0.9059  2.2274  1.0523
  120MPD2    H3 1873   3.519   2.594  13.386  0.5488 -1.5661 -0.5754
  120MPD2     N 1874   3.083   2.466  13.355 -0.1420  0.0075  0.1688
  120MPD2    H5 1875   3.076   2.533  13.280  0.7922 -1.9745 -1.7124
  120MPD2    N1 1876   3.394   2.287  13.681  0.5111  0.9188  0.5123
  120MPD2    H7 1877   3.488   2.294  13.720  0.7038 -2.7862  0.7221
  121TMC2    C1 1878   4.172   3.721  14.219 -0.0337  0.1996 -0.0357
  121TMC2    C2 1879   4.185   3.605  14.284  0.2423 -0.0458  0.6225
  121TMC2    C3 1880   4.074   3.537  14.327 -0.2523 -0.1814 -0.6534
  121TMC2    C4 1881   4.047   3.772  14.194 -0.1610 -0.0405  0.3569
  121TMC2    C5 1882   3.938   3.699  14.240 -0.0931  0.7161  0.4756
  121TMC2    C6 1883   3.950   3.588  14.307  0.0447  0.7871  0.6207
  121TMC2     C 1884   4.292   3.797  14.196  0.1472 -0.8800  0.5811
  121TMC2     O 1885   4.387   3.784  14.273  0.4295  0.2658 -0.5928
  121TMC2     H 1886   4.283   3.570  14.316 -0.0706 -1.4705  0.0305
  121TMC2    H1 1887   4.030   3.859  14.131 -0.5616 -1.0313 -0.9068
  121TMC2    H2 1888   3.869   3.529  14.348 -0.5059  1.7548  0.9195
  121TMC2    C7 1889   3.805   3.752  14.225  0.1294 -0.8580  0.0507
  121TMC2    C8 1890   4.084   3.416  14.406 -0.1203 -0.0346  0.3298
  121TMC2    O1 1891   3.800   3.875  14.214  0.4554  0.3951  0.2451
  121TMC2    O2 1892   3.998   3.331  14.411 -0.2991  0.2271 -0.1746
  121TMC2    O5 1893   4.178   3.432  14.498 -0.2615 -0.2283  0.0580
  121TMC2    H5 1894   4.231   3.515  14.495  2.0167 -1.6695  0.6014
  122MPD2     C 1895   4.493   3.999  14.115  0.1454  0.8196  0.0569
  122MPD2    C1 1896   4.382   3.964  14.039 -0.0516  0.4147  0.1885
  122MPD2    C2 1897   4.385   4.006  13.904 -0.3609 -0.1422 -0.6395
  122MPD2    C3 1898   4.482   4.091  13.854 -0.7274 -0.1176  0.0337
  122MPD2    C4 1899   4.581   4.136  13.935  0.6252  0.3379 -0.9330
  122MPD2    C5 1900   4.592   4.083  14.062  0.1732 -0.9825 -0.9115
  122MPD2     H 1901   4.309   3.969  13.837 -0.6963 -1.6334  0.5632
  122MPD2    H1 1902   4.668   4.189  13.898  1.7890 -1.1500 -0.3690
  122MPD2    H2 1903   4.511   3.961  14.215 -0.2023 -2.3832 -1.0752
  122MPD2    H3 1904   4.682   4.108  14.116  1.2095 -2.7680 -1.8142
  122MPD2     N 1905   4.478   4.140  13.722 -0.1040  0.5396 -0.1082
  122MPD2    H5 1906   4.551   4.209  13.705 -0.4844  1.0915  0.5134
  122MPD2    N1 1907   4.282   3.876  14.084  1.1139  0.5213 -0.5257
  122MPD2    H7 1908   4.202   3.848  14.029 -0.1348 -2.8889  3.0123
  123TMC2    C1 1909   3.610   2.467   9.980  0.6016 -0.0968 -0.7221
  123TMC2    C2 1910   3.734   2.524  10.021  0.4083  0.0238 -0.4882
  123TMC2    C3 1911   3.724   2.656  10.056 -0.2690 -0.5880 -0.6637
  123TMC2    C4 1912   3.488   2.538   9.972 -0.3751 -0.7856  0.1824
  123TMC2    C5 1913   3.488   2.670  10.008 -0.0923 -0.3090  0.2093
  123TMC2    C6 1914   3.606   2.733  10.051 -0.3441  0.0640 -0.8783
  123TMC2     C 1915   3.599   2.331   9.996  0.7138 -0.9802 -0.3902
  123TMC2     O 1916   3.698   2.268   9.959  0.2722 -0.7030  0.1460
  123TMC2     H 1917   3.815   2.460  10.052  0.1693  0.6892  1.4711
  123TMC2    H1 1918   3.403   2.489   9.926  0.2304 -0.1553 -1.5968
  123TMC2    H2 1919   3.606   2.833  10.093 -3.2663  0.0216 -0.7298
  123TMC2    C7 1920   3.355   2.709  10.063  0.5028 -0.4116  0.6414
  123TMC2    C8 1921   3.842   2.738  10.065 -0.8345  0.5823 -0.1453
  123TMC2    O1 1922   3.278   2.613  10.087  0.6444  0.1240  0.0906
  123TMC2    O2 1923   3.839   2.863  10.060 -0.0639  0.5058  0.5110
  123TMC2    O5 1924   3.955   2.665  10.053  0.2412 -0.4011  0.6157
  123TMC2    H5 1925   3.935   2.575  10.019  1.9875  0.2007 -1.9956
  124MPD2     C 1926   3.403   1.952  10.261 -0.3369  0.2201 -0.2824
  124MPD2    C1 1927   3.321   2.056  10.277  0.0021 -0.3375  0.8460
  124MPD2    C2 1928   3.349   2.170  10.202  0.0398 -0.1297  0.0338
  124MPD2    C3 1929   3.458   2.173  10.114  0.9042  0.3550  0.1064
  124MPD2    C4 1930   3.525   2.056  10.081  0.2283 -0.0201  0.8268
  124MPD2    C5 1931   3.502   1.950  10.162 -0.6309  0.2537 -0.3341
  124MPD2     H 1932   3.280   2.253  10.211  0.2348  0.2502 -1.8675
  124MPD2    H1 1933   3.600   2.058  10.003 -0.6687  1.2715 -0.0163
  124MPD2    H2 1934   3.388   1.861  10.317  0.9965 -0.6830 -1.3823
  124MPD2    H3 1935   3.567   1.863  10.157 -0.4373  0.4374 -1.0123
  124MPD2     N 1936   3.488   2.302  10.067 -0.2167 -0.0583  0.5891
  124MPD2    H5 1937   3.427   2.379  10.095 -2.2760 -1.0432 -1.1983
  124MPD2    N1 1938   3.227   2.050  10.379 -0.0190 -0.5885  0.1158
  124MPD2    H7 1939   3.205   1.960  10.421 -1.3961  1.2700  3.3417
  125TMC2    C1 1940   3.833   0.385   8.601 -0.7022 -0.3965  0.1002
  125TMC2    C2 1941   3.941   0.439   8.534 -0.0440  0.3891  0.1002
  125TMC2    C3 1942   4.062   0.386   8.569 -0.1113 -0.6861  0.1707
  125TMC2    C4 1943   3.838   0.311   8.710  0.5629 -0.2650 -0.0505
  125TMC2    C5 1944   3.958   0.272   8.748 -0.5913 -0.7468 -0.9815
  125TMC2    C6 1945   4.082   0.298   8.678 -0.2121  0.5051  0.0749
  125TMC2     C 1946   3.710   0.447   8.560  0.5022 -1.0251  0.0214
  125TMC2     O 1947   3.708   0.566   8.530 -0.4467 -0.3124  0.0787
  125TMC2     H 1948   3.919   0.498   8.446  0.4702  1.0356  0.4108
  125TMC2    H1 1949   3.745   0.274   8.752  0.7219 -0.1349  0.4154
  125TMC2    H2 1950   4.178   0.257   8.704  0.2135  0.4724 -1.5661
  125TMC2    C7 1951   3.967   0.184   8.861  0.3369 -0.6848 -0.3553
  125TMC2    C8 1952   4.192   0.448   8.525  0.6122 -0.4598  0.1175
  125TMC2    O1 1953   3.873   0.192   8.940  0.9674 -0.4177  0.4646
  125TMC2    O2 1954   4.300   0.406   8.574  0.1361 -0.0523  0.4904
  125TMC2    O5 1955   4.179   0.500   8.397  0.0082 -0.0800  0.6645
  125TMC2    H5 1956   4.087   0.487   8.365  0.1675  1.4574 -0.4266
  126MPD1     C 1957   3.195   0.424   8.596  0.0468  0.4052  0.0731
  126MPD1    C1 1958   3.244   0.301   8.610  0.4966 -0.2927  0.3558
  126MPD1    C2 1959   3.382   0.280   8.586  0.5069  0.1666  0.3114
  126MPD1    C3 1960   3.475   0.385   8.580  0.3231 -0.0640  0.4484
  126MPD1    C4 1961   3.422   0.515   8.590  0.9823  0.1811  0.6097
  126MPD1    C5 1962   3.288   0.531   8.587 -0.2563  0.2728 -0.4097
  126MPD1     H 1963   3.421   0.182   8.608  1.1243  0.1063 -1.0008
  126MPD1    H1 1964   3.492   0.597   8.590  0.7393  0.3946  2.4069
  126MPD1    H2 1965   3.088   0.437   8.606  0.1958  0.8271  1.1434
  126MPD1    H3 1966   3.245   0.630   8.595  1.4157  0.8746  1.1621
  126MPD1     N 1967   3.616   0.356   8.586 -0.4553 -0.6065 -0.0444
  126MPD1    H5 1968   3.643   0.259   8.592 -0.0854 -0.5060 -0.0898
  126MPD1    N1 1969   3.152   0.195   8.620  0.4050  0.2013 -0.6168
  126MPD1    H6 1970   3.072   0.232   8.671  0.5857  0.6444 -0.6529
  126MPD1    H7 1971   3.197   0.125   8.678 -2.8453 -1.1943  0.1978
  127TMC2    C1 1972   0.154   2.340   9.431 -0.0303  0.0909  0.0220
  127TMC2    C2 1973   0.248   2.269   9.499 -0.6885 -0.4308 -0.4714
  127TMC2    C3 1974   0.227   2.148   9.552  0.6407 -0.0520 -0.8465
  127TMC2    C4 1975   0.028   2.289   9.420 -0.1441  0.1879  0.1899
  127TMC2    C5 1976   0.006   2.166   9.474  0.4683 -0.2662 -0.1247
  127TMC2    C6 1977   0.098   2.093   9.544  0.6467 -0.1006 -0.0076
  127TMC2     C 1978   0.185   2.476   9.384  0.5990 -0.1227  0.4915
  127TMC2     O 1979   0.289   2.529   9.419 -0.2423  0.3240  0.3999
  127TMC2     H 1980   0.347   2.313   9.499 -1.1716  0.6483  0.9030
  127TMC2    H1 1981   4.686   2.352   9.379 -0.0284  0.9357  1.1045
  127TMC2    H2 1982   0.076   1.991   9.573 -2.1090  0.4037 -0.3190
  127TMC2    C7 1983   4.606   2.120   9.452  0.0147  0.0223 -0.2259
  127TMC2    C8 1984   0.340   2.097   9.630  0.2555 -0.1337  0.2540
  127TMC2    O1 1985   4.535   2.179   9.370  0.2836  0.0659 -0.4884
  127TMC2    O2 1986   0.455   2.143   9.628  0.0555  0.7600 -0.3034
  127TMC2    O5 1987   0.294   2.000   9.712  0.1544  0.4480  0.3235
  127TMC2    H5 1988   0.197   2.003   9.729  0.3851 -0.4052  1.7387
  128MPD2     C 1989   0.048   2.655   9.093  0.0385  0.5152 -0.2310
  128MPD2    C1 1990   0.104   2.638   9.222 -0.4223 -0.0269  0.2046
  128MPD2    C2 1991   0.165   2.751   9.280 -0.5490  0.0612  0.7026
  128MPD2    C3 1992   0.161   2.868   9.210  0.4227 -1.3213  0.6810
  128MPD2    C4 1993   0.104   2.873   9.085 -0.3161 -0.2710 -0.4588
  128MPD2    C5 1994   0.048   2.770   9.021  0.1692  0.7490 -0.1449
  128MPD2     H 1995   0.217   2.754   9.375 -1.4933  0.2996  1.2194
  128MPD2    H1 1996   0.100   2.964   9.026  1.2508 -1.0682 -1.7783
  128MPD2    H2 1997   0.000   2.569   9.049  1.2777 -1.3678  2.1435
  128MPD2    H3 1998   4.734   2.777   8.925 -0.3131 -1.0365 -0.0308
  128MPD2     N 1999   0.208   2.985   9.277 -0.4610 -0.2938  0.6184
  128MPD2    H5 2000   0.250   2.972   9.368 -0.4995  1.2645  0.8584
  128MPD2    N1 2001   0.103   2.508   9.279 -0.0020  0.3144  0.2102
  128MPD2    H7 2002   0.055   2.437   9.226  1.2209  0.5130 -1.1656
  129TMC2    C1 2003   3.828   2.914   1.459 -0.5856 -0.1816  0.5046
  129TMC2    C2 2004   3.935   2.891   1.544 -0.0294  0.1171 -1.1425
  129TMC2    C3 2005   3.912   2.887   1.677 -0.7091 -0.0238 -0.7130
  129TMC2    C4 2006   3.700   2.917   1.504  0.1605  0.0980 -0.6694
  129TMC2    C5 2007   3.682   2.912   1.643 -0.2330 -0.1960 -0.2071
  129TMC2    C6 2008   3.790   2.905   1.731  0.5569  0.3056  0.6130
  129TMC2     C 2009   3.857   2.944   1.318  0.8960 -0.1963 -0.3776
  129TMC2     O 2010   3.783   2.900   1.229 -0.3198 -0.9989  0.1699
  129TMC2     H 2011   4.039   2.890   1.512  0.2332  0.1084 -0.2757
  129TMC2    H1 2012   3.616   2.945   1.441  0.6596 -0.1255 -1.4419
  129TMC2    H2 2013   3.769   2.917   1.837  2.7418 -3.7360  1.5031
  129TMC2    C7 2014   3.554   2.962   1.689 -0.4875  0.6148  0.2786
  129TMC2    C8 2015   4.023   2.885   1.768 -0.2733  0.6613  0.2071
  129TMC2    O1 2016   3.515   2.916   1.796  0.3460 -0.2585 -0.0265
  129TMC2    O2 2017   4.129   2.939   1.750  0.5818 -0.3022  0.7400
  129TMC2    O5 2018   3.982   2.808   1.871 -0.4118 -0.0545  0.4127
  129TMC2    H5 2019   3.896   2.769   1.848 -1.6732  1.9273  1.6813
  130MPD2     C 2020   3.978   3.027   1.064  0.2315 -0.5126 -0.2142
  130MPD2    C1 2021   4.003   3.087   1.180  1.1514 -0.1928 -0.1876
  130MPD2    C2 2022   4.086   3.199   1.190  0.3251 -0.1421  0.3260
  130MPD2    C3 2023   4.126   3.261   1.076 -0.5465 -1.2182 -0.4202
  130MPD2    C4 2024   4.076   3.209   0.956 -0.0122  0.4209  0.4731
  130MPD2    C5 2025   4.017   3.087   0.948  0.3238 -0.9680 -0.1996
  130MPD2     H 2026   4.111   3.241   1.287 -0.3683 -2.1472  1.3623
  130MPD2    H1 2027   4.099   3.259   0.862 -1.5106  1.1693  0.5048
  130MPD2    H2 2028   3.916   2.938   1.059 -0.9460  0.2187  1.3528
  130MPD2    H3 2029   3.984   3.046   0.854 -1.7672  2.8805 -1.1639
  130MPD2     N 2030   4.208   3.377   1.078 -0.9059  0.4212 -0.3026
  130MPD2    H5 2031   4.242   3.401   1.170 -0.6343 -3.6532  0.6749
  130MPD2    N1 2032   3.959   3.034   1.304  0.1312 -0.2107  0.3407
  130MPD2    H7 2033   3.988   3.082   1.389  1.0866  1.8871 -1.1965
  131TMC2    C1 2034   3.052   3.011  10.724  0.1724  0.8946  0.2842
  131TMC2    C2 2035   2.960   3.110  10.712 -0.1886  0.4959 -0.1606
  131TMC2    C3 2036   3.004   3.227  10.646  0.3893 -0.6056 -0.5362
  131TMC2    C4 2037   3.187   3.028  10.686  0.4356 -0.0852  0.0180
  131TMC2    C5 2038   3.222   3.144  10.615 -0.6478  0.1688  0.3795
  131TMC2    C6 2039   3.130   3.244  10.595 -0.1380 -0.6234  0.6648
  131TMC2     C 2040   3.002   2.881  10.726  0.3712  0.0119 -0.4186
  131TMC2     O 2041   3.074   2.796  10.673  0.1988  0.1547 -0.1037
  131TMC2     H 2042   2.858   3.073  10.718 -0.1543  0.4854  0.4140
  131TMC2    H1 2043   3.257   2.948  10.703  1.0243  0.4141 -0.0377
  131TMC2    H2 2044   3.160   3.336  10.546 -0.3609 -0.0981  1.5159
  131TMC2    C7 2045   3.322   3.132  10.510  0.3676 -0.3094  0.0569
  131TMC2    C8 2046   2.927   3.345  10.639 -0.0383 -0.5936 -0.4031
  131TMC2    O1 2047   3.367   3.018  10.491 -0.1100  0.2777  0.0127
  131TMC2    O2 2048   2.908   3.401  10.533  0.3724 -0.0211  0.4928
  131TMC2    O5 2049   2.819   3.311  10.717 -0.2485 -0.1597 -0.6198
  131TMC2    H5 2050   2.843   3.289  10.809 -2.5509 -0.2692 -0.0529
  132MPD2     C 2051   2.696   2.745  10.890  0.6961 -0.1690 -0.0104
  132MPD2    C1 2052   2.820   2.744  10.829  0.2495  0.3174  0.2455
  132MPD2    C2 2053   2.870   2.621  10.795 -0.9192 -0.1995 -0.8157
  132MPD2    C3 2054   2.798   2.505  10.814  0.0507 -0.1847 -0.2392
  132MPD2    C4 2055   2.676   2.508  10.879 -0.6145 -0.2036 -0.4168
  132MPD2    C5 2056   2.639   2.625  10.937 -0.0163 -0.0458  0.5251
  132MPD2     H 2057   2.956   2.612  10.730 -0.6821 -2.7797 -0.1327
  132MPD2    H1 2058   2.626   2.417  10.909  1.1581 -0.6848  1.0757
  132MPD2    H2 2059   2.659   2.841  10.925 -1.4216 -0.4902 -1.3294
  132MPD2    H3 2060   2.542   2.638  10.983  0.3252  0.4459  1.1071
  132MPD2     N 2061   2.865   2.387  10.769  0.0373 -0.2015 -0.5230
  132MPD2    H5 2062   2.956   2.401  10.728  0.6279 -1.6291  0.2940
  132MPD2    N1 2063   2.887   2.865  10.796 -0.5449  0.1294 -0.4983
  132MPD2    H7 2064   2.845   2.950  10.833  1.2827  0.2076  1.3972
  133TMC2    C1 2065   2.528   4.163  10.111 -0.3000  0.0613  0.0567
  133TMC2    C2 2066   2.589   4.188   9.994  0.2857 -0.4849  0.7221
  133TMC2    C3 2067   2.643   4.309   9.967  0.2480 -0.0816 -0.1982
  133TMC2    C4 2068   2.525   4.256  10.209 -0.3481  0.9182  0.7686
  133TMC2    C5 2069   2.576   4.383  10.180  0.6949  0.2211 -0.1817
  133TMC2    C6 2070   2.645   4.408  10.062 -0.1290 -0.1367 -1.2994
  133TMC2     C 2071   2.443   4.042  10.118 -0.5640  0.8163 -0.1614
  133TMC2     O 2072   2.480   3.940  10.057 -0.2683 -0.3755 -0.4038
  133TMC2     H 2073   2.570   4.119   9.913 -0.2815 -1.4900  1.7259
  133TMC2    H1 2074   2.483   4.235  10.306  1.5927 -0.0500  1.3956
  133TMC2    H2 2075   2.673   4.509  10.034  0.2224 -0.3974 -1.9103
  133TMC2    C7 2076   2.565   4.487  10.278  0.0384  0.1924 -0.1138
  133TMC2    C8 2077   2.698   4.353   9.834 -0.8486  0.5136 -0.3940
  133TMC2    O1 2078   2.663   4.562  10.284  0.4874  0.6577 -0.4416
  133TMC2    O2 2079   2.730   4.467   9.810 -1.0278 -0.0311 -0.4100
  133TMC2    O5 2080   2.730   4.244   9.761  0.3850 -0.1385  0.0235
  133TMC2    H5 2081   2.739   4.155   9.801 -2.4157 -1.3508 -2.0574
  134MPD2     C 2082   2.079   4.068  10.161  0.5001  0.5271 -0.8515
  134MPD2    C1 2083   2.202   4.008  10.147 -0.7800 -0.0070  0.3169
  134MPD2    C2 2084   2.200   3.881  10.083  0.2213  0.4973 -0.8149
  134MPD2    C3 2085   2.089   3.826  10.026 -0.1566  0.0007 -0.2659
  134MPD2    C4 2086   1.968   3.887  10.035  0.2134  0.2242 -0.4072
  134MPD2    C5 2087   1.965   4.004  10.105 -0.1627 -0.4928 -0.4762
  134MPD2     H 2088   2.293   3.825  10.077 -1.5028 -2.6563  1.8627
  134MPD2    H1 2089   1.876   3.843  10.000 -0.3108  1.0330 -0.0553
  134MPD2    H2 2090   2.064   4.161  10.215 -0.4814 -0.3349  0.3693
  134MPD2    H3 2091   1.865   4.040  10.124 -0.2818 -0.4688 -1.1373
  134MPD2     N 2092   2.093   3.707   9.947 -0.1836 -0.6245  0.2651
  134MPD2    H5 2093   2.000   3.686   9.914 -0.0848  0.4623 -0.6847
  134MPD2    N1 2094   2.321   4.080  10.172  0.1089 -0.1493  0.0721
  134MPD2    H7 2095   2.312   4.175  10.206  0.3487  0.1157 -0.5989
  135TMC2    C1 2096   4.055   0.174  10.191 -0.0099  0.5749 -0.1669
  135TMC2    C2 2097   3.952   0.133  10.110  0.4451  0.6152  0.5832
  135TMC2    C3 2098   3.867   0.047  10.153 -0.1664 -0.0327 -0.0515
  135TMC2    C4 2099   4.061   0.127  10.324 -0.5739  0.1950 -0.0800
  135TMC2    C5 2100   3.974   0.030  10.370  0.4886 -0.1953  0.0565
  135TMC2    C6 2101   3.871   0.001  10.285 -0.6048  0.4524  0.1342
  135TMC2     C 2102   4.162   0.262  10.151  0.6531 -1.0710  0.1176
  135TMC2     O 2103   4.230   0.311  10.238 -0.7551 -0.1632  0.4363
  135TMC2     H 2104   3.920   0.196  10.027 -1.8430 -0.2799  0.7983
  135TMC2    H1 2105   4.146   0.165  10.380  0.5469 -0.7505 -1.1338
  135TMC2    H2 2106   3.792   4.671  10.318  1.8420 -1.8896  1.2801
  135TMC2    C7 2107   3.954   0.028  10.514 -0.5741  0.7247  0.3914
  135TMC2    C8 2108   3.738   0.062  10.091  0.0172 -0.6055 -0.9632
  135TMC2    O1 2109   4.024   0.098  10.584 -0.6163 -0.2000 -0.2431
  135TMC2    O2 2110   3.634   0.021  10.141 -0.0086 -0.2753 -0.2260
  135TMC2    O5 2111   3.750   0.070   9.955 -0.5470  0.5228 -0.0519
  135TMC2    H5 2112   3.842   0.071   9.923 -1.0125 -2.7583 -1.4551
  136MPD2     C 2113   4.389   0.374   9.996 -0.3241  0.4849  0.0502
  136MPD2    C1 2114   4.278   0.318   9.939 -0.2688 -0.1844 -0.4335
  136MPD2    C2 2115   4.282   0.299   9.799  0.0849  0.1796 -0.2307
  136MPD2    C3 2116   4.392   0.333   9.716  0.3222 -0.1606 -0.4859
  136MPD2    C4 2117   4.501   0.374   9.785  0.1063 -0.1193  0.5730
  136MPD2    C5 2118   4.500   0.400   9.920 -0.3506  0.6302 -0.1545
  136MPD2     H 2119   4.186   0.270   9.759  1.1763  0.1209 -2.8776
  136MPD2    H1 2120   4.583   0.407   9.722 -1.3822  4.1258  0.8516
  136MPD2    H2 2121   4.394   0.391  10.103  2.2055  1.8150 -0.2904
  136MPD2    H3 2122   4.592   0.440   9.962 -0.0908  0.9888 -1.0654
  136MPD2     N 2123   4.389   0.337   9.580  0.1363  0.2597 -0.2743
  136MPD2    H5 2124   4.475   0.367   9.535  0.0734  2.9501  1.4280
  136MPD2    N1 2125   4.172   0.266  10.012  0.0136 -0.0574 -0.0879
  136MPD2    H7 2126   4.103   0.213   9.959  1.8371 -1.5625 -0.9510
  137TMC2    C1 2127   4.359   3.693   9.629  0.4223 -0.8867 -0.7729
  137TMC2    C2 2128   4.344   3.601   9.524  0.2469  0.3466  0.1226
  137TMC2    C3 2129   4.360   3.647   9.397 -0.1005 -0.4922 -0.0549
  137TMC2    C4 2130   4.362   3.825   9.597 -0.0565 -0.3418  0.4744
  137TMC2    C5 2131   4.361   3.869   9.468  0.5608 -0.2294 -0.4413
  137TMC2    C6 2132   4.355   3.778   9.363 -0.7861  0.4683 -0.2555
  137TMC2     C 2133   4.268   3.675   9.737  0.4605 -0.0968  0.1177
  137TMC2     O 2134   4.223   3.782   9.774 -0.4383 -0.1085  0.5648
  137TMC2     H 2135   4.349   3.495   9.544  0.7000  0.4675  0.6463
  137TMC2    H1 2136   4.365   3.900   9.675 -2.3186 -1.6286  1.7827
  137TMC2    H2 2137   4.348   3.818   9.263 -1.2464 -0.4061 -0.5694
  137TMC2    C7 2138   4.252   3.968   9.448  0.5322 -0.3671 -0.4581
  137TMC2    C8 2139   4.360   3.550   9.289 -0.1784  0.1281 -0.1258
  137TMC2    O1 2140   4.246   4.032   9.343  0.1018  0.4338 -0.1545
  137TMC2    O2 2141   4.318   3.570   9.173  0.2447  0.3573  0.2553
  137TMC2    O5 2142   4.448   3.461   9.331 -0.4218  0.2366  0.6826
  137TMC2    H5 2143   4.482   3.479   9.421  2.1726 -1.7514  0.0946
  138MPD2     C 2144   4.124   3.364   9.871  0.5847  0.5210 -0.4489
  138MPD2    C1 2145   4.128   3.501   9.844  0.0839  0.3761  0.1694
  138MPD2    C2 2146   4.057   3.587   9.930 -0.6005 -0.2930 -0.1225
  138MPD2    C3 2147   3.983   3.537  10.035 -0.1348  0.1245 -0.4497
  138MPD2    C4 2148   3.961   3.401  10.033  0.5359 -0.1827 -0.7440
  138MPD2    C5 2149   4.029   3.314   9.960 -0.5410 -0.1897  0.7751
  138MPD2     H 2150   4.073   3.694   9.929  0.1598 -0.4038 -0.6249
  138MPD2    H1 2151   3.898   3.348  10.105  0.3865  1.0318  0.0084
  138MPD2    H2 2152   4.181   3.289   9.819 -2.9923 -0.9003 -2.3160
  138MPD2    H3 2153   4.022   3.207   9.972 -0.0375 -0.6172 -2.7950
  138MPD2     N 2154   3.923   3.629  10.125  0.0194  0.1510 -0.5786
  138MPD2    H5 2155   3.935   3.725  10.097 -0.7165  0.6281  0.7586
  138MPD2    N1 2156   4.230   3.541   9.757  0.1350  0.2121 -0.8557
  138MPD2    H7 2157   4.284   3.467   9.712  1.4355  0.0743  0.9427
  139TMC2    C1 2158   0.069   1.988  13.889  0.5373  0.6755 -0.1497
  139TMC2    C2 2159   0.199   2.037  13.912  0.4065 -0.0010  0.4244
  139TMC2    C3 2160   0.209   2.166  13.955  0.1674  0.1356  0.4894
  139TMC2    C4 2161   4.703   2.079  13.874  0.2661 -0.1550 -0.7617
  139TMC2    C5 2162   4.719   2.212  13.910  0.7982 -0.3981 -0.2772
  139TMC2    C6 2163   0.110   2.255  13.953 -0.5038 -0.6642 -0.4468
  139TMC2     C 2164   0.063   1.864  13.818  0.7870  0.2547 -0.4796
  139TMC2     O 2165   0.161   1.827  13.755 -0.1884  0.0895 -0.6349
  139TMC2     H 2166   0.279   1.965  13.920  1.2783  0.8598 -0.5390
  139TMC2    H1 2167   4.600   2.049  13.860  0.5667 -1.1241 -0.9153
  139TMC2    H2 2168   0.122   2.359  13.981  0.2187 -1.2147  1.2716
  139TMC2    C7 2169   4.603   2.292  13.951  0.5700  0.5166  0.7637
  139TMC2    C8 2170   0.344   2.206  14.002  0.0586  0.7636 -0.2422
  139TMC2    O1 2171   4.513   2.310  13.874  0.6548 -0.5631 -0.1378
  139TMC2    O2 2172   0.438   2.132  13.977  0.0577  0.0156 -0.5969
  139TMC2    O5 2173   0.348   2.306  14.088 -0.3528 -0.0093 -0.2163
  139TMC2    H5 2174   0.262   2.337  14.124  0.4851  1.1696  0.7907
  140MPD2     C 2175   4.515   1.637  13.816  0.4626 -1.1053  0.3507
  140MPD2    C1 2176   4.649   1.667  13.792 -0.6463 -0.3200 -0.7749
  140MPD2    C2 2177   4.733   1.565  13.749 -0.7221 -0.2350  0.0700
  140MPD2    C3 2178   4.690   1.442  13.726 -0.2033  0.0292 -0.7110
  140MPD2    C4 2179   4.551   1.417  13.737 -1.1175 -1.0550  0.0033
  140MPD2    C5 2180   4.463   1.514  13.787  0.6317 -0.4265  0.0029
  140MPD2     H 2181   0.103   1.579  13.730 -1.1650  0.4707 -1.9288
  140MPD2    H1 2182   4.514   1.326  13.693  0.1716 -1.5123 -0.1130
  140MPD2    H2 2183   4.438   1.704  13.854  0.6593 -1.1294  0.7971
  140MPD2    H3 2184   4.355   1.507  13.795  0.4304  1.5077 -1.1432
  140MPD2     N 2185   0.050   1.348  13.674  0.1888  0.4016 -0.3111
  140MPD2    H5 2186   0.135   1.382  13.630  1.6906 -2.2942  0.4765
  140MPD2    N1 2187   4.675   1.801  13.824  0.3943 -0.1651 -0.4828
  140MPD2    H7 2188   4.606   1.858  13.872  2.5755  1.4293  0.7394
  141TMC2    C1 2189   0.068   3.118  14.645 -0.2742  0.0786  0.3899
  141TMC2    C2 2190   0.117   3.001  14.696  0.2546  0.5445  0.7036
  141TMC2    C3 2191   0.213   3.005  14.794 -0.2575  0.2486  0.2405
  141TMC2    C4 2192   0.102   3.237  14.699  0.4502 -0.6019 -0.3194
  141TMC2    C5 2193   0.194   3.233  14.797 -0.7222 -0.1584 -0.3478
  141TMC2    C6 2194   0.249   3.120  14.852 -0.5353  0.4026 -0.2849
  141TMC2     C 2195   0.023   3.123  14.511  0.4303 -0.2646 -0.3031
  141TMC2     O 2196   0.018   3.239  14.468 -0.6275 -0.0093 -0.1903
  141TMC2     H 2197   0.094   2.906  14.650 -0.7890  1.1565 -0.0327
  141TMC2    H1 2198   0.087   3.330  14.645  1.3444  0.2296  0.8556
  141TMC2    H2 2199   0.314   3.132  14.938  0.3067  0.4975 -0.9304
  141TMC2    C7 2200   0.261   3.363  14.816 -0.7770 -0.2532 -0.1032
  141TMC2    C8 2201   0.268   2.878  14.832 -0.3831 -0.1446  0.2768
  141TMC2    O1 2202   0.183   3.454  14.827 -0.3287 -0.4094  0.0475
  141TMC2    O2 2203   0.216   2.769  14.831 -0.3007 -0.0172 -0.2474
  141TMC2    O5 2204   0.383   2.910  14.899 -0.3251  0.1023  0.0363
  141TMC2    H5 2205   0.426   2.995  14.874 -0.2001  0.4418  1.4042
  142TMC2    C1 2206   2.739   2.391  10.447  0.6566 -0.2333  0.5667
  142TMC2    C2 2207   2.617   2.456  10.488 -1.0369  0.9798 -0.0946
  142TMC2    C3 2208   2.631   2.588  10.515 -0.0557  0.1533 -0.3258
  142TMC2    C4 2209   2.854   2.457  10.427 -0.0762 -0.0792  0.2609
  142TMC2    C5 2210   2.855   2.592  10.449  0.7064  0.0713 -0.0421
  142TMC2    C6 2211   2.740   2.658  10.490  0.7157  0.2461  0.3748
  142TMC2     C 2212   2.737   2.251  10.396 -0.0808  0.3010 -0.3841
  142TMC2     O 2213   2.658   2.168  10.437 -0.1067 -0.1560 -0.4957
  142TMC2     H 2214   2.524   2.400  10.489  0.5479 -1.7062 -2.1171
  142TMC2    H1 2215   2.948   2.411  10.396  0.3872  1.9256 -1.3376
  142TMC2    H2 2216   2.740   2.765  10.508 -0.1077  0.6766 -2.1793
  142TMC2    C7 2217   2.969   2.655  10.399 -0.5519  0.4586 -0.2088
  142TMC2    C8 2218   2.518   2.676  10.527 -1.1884 -0.3862  0.8145
  142TMC2    O1 2219   3.070   2.585  10.396 -0.5140 -0.1969 -0.1488
  142TMC2    O2 2220   2.424   2.636  10.595 -0.4329  0.9191 -0.3611
  142TMC2    O5 2221   2.496   2.704  10.395  0.7920 -0.2938  0.1768
  142TMC2    H5 2222   2.577   2.687  10.344 -0.2735 -1.5481 -1.0897
  143MPD2     C 2223   2.897   1.904  10.055  1.1446  0.0586 -0.1797
  143MPD2    C1 2224   2.845   1.886  10.179 -0.9083  0.4532  0.1301
  143MPD2    C2 2225   2.811   1.993  10.260 -0.3748 -0.0739  0.7011
  143MPD2    C3 2226   2.855   2.119  10.219 -0.0771 -0.4000  0.3520
  143MPD2    C4 2227   2.911   2.136  10.096 -0.3158 -0.3630  0.0219
  143MPD2    C5 2228   2.933   2.027  10.021  0.0606  0.1579 -0.3478
  143MPD2     H 2229   2.748   1.976  10.347 -1.0152  0.0602  0.2674
  143MPD2    H1 2230   2.934   2.234  10.057 -1.2736 -0.1413  0.0150
  143MPD2    H2 2231   2.921   1.811  10.004  0.5991 -0.4105  0.4235
  143MPD2    H3 2232   2.992   2.042   9.932 -0.7124 -2.9953 -1.3748
  143MPD2     N 2233   2.815   2.234  10.290 -0.5306 -0.0663  0.1526
  143MPD2    H5 2234   2.853   2.318  10.248  1.1163 -0.5484  0.6882
  143MPD2    N1 2235   2.810   1.755  10.207  0.2380  0.1014  0.2605
  143MPD2    H7 2236   2.848   1.688  10.141 -1.9078 -1.3109  0.4550
  144TMC2    C1 2237   0.766   1.348   0.939  0.4180 -0.3102 -0.5606
  144TMC2    C2 2238   0.823   1.257   0.850 -0.3596 -0.6952 -0.2031
  144TMC2    C3 2239   0.948   1.222   0.879  0.4295 -0.0266  0.3011
  144TMC2    C4 2240   0.835   1.417   1.031  0.3050 -0.3124 -0.5474
  144TMC2    C5 2241   0.962   1.371   1.052 -0.7739  0.0908 -0.1819
  144TMC2    C6 2242   1.024   1.282   0.979  0.2282 -0.0637  0.4360
  144TMC2     C 2243   0.635   1.394   0.893  0.2112  0.2981  0.1248
  144TMC2     O 2244   0.593   1.347   0.789  0.1156 -0.0294 -0.2685
  144TMC2     H 2245   0.755   1.199   0.788 -0.4017 -1.6575  0.7287
  144TMC2    H1 2246   0.793   1.507   1.071 -0.3662 -0.5063 -0.8170
  144TMC2    H2 2247   1.128   1.256   0.991  0.3640 -0.0809 -0.8704
  144TMC2    C7 2248   1.026   1.397   1.181  0.2048 -0.3218 -0.3300
  144TMC2    C8 2249   1.012   1.107   0.810  0.0179  0.0433  0.0320
  144TMC2    O1 2250   1.145   1.358   1.175  0.3492 -0.4520 -1.3042
  144TMC2    O2 2251   1.096   1.038   0.871  0.0489  0.3164  0.9034
  144TMC2    O5 2252   0.933   1.074   0.708 -0.1173 -0.1245  0.2012
  144TMC2    H5 2253   0.891   1.160   0.684  0.4284  0.4048  1.1365
  145MPD2     C 2254   0.196   1.664   0.897 -0.2549 -0.0678  0.1400
  145MPD2    C1 2255   0.246   1.588   0.801  0.8227 -0.5668 -0.1355
  145MPD2    C2 2256   0.362   1.516   0.827  0.0161 -0.7247 -0.6164
  145MPD2    C3 2257   0.430   1.522   0.954  0.4779 -0.0026 -0.5254
  145MPD2    C4 2258   0.374   1.605   1.045 -0.0872 -0.0673 -0.7945
  145MPD2    C5 2259   0.260   1.672   1.023  0.7173 -0.6167  0.5584
  145MPD2     H 2260   0.399   1.454   0.746 -0.3269 -2.4380  0.5244
  145MPD2    H1 2261   0.417   1.619   1.144 -1.1504  0.2237 -0.3656
  145MPD2    H2 2262   0.104   1.714   0.869 -0.2314  0.2518  0.6317
  145MPD2    H3 2263   0.225   1.733   1.106  0.2137 -1.0056  0.6343
  145MPD2     N 2264   0.561   1.473   0.981  0.5714  0.3925  0.1764
  145MPD2    H5 2265   0.614   1.494   1.065  0.8271  1.0423 -0.1489
  145MPD2    N1 2266   0.206   1.591   0.667  0.4797  0.1279 -0.2844
  145MPD2    H7 2267   0.249   1.525   0.603  1.9776  1.1911 -0.3712
  146TMC2    C1 2268   2.580   4.036  12.404 -0.4270 -0.2220  0.6792
  146TMC2    C2 2269   2.551   4.020  12.271 -0.3605 -0.6717  0.0534
  146TMC2    C3 2270   2.631   3.942  12.195  0.7976 -0.4045  0.5289
  146TMC2    C4 2271   2.703   3.995  12.455  0.7299  0.7598  0.7597
  146TMC2    C5 2272   2.785   3.929  12.372  0.2501 -0.0243 -0.3201
  146TMC2    C6 2273   2.749   3.893  12.245  0.2638 -0.9417  0.1453
  146TMC2     C 2274   2.497   4.107  12.494 -0.3885  0.3796 -0.9680
  146TMC2     O 2275   2.434   4.201  12.443 -0.0594  0.5211 -0.2174
  146TMC2     H 2276   2.472   4.074  12.219  1.7562  0.4539 -1.9790
  146TMC2    H1 2277   2.741   4.031  12.550  0.6727  0.7339  0.7927
  146TMC2    H2 2278   2.802   3.815  12.192  0.1820 -1.3492  0.6667
  146TMC2    C7 2279   2.921   3.905  12.417  0.3718 -0.0804  0.5003
  146TMC2    C8 2280   2.581   3.899  12.062  0.5335 -0.1594 -0.0051
  146TMC2    O1 2281   3.014   3.913  12.333  0.6572 -0.0814 -0.5397
  146TMC2    O2 2282   2.463   3.890  12.027  0.1038 -0.0318  0.3433
  146TMC2    O5 2283   2.688   3.914  11.986  0.3309  0.0092  0.1663
  146TMC2    H5 2284   2.772   3.930  12.033  1.5204  0.1746 -2.0203
  147MPD2     C 2285   3.249   3.761  12.773 -0.4352  0.1030  0.2076
  147MPD2    C1 2286   3.124   3.773  12.828 -0.2355 -0.0196  0.0398
  147MPD2    C2 2287   3.024   3.817  12.751 -0.3223 -0.3068  0.1096
  147MPD2    C3 2288   3.037   3.851  12.617 -0.0713  1.1899  0.0564
  147MPD2    C4 2289   3.162   3.835  12.557 -0.4461  0.2875  0.3175
  147MPD2    C5 2290   3.259   3.786  12.639  0.1801 -0.2341 -0.7230
  147MPD2     H 2291   2.925   3.830  12.791  1.3177  1.7077  3.4836
  147MPD2    H1 2292   3.191   3.847  12.454  0.0473 -1.0311  0.3105
  147MPD2    H2 2293   3.328   3.716  12.833 -1.2348 -3.1447 -1.1791
  147MPD2    H3 2294   3.354   3.777  12.586  0.5783  0.1319 -0.0744
  147MPD2     N 2295   2.918   3.882  12.548  0.3233 -0.1421 -0.2340
  147MPD2    H5 2296   2.827   3.877  12.593  1.9399  0.5271  3.0871
  147MPD2    N1 2297   3.120   3.746  12.964  0.5296  0.5045  0.7373
  147MPD2    H7 2298   3.205   3.701  12.998  1.3037  1.8456  0.5723
  148TMC2    C1 2299   2.245   3.138  11.009 -0.4908 -0.3908 -0.4875
  148TMC2    C2 2300   2.382   3.156  11.015 -0.2127 -0.1198 -0.2385
  148TMC2    C3 2301   2.462   3.067  11.083  0.6257  0.0575  0.0255
  148TMC2    C4 2302   2.189   3.026  11.052  0.4297  0.8869  0.3290
  148TMC2    C5 2303   2.263   2.939  11.128  0.3677  0.4846  0.1523
  148TMC2    C6 2304   2.398   2.961  11.148 -0.3688 -0.0695 -0.2707
  148TMC2     C 2305   2.179   3.208  10.902  0.1285  0.1125  0.4756
  148TMC2     O 2306   2.218   3.319  10.878  0.5490  0.6199 -0.4491
  148TMC2     H 2307   2.428   3.238  10.961  0.9143 -1.4420 -1.2664
  148TMC2    H1 2308   2.085   2.998  11.040  1.0932 -0.8306 -1.4484
  148TMC2    H2 2309   2.462   2.884  11.189 -1.4203 -0.5588  0.4517
  148TMC2    C7 2310   2.212   2.803  11.123 -0.3144 -0.0789  0.3634
  148TMC2    C8 2311   2.606   3.059  11.072  0.8472  0.2904  0.0521
  148TMC2    O1 2312   2.106   2.780  11.069  0.5556  0.5403 -0.1440
  148TMC2    O2 2313   2.684   3.019  11.156  0.2484 -0.0670 -0.4747
  148TMC2    O5 2314   2.634   3.062  10.944 -1.1332  0.0834  0.3545
  148TMC2    H5 2315   2.556   3.084  10.888 -0.1293  0.5363 -0.8557
  149MPD2     C 2316   2.008   3.290  10.677  0.3348 -0.5093 -0.6090
  149MPD2    C1 2317   2.037   3.160  10.713  0.2821 -0.2006 -0.0560
  149MPD2    C2 2318   1.998   3.060  10.628 -0.0358  0.7041  0.1449
  149MPD2    C3 2319   1.932   3.084  10.506  1.0961 -0.0937  0.6623
  149MPD2    C4 2320   1.899   3.215  10.482  0.3854  0.4945  0.3364
  149MPD2    C5 2321   1.932   3.316  10.567 -0.2999  0.6687  0.7203
  149MPD2     H 2322   2.030   2.959  10.653 -3.0652  0.1802  1.8618
  149MPD2    H1 2323   1.841   3.241  10.394 -0.7656 -0.1438  0.8995
  149MPD2    H2 2324   2.046   3.380  10.726 -4.1323  0.6802  0.6772
  149MPD2    H3 2325   1.914   3.417  10.533 -1.0944  1.4032  3.3043
  149MPD2     N 2326   1.893   2.986  10.407 -0.0737  0.4744 -0.4963
  149MPD2    H5 2327   1.832   3.012  10.331 -3.0682 -2.1042  1.0626
  149MPD2    N1 2328   2.102   3.124  10.831  0.1635  0.6513 -0.1213
  149MPD2    H7 2329   2.115   3.026  10.855  1.0281  0.3417 -1.8994
  150TMC2    C1 2330   4.430   2.179  12.206  0.4979  0.2495  0.2592
  150TMC2    C2 2331   4.361   2.270  12.125 -0.0511 -0.1636 -0.7517
  150TMC2    C3 2332   4.426   2.371  12.070  0.3009 -0.0330  0.4570
  150TMC2    C4 2333   4.559   2.189  12.229  1.0302 -0.1690 -0.0531
  150TMC2    C5 2334   4.630   2.284  12.164 -0.7973  1.3927  0.1672
  150TMC2    C6 2335   4.561   2.381  12.097 -0.1961 -0.3704  0.2508
  150TMC2     C 2336   4.370   2.049  12.238 -0.1346 -0.0821 -0.2828
  150TMC2     O 2337   4.442   1.951  12.237  0.4914  0.1345  0.4904
  150TMC2     H 2338   4.254   2.255  12.112  0.0889 -0.0323 -2.0172
  150TMC2    H1 2339   4.613   2.110  12.280 -0.9875 -1.1456  0.5637
  150TMC2    H2 2340   4.612   2.467  12.055  0.3158 -0.5318  0.5511
  150TMC2    C7 2341   0.027   2.323  12.221 -0.0226  0.4331  0.7328
  150TMC2    C8 2342   4.372   2.465  11.972  0.1060  0.6316  0.6852
  150TMC2    O1 2343   0.071   2.437  12.194 -0.0164 -0.5399  0.3452
  150TMC2    O2 2344   4.432   2.570  11.954  0.3497 -0.4202  0.5460
  150TMC2    O5 2345   4.240   2.441  11.981 -0.0029  0.1313  0.4410
  150TMC2    H5 2346   4.223   2.356  11.934  2.5516 -0.2112  0.0970
  151MPD2     C 2347   3.941   1.747  12.211  0.1485 -0.2072 -0.3238
  151MPD2    C1 2348   3.903   1.881  12.217  0.1182 -0.2791  0.5304
  151MPD2    C2 2349   4.003   1.976  12.231 -0.1789  0.1823  1.1384
  151MPD2    C3 2350   4.138   1.949  12.242  0.1111  0.5036  0.2750
  151MPD2    C4 2351   4.174   1.820  12.250  0.4057 -0.4243 -0.4307
  151MPD2    C5 2352   4.073   1.723  12.239  0.0721  0.1120  0.2271
  151MPD2     H 2353   3.978   2.081  12.234 -0.0808  0.1137  4.1394
  151MPD2    H1 2354   4.273   1.780  12.264  1.1566  1.1766 -1.1164
  151MPD2    H2 2355   3.869   1.666  12.209 -3.0218  2.5810  0.5657
  151MPD2    H3 2356   4.106   1.621  12.219  1.0509  0.1246  1.7703
  151MPD2     N 2357   4.231   2.057  12.236 -0.3353  0.1860  0.2119
  151MPD2    H5 2358   4.199   2.153  12.243  2.5201  0.9559  2.3777
  151MPD2    N1 2359   3.770   1.902  12.183 -0.6589  0.3804 -0.1838
  151MPD2    H7 2360   3.712   1.819  12.173  0.1701  0.0223 -1.9226
  152TMC2    C1 2361   4.053   1.942  12.672 -0.6562  0.6448 -0.0451
  152TMC2    C2 2362   4.119   1.829  12.711 -0.3020 -0.1064 -0.0540
  152TMC2    C3 2363   4.257   1.830  12.723 -0.6919 -0.4491 -0.9371
  152TMC2    C4 2364   4.127   2.046  12.626 -0.9292 -0.2031 -0.5745
  152TMC2    C5 2365   4.270   2.046  12.631  0.4000 -0.0382 -0.1928
  152TMC2    C6 2366   4.332   1.931  12.679  0.4869  0.6042  0.5287
  152TMC2     C 2367   3.918   1.927  12.614  0.7090 -0.0569  0.7181
  152TMC2     O 2368   3.864   2.033  12.583  0.1286 -1.1224 -0.1938
  152TMC2     H 2369   4.056   1.750  12.747 -0.0060  0.9364  2.7098
  152TMC2    H1 2370   4.070   2.128  12.586 -0.1210  0.5583 -0.1654
  152TMC2    H2 2371   4.439   1.916  12.682  0.1461 -2.3515 -3.2908
  152TMC2    C7 2372   4.335   2.171  12.617 -0.1815 -0.3802  0.1976
  152TMC2    C8 2373   4.310   1.704  12.681 -0.1717 -0.0262 -0.2519
  152TMC2    O1 2374   4.280   2.265  12.559 -0.3736  0.6221  0.2219
  152TMC2    O2 2375   4.368   1.688  12.576  0.4092  0.0373  0.6051
  152TMC2    O5 2376   4.246   1.622  12.761  0.0362  0.6808  0.3251
  152TMC2    H5 2377   4.234   1.649  12.854 -0.2574 -1.3631  0.8744
  153MPD2     C 2378   3.744   1.629  12.460 -0.3117 -0.4268  0.0480
  153MPD2    C1 2379   3.759   1.756  12.525 -0.2992 -0.6319 -0.4411
  153MPD2    C2 2380   3.650   1.840  12.517  0.5288  0.7745 -0.7957
  153MPD2    C3 2381   3.532   1.813  12.456  0.2089  0.4425  0.5942
  153MPD2    C4 2382   3.524   1.696  12.393  0.3005  0.3033  0.5764
  153MPD2    C5 2383   3.624   1.604  12.400  0.3635  0.1379 -0.2424
  153MPD2     H 2384   3.652   1.938  12.563  0.8623  0.5445 -0.3322
  153MPD2    H1 2385   3.426   1.663  12.361  0.3165 -1.1111  1.9672
  153MPD2    H2 2386   3.823   1.555  12.462  2.1888  2.2000 -1.4305
  153MPD2    H3 2387   3.606   1.501  12.369  1.0620  0.1399 -0.6600
  153MPD2     N 2388   3.430   1.909  12.465  0.5403  0.1172  0.9005
  153MPD2    H5 2389   3.445   1.994  12.518 -0.0563  2.7574 -3.1496
  153MPD2    N1 2390   3.883   1.797  12.585  0.0588  0.3677 -0.3467
  153MPD2    H7 2391   3.948   1.720  12.597  0.3397  0.6971  0.2178
  154TMC2    C1 2392   0.443   2.306   0.724 -1.1014  0.3580  0.5627
  154TMC2    C2 2393   0.416   2.212   0.629  0.1190 -0.3512 -0.4130
  154TMC2    C3 2394   0.522   2.162   0.565 -1.0902  0.3860  0.4822
  154TMC2    C4 2395   0.566   2.352   0.754 -0.0001 -0.4046  1.0861
  154TMC2    C5 2396   0.667   2.287   0.697  0.0480  0.0503 -0.2592
  154TMC2    C6 2397   0.657   2.189   0.602 -0.2913 -0.1761 -0.5504
  154TMC2     C 2398   0.331   2.346   0.802  0.0507 -0.1208 -0.1946
  154TMC2     O 2399   0.341   2.458   0.846 -0.3914 -0.0268  0.0733
  154TMC2     H 2400   0.319   2.182   0.593 -0.1481  0.0048 -0.0021
  154TMC2    H1 2401   0.581   2.430   0.828 -1.3040  0.6110  0.2745
  154TMC2    H2 2402   0.739   2.123   0.578 -0.1832  0.4395 -1.9181
  154TMC2    C7 2403   0.805   2.331   0.713  0.9235  0.4333  0.1196
  154TMC2    C8 2404   0.499   2.043   0.495  0.2234  0.4762 -0.0884
  154TMC2    O1 2405   0.892   2.257   0.679  0.5324 -0.2404 -0.3920
  154TMC2    O2 2406   0.415   1.956   0.516 -0.4881 -0.3844  0.0255
  154TMC2    O5 2407   0.609   2.024   0.412 -0.2846  0.5174  0.0586
  154TMC2    H5 2408   0.649   2.108   0.381 -0.2256  1.1931  1.9958
  155MPD2     C 2409   0.083   2.152   0.985 -0.1120 -0.2697 -0.1945
  155MPD2    C1 2410   0.151   2.267   0.952  0.2089 -0.2903  1.1756
  155MPD2    C2 2411   0.123   2.384   1.015 -0.6964 -0.0377 -0.2181
  155MPD2    C3 2412   0.017   2.388   1.106  0.6344 -0.2159 -0.5254
  155MPD2    C4 2413   4.694   2.272   1.143 -0.1244 -0.2434 -0.3582
  155MPD2    C5 2414   4.719   2.155   1.074  0.3881  0.1726  0.6452
  155MPD2     H 2415   0.180   2.476   1.004  0.4700 -0.5190  1.7454
  155MPD2    H1 2416   4.613   2.275   1.215  1.0165  3.0863  0.7775
  155MPD2    H2 2417   0.103   2.056   0.938 -3.1497 -0.5328 -0.9129
  155MPD2    H3 2418   4.659   2.067   1.097  1.5456 -0.5077  1.0450
  155MPD2     N 2419   4.726   2.514   1.171 -0.0683 -0.5685  0.1728
  155MPD2    H5 2420   0.028   2.604   1.144 -1.5086 -0.4618 -1.4734
  155MPD2    N1 2421   0.249   2.243   0.850  0.5515 -0.0030 -0.0073
  155MPD2    H7 2422   0.257   2.150   0.811  0.4316  0.0020 -0.0437
  156TMC2    C1 2423   3.642   4.470  11.679  0.3271  0.3647 -0.0281
  156TMC2    C2 2424   3.518   4.422  11.701  0.2458  0.0070  0.0395
  156TMC2    C3 2425   3.411   4.453  11.618 -0.4492  0.7347  0.4835
  156TMC2    C4 2426   3.656   4.559  11.580  0.4234 -0.0467  0.5106
  156TMC2    C5 2427   3.548   4.595  11.498  0.3856 -0.1114  0.2023
  156TMC2    C6 2428   3.423   4.537  11.512  0.0169 -0.3950 -1.1256
  156TMC2     C 2429   3.744   4.472  11.780 -0.0446 -0.0193  1.3758
  156TMC2     O 2430   3.842   4.547  11.765 -0.5976 -0.2456  0.1794
  156TMC2     H 2431   3.496   4.362  11.789  3.5481 -2.0711 -0.5462
  156TMC2    H1 2432   3.753   4.605  11.569 -0.1778  0.9034 -0.7650
  156TMC2    H2 2433   3.336   4.591  11.478 -0.1312  0.5578  0.8036
  156TMC2    C7 2434   3.567   4.707  11.408 -0.3985 -0.0968 -0.2872
  156TMC2    C8 2435   3.274   4.424  11.664  0.3252  0.1753 -0.4904
  156TMC2    O1 2436   3.682   0.010  11.406  0.4810  0.0144  0.7646
  156TMC2    O2 2437   3.216   4.457  11.768 -0.5191 -0.0901  0.4612
  156TMC2    O5 2438   3.216   4.406  11.543  0.0522  0.8082  0.2140
  156TMC2    H5 2439   3.278   4.388  11.470 -0.5869  0.5618 -0.2718
  157MPD2     C 2440   3.747   4.313  12.109  0.1981  0.2098  0.2790
  157MPD2    C1 2441   3.809   4.366  11.998  0.0604 -0.7045  0.2899
  157MPD2    C2 2442   3.943   4.382  11.989 -1.1540  0.1222 -0.4761
  157MPD2    C3 2443   4.017   4.343  12.098  0.0337  0.4502  0.5762
  157MPD2    C4 2444   3.964   4.292  12.216 -0.0320  0.7282  0.1054
  157MPD2    C5 2445   3.830   4.271  12.214  0.2145  0.3266  0.1813
  157MPD2     H 2446   3.989   4.428  11.903  0.1714 -2.7644 -1.2968
  157MPD2    H1 2447   4.017   4.260  12.305  0.0907 -0.2639 -0.3135
  157MPD2    H2 2448   3.641   4.302  12.125  0.0020  1.1187 -0.3760
  157MPD2    H3 2449   3.781   4.229  12.301  0.0412 -1.4570 -0.7689
  157MPD2     N 2450   4.157   4.369  12.084  0.3315 -0.2056  0.2204
  157MPD2    H5 2451   4.186   4.401  11.992 -0.8315  2.9484  0.9337
  157MPD2    N1 2452   3.717   4.400  11.894  0.3057  0.1859  0.3564
  157MPD2    H7 2453   3.630   4.348  11.898  0.8359 -0.8061 -1.0202
  158TMC2    C1 2454   4.217   3.402  13.478 -0.5515 -0.2029  0.1379
  158TMC2    C2 2455   4.251   3.396  13.349  0.6200 -0.1753  0.3069
  158TMC2    C3 2456   4.149   3.354  13.265  0.0615  0.1307 -0.3384
  158TMC2    C4 2457   4.093   3.389  13.527  0.2702 -0.2931  0.9557
  158TMC2    C5 2458   3.991   3.368  13.440 -0.4383 -0.0839 -0.3263
  158TMC2    C6 2459   4.015   3.350  13.301  0.1257  0.1411 -0.7137
  158TMC2     C 2460   4.318   3.439  13.579 -0.0043  0.5060  0.2650
  158TMC2     O 2461   4.391   3.534  13.552 -0.1299  0.1370  0.1981
  158TMC2     H 2462   4.356   3.407  13.327  0.7034 -1.4592  0.0920
  158TMC2    H1 2463   4.070   3.399  13.632 -0.5174  0.3072  0.7300
  158TMC2    H2 2464   3.946   3.299  13.234  1.5206 -2.2613 -0.3296
  158TMC2    C7 2465   3.872   3.310  13.490 -0.0293 -0.0851  0.8591
  158TMC2    C8 2466   4.176   3.374  13.130  0.1727 -0.4187 -0.4852
  158TMC2    O1 2467   3.778   3.320  13.409  0.1809 -0.2288  0.2498
  158TMC2    O2 2468   4.100   3.414  13.044 -0.2893 -0.3754  0.1514
  158TMC2    O5 2469   4.281   3.301  13.105 -0.8305 -0.6775 -0.0118
  158TMC2    H5 2470   4.307   3.235  13.172 -0.1159 -0.0530  0.3245
  159MPD2     C 2471   4.473   3.470  14.069  0.3201  0.8881  0.2575
  159MPD2    C1 2472   4.390   3.360  14.061  0.2660 -0.4874  0.0621
  159MPD2    C2 2473   4.340   3.323  13.932 -0.1824  0.2406 -0.0200
  159MPD2    C3 2474   4.368   3.404  13.826 -0.2763 -0.1235 -0.7787
  159MPD2    C4 2475   4.456   3.513  13.840  0.6414 -0.1660 -0.5526
  159MPD2    C5 2476   4.513   3.539  13.956  0.2304  0.0880 -0.5281
  159MPD2     H 2477   4.271   3.240  13.929  2.0764 -1.6322  0.1057
  159MPD2    H1 2478   4.479   3.580  13.757  0.6027 -0.7426 -1.0273
  159MPD2    H2 2479   4.525   3.496  14.161 -1.5892  1.0543  1.2915
  159MPD2    H3 2480   4.587   3.617  13.972 -2.9142  3.1014 -0.6292
  159MPD2     N 2481   4.305   3.376  13.705  0.0804 -0.0157 -0.7553
  159MPD2    H5 2482   4.241   3.297  13.709 -0.2493  0.1784 -2.2035
  159MPD2    N1 2483   4.361   3.290  14.179 -0.0931 -0.3985 -0.1439
  159MPD2    H7 2484   4.415   3.314  14.261  0.6906  0.0518 -0.7895
  160TMC2    C1 2485   3.923   1.121   1.526 -1.1819  0.2036  0.1931
  160TMC2    C2 2486   3.852   1.058   1.428 -0.2357  0.2537 -0.1207
  160TMC2    C3 2487   3.924   1.017   1.320  0.2345  0.3119 -0.6212
  160TMC2    C4 2488   4.057   1.124   1.528 -0.8573  0.7220 -0.0776
  160TMC2    C5 2489   4.122   1.084   1.409  0.1852  0.4215  0.2729
  160TMC2    C6 2490   4.058   1.027   1.310 -0.1995 -0.1471 -0.1713
  160TMC2     C 2491   3.851   1.169   1.644  0.3284  0.4089 -0.3826
  160TMC2     O 2492   3.917   1.168   1.750  0.1131 -0.0769 -0.8130
  160TMC2     H 2493   3.745   1.041   1.427 -0.2943  0.5382  0.8463
  160TMC2    H1 2494   4.111   1.151   1.618  0.9404 -1.9691 -0.3475
  160TMC2    H2 2495   4.114   0.978   1.231 -0.7954 -1.4048  0.1944
  160TMC2    C7 2496   4.259   1.133   1.391  0.7440 -0.1280  0.3249
  160TMC2    C8 2497   3.855   0.926   1.232  0.1067  0.4126  0.4937
  160TMC2    O1 2498   4.338   1.077   1.311  0.2178 -0.6180 -0.2910
  160TMC2    O2 2499   3.747   0.878   1.266  0.1392  0.0619  0.0685
  160TMC2    O5 2500   3.941   0.875   1.139 -0.3420 -0.3559 -0.0973
  160TMC2    H5 2501   4.006   0.938   1.101  1.1333 -1.2720  0.8933
  161MPD2     C 2502   3.681   1.296   1.849 -0.8884  0.0261  0.6258
  161MPD2    C1 2503   3.652   1.286   1.709  0.3603 -0.5715 -0.1487
  161MPD2    C2 2504   3.571   1.385   1.658 -0.1996 -0.3438  0.4819
  161MPD2    C3 2505   3.521   1.483   1.739  0.2495 -0.1009 -0.6778
  161MPD2    C4 2506   3.552   1.496   1.872 -0.1749  0.0528 -0.4979
  161MPD2    C5 2507   3.634   1.396   1.926  0.2161 -0.0230  0.3541
  161MPD2     H 2508   3.547   1.398   1.553  0.0109  0.9832  0.5960
  161MPD2    H1 2509   3.517   1.580   1.931  0.5277  1.7098 -2.4445
  161MPD2    H2 2510   3.732   1.224   1.911 -1.8247 -0.2704  1.0372
  161MPD2    H3 2511   3.655   1.405   2.032 -4.0127  1.5453  1.0671
  161MPD2     N 2512   3.451   1.583   1.667 -0.4272 -0.2969 -0.1172
  161MPD2    H5 2513   3.420   1.550   1.576 -0.0925  0.9042 -0.6681
  161MPD2    N1 2514   3.721   1.202   1.621  0.5907 -0.3140  0.8957
  161MPD2    H7 2515   3.688   1.206   1.525  0.4811  2.2401  1.0273
  162TMC2    C1 2516   2.078   3.398   1.178 -0.3333 -0.5891 -0.3088
  162TMC2    C2 2517   1.947   3.419   1.156 -0.2673  0.5573 -0.7670
  162TMC2    C3 2518   1.874   3.465   1.259 -0.6880 -0.4134 -0.2488
  162TMC2    C4 2519   2.119   3.383   1.311 -0.1182  0.2166  0.3269
  162TMC2    C5 2520   2.040   3.426   1.414 -0.1298  0.2554  0.5526
  162TMC2    C6 2521   1.918   3.474   1.391  0.1774 -0.8627  0.3282
  162TMC2     C 2522   2.151   3.328   1.077  0.2107  0.4677 -0.1883
  162TMC2     O 2523   2.078   3.304   0.979 -0.1336  0.1242 -0.3240
  162TMC2     H 2524   1.916   3.421   1.052  0.1044  2.2934 -0.8421
  162TMC2    H1 2525   2.216   3.345   1.340 -0.5506 -0.7477  0.5188
  162TMC2    H2 2526   1.854   3.510   1.470  1.1422  0.2418  0.6030
  162TMC2    C7 2527   2.086   3.430   1.553  0.4836  0.6495 -0.3012
  162TMC2    C8 2528   1.731   3.488   1.243 -0.4885 -0.0928 -0.4070
  162TMC2    O1 2529   2.048   3.521   1.625  0.2499  0.1178 -0.2069
  162TMC2    O2 2530   1.649   3.482   1.335  0.1161  0.6981 -0.0364
  162TMC2    O5 2531   1.699   3.478   1.111  0.8513 -0.3030 -0.0062
  162TMC2    H5 2532   1.769   3.495   1.045  0.7303 -2.7001 -0.7528
  163MPD2     C 2533   2.580   3.205   0.817  0.5273 -0.4962  0.1821
  163MPD2    C1 2534   2.454   3.225   0.774 -0.1819  0.4396  0.7718
  163MPD2    C2 2535   2.343   3.258   0.858 -0.1654 -0.1977  0.2994
  163MPD2    C3 2536   2.378   3.280   0.994  0.7559  0.1406  0.0251
  163MPD2    C4 2537   2.517   3.271   1.033  1.1122 -0.1297 -0.7067
  163MPD2    C5 2538   2.612   3.231   0.947 -0.0904  0.1200  0.2847
  163MPD2     H 2539   2.246   3.263   0.809  0.4604  1.5753 -0.7556
  163MPD2    H1 2540   2.555   3.300   1.130 -0.0534 -1.6520  0.1933
  163MPD2    H2 2541   2.648   3.154   0.750  1.2277  0.8018 -0.0958
  163MPD2    H3 2542   2.714   3.214   0.980 -0.7020 -1.7479  1.1864
  163MPD2     N 2543   2.293   3.322   1.099 -0.0768  0.0223 -0.2273
  163MPD2    H5 2544   2.330   3.346   1.190  0.2509  0.8467 -0.5787
  163MPD2    N1 2545   2.433   3.189   0.633  0.1084 -0.1318 -0.1296
  163MPD2    H7 2546   2.511   3.136   0.595  0.9038  0.8868  0.0457
  164TMC2    C1 2547   2.866   2.583  11.196  0.3254 -0.0847  0.0650
  164TMC2    C2 2548   2.959   2.677  11.167  0.3311 -0.2599 -0.3850
  164TMC2    C3 2549   2.951   2.799  11.229 -0.4404 -0.1867  0.2734
  164TMC2    C4 2550   2.760   2.616  11.276 -0.1482  0.8859 -0.1433
  164TMC2    C5 2551   2.763   2.736  11.348 -0.1559  0.0386  0.1804
  164TMC2    C6 2552   2.855   2.831  11.326  0.2347  0.3604  0.7970
  164TMC2     C 2553   2.886   2.448  11.150 -0.0015 -1.2195 -0.4295
  164TMC2     O 2554   2.805   2.363  11.191  0.1526 -0.1899  0.1172
  164TMC2     H 2555   3.034   2.670  11.089  3.4110  1.8078  2.4258
  164TMC2    H1 2556   2.671   2.555  11.288 -0.3432  1.2411  0.1991
  164TMC2    H2 2557   2.833   2.930  11.364 -1.0244  0.6413 -0.6617
  164TMC2    C7 2558   2.644   2.781  11.405  0.6112  0.7723 -0.3852
  164TMC2    C8 2559   3.032   2.908  11.176  0.5337  0.8354 -0.3211
  164TMC2    O1 2560   2.540   2.743  11.358  0.5200 -0.6161  0.4056
  164TMC2    O2 2561   3.140   2.870  11.120 -0.3556  0.5331  0.0946
  164TMC2    O5 2562   2.946   3.007  11.131 -0.3411 -0.4229 -0.2693
  164TMC2    H5 2563   2.853   3.008  11.161 -0.2645  0.4400 -0.0567
  165TMC2    C1 2564   4.355   0.421   1.679 -0.2122 -0.3624 -0.4720
  165TMC2    C2 2565   4.237   0.470   1.627 -0.8149  0.5399  1.3878
  165TMC2    C3 2566   4.232   0.596   1.576  0.6755 -0.2791  0.0003
  165TMC2    C4 2567   4.472   0.494   1.673 -0.6240 -0.1273 -0.6652
  165TMC2    C5 2568   4.466   0.621   1.616  0.0986 -1.0420  0.4665
  165TMC2    C6 2569   4.345   0.669   1.577 -0.5633 -0.5333  0.5163
  165TMC2     C 2570   4.366   0.282   1.720 -0.5597  0.2431  0.0644
  165TMC2     O 2571   4.481   0.239   1.744 -0.5876  0.1597  0.7565
  165TMC2     H 2572   4.146   0.412   1.640 -1.1931  1.3838  2.4466
  165TMC2    H1 2573   4.570   0.449   1.683 -1.3302 -1.5932 -0.2514
  165TMC2    H2 2574   4.346   0.776   1.561  0.9086 -0.1736  2.9199
  165TMC2    C7 2575   4.568   0.714   1.636  0.7480 -0.2594 -0.0003
  165TMC2    C8 2576   4.098   0.643   1.543  0.7062 -0.2642 -0.2499
  165TMC2    O1 2577   4.575   0.818   1.576 -0.1876 -0.2271 -0.2588
  165TMC2    O2 2578   4.010   0.568   1.508  0.1590  0.4906  0.1006
  165TMC2    O5 2579   4.112   0.776   1.515 -0.0639 -0.6100  0.1734
  165TMC2    H5 2580   4.172   0.821   1.578 -1.5406  1.4890  0.1116
  166MPD2     C 2581   4.198   4.538   1.718 -0.2472  0.2069 -0.1984
  166MPD2    C1 2582   4.317   4.587   1.769  0.4529  0.5387  0.7387
  166MPD2    C2 2583   4.336   4.718   1.761  0.0776 -0.0808 -0.5671
  166MPD2    C3 2584   4.228   0.067   1.732 -0.2338 -0.1734  0.4382
  166MPD2    C4 2585   4.106   0.013   1.706 -0.8297 -0.3154  0.4453
  166MPD2    C5 2586   4.090   4.617   1.690  0.8275  0.3826 -0.3400
  166MPD2     H 2587   4.430   0.026   1.791 -1.3494 -0.3382  4.1794
  166MPD2    H1 2588   4.020   0.079   1.704  0.0926  0.8303 -2.0671
  166MPD2    H2 2589   4.191   4.430   1.708 -0.4856  0.2769 -0.8104
  166MPD2    H3 2590   3.993   4.574   1.668  1.2674  0.9175 -3.2345
  166MPD2     N 2591   4.248   0.205   1.712 -0.4409 -0.0432 -0.7025
  166MPD2    H5 2592   4.161   0.256   1.703  0.1182  1.1543  0.8107
  166MPD2    N1 2593   4.423   4.498   1.787  0.2825 -0.5259  0.4775
  166MPD2    H7 2594   4.404   4.399   1.776  1.5882 -0.8572  1.2068
  167TMC2    C1 2595   2.050   2.696  13.012  0.1458  0.0830  0.6884
  167TMC2    C2 2596   1.993   2.671  13.132 -0.0391  0.4171  0.4102
  167TMC2    C3 2597   1.939   2.546  13.159  0.2198  0.4023  0.1549
  167TMC2    C4 2598   2.033   2.605  12.910 -0.0420  0.1077  0.2215
  167TMC2    C5 2599   1.984   2.477  12.940 -0.4054 -0.5713  0.4124
  167TMC2    C6 2600   1.931   2.446  13.064  0.8494  0.3297 -0.2393
  167TMC2     C 2601   2.122   2.822  13.000  0.2206 -0.2549  0.5685
  167TMC2     O 2602   2.116   2.901  13.095 -0.2001 -0.2773  0.5044
  167TMC2     H 2603   2.005   2.731  13.222  0.3696 -0.9873  1.2868
  167TMC2    H1 2604   2.055   2.628  12.806 -3.1335  1.3542 -0.1586
  167TMC2    H2 2605   1.906   2.346  13.098 -1.5419  0.8618 -0.4132
  167TMC2    C7 2606   2.001   2.374  12.836  0.5902 -0.7732  0.3452
  167TMC2    C8 2607   1.897   2.512  13.296 -0.2889 -0.0647 -0.0986
  167TMC2    O1 2608   1.949   2.267  12.873 -0.1689  0.4084 -0.0939
  167TMC2    O2 2609   1.959   2.536  13.395 -0.4147  0.3811  0.1018
  167TMC2    O5 2610   1.782   2.442  13.284 -0.3907  0.2560  0.6421
  167TMC2    H5 2611   1.732   2.438  13.200  1.7489 -0.1487 -0.5996
  168MPD2     C 2612   2.295   3.061  12.926 -0.9901 -0.3487  0.4995
  168MPD2    C1 2613   2.279   2.947  12.848  0.3136 -0.1866 -0.2754
  168MPD2    C2 2614   2.324   2.947  12.719 -0.3030  0.2106 -0.1380
  168MPD2    C3 2615   2.396   3.047  12.670  0.2307 -0.2027 -0.4487
  168MPD2    C4 2616   2.412   3.161  12.747 -0.0970 -0.1784 -0.1854
  168MPD2    C5 2617   2.363   3.164  12.878 -0.3802 -0.0188  0.3723
  168MPD2     H 2618   2.296   2.865  12.654 -1.0204  0.2061  0.1674
  168MPD2    H1 2619   2.442   3.256  12.705 -0.0448  0.0614  0.3864
  168MPD2    H2 2620   2.252   3.070  13.025  1.9833  1.4269  1.6218
  168MPD2    H3 2621   2.384   3.253  12.936 -1.4220  1.1261 -1.0242
  168MPD2     N 2622   2.428   3.046  12.533 -0.2613 -0.1825 -0.0412
  168MPD2    H5 2623   2.469   3.132  12.498  3.3091 -1.3647  1.1311
  168MPD2    N1 2624   2.198   2.837  12.887  0.0202  0.7884  0.1214
  168MPD2    H7 2625   2.201   2.757  12.825  0.8190  0.6241  0.3695
  169MPD1     C 2626   0.168   2.849   8.397 -0.1947  0.3409  0.3251
  169MPD1    C1 2627   0.264   2.914   8.463 -0.0665 -0.0681  0.0164
  169MPD1    C2 2628   0.287   2.872   8.590  0.0458 -0.1665 -0.0465
  169MPD1    C3 2629   0.254   2.750   8.645  0.2502  0.0800 -0.0609
  169MPD1    C4 2630   0.178   2.672   8.558  0.2712 -0.5158 -0.8074
  169MPD1    C5 2631   0.132   2.724   8.442 -1.0671  0.5719  0.4421
  169MPD1     H 2632   0.360   2.929   8.645  1.1092 -2.3357  0.7709
  169MPD1    H1 2633   0.150   2.570   8.580 -0.6840 -0.5057 -1.9296
  169MPD1    H2 2634   0.127   2.876   8.300  2.1379  0.6960 -0.5552
  169MPD1    H3 2635   0.069   2.668   8.374 -2.4625  1.0938  1.2910
  169MPD1     N 2636   0.303   2.714   8.770 -0.2856  0.9618 -0.3357
  169MPD1    H5 2637   0.357   2.781   8.824  0.6906  0.4194 -0.6284
  169MPD1    N1 2638   0.301   3.041   8.419  0.6009 -0.5592 -0.1212
  169MPD1    H6 2639   0.390   3.068   8.458  0.6616 -0.0252 -0.6342
  169MPD1    H7 2640   0.295   3.041   8.317 -2.0706 -0.8363  0.0225
  170MPD1     C 2641   3.795   4.610  13.290  0.0446  0.4127  0.5212
  170MPD1    C1 2642   3.782   4.618  13.429  0.4282  0.4786  0.3808
  170MPD1    C2 2643   3.656   4.652  13.474  0.3773 -0.6542  0.0518
  170MPD1    C3 2644   3.563   4.706  13.387 -0.5580 -0.2197  0.1617
  170MPD1    C4 2645   3.584   4.704  13.247 -0.6921  0.1469  0.6053
  170MPD1    C5 2646   3.701   4.653  13.200 -0.3622 -0.3942 -0.2580
  170MPD1     H 2647   3.637   4.642  13.580 -0.1594 -1.2229 -0.0975
  170MPD1    H1 2648   3.513   0.002  13.172  0.4115  3.7170  1.2195
  170MPD1    H2 2649   3.888   4.567  13.252  0.3820  1.6541 -0.0421
  170MPD1    H3 2650   3.721   4.639  13.094 -0.2218 -0.6844 -0.1935
  170MPD1     N 2651   3.451   0.021  13.446 -0.4272 -0.1039 -0.3923
  170MPD1    H5 2652   3.445   0.021  13.548  0.3170 -0.5652 -0.3475
  170MPD1    N1 2653   3.882   4.556  13.508 -0.0801  0.2295 -0.0694
  170MPD1    H6 2654   3.893   4.596  13.602  1.1103  0.6373 -0.3817
  170MPD1    H7 2655   3.972   4.564  13.462  0.1666 -1.5626  0.1160
  171MPD1     C 2656   1.272   1.055  15.076  0.7072  0.1117 -0.1667
  171MPD1    C1 2657   1.370   0.969  15.035  0.3229 -0.6011 -0.4513
  171MPD1    C2 2658   1.454   0.920  15.126  0.4155 -0.6491 -0.0691
  171MPD1    C3 2659   1.441   0.961  15.260 -0.4015  0.0440 -0.4367
  171MPD1    C4 2660   1.353   1.058  15.289  0.4152  0.8305  0.2898
  171MPD1    C5 2661   1.265   1.106  15.199 -0.5639  0.0940  0.6365
  171MPD1     H 2662   1.531   0.849  15.098 -0.6481 -1.4497 -0.9413
  171MPD1    H1 2663   1.364   1.102  15.388 -2.4291  2.0806  0.0578
  171MPD1    H2 2664   1.195   1.099  15.014 -1.1386 -2.0498  0.5816
  171MPD1    H3 2665   1.196   1.189  15.212  1.0629  1.1207  2.8024
  171MPD1     N 2666   1.518   0.911  15.365 -0.0101 -0.8037 -0.1433
  171MPD1    H5 2667   1.493   0.927  15.462  0.8027 -1.7919  0.2286
  171MPD1    N1 2668   1.401   0.948  14.897  0.1713  0.2487 -0.1392
  171MPD1    H6 2669   1.327   0.958  14.828 -0.5511  0.0836  0.6199
  171MPD1    H7 2670   1.448   0.861  14.875 -1.0942 -0.7229  0.9878
  172MPD1     C 2671   0.046   0.814   0.306 -0.1140  0.5633 -0.0449
  172MPD1    C1 2672   0.098   0.916   0.384 -0.2979  0.1062  0.2139
  172MPD1    C2 2673   0.220   0.970   0.347 -0.1058 -0.7497 -0.2539
  172MPD1    C3 2674   0.280   0.941   0.224  0.2022  0.2450 -0.1455
  172MPD1    C4 2675   0.216   0.846   0.143  0.6090 -0.1266  0.3171
  172MPD1    C5 2676   0.104   0.783   0.186 -0.2361  0.3263  0.1744
  172MPD1     H 2677   0.273   1.033   0.417  0.9790 -0.9843 -0.8719
  172MPD1    H1 2678   0.262   0.823   0.047 -0.8134  0.8299 -0.5832
  172MPD1    H2 2679   4.694   0.764   0.344 -0.3045  0.7805 -0.2049
  172MPD1    H3 2680   0.053   0.714   0.120 -1.1086  0.8979  0.2473
  172MPD1     N 2681   0.398   1.003   0.181 -0.1999  0.3592 -0.1247
  172MPD1    H5 2682   0.423   0.980   0.085  0.7828 -0.6852  0.3803
  172MPD1    N1 2683   0.050   0.925   0.516  0.1216  0.0993 -0.3939
  172MPD1    H6 2684   0.077   1.011   0.561 -0.1147  0.0952 -0.2437
  172MPD1    H7 2685   4.687   0.904   0.525 -0.3073  1.5626 -1.7238
  173MPD1     C 2686   2.030   4.590  13.442 -0.2791 -0.2118 -0.3906
  173MPD1    C1 2687   2.088   4.709  13.403 -0.7391  0.4026  0.0043
  173MPD1    C2 2688   2.174   0.032  13.495 -0.2493  0.4926 -0.3841
  173MPD1    C3 2689   2.195   4.718  13.622  0.7003  0.0301 -0.2822
  173MPD1    C4 2690   2.136   4.599  13.657  0.6724 -0.4014  0.1979
  173MPD1    C5 2691   2.051   4.539  13.566  0.6977 -0.0174  0.0907
  173MPD1     H 2692   2.231   0.118  13.462  1.4080 -0.1189  0.9132
  173MPD1    H1 2693   2.155   4.551  13.752 -1.0775 -0.3657  0.5576
  173MPD1    H2 2694   1.976   4.529  13.371  0.5804 -1.1374 -0.2481
  173MPD1    H3 2695   1.992   4.451  13.589  0.2692  0.4000  0.6002
  173MPD1     N 2696   2.283   0.051  13.702 -0.2009 -0.4081 -0.1689
  173MPD1    H5 2697   2.311   0.145  13.674 -2.2470  0.1234 -0.4130
  173MPD1    N1 2698   2.084   0.022  13.273 -0.8023  0.5487 -0.4778
  173MPD1    H6 2699   1.997   4.727  13.230 -0.2743  0.3049 -1.3575
  173MPD1    H7 2700   2.079   0.124  13.274 -0.8185  0.5422  0.3363
  174MPD1     C 2701   2.742   0.654  13.401 -0.3138  0.1191 -0.0681
  174MPD1    C1 2702   2.797   0.671  13.528  0.1781 -0.1574  0.0056
  174MPD1    C2 2703   2.749   0.576  13.617 -0.0705  0.6118 -0.5257
  174MPD1    C3 2704   2.641   0.490  13.606  0.5166 -0.3613 -0.0525
  174MPD1    C4 2705   2.578   0.490  13.482  0.7328 -0.4702  0.4462
  174MPD1    C5 2706   2.631   0.568  13.382 -0.6870  0.4541  0.1365
  174MPD1     H 2707   2.808   0.567  13.708 -1.0539  0.6284  0.1096
  174MPD1    H1 2708   2.501   0.420  13.453  0.0947  1.0160 -1.4341
  174MPD1    H2 2709   2.782   0.709  13.316 -1.3348 -0.4932 -0.9299
  174MPD1    H3 2710   2.584   0.559  13.284 -2.9455  1.5475  1.1204
  174MPD1     N 2711   2.595   0.395  13.700 -0.1730  1.1145  0.1307
  174MPD1    H5 2712   2.512   0.343  13.672  1.0921 -0.2047 -1.1889
  174MPD1    N1 2713   2.913   0.745  13.543  0.2586  0.3001 -0.0979
  174MPD1    H6 2714   2.901   0.835  13.497 -0.5384  0.0501 -0.3628
  174MPD1    H7 2715   2.919   0.773  13.641  1.7801  0.5797 -0.2740
  175MPD1     C 2716   0.478   1.390  15.122  0.8868  0.5807 -0.1995
  175MPD1    C1 2717   0.560   1.294  15.180  0.5852  0.4315  0.1871
  175MPD1    C2 2718   0.565   1.278  15.315 -0.4980  0.3471 -0.0307
  175MPD1    C3 2719   0.497   1.370  15.400  0.5232 -0.9318 -0.7974
  175MPD1    C4 2720   0.430   1.470  15.340  0.1758 -0.0654 -0.6513
  175MPD1    C5 2721   0.416   1.476  15.205  1.3426 -0.6898  0.4200
  175MPD1     H 2722   0.627   1.201  15.360 -2.0277 -1.3039 -0.7254
  175MPD1    H1 2723   0.386   1.553  15.394  2.7446  0.0782  1.1923
  175MPD1    H2 2724   0.472   1.400  15.014 -0.3697  2.7977  0.0674
  175MPD1    H3 2725   0.359   1.558  15.162 -0.2662 -1.2284  1.5183
  175MPD1     N 2726   0.499   1.363  15.547  0.1754 -0.4821 -0.1468
  175MPD1    H5 2727   0.439   1.429  15.595  1.9938  1.1741 -0.2043
  175MPD1    N1 2728   0.622   1.187  15.106  0.2047  0.4102 -0.1322
  175MPD1    H6 2729   0.703   1.148  15.153  0.7045  0.6056 -0.8307
  175MPD1    H7 2730   0.651   1.222  15.015  2.5802 -0.0624  0.4432
  176MPD1     C 2731   1.815   3.669   0.541 -0.1069  0.0037 -0.0886
  176MPD1    C1 2732   1.914   3.744   0.588  0.0191 -0.4326 -0.1092
  176MPD1    C2 2733   1.983   3.822   0.502 -0.0777  1.0658 -0.2589
  176MPD1    C3 2734   1.971   3.795   0.363  0.6870  0.2926  0.2901
  176MPD1    C4 2735   1.890   3.693   0.321  0.3429  0.2295 -0.0885
  176MPD1    C5 2736   1.811   3.629   0.413  0.0719 -0.7468  0.0964
  176MPD1     H 2737   2.057   3.890   0.541 -0.9250  1.2703  0.9818
  176MPD1    H1 2738   1.887   3.659   0.218 -1.8434  0.6467 -0.1800
  176MPD1    H2 2739   1.750   3.607   0.602  1.9156 -1.1116  0.9193
  176MPD1    H3 2740   1.755   3.542   0.382 -2.2041 -0.1154  2.4051
  176MPD1     N 2741   2.069   3.844   0.277  0.1010  0.4982 -0.4507
  176MPD1    H5 2742   2.131   3.911   0.321  1.2097  0.1129 -1.4243
  176MPD1    N1 2743   1.932   3.762   0.724  0.2851  0.2511 -0.0281
  176MPD1    H6 2744   2.025   3.783   0.757 -0.1220  1.6604  0.2028
  176MPD1    H7 2745   1.891   3.680   0.770  1.2122 -0.1869  0.0137
  177MPD1     C 2746   1.027   3.342   9.714 -0.0765 -0.2333 -0.9442
  177MPD1    C1 2747   0.924   3.367   9.807 -0.2700 -0.3409  0.2722
  177MPD1    C2 2748   0.796   3.334   9.768  0.2058 -1.0606  0.5316
  177MPD1    C3 2749   0.779   3.290   9.638  0.1111  0.0639  0.1132
  177MPD1    C4 2750   0.881   3.278   9.548  0.6558  0.4053 -0.1672
  177MPD1    C5 2751   1.006   3.316   9.582  0.3761  0.6076  0.5610
  177MPD1     H 2752   0.713   3.338   9.837 -0.5826 -1.4858 -0.3872
  177MPD1    H1 2753   0.870   3.230   9.451  1.6929  1.0241 -0.5891
  177MPD1    H2 2754   1.128   3.366   9.744 -0.9911  3.5302 -0.9156
  177MPD1    H3 2755   1.090   3.298   9.516 -0.9738 -0.9693 -0.7486
  177MPD1     N 2756   0.646   3.268   9.597  0.5412 -0.3758  0.2431
  177MPD1    H5 2757   0.576   3.293   9.666 -1.3521  0.6668 -2.0387
  177MPD1    N1 2758   0.942   3.396   9.942  0.1584 -0.5281 -0.7580
  177MPD1    H6 2759   0.854   3.418   9.987  1.2744 -0.7653  1.5085
  177MPD1    H7 2760   1.013   3.469   9.945 -1.6598  1.2549 -1.5346
  178MPD1     C 2761   2.833   3.621   0.217  0.4479 -0.1141  0.5986
  178MPD1    C1 2762   2.828   3.742   0.160  0.7785  0.5144 -0.3680
  178MPD1    C2 2763   2.919   3.769   0.060 -0.8758 -0.4150  0.5178
  178MPD1    C3 2764   2.993   3.669   0.004  0.1137  0.0951 -0.5186
  178MPD1    C4 2765   2.982   3.545   0.054 -0.5765  0.6985 -0.7749
  178MPD1    C5 2766   2.910   3.522   0.167  0.6303 -0.5567  0.0358
  178MPD1     H 2767   2.913   3.868   0.015  0.7235 -1.3354 -1.7614
  178MPD1    H1 2768   3.030   3.459   0.008  1.0060  0.5772  1.0883
  178MPD1    H2 2769   2.770   3.604   0.303 -0.4390  2.1809  0.4269
  178MPD1    H3 2770   2.919   3.426   0.216 -0.0252 -0.5848  0.1103
  178MPD1     N 2771   3.078   3.696  17.635  0.5153 -0.7058 -0.1240
  178MPD1    H5 2772   3.139   3.621  17.605  0.2740 -1.1583  0.5132
  178MPD1    N1 2773   2.771   3.847   0.230 -0.5227 -0.0480 -0.1884
  178MPD1    H6 2774   2.686   3.822   0.280  0.2811  0.3495  1.3814
  178MPD1    H7 2775   2.754   3.937   0.185  1.9241 -0.8513 -2.6579
  179MPD1     C 2776   2.368   2.459  15.428  0.6889 -0.0358  0.2068
  179MPD1    C1 2777   2.364   2.376  15.318 -0.5086  0.0994 -0.0487
  179MPD1    C2 2778   2.374   2.240  15.344  0.5690  0.0404 -0.3220
  179MPD1    C3 2779   2.363   2.185  15.472 -0.3190 -0.3029 -0.2188
  179MPD1    C4 2780   2.365   2.272  15.580 -0.5208 -0.1390  0.4875
  179MPD1    C5 2781   2.364   2.408  15.559 -0.5706  0.1358  0.1134
  179MPD1     H 2782   2.375   2.184  15.251 -0.9075 -0.4626 -0.0306
  179MPD1    H1 2783   2.357   2.229  15.679 -1.5056 -0.1979  0.3820
  179MPD1    H2 2784   2.373   2.566  15.416  1.2812 -0.1831 -0.8695
  179MPD1    H3 2785   2.363   2.475  15.644 -2.1389 -0.2829  0.4284
  179MPD1     N 2786   2.360   2.041  15.493 -0.9710 -0.0018 -0.1271
  179MPD1    H5 2787   2.363   2.001  15.587 -1.6351 -0.2187 -0.1976
  179MPD1    N1 2788   2.374   2.439  15.193  0.0047  0.4495  0.2316
  179MPD1    H6 2789   2.316   2.522  15.182 -1.5355 -0.6747 -0.2533
  179MPD1    H7 2790   2.337   2.388  15.113 -0.9312  1.2224  0.1627
  180MPD1     C 2791   2.409   3.230  15.660  0.3826 -0.1612 -0.0361
  180MPD1    C1 2792   2.480   3.339  15.622  0.2249 -0.1069 -0.1894
  180MPD1    C2 2793   2.481   3.374  15.486  0.1898  0.3978 -0.3558
  180MPD1    C3 2794   2.402   3.309  15.393  0.2419  0.1073  0.2801
  180MPD1    C4 2795   2.335   3.198  15.437 -0.0661 -0.3758 -0.5417
  180MPD1    C5 2796   2.341   3.159  15.570  0.6363 -0.4693  0.3057
  180MPD1     H 2797   2.537   3.464  15.463  0.3038  0.7092  1.1146
  180MPD1    H1 2798   2.278   3.136  15.370 -0.3734  0.8883 -1.4411
  180MPD1    H2 2799   2.394   3.195  15.761 -0.3583  0.3135  0.0183
  180MPD1    H3 2800   2.279   3.080  15.613 -0.1592  0.2109  0.4125
  180MPD1     N 2801   2.396   3.355  15.257  0.1755 -0.3582 -0.5732
  180MPD1    H5 2802   2.457   3.431  15.229 -1.1313  0.7615 -0.3778
  180MPD1    N1 2803   2.561   3.414  15.709 -0.5339 -0.4855 -0.0916
  180MPD1    H6 2804   2.512   3.413  15.798  0.5315 -0.0152  0.4950
  180MPD1    H7 2805   2.574   3.511  15.684  1.6649 -1.0662 -1.2330
  181MPD1     C 2806   4.577   1.721   8.766 -0.8350 -0.4415 -0.5540
  181MPD1    C1 2807   4.520   1.598   8.804 -0.6183  0.1668 -0.0811
  181MPD1    C2 2808   4.582   1.519   8.903 -0.3508 -0.5915 -0.2997
  181MPD1    C3 2809   4.698   1.565   8.968  0.2194  0.7877  0.0655
  181MPD1    C4 2810   0.013   1.690   8.938 -0.7070  0.7851  0.2530
  181MPD1    C5 2811   4.691   1.763   8.839  0.3883  0.6754 -0.0703
  181MPD1     H 2812   4.538   1.429   8.945 -0.2184 -0.1250  0.8446
  181MPD1    H1 2813   0.101   1.731   8.986 -2.1253 -0.1614  3.6132
  181MPD1    H2 2814   4.557   1.775   8.674 -0.2995  0.7317  0.0165
  181MPD1    H3 2815   0.002   1.854   8.804  3.3246 -0.2839  1.4198
  181MPD1     N 2816   0.027   1.497   9.077 -0.2923  0.0551 -0.6278
  181MPD1    H5 2817   0.107   1.541   9.121 -0.3259 -0.8847  0.3589
  181MPD1    N1 2818   4.428   1.539   8.719 -0.7982 -0.1711 -0.5265
  181MPD1    H6 2819   4.375   1.607   8.664 -0.4720 -0.3448 -1.0582
  181MPD1    H7 2820   4.377   1.463   8.763  3.6639 -2.5657  0.5419
  182MPD1     C 2821   0.206   0.020   1.985  0.3948  0.2655  0.0680
  182MPD1    C1 2822   0.111   0.121   1.987  0.1756  1.0244  0.4987
  182MPD1    C2 2823   0.111   0.203   1.868 -0.2535  0.1786 -0.0499
  182MPD1    C3 2824   0.200   0.182   1.766  0.3798 -0.6823 -0.3879
  182MPD1    C4 2825   0.291   0.081   1.777  0.1750 -0.8345 -0.5016
  182MPD1    C5 2826   0.299   0.006   1.890 -0.3361 -0.5967 -0.0353
  182MPD1     H 2827   0.047   0.291   1.870  0.9381  1.0642 -0.6255
  182MPD1    H1 2828   0.366   0.062   1.701  0.6838 -1.4428  0.1613
  182MPD1    H2 2829   0.223   4.705   2.079 -1.9287 -0.2915  0.1855
  182MPD1    H3 2830   0.381   4.673   1.903  1.1140  1.3806  1.2424
  182MPD1     N 2831   0.203   0.251   1.640 -0.0919 -0.0076  0.1860
  182MPD1    H5 2832   0.262   0.218   1.564  1.1741 -1.3884  1.7347
  182MPD1    N1 2833   0.045   0.158   2.102 -0.0852 -0.4453  0.8558
  182MPD1    H6 2834   4.687   0.180   2.070  1.0237  2.1300 -0.6345
  182MPD1    H7 2835   0.034   0.081   2.168 -0.4183  0.0371  1.3543
  183MPD1     C 2836   1.514   0.855   9.873 -0.5638  0.9200  0.7250
  183MPD1    C1 2837   1.470   0.903   9.750  0.3657 -0.1418  0.9998
  183MPD1    C2 2838   1.347   0.860   9.703 -0.5440  0.1284  0.1256
  183MPD1    C3 2839   1.274   0.766   9.777  0.3048 -0.1158  0.2356
  183MPD1    C4 2840   1.317   0.726   9.897  0.3241  0.1645 -0.2119
  183MPD1    C5 2841   1.435   0.767   9.944 -0.1849  0.1353 -0.1284
  183MPD1     H 2842   1.312   0.889   9.605  0.0512  1.1753  0.2168
  183MPD1    H1 2843   1.266   0.648   9.953  0.5840 -1.1965 -1.8699
  183MPD1    H2 2844   1.612   0.865   9.918 -0.2068 -1.5885  0.5065
  183MPD1    H3 2845   1.468   0.730  10.041  1.4160  3.1909  0.4962
  183MPD1     N 2846   1.147   0.732   9.726  0.1246 -0.7467  0.4446
  183MPD1    H5 2847   1.109   0.785   9.648  1.6101 -1.2450 -0.6181
  183MPD1    N1 2848   1.567   0.964   9.665  0.2715 -0.3957 -0.1463
  183MPD1    H6 2849   1.524   0.998   9.579 -0.6296  0.5232  0.6783
  183MPD1    H7 2850   1.604   1.051   9.704 -1.3511  0.5603 -0.7299
  184MPD1     C 2851   0.562   2.574  10.552 -0.0326  0.5309 -0.0265
  184MPD1    C1 2852   0.433   2.563  10.498  0.3885 -0.3383 -0.5071
  184MPD1    C2 2853   0.392   2.631  10.391  0.0834  0.4431 -0.2805
  184MPD1    C3 2854   0.482   2.717  10.336 -0.3552  0.0158 -0.0872
  184MPD1    C4 2855   0.614   2.718  10.374 -0.8736  0.4067 -0.2917
  184MPD1    C5 2856   0.652   2.653  10.486 -0.4787 -0.9472 -0.0137
  184MPD1     H 2857   0.290   2.622  10.354  0.1204  1.9021 -0.7656
  184MPD1    H1 2858   0.690   2.779  10.326 -1.2814  1.1653  0.0155
  184MPD1    H2 2859   0.588   2.516  10.640 -4.9306  0.1350  1.1574
  184MPD1    H3 2860   0.752   2.651  10.528 -0.9623 -0.4147  1.1614
  184MPD1     N 2861   0.458   2.793  10.210 -0.3721  0.3618 -0.4489
  184MPD1    H5 2862   0.538   2.845  10.174 -0.6751  0.4651 -0.9693
  184MPD1    N1 2863   0.336   2.483  10.562 -0.1795 -0.0506  0.1395
  184MPD1    H6 2864   0.354   2.476  10.662  1.5968  3.4722  0.0439
  184MPD1    H7 2865   0.239   2.508  10.547 -0.3480  0.5661  2.2786
  185MPD1     C 2866   4.501   2.648   9.501  0.1048 -0.3954 -0.2324
  185MPD1    C1 2867   4.570   2.760   9.464 -0.7965  0.1845  0.1498
  185MPD1    C2 2868   4.688   2.789   9.524 -0.2775  0.0926  0.7749
  185MPD1    C3 2869   0.015   2.707   9.616  0.4757 -0.0119 -0.6083
  185MPD1    C4 2870   4.686   2.584   9.637 -0.7021 -0.2453 -0.1093
  185MPD1    C5 2871   4.564   2.563   9.581 -0.5341 -0.7189  0.4302
  185MPD1     H 2872   4.735   2.879   9.486 -0.0154 -0.7761 -0.9452
  185MPD1    H1 2873   4.725   2.506   9.702  0.3112  0.2849 -0.0932
  185MPD1    H2 2874   4.400   2.625   9.469  0.1494  1.0159 -1.4012
  185MPD1    H3 2875   4.520   2.464   9.591  1.0837 -1.7080 -2.4858
  185MPD1     N 2876   0.123   2.746   9.694 -0.5848  0.1260  0.0286
  185MPD1    H5 2877   0.150   2.678   9.765 -2.2445 -0.1966  0.3383
  185MPD1    N1 2878   4.505   2.861   9.395  0.8395 -0.3725  0.5890
  185MPD1    H6 2879   4.572   2.929   9.359  1.9665 -2.1149 -0.6178
  185MPD1    H7 2880   4.438   2.841   9.321  0.8216  1.5011  0.0954
  186MPD1     C 2881   3.413   2.292  15.591  0.2093  0.2119 -0.2386
  186MPD1    C1 2882   3.281   2.336  15.613  0.7186 -1.1359  0.5717
  186MPD1    C2 2883   3.249   2.367  15.751 -0.3216  0.2085  0.2338
  186MPD1    C3 2884   3.342   2.368  15.854 -0.0890 -0.1960 -0.0237
  186MPD1    C4 2885   3.468   2.318  15.824 -0.8687  0.8779  0.1339
  186MPD1    C5 2886   3.492   2.273  15.699 -0.3275  0.2921 -0.3406
  186MPD1     H 2887   3.150   2.398  15.785 -0.1397  2.4143 -1.3056
  186MPD1    H1 2888   3.544   2.315  15.902  0.6131 -0.3313 -1.3705
  186MPD1    H2 2889   3.450   2.267  15.493 -1.1821 -0.2329 -0.6515
  186MPD1    H3 2890   3.592   2.241  15.675 -0.6036  0.2122 -1.3981
  186MPD1     N 2891   3.320   2.404  15.989 -0.1379 -0.0041 -0.2041
  186MPD1    H5 2892   3.398   2.418  16.053  1.1117 -1.9132 -1.3039
  186MPD1    N1 2893   3.187   2.336  15.515 -0.4527  0.3614 -0.3873
  186MPD1    H6 2894   3.107   2.391  15.547 -0.0998 -0.4442  1.9065
  186MPD1    H7 2895   3.223   2.373  15.427 -1.4536  1.0193 -0.5174
  187MPD1     C 2896   2.951   4.374  17.622 -0.6620 -0.1578  0.8026
  187MPD1    C1 2897   2.852   4.299  17.687 -0.5292  0.6372 -0.1447
  187MPD1    C2 2898   2.719   4.323  17.662 -0.4315 -0.9204 -0.1174
  187MPD1    C3 2899   2.692   4.433  17.582  0.8570  0.0822 -0.1266
  187MPD1    C4 2900   2.794   4.516  17.530 -0.0187 -0.1406 -0.2596
  187MPD1    C5 2901   2.927   4.482  17.558 -0.5420  0.0391 -0.5897
  187MPD1     H 2902   2.645   4.255  17.701 -1.5757 -0.7006 -1.9359
  187MPD1    H1 2903   2.765   4.599  17.466 -0.6283  0.2500  0.5163
  187MPD1    H2 2904   3.058   4.360  17.631 -0.6432 -1.3537 -1.2848
  187MPD1    H3 2905   3.011   4.535  17.514  0.6721 -0.6071  0.9410
  187MPD1     N 2906   2.565   4.466  17.538  0.5406 -0.0473  0.5154
  187MPD1    H5 2907   2.557   4.549  17.480  1.8004 -1.3405 -1.4978
  187MPD1    N1 2908   2.889   4.185   0.016  0.4084 -0.0287  0.1889
  187MPD1    H6 2909   2.818   4.147   0.079 -1.2515 -1.9133 -2.8087
  187MPD1    H7 2910   2.986   4.171   0.045  1.2024  1.8894 -1.5604
  188MPD1     C 2911   2.293   0.137  10.959  0.5014 -0.0843  0.5340
  188MPD1    C1 2912   2.162   0.098  10.932 -0.0189  0.1721 -0.4284
  188MPD1    C2 2913   2.146   4.715  10.861  0.3999 -0.4670 -0.2035
  188MPD1    C3 2914   2.252   4.634  10.830 -0.1889  0.3532  0.6539
  188MPD1    C4 2915   2.384   4.676  10.860  0.8430  0.7202  0.3258
  188MPD1    C5 2916   2.400   0.065  10.908  0.5396 -0.0316  0.3617
  188MPD1     H 2917   2.040   4.694  10.847  0.0914  0.3020  1.0069
  188MPD1    H1 2918   2.470   4.622  10.823 -0.6394 -1.9997  0.8153
  188MPD1    H2 2919   2.310   0.240  10.989  0.0241  0.3068 -0.5452
  188MPD1    H3 2920   2.497   0.113  10.911 -0.8566  2.9094 -1.3252
  188MPD1     N 2921   2.247   4.504  10.767 -0.0351  0.5109  0.6537
  188MPD1    H5 2922   2.337   4.459  10.756 -0.1522  0.9838 -2.1294
  188MPD1    N1 2923   2.051   0.189  10.953 -0.0340  0.5191 -0.1133
  188MPD1    H6 2924   1.966   0.139  10.974  0.1762 -0.5413 -1.7527
  188MPD1    H7 2925   2.069   0.252  11.031  1.1282  1.2333 -0.9477
  189MPD1     C 2926   4.097   1.185   1.044  0.1681 -0.0479  0.3850
  189MPD1    C1 2927   4.060   1.081   0.960 -0.8875 -0.1078  0.4156
  189MPD1    C2 2928   3.938   1.086   0.894 -0.0602 -0.2966  0.3025
  189MPD1    C3 2929   3.855   1.193   0.901 -0.5392 -0.1006  0.0907
  189MPD1    C4 2930   3.891   1.301   0.977  0.3188 -0.4624  0.1837
  189MPD1    C5 2931   4.010   1.295   1.041 -0.2480  0.0476  0.2261
  189MPD1     H 2932   3.894   1.004   0.838  1.7771 -1.1170  0.0497
  189MPD1    H1 2933   3.823   1.385   0.989  1.2590  0.1818  0.9542
  189MPD1    H2 2934   4.185   1.186   1.107 -0.4803 -2.3889  1.3239
  189MPD1    H3 2935   4.041   1.370   1.112  0.2010 -0.3688  0.4745
  189MPD1     N 2936   3.729   1.164   0.832  0.1132 -0.2165  0.2947
  189MPD1    H5 2937   3.713   1.072   0.792 -3.8421  0.8006 -0.4686
  189MPD1    N1 2938   4.143   0.964   0.963 -0.0453  0.0719  0.2186
  189MPD1    H6 2939   4.240   0.992   0.973 -0.3802  1.3134 -0.0430
  189MPD1    H7 2940   4.127   0.903   0.883  2.5972  1.2945 -1.2472
  190MPD1     C 2941   2.729   2.917  16.025  0.1368 -0.4367  0.1354
  190MPD1    C1 2942   2.682   2.997  15.920 -0.0047  0.3021 -0.5946
  190MPD1    C2 2943   2.736   3.128  15.900 -0.0378  0.8087 -0.1074
  190MPD1    C3 2944   2.836   3.173  15.985 -0.2258  0.5194 -0.0396
  190MPD1    C4 2945   2.884   3.090  16.087 -0.3781 -0.0242 -0.2570
  190MPD1    C5 2946   2.838   2.962  16.102 -0.8428  0.1175 -0.5617
  190MPD1     H 2947   2.702   3.192  15.819 -1.4639 -0.0255 -0.1800
  190MPD1    H1 2948   2.959   3.125  16.157  0.2168 -1.7249 -0.0314
  190MPD1    H2 2949   2.702   2.813  16.044  0.0915 -0.3755  0.4040
  190MPD1    H3 2950   2.882   2.899  16.178  0.1718 -0.5334 -1.7062
  190MPD1     N 2951   2.890   3.299  15.945  0.0823 -0.2710 -0.3360
  190MPD1    H5 2952   2.858   3.333  15.855  0.7364 -2.5024 -1.4179
  190MPD1    N1 2953   2.562   2.961  15.858 -0.2019  0.5167 -0.9941
  190MPD1    H6 2954   2.571   2.990  15.761  0.6490 -1.2839 -1.4620
  190MPD1    H7 2955   2.565   2.859  15.863 -0.0806  0.5497 -0.3248
  191MPD1     C 2956   2.290   0.877  12.948  0.2921  0.5196 -0.6286
  191MPD1    C1 2957   2.395   0.963  12.934  0.1354  0.5349  0.2521
  191MPD1    C2 2958   2.394   1.027  12.811 -0.2418 -0.0779  0.5378
  191MPD1    C3 2959   2.294   1.031  12.717 -0.9910  0.5144  0.4442
  191MPD1    C4 2960   2.193   0.938  12.736 -0.7783  0.9587 -0.0617
  191MPD1    C5 2961   2.189   0.860  12.853 -0.1043  0.0354  0.1680
  191MPD1     H 2962   2.472   1.102  12.800  1.9167 -2.9110 -3.5457
  191MPD1    H1 2963   2.120   0.918  12.658 -0.2241 -3.1321  0.4594
  191MPD1    H2 2964   2.276   0.808  13.031 -2.6994  0.7501 -0.9215
  191MPD1    H3 2965   2.106   0.792  12.872  0.3849 -0.1880  1.5198
  191MPD1     N 2966   2.312   1.103  12.595 -0.4067 -0.0971  0.6303
  191MPD1    H5 2967   2.382   1.177  12.595  1.9648 -2.3209 -0.5568
  191MPD1    N1 2968   2.482   0.983  13.042 -0.2198 -0.6935 -0.1870
  191MPD1    H6 2969   2.494   0.896  13.093  1.7246 -0.9336 -1.0422
  191MPD1    H7 2970   2.572   1.015  13.005 -0.9346 -1.7418 -2.8655
  192MPD1     C 2971   1.974   1.825  11.879 -0.0409  0.3862  0.1587
  192MPD1    C1 2972   1.896   1.722  11.937 -0.3182  0.4860 -0.0222
  192MPD1    C2 2973   1.959   1.611  11.991  0.1593 -0.2470  0.2054
  192MPD1    C3 2974   2.097   1.602  11.995  0.5772 -0.3496 -0.0402
  192MPD1    C4 2975   2.168   1.715  11.951  0.4953  0.2711  0.1388
  192MPD1    C5 2976   2.107   1.827  11.904 -0.4875  0.2185 -0.3807
  192MPD1     H 2977   1.908   1.520  12.018  0.5766  0.5343  3.5860
  192MPD1    H1 2978   2.277   1.716  11.957  0.6179 -1.3096 -2.0418
  192MPD1    H2 2979   1.937   1.915  11.831  1.4148  1.1745  0.5353
  192MPD1    H3 2980   2.161   1.908  11.856  1.3238 -0.9398 -0.3050
  192MPD1     N 2981   2.175   1.498  12.049  0.2041  0.8021  0.2141
  192MPD1    H5 2982   2.276   1.512  12.048  0.4974 -1.4852 -3.1285
  192MPD1    N1 2983   1.761   1.722  11.915  0.4570  0.5884 -0.5526
  192MPD1    H6 2984   1.716   1.813  11.912  1.0154  0.8823 -0.0163
  192MPD1    H7 2985   1.713   1.668  11.987 -0.3700  2.4041  0.2573
  193MPD1     C 2986   1.497   0.859  16.500  0.6394 -0.1887  0.2302
  193MPD1    C1 2987   1.632   0.832  16.515  0.0948  0.0307  0.4725
  193MPD1    C2 2988   1.716   0.929  16.560  0.0028  0.4700  0.5283
  193MPD1    C3 2989   1.663   1.047  16.615  0.2165  0.3989 -0.3075
  193MPD1    C4 2990   1.527   1.060  16.608 -0.2285 -0.5676 -0.7967
  193MPD1    C5 2991   1.445   0.973  16.544  0.5216 -0.2774  0.2187
  193MPD1     H 2992   1.825   0.927  16.557  0.0621  0.7319  2.8342
  193MPD1    H1 2993   1.484   1.146  16.659  0.3347 -1.6475  1.5214
  193MPD1    H2 2994   1.426   0.789  16.457  1.1012 -1.6793  1.8894
  193MPD1    H3 2995   1.341   1.002  16.540  0.9545  0.5872 -4.5612
  193MPD1     N 2996   1.740   1.158  16.647  0.4613  0.5088 -0.4319
  193MPD1    H5 2997   1.690   1.247  16.647 -1.8402 -0.7665  0.3775
  193MPD1    N1 2998   1.687   0.715  16.463 -0.3683  0.2117  0.1964
  193MPD1    H6 2999   1.779   0.703  16.504 -0.1495  0.6190 -0.1687
  193MPD1    H7 3000   1.631   0.633  16.487 -1.2763  1.0229  0.8726
  194MPD1     C 3001   3.787   2.716  17.397  0.4210  0.3483 -0.6118
  194MPD1    C1 3002   3.924   2.727  17.421 -0.1359 -0.0734  0.6916
  194MPD1    C2 3003   3.993   2.609  17.432  0.3765 -0.5296 -1.0596
  194MPD1    C3 3004   3.926   2.482  17.410 -0.7536  0.4967 -0.4879
  194MPD1    C4 3005   3.783   2.476  17.380 -0.2746 -0.2322  0.2863
  194MPD1    C5 3006   3.722   2.593  17.370  0.1108  0.3300 -0.1529
  194MPD1     H 3007   4.097   2.609  17.464  0.1151 -1.4503 -0.2333
  194MPD1    H1 3008   3.725   2.386  17.364  0.2719 -1.0615  2.8659
  194MPD1    H2 3009   3.727   2.806  17.405  0.4861  0.4466 -1.2306
  194MPD1    H3 3010   3.615   2.593  17.351 -0.2045 -2.1984  1.6434
  194MPD1     N 3011   3.986   2.355  17.431  0.1981 -0.4234 -0.0468
  194MPD1    H5 3012   3.941   2.270  17.399  0.3535  0.8730 -3.7345
  194MPD1    N1 3013   3.990   2.845  17.471  0.5500 -0.6876  0.1807
  194MPD1    H6 3014   3.959   2.927  17.420 -1.8817 -1.6996  0.0342
  194MPD1    H7 3015   4.090   2.831  17.461  0.8063 -0.2364  2.0799
  195MPD1     C 3016   1.822   0.731   0.489 -0.0993  0.3721  0.4275
  195MPD1    C1 3017   1.759   0.612   0.525 -0.0961  0.3158  0.2263
  195MPD1    C2 3018   1.755   0.512   0.432  0.2387  0.3013  0.3884
  195MPD1    C3 3019   1.822   0.520   0.317 -0.2951  0.4056  0.5830
  195MPD1    C4 3020   1.881   0.640   0.285  0.3729 -0.3330  0.3297
  195MPD1    C5 3021   1.880   0.743   0.367 -0.0421 -0.8700 -0.4270
  195MPD1     H 3022   1.688   0.429   0.452  1.2867 -0.8177 -0.8012
  195MPD1    H1 3023   1.927   0.664   0.190 -1.6951  1.5341 -0.1981
  195MPD1    H2 3024   1.815   0.822   0.549 -0.3955 -1.2713  2.9169
  195MPD1    H3 3025   1.931   0.836   0.341 -0.4546 -0.4284  0.3369
  195MPD1     N 3026   1.828   0.411   0.225 -0.6769 -0.4156  0.3406
  195MPD1    H5 3027   1.893   0.430   0.150 -1.3411 -0.6579 -0.2913
  195MPD1    N1 3028   1.677   0.609   0.643 -0.2157 -0.0730 -0.2318
  195MPD1    H6 3029   1.717   0.665   0.718 -0.5900 -1.7996  1.2576
  195MPD1    H7 3030   1.674   0.512   0.673  1.1714 -0.0291  0.0708
  196MPD1     C 3031   4.727   0.152  17.147 -0.4882 -0.4236 -0.3116
  196MPD1    C1 3032   0.119   0.099  17.149  0.0254  0.5412 -0.2973
  196MPD1    C2 3033   0.160   0.050  17.269 -0.0951  0.6467  0.2350
  196MPD1    C3 3034   0.089   0.060  17.392 -0.4645  0.0775  0.1958
  196MPD1    C4 3035   4.699   0.130  17.388 -0.2196  0.2383 -0.2588
  196MPD1    C5 3036   4.651   0.180  17.261 -0.2251  1.0687 -0.1319
  196MPD1     H 3037   0.259   0.006  17.271 -1.3018 -2.0919 -0.4310
  196MPD1    H1 3038   4.638   0.141  17.476 -0.2757  1.0096 -0.3961
  196MPD1    H2 3039   4.685   0.175  17.050  1.1492 -1.7725 -1.3514
  196MPD1    H3 3040   4.556   0.232  17.259 -1.4091 -1.1409 -0.7510
  196MPD1     N 3041   0.127   4.727  17.515 -0.1488 -0.2083  0.5372
  196MPD1    H5 3042   0.056   4.734  17.587  1.2804  0.7083  1.8571
  196MPD1    N1 3043   0.187   0.066  17.031  0.5666  0.0376  0.2452
  196MPD1    H6 3044   0.285   0.050  17.056  0.7191 -2.1719 -1.8654
  196MPD1    H7 3045   0.189   0.130  16.952 -0.1690  1.3036  1.2404
  197MPD1     C 3046   0.123   1.404  17.209 -0.2523  0.4785  0.2065
  197MPD1    C1 3047   0.228   1.435  17.285 -0.0737 -0.0741  0.1475
  197MPD1    C2 3048   0.348   1.469  17.223 -0.4468 -1.3297  0.3218
  197MPD1    C3 3049   0.370   1.455  17.090  0.1663 -0.5611 -0.4015
  197MPD1    C4 3050   0.269   1.408  17.014  0.4930 -0.3101 -0.7526
  197MPD1    C5 3051   0.149   1.390  17.077  0.1886 -0.4030 -0.2703
  197MPD1     H 3052   0.425   1.503  17.292 -0.1434  0.5744 -0.9636
  197MPD1    H1 3053   0.266   1.392  16.907 -1.1526 -0.6241 -0.6605
  197MPD1    H2 3054   0.023   1.400  17.250 -0.5418  0.6801 -0.4807
  197MPD1    H3 3055   0.061   1.376  17.016  0.6796 -2.6995 -0.4497
  197MPD1     N 3056   0.494   1.491  17.027 -0.4677  0.2410 -0.2564
  197MPD1    H5 3057   0.500   1.467  16.929  1.3441 -0.0868 -0.0670
  197MPD1    N1 3058   0.203   1.453  17.426  0.4307 -0.1944 -0.2828
  197MPD1    H6 3059   0.115   1.406  17.448  0.4425 -0.9322 -1.7623
  197MPD1    H7 3060   0.279   1.426  17.488  0.8095 -2.4727 -1.6992
  198MPD1     C 3061   2.319   4.457  15.492  0.5296 -1.2314  0.3441
  198MPD1    C1 3062   2.456   4.446  15.480  0.7292  0.2786  0.1117
  198MPD1    C2 3063   2.531   4.546  15.547 -0.4739 -0.2027 -0.8230
  198MPD1    C3 3064   2.476   4.631  15.638  0.0038 -0.2073  0.5015
  198MPD1    C4 3065   2.342   4.622  15.658  0.2068 -0.3989 -0.5841
  198MPD1    C5 3066   2.261   4.539  15.586 -0.7924 -0.5600  0.6533
  198MPD1     H 3067   2.637   4.560  15.527 -0.7780  1.4266 -1.3164
  198MPD1    H1 3068   2.292   4.664  15.744  2.1854  0.8950 -0.0647
  198MPD1    H2 3069   2.248   4.415  15.421 -0.3975  1.8721 -0.5582
  198MPD1    H3 3070   2.153   4.540  15.596 -0.9390  0.1511 -0.9951
  198MPD1     N 3071   2.557   4.718  15.712 -0.6464 -1.1781  0.0370
  198MPD1    H5 3072   2.657   4.706  15.699 -0.6164  0.6813 -1.5383
  198MPD1    N1 3073   2.505   4.377  15.368 -0.7186 -0.5842 -0.8456
  198MPD1    H6 3074   2.602   4.348  15.380 -1.2304 -1.0586  2.2272
  198MPD1    H7 3075   2.447   4.297  15.347  0.6109 -1.5049 -1.0272
  199MPD1     C 3076   4.539   1.087   9.848 -1.1473 -0.0558  0.4782
  199MPD1    C1 3077   4.594   1.207   9.886 -0.7007 -0.3910  0.4943
  199MPD1    C2 3078   4.605   1.308   9.789  0.2007  0.4059 -0.5103
  199MPD1    C3 3079   4.533   1.298   9.670  0.5754 -0.0792 -0.4174
  199MPD1    C4 3080   4.472   1.176   9.640 -0.2775  0.3872  0.8709
  199MPD1    C5 3081   4.474   1.070   9.730 -0.3386  0.0492  0.1090
  199MPD1     H 3082   4.668   1.396   9.802  0.2398  0.1915  0.7600
  199MPD1    H1 3083   4.435   1.145   9.543  2.1522  0.7083 -0.1667
  199MPD1    H2 3084   4.536   1.005   9.919 -1.5124 -0.0307  0.4888
  199MPD1    H3 3085   4.422   0.979   9.702 -1.8574  0.3469  1.9689
  199MPD1     N 3086   4.516   1.400   9.574  0.0332 -0.2832  0.1320
  199MPD1    H5 3087   4.464   1.375   9.491  1.1085 -0.5751 -0.4422
  199MPD1    N1 3088   4.689   1.214   9.988 -0.7132 -0.6468  0.0264
  199MPD1    H6 3089   4.672   1.143  10.060 -2.4113  0.0120  0.2736
  199MPD1    H7 3090   4.704   1.303  10.035 -1.1575 -0.5590  0.0051
  200MPD1     C 3091   4.255   0.907  14.020 -0.6830 -0.0116 -0.1602
  200MPD1    C1 3092   4.266   0.991  14.123  0.0240 -0.5585  0.0673
  200MPD1    C2 3093   4.206   1.116  14.133 -0.3315 -0.0306  0.1992
  200MPD1    C3 3094   4.132   1.158  14.019 -0.8126  0.0781 -0.5617
  200MPD1    C4 3095   4.116   1.072  13.909 -0.6120 -0.7948 -0.8422
  200MPD1    C5 3096   4.181   0.951  13.914  0.1832  0.6659 -0.1825
  200MPD1     H 3097   4.215   1.177  14.222  0.8643  0.8332 -0.5144
  200MPD1    H1 3098   4.058   1.098  13.821 -1.4876  0.9958  0.2797
  200MPD1    H2 3099   4.313   0.816  14.015  0.9473  1.0862 -0.8619
  200MPD1    H3 3100   4.189   0.891  13.824 -2.3482 -3.2044  2.1378
  200MPD1     N 3101   4.066   1.286  14.032 -0.2220  0.3489  0.1738
  200MPD1    H5 3102   4.105   1.337  14.111 -1.1814  0.7863  0.3570
  200MPD1    N1 3103   4.343   0.947  14.237 -0.2944  0.1739 -0.2802
  200MPD1    H6 3104   4.329   0.847  14.251  0.8279  0.3732  2.1492
  200MPD1    H7 3105   4.310   0.991  14.322  2.2007 -1.4928  1.5583
  201MPD1     C 3106   0.724   0.428  13.996 -0.1870  0.0811 -0.3068
  201MPD1    C1 3107   0.650   0.311  13.978 -0.6813  0.0579  0.1972
  201MPD1    C2 3108   0.716   0.199  13.929 -0.4577  0.4475 -0.3552
  201MPD1    C3 3109   0.849   0.199  13.893  0.6389  0.0541  0.6305
  201MPD1    C4 3110   0.916   0.320  13.908 -0.3333 -0.4270 -0.4989
  201MPD1    C5 3111   0.854   0.431  13.954  0.0740 -0.2544  0.2219
  201MPD1     H 3112   0.656   0.109  13.918  0.5829 -0.3570  0.5503
  201MPD1    H1 3113   1.023   0.331  13.893 -0.5066 -0.9682 -2.1028
  201MPD1    H2 3114   0.683   0.516  14.046  1.9668  0.6988  0.3612
  201MPD1    H3 3115   0.916   0.519  13.956 -0.0727 -0.1469 -0.0030
  201MPD1     N 3116   0.907   0.083  13.847 -0.1730  0.2490 -0.0931
  201MPD1    H5 3117   0.849   4.736  13.841  1.8613 -1.4780  3.5821
  201MPD1    N1 3118   0.526   0.294  14.038 -0.2293  0.4894  0.8574
  201MPD1    H6 3119   0.465   0.373  14.017 -0.6627  0.0100  0.2970
  201MPD1    H7 3120   0.476   0.208  14.017  0.8180  0.3806 -1.1788
  202MPD1     C 3121   0.680   3.713   9.713 -0.0519 -0.3984  0.0928
  202MPD1    C1 3122   0.570   3.777   9.756 -0.0488 -0.0482  0.3630
  202MPD1    C2 3123   0.595   3.886   9.841  0.4335  0.1234 -0.3116
  202MPD1    C3 3124   0.718   3.899   9.908 -0.4835 -0.2648 -0.0703
  202MPD1    C4 3125   0.813   3.815   9.880 -0.1178  0.1198 -0.4325
  202MPD1    C5 3126   0.795   3.719   9.781 -0.1179 -0.7722 -0.2139
  202MPD1     H 3127   0.517   3.960   9.849 -0.4271 -0.6153 -1.8560
  202MPD1    H1 3128   0.908   3.823   9.931 -0.0207 -1.2182 -0.4027
  202MPD1    H2 3129   0.685   3.650   9.625 -1.3513  1.1030 -1.0717
  202MPD1    H3 3130   0.882   3.661   9.753 -1.2598 -1.0994 -3.0697
  202MPD1     N 3131   0.743   4.010   9.990 -0.2159  0.3136 -0.2174
  202MPD1    H5 3132   0.827   4.001  10.046 -0.4593 -4.0198 -0.5945
  202MPD1    N1 3133   0.458   3.777   9.678 -0.2201  0.0640 -0.1563
  202MPD1    H6 3134   0.367   3.788   9.724  0.8453  0.6258  1.8021
  202MPD1    H7 3135   0.442   3.685   9.638 -2.6043  0.0454  0.7761
  203MPD1     C 3136   4.504   0.900  12.333 -0.3801  0.2529  0.6995
  203MPD1    C1 3137   4.526   0.802  12.238 -0.0838  0.3895 -0.1820
  203MPD1    C2 3138   4.564   0.674  12.289  0.3183  0.0779  0.5220
  203MPD1    C3 3139   4.583   0.654  12.427  0.0519 -0.4591  0.4230
  203MPD1    C4 3140   4.557   0.748  12.513  0.1952 -0.3762 -0.0531
  203MPD1    C5 3141   4.517   0.871  12.468 -0.3164  0.1752  0.8760
  203MPD1     H 3142   4.595   0.597  12.219  0.9863 -0.2170  1.1476
  203MPD1    H1 3143   4.566   0.739  12.621 -1.3662  0.9113  0.1866
  203MPD1    H2 3144   4.484   1.003  12.306  1.5860  0.9580  1.9051
  203MPD1    H3 3145   4.512   0.953  12.539  2.1891  0.1485  1.0752
  203MPD1     N 3146   4.626   0.519  12.471  0.4787  0.9544 -0.1403
  203MPD1    H5 3147   4.653   0.457  12.396  0.8348  0.6776  0.2166
  203MPD1    N1 3148   4.503   0.828  12.103  0.1691 -0.1601 -0.5340
  203MPD1    H6 3149   4.557   0.765  12.043  0.1009  1.9449 -2.8272
  203MPD1    H7 3150   4.507   0.924  12.070 -1.0722  0.3199  0.7425
  204MPD1     C 3151   4.723   1.587  17.638  0.3956 -0.3907  1.1922
  204MPD1    C1 3152   4.675   1.663  17.533 -0.1891  0.2014  0.2187
  204MPD1    C2 3153   4.567   1.612  17.461 -0.6001  0.4640 -0.1309
  204MPD1    C3 3154   4.518   1.485  17.484 -0.8855  0.4886 -0.5297
  204MPD1    C4 3155   4.577   1.404  17.579 -0.0042 -0.4475 -0.2995
  204MPD1    C5 3156   4.672   1.462  17.657  0.3975 -0.0766 -0.9208
  204MPD1     H 3157   4.528   1.675  17.383 -1.0302  1.3465  0.7933
  204MPD1    H1 3158   4.545   1.305  17.609  2.1453 -1.3948 -1.1331
  204MPD1    H2 3159   0.066   1.620  17.703  0.3030  0.3808  0.9035
  204MPD1    H3 3160   4.702   1.404  17.743  1.1229 -0.8167 -1.6765
  204MPD1     N 3161   4.410   1.442  17.409  1.0556 -0.1085 -0.2489
  204MPD1    H5 3162   4.392   1.491  17.322 -2.3878 -1.4144 -0.2869
  204MPD1    N1 3163   4.736   1.777  17.479  0.1551 -0.1991  0.1930
  204MPD1    H6 3164   4.663   1.833  17.437  2.1476  1.8776 -0.5239
  204MPD1    H7 3165   0.044   1.836  17.549 -1.3217  0.0320  0.9430
  205MPD1     C 3166   3.320   4.497  17.620 -0.6813  0.2439  0.2668
  205MPD1    C1 3167   3.346   4.595  17.523  0.4102  0.2621  0.0417
  205MPD1    C2 3168   3.387   4.721  17.559 -0.1306 -0.2544 -0.6054
  205MPD1    C3 3169   3.418   0.007  17.696  0.1906 -0.0739  0.1696
  205MPD1    C4 3170   3.381   4.647   0.047  0.2794  0.2687 -0.0196
  205MPD1    C5 3171   3.333   4.521   0.009  0.3070  0.5161  0.0922
  205MPD1     H 3172   3.408   0.050  17.475 -0.5037 -0.8822 -1.1858
  205MPD1    H1 3173   3.386   4.674   0.152 -0.3655  1.5295 -0.3153
  205MPD1    H2 3174   3.268   4.405  17.594  2.2866 -1.6353  0.9186
  205MPD1    H3 3175   3.301   4.451   0.085 -1.6445  1.9189  0.5654
  205MPD1     N 3176   3.474   0.130  17.736 -0.1641  0.1286  0.0784
  205MPD1    H5 3177   3.472   0.154   0.090  2.8161 -1.3061  0.4839
  205MPD1    N1 3178   3.291   4.563  17.394 -0.2623  0.0177 -0.1792
  205MPD1    H6 3179   3.319   4.470  17.363  1.7743  0.3001  0.8510
  205MPD1    H7 3180   3.329   4.626  17.324  2.8849 -0.3493  1.1985
  206MPD1     C 3181   3.975   2.591  17.062 -0.4385  0.1454 -0.0215
  206MPD1    C1 3182   4.019   2.497  16.975 -0.2261  0.0581 -0.3903
  206MPD1    C2 3183   4.095   2.531  16.862  0.2672 -0.2661  0.2085
  206MPD1    C3 3184   4.115   2.660  16.827 -0.1760  0.2446 -0.2084
  206MPD1    C4 3185   4.061   2.756  16.909  0.2278 -0.2954 -0.0966
  206MPD1    C5 3186   3.990   2.719  17.026  0.6851 -0.0182  0.2130
  206MPD1     H 3187   4.124   2.454  16.791  0.6560  1.3335 -1.3681
  206MPD1    H1 3188   4.073   2.858  16.874 -1.7424  0.2280  0.7016
  206MPD1    H2 3189   3.916   2.571  17.151 -1.1099  1.2283 -0.2116
  206MPD1    H3 3190   3.953   2.801  17.086  0.1723  0.7587 -1.1496
  206MPD1     N 3191   4.182   2.699  16.708  0.6404 -0.2536 -0.0746
  206MPD1    H5 3192   4.175   2.797  16.684  1.8955 -0.2097 -0.2610
  206MPD1    N1 3193   4.007   2.358  17.004 -0.4804 -0.5658 -0.0891
  206MPD1    H6 3194   3.921   2.344  17.056  1.3645 -0.3112  3.0013
  206MPD1    H7 3195   4.016   2.289  16.930 -0.2080 -1.0639  0.4149
  207MPD1     C 3196   2.095   1.125  10.480 -0.0416  0.4379 -0.3782
  207MPD1    C1 3197   2.194   1.054  10.523 -0.6608 -0.6714  0.2521
  207MPD1    C2 3198   2.314   1.124  10.520 -0.0959 -0.5800  0.4636
  207MPD1    C3 3199   2.327   1.260  10.490  0.6047  0.2901  0.4385
  207MPD1    C4 3200   2.211   1.330  10.458 -0.3565 -0.2096  1.1162
  207MPD1    C5 3201   2.100   1.257  10.445 -0.1355  0.0025  0.2911
  207MPD1     H 3202   2.396   1.059  10.548  1.9717  2.9627  2.7262
  207MPD1    H1 3203   2.213   1.431  10.420 -0.8670 -1.0419 -1.0848
  207MPD1    H2 3204   1.996   1.083  10.468  0.4312 -0.7852 -0.0364
  207MPD1    H3 3205   2.020   1.313  10.398 -1.3146 -2.5838 -0.8293
  207MPD1     N 3206   2.447   1.331  10.476 -0.1566 -0.0082 -0.0803
  207MPD1    H5 3207   2.450   1.432  10.469  0.2146  0.1438  2.6118
  207MPD1    N1 3208   2.182   0.911  10.525  0.3259  0.5205 -0.7824
  207MPD1    H6 3209   2.105   0.887  10.588  1.0880  2.4950  0.9116
  207MPD1    H7 3210   2.260   0.874  10.579 -0.0907 -0.8501 -1.1136
  208MPD1     C 3211   4.385   3.714   0.692 -0.3186  0.3767  0.4161
  208MPD1    C1 3212   4.507   3.787   0.705 -0.2259  0.2683  0.3916
  208MPD1    C2 3213   4.497   3.923   0.720 -0.1070  0.0998  0.6596
  208MPD1    C3 3214   4.378   3.991   0.693  0.0019 -0.6298 -0.0252
  208MPD1    C4 3215   4.266   3.919   0.662  0.0786 -0.4043 -0.5368
  208MPD1    C5 3216   4.267   3.782   0.676 -0.7347 -0.1794 -0.4280
  208MPD1     H 3217   4.578   3.985   0.756  2.3117 -0.8778 -3.0252
  208MPD1    H1 3218   4.171   3.972   0.655  1.5358  2.2137 -0.1857
  208MPD1    H2 3219   4.383   3.606   0.695 -0.8833  0.4022  1.1611
  208MPD1    H3 3220   4.172   3.731   0.667 -0.7827 -0.1822  0.0682
  208MPD1     N 3221   4.389   4.134   0.687  0.4311 -0.0612 -0.5404
  208MPD1    H5 3222   4.466   4.179   0.737  2.0061 -2.0262 -1.2244
  208MPD1    N1 3223   4.627   3.724   0.746 -1.3799 -0.1667 -0.0505
  208MPD1    H6 3224   4.627   3.623   0.735 -2.0312 -0.5235  3.4221
  208MPD1    H7 3225   4.712   3.772   0.715 -1.1671 -0.6238 -0.1742
  209MPD1     C 3226   4.032   1.804  10.276 -0.2102 -0.1681 -1.0427
  209MPD1    C1 3227   3.980   1.776  10.148  1.1613 -0.2635 -1.2467
  209MPD1    C2 3228   3.972   1.648  10.105  0.3309 -0.4255  0.0489
  209MPD1    C3 3229   3.982   1.544  10.191  0.2210 -0.2800  0.5512
  209MPD1    C4 3230   4.010   1.571  10.322  1.0316 -0.4257  0.1006
  209MPD1    C5 3231   4.035   1.703  10.367 -0.6760 -0.3765  0.4308
  209MPD1     H 3232   3.948   1.630  10.001 -1.9056  0.2174  0.4643
  209MPD1    H1 3233   4.019   1.496  10.399  2.3679  2.3958  2.6702
  209MPD1    H2 3234   4.044   1.905  10.313  1.7210 -0.4549 -0.9102
  209MPD1    H3 3235   4.070   1.718  10.468 -1.4442  0.9607  0.4964
  209MPD1     N 3236   3.939   1.420  10.138  0.2077  0.1444 -0.8074
  209MPD1    H5 3237   3.904   1.413  10.043  0.0555  0.2031 -0.7564
  209MPD1    N1 3238   3.975   1.878  10.054  0.4845  0.0819  0.1358
  209MPD1    H6 3239   3.957   1.967  10.100  0.7781  1.7563 -3.0237
  209MPD1    H7 3240   3.900   1.855   9.990  0.3989  0.6720  0.0234
  210MPD1     C 3241   3.624   1.016   9.324 -0.8050  0.6017 -0.0465
  210MPD1    C1 3242   3.722   1.105   9.359  0.3735 -0.0824 -0.1113
  210MPD1    C2 3243   3.748   1.112   9.490 -0.4852 -0.2665  0.5435
  210MPD1    C3 3244   3.701   1.023   9.588  0.2207 -0.0518 -0.7323
  210MPD1    C4 3245   3.620   0.924   9.547  1.1349 -0.0191  0.0695
  210MPD1    C5 3246   3.581   0.922   9.419 -0.5237 -0.1879 -0.0872
  210MPD1     H 3247   3.818   1.188   9.521  0.9615 -2.2519  2.2160
  210MPD1    H1 3248   3.578   0.853   9.618  0.1435  1.5395  1.0543
  210MPD1    H2 3249   3.587   0.998   9.224  0.9844 -1.2738 -0.3761
  210MPD1    H3 3250   3.518   0.842   9.381  1.1430 -2.0421  1.0447
  210MPD1     N 3251   3.715   1.042   9.731 -0.3223 -0.4512 -0.3825
  210MPD1    H5 3252   3.664   0.979   9.791 -1.8973 -0.3711 -1.6311
  210MPD1    N1 3253   3.754   1.209   9.266 -0.2874 -0.5013  0.4652
  210MPD1    H6 3254   3.839   1.258   9.290 -0.6397 -0.4861  1.6653
  210MPD1    H7 3255   3.760   1.175   9.170  2.6165 -0.1080  0.5071
  211MPD1     C 3256   0.454   0.451  17.157  0.4023  0.2004 -0.3489
  211MPD1    C1 3257   0.359   0.396  17.243 -0.2755 -0.1167  0.0758
  211MPD1    C2 3258   0.229   0.447  17.231 -0.0972 -0.1563  0.1306
  211MPD1    C3 3259   0.188   0.509  17.111  0.0127  0.1891  0.6788
  211MPD1    C4 3260   0.280   0.546  17.014 -0.2512 -0.8690  0.0113
  211MPD1    C5 3261   0.407   0.525  17.049  0.2637  0.2711  0.7972
  211MPD1     H 3262   0.146   0.413  17.291 -1.9737  1.9101 -1.2913
  211MPD1    H1 3263   0.254   0.612  16.933  0.7801 -0.8875 -0.3389
  211MPD1    H2 3264   0.560   0.442  17.179  0.3458  0.8510  0.2017
  211MPD1    H3 3265   0.485   0.574  16.990 -1.3892  1.0170 -0.7889
  211MPD1     N 3266   0.049   0.536  17.094  0.4761  0.4263 -0.4290
  211MPD1    H5 3267   4.727   0.517  17.175 -0.1192  0.4224 -0.8549
  211MPD1    N1 3268   0.409   0.320  17.355 -0.7924 -0.4801  1.2812
  211MPD1    H6 3269   0.339   0.251  17.383  0.4060 -2.7812 -1.4092
  211MPD1    H7 3270   0.488   0.261  17.327 -1.1655 -0.6445  0.5548
  212MPD1     C 3271   3.806   3.596  16.761  0.0961 -0.2444 -0.8252
  212MPD1    C1 3272   3.866   3.477  16.732  0.2325  0.3798 -0.8518
  212MPD1    C2 3273   3.838   3.366  16.816 -0.4106 -0.1154  0.3156
  212MPD1    C3 3274   3.721   3.374  16.894 -0.0649 -0.4478 -0.7569
  212MPD1    C4 3275   3.642   3.489  16.893 -0.4268 -0.4167  0.1457
  212MPD1    C5 3276   3.686   3.601  16.823  0.2171  0.0015  0.4475
  212MPD1     H 3277   3.909   3.283  16.826 -0.0423  0.1654  0.0217
  212MPD1    H1 3278   3.548   3.491  16.948 -0.4492  1.8108  0.0381
  212MPD1    H2 3279   3.841   3.688  16.716  0.9974  2.0921  4.5888
  212MPD1    H3 3280   3.636   3.697  16.829 -0.5584 -0.3516 -0.3091
  212MPD1     N 3281   3.662   3.262  16.954 -0.5778  0.3355 -0.5260
  212MPD1    H5 3282   3.572   3.283  16.997 -0.7022  1.3820 -1.3196
  212MPD1    N1 3283   3.991   3.472  16.659  0.1305  0.6949  0.1054
  212MPD1    H6 3284   3.974   3.537  16.582  0.9464 -0.0913 -0.7455
  212MPD1    H7 3285   4.005   3.378  16.621 -1.9725  0.2703  0.3591
  213MPD1     C 3286   2.185   4.117  16.204 -0.3853 -0.3827  0.6924
  213MPD1    C1 3287   2.156   3.996  16.146 -0.0326 -0.0001 -0.8372
  213MPD1    C2 3288   2.074   4.008  16.040  0.1485  0.1088  0.0407
  213MPD1    C3 3289   2.059   4.128  15.971  0.0635 -0.4001 -0.3880
  213MPD1    C4 3290   2.117   4.241  16.017  0.3498 -0.2019 -0.3955
  213MPD1    C5 3291   2.181   4.230  16.139  0.2209  0.2262  0.5810
  213MPD1     H 3292   2.033   3.914  16.005  1.4571 -0.8290  1.0391
  213MPD1    H1 3293   2.113   4.339  15.971  0.1289 -0.9920 -2.0542
  213MPD1    H2 3294   2.242   4.123  16.296 -0.3976 -0.7951  0.7264
  213MPD1    H3 3295   2.224   4.318  16.185 -0.1962  0.0725  1.2601
  213MPD1     N 3296   1.994   4.113  15.847  0.4271  0.0327  0.1304
  213MPD1    H5 3297   1.956   4.020  15.832 -0.7053  0.5797 -0.3995
  213MPD1    N1 3298   2.155   3.880  16.226  0.0158  0.0751 -0.2128
  213MPD1    H6 3299   2.245   3.870  16.273 -1.0479 -2.7937  1.2391
  213MPD1    H7 3300   2.159   3.797  16.166  2.5064 -0.8207  1.1730
  214MPD1     C 3301   1.494   3.558  15.233 -0.7767  0.5290  0.1108
  214MPD1    C1 3302   1.578   3.537  15.338 -1.1017  0.3285  0.0091
  214MPD1    C2 3303   1.600   3.651  15.414 -0.2795 -0.3556 -0.0559
  214MPD1    C3 3304   1.561   3.777  15.371 -0.1183 -0.0683  0.5814
  214MPD1    C4 3305   1.484   3.791  15.260  0.4876 -0.2113  0.2963
  214MPD1    C5 3306   1.438   3.678  15.193  0.3525  0.3914 -0.1918
  214MPD1     H 3307   1.663   3.641  15.501  2.4617  2.9894 -1.6675
  214MPD1    H1 3308   1.461   3.894  15.232  0.2293  0.5486  3.3327
  214MPD1    H2 3309   1.453   3.471  15.183  1.3021 -0.0263 -0.6010
  214MPD1    H3 3310   1.367   3.690  15.112  0.7504  1.8164 -0.3226
  214MPD1     N 3311   1.597   3.897  15.429 -1.4566 -0.7381 -0.5729
  214MPD1    H5 3312   1.562   3.984  15.390 -0.2867  0.7355  1.6541
  214MPD1    N1 3313   1.605   3.416  15.381 -0.3857  0.5100 -0.2241
  214MPD1    H6 3314   1.610   3.345  15.309 -2.3784 -0.3876  0.5244
  214MPD1    H7 3315   1.692   3.415  15.433 -0.1019 -0.8959 -0.7261
  215MPD1     C 3316   0.762   0.652  10.714  0.0334 -0.0630  0.3814
  215MPD1    C1 3317   0.863   0.632  10.624  0.3898 -0.2412 -0.1555
  215MPD1    C2 3318   0.985   0.663  10.659 -0.2338 -0.2188 -0.2765
  215MPD1    C3 3319   1.024   0.713  10.780  0.5049 -0.3145  0.0534
  215MPD1    C4 3320   0.921   0.744  10.860 -0.4325  1.2437 -0.3801
  215MPD1    C5 3321   0.792   0.711  10.834  0.4668 -0.0020 -0.1916
  215MPD1     H 3322   1.056   0.639  10.581 -0.3914  1.1513 -0.8443
  215MPD1    H1 3323   0.933   0.789  10.958  0.4725 -1.8323  0.9197
  215MPD1    H2 3324   0.659   0.638  10.684  0.1241  0.3220 -0.1091
  215MPD1    H3 3325   0.716   0.734  10.908  1.2522  0.6979  0.3943
  215MPD1     N 3326   1.160   0.740  10.811  0.5359 -0.5236 -0.2144
  215MPD1    H5 3327   1.229   0.702  10.746  2.0439  0.9255  0.5367
  215MPD1    N1 3328   0.832   0.588  10.496 -0.4530  0.0080 -0.0297
  215MPD1    H6 3329   0.749   0.528  10.492 -0.3678 -0.2016  1.4231
  215MPD1    H7 3330   0.909   0.556  10.438  1.8024  2.2192  1.7295
  216MPD1     C 3331   3.617   3.380   0.197  0.5098 -0.2092  0.1686
  216MPD1    C1 3332   3.663   3.302   0.305  0.9057 -0.0000  0.0611
  216MPD1    C2 3333   3.651   3.170   0.288 -0.2172 -0.1477 -0.4228
  216MPD1    C3 3334   3.598   3.107   0.176 -0.4054 -0.2492  1.0101
  216MPD1    C4 3335   3.550   3.181   0.069 -0.4999 -0.0407  0.0774
  216MPD1    C5 3336   3.566   3.316   0.086  0.4341  0.9477 -0.7422
  216MPD1     H 3337   3.678   3.102   0.367  0.3074  0.9453  0.3284
  216MPD1    H1 3338   3.505   3.141  17.722 -0.0418  3.3042 -1.5995
  216MPD1    H2 3339   3.601   3.487   0.196 -2.4688 -0.6793 -1.0478
  216MPD1    H3 3340   3.526   3.383   0.010  0.4228  0.0629 -1.5231
  216MPD1     N 3341   3.591   2.966   0.181 -0.7851  0.0652  0.1309
  216MPD1    H5 3342   3.628   2.917   0.262  0.8288 -1.8244 -1.7315
  216MPD1    N1 3343   3.686   3.361   0.429 -0.2852  0.1447  0.1898
  216MPD1    H6 3344   3.731   3.452   0.434 -0.7428  0.4251 -0.8682
  216MPD1    H7 3345   3.744   3.300   0.486 -1.3022 -0.8070  0.1981
  217MPD1     C 3346   3.961   0.720   8.754 -0.4852  0.2177 -0.0329
  217MPD1    C1 3347   4.091   0.693   8.744 -0.4987 -0.0303 -0.3037
  217MPD1    C2 3348   4.156   0.626   8.852 -0.2464 -0.3539 -0.5320
  217MPD1    C3 3349   4.079   0.566   8.947  0.7565  0.2009  0.5462
  217MPD1    C4 3350   3.945   0.583   8.953  0.2943 -0.3346 -0.1438
  217MPD1    C5 3351   3.891   0.668   8.858  0.0869  0.1080  0.1437
  217MPD1     H 3352   4.264   0.619   8.852 -0.1102  1.6370 -2.1365
  217MPD1    H1 3353   3.879   0.556   9.035 -0.7909  1.0948 -0.5515
  217MPD1    H2 3354   3.901   0.766   8.676  0.3937  0.8294 -0.3521
  217MPD1    H3 3355   3.785   0.689   8.868  0.5762  2.2432  0.7959
  217MPD1     N 3356   4.130   0.459   9.035 -0.5346  0.1486  0.1300
  217MPD1    H5 3357   4.072   0.421   9.110 -2.5750  1.3970 -0.8296
  217MPD1    N1 3358   4.176   0.762   8.652  0.1052  0.2418 -0.2451
  217MPD1    H6 3359   4.119   0.785   8.571 -1.4044 -3.5382 -0.2533
  217MPD1    H7 3360   4.256   0.706   8.626  1.1484  0.8956  1.5734
  218MPD1     C 3361   1.439   0.346  12.597 -0.9044  0.6180  0.2405
  218MPD1    C1 3362   1.477   0.478  12.578  0.0636 -0.5085  0.2558
  218MPD1    C2 3363   1.599   0.523  12.616 -0.3674  0.1782 -0.0666
  218MPD1    C3 3364   1.688   0.438  12.671 -0.0448 -0.5955  0.2726
  218MPD1    C4 3365   1.660   0.305  12.676 -1.0132  0.2000 -0.1379
  218MPD1    C5 3366   1.536   0.257  12.643  0.0403  0.8573 -0.3946
  218MPD1     H 3367   1.629   0.627  12.605 -0.7839  0.5299  2.0668
  218MPD1    H1 3368   1.723   0.225  12.714  0.1724  1.0403 -0.3240
  218MPD1    H2 3369   1.341   0.300  12.587 -0.2234 -0.6253 -0.7554
  218MPD1    H3 3370   1.522   0.150  12.657  0.7264  0.5377 -2.1453
  218MPD1     N 3371   1.805   0.498  12.726 -0.4646 -0.9202 -0.3596
  218MPD1    H5 3372   1.839   0.592  12.708  0.7591 -1.8884 -3.1403
  218MPD1    N1 3373   1.375   0.572  12.563 -0.9084 -0.2402  0.3310
  218MPD1    H6 3374   1.416   0.658  12.527  0.5956 -0.7148  0.9611
  218MPD1    H7 3375   1.293   0.541  12.511 -2.3698  0.7452  2.0573
  219MPD1     C 3376   2.558   0.883  12.213  0.0686 -0.5245  0.6093
  219MPD1    C1 3377   2.431   0.830  12.187  0.3993 -0.1458  0.9696
  219MPD1    C2 3378   2.356   0.780  12.291  0.0188  0.3465  0.6123
  219MPD1    C3 3379   2.412   0.775  12.422  0.4119 -0.5667 -0.2884
  219MPD1    C4 3380   2.536   0.833  12.441 -0.7284  0.6068  0.3292
  219MPD1    C5 3381   2.610   0.884  12.333 -0.2839  0.1899 -0.3824
  219MPD1     H 3382   2.257   0.744  12.269 -0.6027  2.0540  0.6409
  219MPD1    H1 3383   2.587   0.840  12.536 -0.0457  1.4342 -0.0955
  219MPD1    H2 3384   2.621   0.924  12.135 -0.1639  1.0943  1.2734
  219MPD1    H3 3385   2.707   0.929  12.349  0.2696 -1.1519  0.0184
  219MPD1     N 3386   2.355   0.716  12.532 -0.0133 -0.2345 -0.0886
  219MPD1    H5 3387   2.410   0.707  12.617 -0.3560 -0.7619  0.0758
  219MPD1    N1 3388   2.370   0.855  12.064 -0.3978 -0.5086 -0.2985
  219MPD1    H6 3389   2.302   0.782  12.047 -0.4444 -0.1885 -1.4681
  219MPD1    H7 3390   2.444   0.844  11.994 -1.0653  1.0770 -1.2477
  220MPD1     C 3391   1.165   1.731   9.422 -0.1366 -0.1570 -0.2520
  220MPD1    C1 3392   1.270   1.732   9.508  0.0734 -0.4207 -0.8442
  220MPD1    C2 3393   1.292   1.615   9.584  0.3890  0.3715 -0.6157
  220MPD1    C3 3394   1.206   1.502   9.572 -0.6442  0.1114  1.0986
  220MPD1    C4 3395   1.121   1.503   9.467  0.1056 -0.4436 -0.4919
  220MPD1    C5 3396   1.093   1.619   9.403 -0.0425  0.0385  0.0423
  220MPD1     H 3397   1.368   1.627   9.661 -0.6184  2.1066  0.0936
  220MPD1    H1 3398   1.056   1.419   9.441 -0.1752  0.3277 -2.2981
  220MPD1    H2 3399   1.134   1.818   9.366 -1.6416 -0.2117  0.4965
  220MPD1    H3 3400   1.015   1.623   9.328  0.6218  1.8802 -0.5549
  220MPD1     N 3401   1.227   1.399   9.659  0.9973  0.2301  0.1594
  220MPD1    H5 3402   1.288   1.418   9.738  0.0328  2.3075  0.4164
  220MPD1    N1 3403   1.325   1.851   9.556  0.2222  0.7414  0.0171
  220MPD1    H6 3404   1.336   1.905   9.470 -0.1381  1.2755  0.3041
  220MPD1    H7 3405   1.419   1.849   9.595  0.6818 -0.7550 -1.1700
  221MPD1     C 3406   4.722   0.232  16.235 -0.8500  0.2991 -0.3268
  221MPD1    C1 3407   4.675   0.118  16.171  0.0171 -0.0015 -0.0617
  221MPD1    C2 3408   4.666   4.736  16.234 -0.0546 -0.2092 -0.5228
  221MPD1    C3 3409   4.712   4.726  16.365 -0.5296 -0.4598  0.1020
  221MPD1    C4 3410   0.025   0.102  16.431 -0.4489 -0.2458  0.5458
  221MPD1    C5 3411   0.035   0.223  16.363  0.2493 -0.5140 -0.4317
  221MPD1     H 3412   4.624   4.652  16.181  1.9638  1.6389 -5.1068
  221MPD1    H1 3413   0.068   0.097  16.530  0.1099  1.2903  0.3826
  221MPD1    H2 3414   4.732   0.326  16.184  0.7774 -0.5675 -1.5696
  221MPD1    H3 3415   0.072   0.304  16.424  1.3270 -1.4019  0.0959
  221MPD1     N 3416   4.723   4.603  16.436  0.6666  0.2422  0.2275
  221MPD1    H5 3417   0.027   4.603  16.529 -1.3913  0.2835  1.1181
  221MPD1    N1 3418   4.623   0.135  16.042  0.0720  0.0128  0.4268
  221MPD1    H6 3419   4.638   0.055  15.981 -1.7437  0.6584 -0.8852
  221MPD1    H7 3420   4.668   0.210  15.990 -1.4622  1.4873  1.2280
  222MPD1     C 3421   2.711   0.263   0.291 -0.8282 -0.0737 -0.2615
  222MPD1    C1 3422   2.774   0.206   0.181  0.3002  0.1417  0.7180
  222MPD1    C2 3423   2.795   0.071   0.191  0.2220  0.1402  0.3908
  222MPD1    C3 3424   2.784   4.733   0.306  0.2759  0.3578  0.5903
  222MPD1    C4 3425   2.713   0.052   0.404 -0.0764  0.0532 -0.4507
  222MPD1    C5 3426   2.676   0.181   0.394 -1.2601  0.3058  0.4130
  222MPD1     H 3427   2.833   0.021   0.103 -0.9099 -0.0535  0.0101
  222MPD1    H1 3428   2.692   0.002   0.498 -1.9602 -0.3869 -1.0966
  222MPD1    H2 3429   2.669   0.362   0.275 -0.6893 -0.1616 -1.1501
  222MPD1    H3 3430   2.614   0.216   0.475  2.2278  0.2236  3.1308
  222MPD1     N 3431   2.833   4.605   0.325 -0.0163 -0.0472 -0.1532
  222MPD1    H5 3432   2.797   4.558   0.407  4.4307 -0.8771  1.2750
  222MPD1    N1 3433   2.793   0.269   0.060  0.2478  0.6615  0.4898
  222MPD1    H6 3434   2.809   0.368   0.078  1.5970  0.6242 -0.5665
  222MPD1    H7 3435   2.873   0.233   0.008 -0.2707  0.3604 -0.0979
  223MPD1     C 3436   2.340   3.971   0.616  0.5930 -0.2437  0.5626
  223MPD1    C1 3437   2.336   4.074   0.526 -0.0819 -0.1511 -0.8687
  223MPD1    C2 3438   2.453   4.134   0.480 -0.8070  0.5286  0.2695
  223MPD1    C3 3439   2.577   4.107   0.533  1.0135  0.7037 -0.4960
  223MPD1    C4 3440   2.581   4.015   0.640 -0.6743 -0.2433 -0.2842
  223MPD1    C5 3441   2.467   3.942   0.667  0.4657 -0.0902  0.1519
  223MPD1     H 3442   2.446   4.217   0.410  2.4996  0.6420  0.0513
  223MPD1    H1 3443   2.665   3.991   0.704  0.2641  1.7810 -0.7752
  223MPD1    H2 3444   2.254   3.925   0.662  1.5356 -2.5492  0.0106
  223MPD1    H3 3445   2.470   3.866   0.743 -3.0955 -0.3277  0.0735
  223MPD1     N 3446   2.690   4.172   0.475 -0.4186  0.6620  0.2247
  223MPD1    H5 3447   2.677   4.236   0.397 -1.6180 -1.4020 -1.2566
  223MPD1    N1 3448   2.205   4.104   0.470 -1.0733 -0.8739 -0.1554
  223MPD1    H6 3449   2.180   4.198   0.439 -2.9577 -1.4569 -0.4066
  223MPD1    H7 3450   2.129   4.066   0.526  0.9789 -3.5482  0.7579
  224MPD1     C 3451   1.367   0.556   9.455  0.3720  0.3866  0.3167
  224MPD1    C1 3452   1.278   0.628   9.381 -0.6855 -0.0460  0.0514
  224MPD1    C2 3453   1.152   0.572   9.356  0.5957 -0.1086 -0.4591
  224MPD1    C3 3454   1.115   0.444   9.410  0.2448 -0.3778  0.6532
  224MPD1    C4 3455   1.215   0.381   9.482  0.3258  0.1658  0.4799
  224MPD1    C5 3456   1.334   0.439   9.504  0.0625  0.4573  0.5216
  224MPD1     H 3457   1.078   0.630   9.302  2.4403  1.8642 -0.8393
  224MPD1    H1 3458   1.212   0.281   9.525  1.2509 -0.5017 -1.0012
  224MPD1    H2 3459   1.462   0.601   9.481  0.3616  0.4279  0.2834
  224MPD1    H3 3460   1.408   0.381   9.556  1.1356  1.5667  0.2309
  224MPD1     N 3461   0.990   0.384   9.401 -0.8739 -0.4034  0.3479
  224MPD1    H5 3462   0.975   0.308   9.467 -2.0324 -0.6852 -0.2328
  224MPD1    N1 3463   1.327   0.748   9.326  0.3870 -0.0444  0.9254
  224MPD1    H6 3464   1.243   0.807   9.319 -0.3094 -1.2698 -0.9263
  224MPD1    H7 3465   1.389   0.804   9.384 -2.1329 -0.3160  3.8811
  225MPD1     C 3466   1.913   1.181  12.659 -0.9943 -0.1636  0.4998
  225MPD1    C1 3467   1.843   1.133  12.770 -0.6987 -0.0081  1.0271
  225MPD1    C2 3468   1.706   1.143  12.769 -0.4930  0.1369 -0.0970
  225MPD1    C3 3469   1.642   1.203  12.669 -0.1413 -0.1950  0.1069
  225MPD1    C4 3470   1.712   1.260  12.575 -0.3354 -0.0260  0.1985
  225MPD1    C5 3471   1.844   1.248  12.566  0.1961  0.1124  0.3256
  225MPD1     H 3472   1.644   1.113  12.852  2.1204  0.0769  1.8221
  225MPD1    H1 3473   1.656   1.290  12.487  0.4626  4.1066  1.1141
  225MPD1    H2 3474   2.018   1.164  12.638 -0.9821 -0.9151  1.1704
  225MPD1    H3 3475   1.898   1.285  12.480 -1.6358  0.9022 -0.4924
  225MPD1     N 3476   1.508   1.213  12.648 -0.3922 -0.0886 -0.0713
  225MPD1    H5 3477   1.475   1.260  12.564  0.9613 -1.5067 -1.3881
  225MPD1    N1 3478   1.915   1.057  12.861 -0.3998 -0.3092  0.4339
  225MPD1    H6 3479   2.011   1.091  12.868 -0.2863 -0.5508  0.0984
  225MPD1    H7 3480   1.862   1.047  12.947  2.1994  1.5654  2.2522
  226MPD1     C 3481   0.847   2.402   9.682 -0.2722  0.5935  0.4457
  226MPD1    C1 3482   0.776   2.335   9.585  0.1886  0.0152 -0.1587
  226MPD1    C2 3483   0.759   2.197   9.594  0.1740  0.4882 -0.3442
  226MPD1    C3 3484   0.833   2.128   9.686  0.3977 -0.2955  0.0152
  226MPD1    C4 3485   0.894   2.202   9.788  0.1259  0.7828  0.0380
  226MPD1    C5 3486   0.906   2.341   9.788 -0.8686  0.3716  0.3765
  226MPD1     H 3487   0.703   2.140   9.521 -1.7436  0.2935  1.2936
  226MPD1    H1 3488   0.953   2.151   9.864  0.0780  0.2827 -0.2584
  226MPD1    H2 3489   0.868   2.508   9.671 -1.0820  0.6858 -0.2445
  226MPD1    H3 3490   0.966   2.399   9.856 -1.0248  0.5465  0.3648
  226MPD1     N 3491   0.836   1.991   9.701  0.1530  0.5338 -0.1724
  226MPD1    H5 3492   0.859   1.957   9.794 -0.5504 -0.4953 -0.3807
  226MPD1    N1 3493   0.702   2.403   9.484  0.3528 -0.2872  0.0701
  226MPD1    H6 3494   0.754   2.487   9.459  0.2988 -0.1171  0.5157
  226MPD1    H7 3495   0.683   2.340   9.408 -1.5335  0.8396 -0.3821
  227MPD1     C 3496   1.356   1.507  10.182  0.1077 -0.2722  0.2401
  227MPD1    C1 3497   1.388   1.601  10.085 -0.5125 -0.5683  0.2736
  227MPD1    C2 3498   1.285   1.641  10.004  0.9698 -0.1942 -0.0679
  227MPD1    C3 3499   1.170   1.561   9.986 -0.1739  0.3735 -0.0822
  227MPD1    C4 3500   1.143   1.457  10.078 -0.7194 -0.7537  0.8062
  227MPD1    C5 3501   1.239   1.436  10.178  0.0912 -0.1248  0.1726
  227MPD1     H 3502   1.302   1.717   9.928  0.6264  1.0577  1.1111
  227MPD1    H1 3503   1.056   1.394  10.092  0.4109 -2.0346  2.0132
  227MPD1    H2 3504   1.430   1.476  10.255 -0.6543  0.7806  1.4690
  227MPD1    H3 3505   1.227   1.368  10.262  0.2517  1.0002  1.1010
  227MPD1     N 3506   1.078   1.596   9.885 -0.4768  0.4012 -0.2397
  227MPD1    H5 3507   1.094   1.685   9.839 -0.2615  0.9841  0.9449
  227MPD1    N1 3508   1.497   1.686  10.107 -0.1406  0.6105  0.1760
  227MPD1    H6 3509   1.580   1.636  10.139 -1.5715 -2.5810 -1.0780
  227MPD1    H7 3510   1.527   1.730  10.021  1.4039 -3.3138 -1.2822
  228MPD1     C 3511   3.813   3.762  13.474  0.0354  0.0420 -0.0423
  228MPD1    C1 3512   3.751   3.859  13.396 -0.0475 -0.5729 -0.1161
  228MPD1    C2 3513   3.621   3.843  13.358 -0.4730  0.3088 -0.1560
  228MPD1    C3 3514   3.553   3.728  13.399 -0.0691 -0.5164  0.1463
  228MPD1    C4 3515   3.615   3.638  13.481  0.0478 -0.1477  0.4806
  228MPD1    C5 3516   3.745   3.654  13.520  0.4465  0.0280  1.0204
  228MPD1     H 3517   3.567   3.913  13.295 -0.4977  0.9579  0.5911
  228MPD1    H1 3518   3.554   3.562  13.529  1.1677 -0.7859  0.8955
  228MPD1    H2 3519   3.913   3.766  13.517 -0.2352  1.0786  0.4924
  228MPD1    H3 3520   3.775   3.593  13.604 -1.0445  1.2950  2.4733
  228MPD1     N 3521   3.422   3.718  13.360 -0.4476 -0.0299 -0.6501
  228MPD1    H5 3522   3.391   3.790  13.295 -1.9130 -0.5365 -0.5168
  228MPD1    N1 3523   3.806   3.986  13.384  0.5072 -0.0091  0.0210
  228MPD1    H6 3524   3.907   3.989  13.371  0.5826  3.0201  1.2251
  228MPD1    H7 3525   3.766   4.047  13.313 -0.7739  1.3042  1.8725
  229MPD1     C 3526   2.700   1.804  15.124  0.4688 -0.2453 -0.5222
  229MPD1    C1 3527   2.735   1.898  15.224 -0.5974 -0.7593  0.3626
  229MPD1    C2 3528   2.856   1.881  15.297  1.0428  0.6349 -0.5652
  229MPD1    C3 3529   2.937   1.765  15.272 -0.0537 -0.4058  0.5580
  229MPD1    C4 3530   2.890   1.667  15.187  0.6607  0.1199  0.0972
  229MPD1    C5 3531   2.781   1.692  15.108 -0.1862 -0.3679 -0.3486
  229MPD1     H 3532   2.880   1.957  15.370  2.1020  1.0204 -1.3202
  229MPD1    H1 3533   2.945   1.576  15.163 -0.3645 -0.6042  0.4659
  229MPD1    H2 3534   2.616   1.823  15.058  0.0541  1.4436  0.4793
  229MPD1    H3 3535   2.762   1.626  15.025  3.0380 -1.2067 -0.4316
  229MPD1     N 3536   3.059   1.737  15.338  0.1958  0.1213 -0.8910
  229MPD1    H5 3537   3.080   1.638  15.339 -0.0896  0.0488 -2.1943
  229MPD1    N1 3538   2.669   2.019  15.235  0.0607  0.3814  0.6872
  229MPD1    H6 3539   2.572   2.029  15.207 -0.1404  0.4547  1.3961
  229MPD1    H7 3540   2.684   2.068  15.323 -1.1143  0.8495  0.6269
  230MPD1     C 3541   3.373   2.097  16.227 -0.8835 -0.5150 -0.3088
  230MPD1    C1 3542   3.259   2.097  16.145  1.1949  0.1222  0.2874
  230MPD1    C2 3543   3.265   2.043  16.014 -0.7918 -0.0432 -0.1165
  230MPD1    C3 3544   3.379   1.993  15.961 -0.9070 -0.2809  0.1828
  230MPD1    C4 3545   3.494   2.002  16.033 -0.2324 -0.4178  0.3178
  230MPD1    C5 3546   3.489   2.048  16.164 -0.3639  0.5234  0.2446
  230MPD1     H 3547   3.172   2.030  15.960 -0.4739 -2.1864 -0.1461
  230MPD1    H1 3548   3.586   1.967  15.987 -0.0236  0.6725 -0.0937
  230MPD1    H2 3549   3.378   2.126  16.331  1.0599  0.4571 -0.6887
  230MPD1    H3 3550   3.585   2.053  16.213 -0.6485 -0.1624  0.8653
  230MPD1     N 3551   3.371   1.932  15.832 -0.0505 -0.5960 -0.0052
  230MPD1    H5 3552   3.283   1.953  15.788  0.3117 -0.0434 -0.4613
  230MPD1    N1 3553   3.133   2.139  16.194 -0.4376  0.2194 -0.1170
  230MPD1    H6 3554   3.144   2.193  16.279  0.0627 -0.0804  0.0068
  230MPD1    H7 3555   3.090   2.194  16.119 -0.3156  1.2842  0.5879
  231MPD1     C 3556   1.514   4.270  15.503  0.2303  0.1123  0.9080
  231MPD1    C1 3557   1.473   4.209  15.386  0.2738  0.6750  0.6394
  231MPD1    C2 3558   1.523   4.250  15.266  0.2366  0.1010  0.3387
  231MPD1    C3 3559   1.623   4.343  15.259 -0.2185 -0.1415 -0.1440
  231MPD1    C4 3560   1.662   4.399  15.372 -0.2678  0.7422 -0.3017
  231MPD1    C5 3561   1.610   4.368  15.495  0.2651  0.6459  0.2884
  231MPD1     H 3562   1.484   4.207  15.174 -0.8776  0.1127  0.8107
  231MPD1    H1 3563   1.741   4.473  15.371  0.8275 -0.4637 -2.1936
  231MPD1    H2 3564   1.479   4.245  15.602 -4.4231  4.5462  0.3707
  231MPD1    H3 3565   1.635   4.434  15.577 -1.3749  0.0128  1.2925
  231MPD1     N 3566   1.682   4.369  15.133 -0.2965  0.7760  0.4139
  231MPD1    H5 3567   1.637   4.313  15.061  0.5524  0.9991 -0.3004
  231MPD1    N1 3568   1.390   4.102  15.385  0.1488 -0.7835 -0.2748
  231MPD1    H6 3569   1.344   4.087  15.474 -0.0333  0.0122 -0.2361
  231MPD1    H7 3570   1.330   4.098  15.302  1.7488 -1.0059 -1.4274
  232MPD1     C 3571   2.863   2.524   0.639  0.0731 -0.5935  1.0118
  232MPD1    C1 3572   2.863   2.383   0.624  0.7728  0.0484  0.5244
  232MPD1    C2 3573   2.782   2.322   0.531  0.2936  0.3463  0.2724
  232MPD1    C3 3574   2.700   2.400   0.451  0.1428 -0.2539  0.5090
  232MPD1    C4 3575   2.696   2.541   0.471  0.3245  0.0215  0.2070
  232MPD1    C5 3576   2.789   2.601   0.550 -0.1977 -0.0042 -0.0621
  232MPD1     H 3577   2.783   2.214   0.522 -0.6142  0.3717 -0.1236
  232MPD1    H1 3578   2.633   2.604   0.408  0.3008  0.8373  1.0404
  232MPD1    H2 3579   2.926   2.570   0.714  1.6039  1.4732 -1.5715
  232MPD1    H3 3580   2.783   2.704   0.583  1.1893 -0.0215  0.2454
  232MPD1     N 3581   2.604   2.339   0.356  0.3571 -0.3995 -0.1515
  232MPD1    H5 3582   2.530   2.402   0.327  3.3435  2.2378 -2.0630
  232MPD1    N1 3583   2.908   2.311   0.732 -0.3548  0.3458 -0.0350
  232MPD1    H6 3584   2.990   2.346   0.782  0.4395 -1.5038 -0.0620
  232MPD1    H7 3585   2.944   2.223   0.696  0.0720  0.2176  0.6923
  233MPD1     C 3586   3.723   4.326   1.135 -0.5232  0.7721 -0.5544
  233MPD1    C1 3587   3.715   4.450   1.187  0.6800 -0.0149  0.7280
  233MPD1    C2 3588   3.831   4.506   1.241  0.3347  0.5157  0.6101
  233MPD1    C3 3589   3.953   4.431   1.241  0.0950 -0.6909 -0.2118
  233MPD1    C4 3590   3.956   4.299   1.195  0.4171  0.3321  0.6539
  233MPD1    C5 3591   3.842   4.248   1.139  0.0774 -0.5377  0.7563
  233MPD1     H 3592   3.817   4.605   1.284 -0.2760  0.2198  1.0876
  233MPD1    H1 3593   4.048   4.242   1.204  0.8603  0.7098 -1.5541
  233MPD1    H2 3594   3.633   4.278   1.098  1.2425 -3.9881  1.4082
  233MPD1    H3 3595   3.844   4.144   1.107  0.6161  0.9040 -3.8541
  233MPD1     N 3596   4.072   4.478   1.291 -0.0096 -0.0421  0.4333
  233MPD1    H5 3597   4.146   4.409   1.293  0.6977  0.7609  1.9502
  233MPD1    N1 3598   3.598   4.522   1.203 -0.0687  0.2742  0.2386
  233MPD1    H6 3599   3.534   4.509   1.125  1.3574  1.4046 -1.1212
  233MPD1    H7 3600   3.626   4.617   1.223 -0.0362  0.4911 -0.8204
  234MPD1     C 3601   0.575   3.497   9.265 -0.3074 -0.0923  0.3109
  234MPD1    C1 3602   0.632   3.575   9.364 -0.0957 -0.0935  0.5269
  234MPD1    C2 3603   0.573   3.699   9.390  0.5594 -0.3772  0.1328
  234MPD1    C3 3604   0.464   3.735   9.316  0.6971  0.1211 -0.5147
  234MPD1    C4 3605   0.413   3.648   9.217  0.1815  0.6302  0.1018
  234MPD1    C5 3606   0.467   3.529   9.186  0.4940 -0.2503  0.3639
  234MPD1     H 3607   0.620   3.779   9.446  2.0279  1.0698 -3.1523
  234MPD1    H1 3608   0.322   3.663   9.159 -0.6439  0.5934  1.3926
  234MPD1    H2 3609   0.609   3.396   9.247  0.6749  0.6247 -1.9224
  234MPD1    H3 3610   0.424   3.466   9.109  0.0391  0.1877  0.2624
  234MPD1     N 3611   0.412   3.860   9.345 -0.4332  0.0775  0.0581
  234MPD1    H5 3612   0.427   3.902   9.436 -1.0949 -1.0901  0.7056
  234MPD1    N1 3613   0.760   3.542   9.405  0.4194  0.1888 -0.5807
  234MPD1    H6 3614   0.768   3.441   9.410  1.7419  0.3563  0.6924
  234MPD1    H7 3615   0.796   3.590   9.487  1.6699 -1.0328 -0.4130
  235MPD1     C 3616   2.647   1.393  10.768  0.3298 -0.2596 -0.0606
  235MPD1    C1 3617   2.561   1.500  10.765  0.2408  0.1466 -1.1515
  235MPD1    C2 3618   2.618   1.621  10.757  0.0723  0.3811  0.4091
  235MPD1    C3 3619   2.748   1.644  10.723 -0.1944 -0.6190 -0.4496
  235MPD1    C4 3620   2.828   1.530  10.709  0.2774 -0.0516  0.2761
  235MPD1    C5 3621   2.779   1.412  10.753  0.0926  0.5436  0.6436
  235MPD1     H 3622   2.551   1.706  10.764 -0.0976  0.3641 -1.0073
  235MPD1    H1 3623   2.929   1.535  10.672  0.7700  2.0592  1.9436
  235MPD1    H2 3624   2.622   1.293  10.802 -0.2816  0.0180  0.3062
  235MPD1    H3 3625   2.836   1.321  10.745  0.3087  0.8160 -0.8604
  235MPD1     N 3626   2.795   1.776  10.711 -0.1828 -0.1112 -0.2307
  235MPD1    H5 3627   2.722   1.846  10.708  1.8543  2.0063 -0.3982
  235MPD1    N1 3628   2.428   1.483  10.795 -1.0227  0.1195 -0.3490
  235MPD1    H6 3629   2.400   1.389  10.768  1.6179 -0.2714 -1.7880
  235MPD1    H7 3630   2.377   1.551  10.739  1.2469  0.6327 -1.7837
  236MPD1     C 3631   1.299   2.952   9.807  0.0240  0.0069  0.2453
  236MPD1    C1 3632   1.382   2.858   9.743  0.0008  0.4788  0.0128
  236MPD1    C2 3633   1.502   2.819   9.798 -0.1260  0.0177 -0.5535
  236MPD1    C3 3634   1.522   2.865   9.931  0.7488  0.4823  0.8141
  236MPD1    C4 3635   1.444   2.949   9.995  0.5688  0.5184 -0.0890
  236MPD1    C5 3636   1.333   3.002   9.933  0.0651  0.8824 -0.8429
  236MPD1     H 3637   1.576   2.760   9.745  0.0980  1.3263 -1.7121
  236MPD1    H1 3638   1.472   2.981  10.095  2.4427 -0.2274 -0.3584
  236MPD1    H2 3639   1.208   2.983   9.757  0.4621  3.2316  1.4141
  236MPD1    H3 3640   1.275   3.078   9.983 -0.4694  0.1039 -0.2969
  236MPD1     N 3641   1.643   2.837   9.995  0.4347 -0.1367  0.2637
  236MPD1    H5 3642   1.668   2.892  10.077  1.3584 -0.2454  0.0590
  236MPD1    N1 3643   1.356   2.831   9.608 -0.0262 -1.1268 -0.2912
  236MPD1    H6 3644   1.257   2.813   9.593  0.1310 -1.3657 -1.0350
  236MPD1    H7 3645   1.400   2.742   9.583  3.4739  0.2554  0.9384
  237MPD1     C 3646   1.520   0.551  15.074 -0.2852  0.1226 -0.0693
  237MPD1    C1 3647   1.452   0.555  15.194  0.3617 -0.2763  0.0686
  237MPD1    C2 3648   1.317   0.550  15.187  0.0257  0.2110  0.3186
  237MPD1    C3 3649   1.244   0.543  15.078 -0.6256  0.3266 -0.8161
  237MPD1    C4 3650   1.313   0.547  14.956 -0.0600  0.3271 -0.9647
  237MPD1    C5 3651   1.446   0.542  14.962  0.0799  0.0015 -0.6661
  237MPD1     H 3652   1.254   0.555  15.276  0.0400  0.4103  0.3177
  237MPD1    H1 3653   1.266   0.549  14.858 -0.6037  0.0427 -0.7113
  237MPD1    H2 3654   1.628   0.546  15.069 -0.3674 -2.0406  0.4809
  237MPD1    H3 3655   1.499   0.528  14.868  1.6211 -1.1765  0.3863
  237MPD1     N 3656   1.105   0.539  15.086  0.4287  0.4220  0.5056
  237MPD1    H5 3657   1.056   0.558  15.173 -0.3559 -0.2487  0.2105
  237MPD1    N1 3658   1.522   0.554  15.312 -0.1103 -0.3430 -0.2334
  237MPD1    H6 3659   1.461   0.579  15.390  0.3097 -1.0473  0.3263
  237MPD1    H7 3660   1.589   0.631  15.305  0.4687 -0.7445  0.8403
  238MPD1     C 3661   2.855   4.196  15.692 -0.0245  0.6725  0.0951
  238MPD1    C1 3662   2.948   4.209  15.591  0.1659 -0.1853  0.2670
  238MPD1    C2 3663   2.921   4.145  15.467 -0.0970 -0.2540 -0.1654
  238MPD1    C3 3664   2.799   4.082  15.446  0.0411  0.1369 -0.3819
  238MPD1    C4 3665   2.719   4.067  15.557 -0.0814 -0.7832  0.0065
  238MPD1    C5 3666   2.740   4.127  15.672 -1.1234 -0.1361 -0.1305
  238MPD1     H 3667   2.993   4.160  15.388  0.5150 -1.5457  0.1449
  238MPD1    H1 3668   2.628   4.008  15.551 -1.9035  1.9352  1.0096
  238MPD1    H2 3669   2.864   4.251  15.785  0.0210  0.1647  0.3915
  238MPD1    H3 3670   2.666   4.121  15.751  1.1437 -2.0789  1.8453
  238MPD1     N 3671   2.757   4.025  15.322  0.2717  0.2739 -0.1995
  238MPD1    H5 3672   2.667   3.978  15.324  0.6815 -0.4726  1.3838
  238MPD1    N1 3673   3.075   4.273  15.611 -0.2780 -0.1957  0.1414
  238MPD1    H6 3674   3.076   4.331  15.694 -0.5471 -0.3765  0.2719
  238MPD1    H7 3675   3.110   4.323  15.530 -2.7522 -0.3071 -0.9951
  239MPD1     C 3676   3.486   4.709  15.127  0.2697 -0.5776  0.4874
  239MPD1    C1 3677   3.592   4.722  15.040 -1.1586  0.0178 -0.1846
  239MPD1    C2 3678   3.584   0.080  14.936 -0.1052  0.2278 -0.1231
  239MPD1    C3 3679   3.474   0.169  14.926 -0.1913 -0.6883  0.1145
  239MPD1    C4 3680   3.377   0.155  15.020 -0.4030  0.2160 -0.1426
  239MPD1    C5 3681   3.379   0.060  15.117 -0.2515  0.4541  0.2009
  239MPD1     H 3682   3.668   0.085  14.867  0.9443 -1.2773  1.0330
  239MPD1    H1 3683   3.290   0.219  15.010 -0.0579  0.8313  0.7797
  239MPD1    H2 3684   3.484   4.629  15.200  1.5285 -1.1322 -0.1070
  239MPD1    H3 3685   3.291   0.041  15.178 -0.6124  1.1973 -0.0849
  239MPD1     N 3686   3.455   0.262  14.828  0.2135  0.0653 -0.5294
  239MPD1    H5 3687   3.372   0.321  14.835 -0.1038 -0.5322  0.6359
  239MPD1    N1 3688   3.699   4.629  15.047 -0.0095 -0.3945 -0.1156
  239MPD1    H6 3689   3.782   4.676  15.011 -0.2342 -0.2460 -0.4401
  239MPD1    H7 3690   3.718   4.587  15.138 -2.4356 -2.3989 -0.5176
  240MPD1     C 3691   2.840   4.726  13.932  0.4280 -0.2426 -0.0477
  240MPD1    C1 3692   2.868   0.061  14.043 -0.8849  0.8317  0.1487
  240MPD1    C2 3693   2.814   0.024  14.158  0.5489  0.2001  0.3465
  240MPD1    C3 3694   2.712   4.667  14.164 -0.4487  0.4356  0.1672
  240MPD1    C4 3695   2.662   4.617  14.043 -0.3270  0.3570 -0.8133
  240MPD1    C5 3696   2.731   4.638  13.925 -0.5520 -0.6276 -0.1899
  240MPD1     H 3697   2.843   0.072  14.251  0.4906  0.5633  0.1787
  240MPD1    H1 3698   2.578   4.551  14.024 -1.3252  0.9373  1.6333
  240MPD1    H2 3699   2.891   4.735  13.837 -1.2689 -0.2545 -0.9673
  240MPD1    H3 3700   2.689   4.604  13.831 -1.1440  1.2939 -0.6188
  240MPD1     N 3701   2.668   4.625  14.293 -0.2900 -0.6072  0.3734
  240MPD1    H5 3702   2.732   4.641  14.371 -3.9597 -0.2027  3.3208
  240MPD1    N1 3703   2.981   0.151  14.043 -0.4100 -0.8723 -0.0449
  240MPD1    H6 3704   2.990   0.213  14.123 -1.4681 -1.2037  0.3268
  240MPD1    H7 3705   3.006   0.204  13.960 -0.7922  1.6717  1.4649
  241MPD1     C 3706   2.908   4.574  15.239  0.3965 -0.2225  0.0105
  241MPD1    C1 3707   2.927   4.651  15.132  0.1405 -0.2691  0.3861
  241MPD1    C2 3708   2.864   4.614  15.013  0.0793 -0.7180  0.1563
  241MPD1    C3 3709   2.772   4.512  14.999  0.6275 -0.2904 -1.1908
  241MPD1    C4 3710   2.746   4.445  15.118 -0.2580 -0.3511  0.6369
  241MPD1    C5 3711   2.822   4.473  15.230 -0.8937  0.0927  0.2531
  241MPD1     H 3712   2.902   4.658  14.921  0.5094 -1.5363 -0.0608
  241MPD1    H1 3713   2.680   4.360  15.126  1.0203 -1.2871  1.2041
  241MPD1    H2 3714   2.972   4.579  15.327  0.7135 -2.7955 -0.0597
  241MPD1    H3 3715   2.809   4.425  15.327 -2.4657 -2.1319 -1.0440
  241MPD1     N 3716   2.702   4.466  14.882 -0.4659  0.3114 -0.0667
  241MPD1    H5 3717   2.623   4.408  14.908  0.5543 -1.0275 -0.0126
  241MPD1    N1 3718   3.039   4.733  15.132  0.8778  0.2662  0.0108
  241MPD1    H6 3719   3.043   0.067  15.059  0.8553  0.3774  0.1147
  241MPD1    H7 3720   3.062   0.038  15.223  0.8340 -0.5917  0.4137
  242MPD1     C 3721   2.422   2.724  15.728  1.1508  0.0666  0.0022
  242MPD1    C1 3722   2.555   2.686  15.743 -0.0064 -0.0800  0.5357
  242MPD1    C2 3723   2.646   2.729  15.643  0.1071  0.6191 -0.6523
  242MPD1    C3 3724   2.606   2.809  15.534 -0.5221  0.3373 -0.0653
  242MPD1    C4 3725   2.470   2.827  15.518 -0.2727 -0.2041 -0.0308
  242MPD1    C5 3726   2.380   2.779  15.609  0.3886  0.3787  0.5961
  242MPD1     H 3727   2.751   2.708  15.660 -0.2507  0.6617  1.6775
  242MPD1    H1 3728   2.433   2.876  15.429  1.9860  1.4133 -0.0961
  242MPD1    H2 3729   2.343   2.699  15.797 -1.4786  0.0194 -3.0213
  242MPD1    H3 3730   2.276   2.804  15.595  0.4803 -0.1749 -1.1389
  242MPD1     N 3731   2.699   2.860  15.437 -0.6635  0.2360  0.5016
  242MPD1    H5 3732   2.657   2.882  15.347  1.6351  1.7418 -0.2050
  242MPD1    N1 3733   2.602   2.637  15.865 -0.6530 -0.3396  0.3077
  242MPD1    H6 3734   2.535   2.568  15.900 -1.1169 -0.0302  0.0367
  242MPD1    H7 3735   2.697   2.600  15.865  0.0128  1.3896  1.0229
  243MPD1     C 3736   2.970   1.594   0.144 -0.2453  0.0457 -0.4818
  243MPD1    C1 3737   3.076   1.686   0.135 -0.1969 -0.2635 -0.3349
  243MPD1    C2 3738   3.206   1.648   0.133 -0.4282  0.8276  0.1398
  243MPD1    C3 3739   3.241   1.512   0.153 -0.6904  0.4519 -0.0428
  243MPD1    C4 3740   3.140   1.419   0.177 -0.3039 -0.4375 -0.2466
  243MPD1    C5 3741   3.009   1.461   0.165  0.2405 -0.1131  1.4076
  243MPD1     H 3742   3.281   1.725   0.118 -0.9096  1.7819  2.6928
  243MPD1    H1 3743   3.166   1.314   0.169  0.5546 -0.0129 -2.7149
  243MPD1    H2 3744   2.865   1.621   0.137 -0.0758  0.6429 -0.6830
  243MPD1    H3 3745   2.927   1.391   0.171  1.7991 -2.1346 -0.9921
  243MPD1     N 3746   3.378   1.476   0.140 -0.6366 -0.2133 -0.1020
  243MPD1    H5 3747   3.447   1.548   0.120 -0.4690  0.4037  2.5861
  243MPD1    N1 3748   3.033   1.821   0.127  0.2314  0.3990 -0.8270
  243MPD1    H6 3749   2.935   1.836   0.149  1.1791 -0.8998  4.3062
  243MPD1    H7 3750   3.089   1.870   0.196  0.3184  0.5388 -0.9963
  244MPD1     C 3751   4.317   1.207   0.628 -0.2575  0.4547 -0.3105
  244MPD1    C1 3752   4.326   1.188   0.491  0.3018 -1.0501  0.6734
  244MPD1    C2 3753   4.205   1.190   0.422  0.1477  0.2801  0.8186
  244MPD1    C3 3754   4.083   1.244   0.478 -0.2486 -0.0857  0.6718
  244MPD1    C4 3755   4.083   1.281   0.610 -0.3819 -0.1313 -0.1260
  244MPD1    C5 3756   4.195   1.255   0.691  0.3290 -0.1702 -0.7278
  244MPD1     H 3757   4.207   1.170   0.316  2.1525 -0.6644  1.0361
  244MPD1    H1 3758   4.000   1.328   0.663 -0.4324  0.0718 -0.3830
  244MPD1    H2 3759   4.409   1.200   0.685 -0.5841 -0.4382  0.1019
  244MPD1    H3 3760   4.193   1.286   0.795  1.1818  0.7871 -0.9932
  244MPD1     N 3761   3.974   1.267   0.393  0.4398  0.0957  0.4825
  244MPD1    H5 3762   3.992   1.232   0.299 -1.0568  0.5496  0.0220
  244MPD1    N1 3763   4.437   1.119   0.433  0.9639 -0.5732  0.0523
  244MPD1    H6 3764   4.523   1.137   0.484  0.1226 -0.3090  1.3578
  244MPD1    H7 3765   4.442   1.151   0.336  0.7307  1.2815  0.6568
  245MPD1     C 3766   0.939   1.888  12.934 -0.3618 -0.1402  0.3851
  245MPD1    C1 3767   0.959   1.843  13.062  0.5638 -0.2609 -0.1721
  245MPD1    C2 3768   0.945   1.936  13.157  0.1577 -0.0064  0.1159
  245MPD1    C3 3769   0.925   2.076  13.139 -0.0594 -0.3755 -0.2510
  245MPD1    C4 3770   0.914   2.115  13.009  0.5500  0.5700 -0.1184
  245MPD1    C5 3771   0.914   2.016  12.913 -0.1598  0.4954  0.2674
  245MPD1     H 3772   0.950   1.901  13.260 -0.9447  0.3802  0.2924
  245MPD1    H1 3773   0.901   2.220  12.983  0.5288  0.9273  1.3606
  245MPD1    H2 3774   0.935   1.829  12.843  1.4930 -1.9973  1.5123
  245MPD1    H3 3775   0.905   2.032  12.806 -0.6988 -1.5284  0.0009
  245MPD1     N 3776   0.909   2.154  13.257 -0.2178  0.8642  0.3522
  245MPD1    H5 3777   0.910   2.104  13.345  0.6474 -0.4898 -0.4260
  245MPD1    N1 3778   0.967   1.705  13.086  0.1573 -0.0924  0.1446
  245MPD1    H6 3779   1.042   1.696  13.154 -0.8285  1.0744  1.3838
  245MPD1    H7 3780   0.995   1.657  13.001 -1.3699  0.5924 -0.7343
  246MPD1     C 3781   2.327   0.103  10.549  0.5587  0.7150 -0.2262
  246MPD1    C1 3782   2.236   0.024  10.482  0.2257 -0.2822 -1.0336
  246MPD1    C2 3783   2.277   4.647  10.413  0.2145  0.4553  0.2045
  246MPD1    C3 3784   2.409   4.613  10.414 -0.0848 -0.6175  0.4587
  246MPD1    C4 3785   2.495   4.691  10.489 -0.5268  0.1724  0.0571
  246MPD1    C5 3786   2.457   0.071  10.539 -0.0669  0.2497  0.2539
  246MPD1     H 3787   2.207   4.598  10.346  0.0425 -0.0830  0.7800
  246MPD1    H1 3788   2.602   4.674  10.490 -0.5182  0.0181 -2.5133
  246MPD1    H2 3789   2.305   0.198  10.596 -2.3920 -1.3964  2.6879
  246MPD1    H3 3790   2.521   0.125  10.608 -0.9906  0.8164  0.6648
  246MPD1     N 3791   2.441   4.504  10.336  0.6635 -0.3417 -0.2995
  246MPD1    H5 3792   2.366   4.445  10.301  0.1965 -0.3988  0.7990
  246MPD1    N1 3793   2.109   0.081  10.474 -0.2145  0.4948  0.5392
  246MPD1    H6 3794   2.088   0.133  10.559 -1.1985 -2.1141  1.9148
  246MPD1    H7 3795   2.045   0.001  10.475  1.5111 -0.8789  1.0942
  247MPD1     C 3796   0.950   2.682  16.850  0.0080  0.4457  0.3790
  247MPD1    C1 3797   1.020   2.675  16.732  0.2128  0.0037  0.2616
  247MPD1    C2 3798   1.033   2.553  16.679  0.1041 -0.3267  0.1969
  247MPD1    C3 3799   0.998   2.434  16.742  0.3911 -0.3492  0.8562
  247MPD1    C4 3800   0.946   2.441  16.869  0.0616  0.2490 -0.0575
  247MPD1    C5 3801   0.920   2.566  16.920 -1.2563  0.5538  0.3982
  247MPD1     H 3802   1.066   2.560  16.576 -0.1752  0.7800  0.1813
  247MPD1    H1 3803   0.922   2.350  16.922 -0.7106 -0.4746 -1.6293
  247MPD1    H2 3804   0.922   2.775  16.897  0.3298  0.1267  1.2008
  247MPD1    H3 3805   0.848   2.567  17.002 -1.5633  1.3361  0.1188
  247MPD1     N 3806   1.021   2.303  16.683  0.3933 -0.1159  0.3339
  247MPD1    H5 3807   0.993   2.228  16.745  0.9914 -0.9654 -0.4254
  247MPD1    N1 3808   1.060   2.789  16.664  0.2306  0.0531  0.1994
  247MPD1    H6 3809   1.060   2.876  16.718 -0.4137  0.2140 -0.0585
  247MPD1    H7 3810   1.148   2.778  16.614  0.4040 -1.1368  0.7860
  248MPD1     C 3811   1.109   2.672   0.937 -0.1738 -0.4482  0.6602
  248MPD1    C1 3812   1.001   2.736   0.880  0.8418 -0.4255 -0.4127
  248MPD1    C2 3813   0.900   2.658   0.821 -0.0894  0.1973 -0.0244
  248MPD1    C3 3814   0.922   2.525   0.798  0.7295 -0.5412  0.4732
  248MPD1    C4 3815   1.042   2.468   0.834  0.4675 -0.2972  0.5662
  248MPD1    C5 3816   1.134   2.542   0.908 -0.0794 -0.1298  0.1597
  248MPD1     H 3817   0.803   2.703   0.808 -0.3900  0.0474  1.7081
  248MPD1    H1 3818   1.054   2.363   0.810 -2.3938 -0.3916 -0.4232
  248MPD1    H2 3819   1.169   2.722   1.013 -0.2291 -1.1877  1.1898
  248MPD1    H3 3820   1.225   2.488   0.934 -0.0221 -1.5091 -2.8571
  248MPD1     N 3821   0.807   2.460   0.752 -0.6819 -0.3753  0.7260
  248MPD1    H5 3822   0.718   2.508   0.749 -0.3095  0.4367  2.7484
  248MPD1    N1 3823   0.973   2.864   0.926 -0.1861 -0.4473 -0.2494
  248MPD1    H6 3824   0.909   2.914   0.864  0.6697 -0.8439 -1.4659
  248MPD1    H7 3825   1.055   2.921   0.944  0.2538 -0.2273 -2.8826
  249MPD1     C 3826   2.333   1.496  10.118  0.7278  0.2425 -0.4355
  249MPD1    C1 3827   2.367   1.364  10.122  0.8224 -0.7310 -0.7138
  249MPD1    C2 3828   2.483   1.313  10.071 -0.1632 -0.2832 -1.0251
  249MPD1    C3 3829   2.579   1.410  10.032 -0.7031  0.1223 -0.2811
  249MPD1    C4 3830   2.537   1.544  10.024 -0.9568  0.5615 -0.3194
  249MPD1    C5 3831   2.414   1.584  10.063  0.4003  0.3377  0.4092
  249MPD1     H 3832   2.501   1.207  10.081  1.8602  0.1595  0.1947
  249MPD1    H1 3833   2.611   1.617   9.994 -0.4520 -0.2506 -1.0376
  249MPD1    H2 3834   2.235   1.532  10.148  0.5349  1.1632 -2.1642
  249MPD1    H3 3835   2.382   1.685  10.039 -0.6477  0.1586  1.0478
  249MPD1     N 3836   2.708   1.362   9.989  0.4158 -0.4378 -0.0102
  249MPD1    H5 3837   2.722   1.262   9.987 -0.4728 -0.5404 -1.4221
  249MPD1    N1 3838   2.264   1.275  10.154 -0.6121  0.3744 -0.0484
  249MPD1    H6 3839   2.219   1.311  10.238 -1.2512 -1.2014  0.2764
  249MPD1    H7 3840   2.297   1.186  10.190 -1.3208  0.0712 -0.1398
  250MPD2     C 3841   4.393   0.918  13.235 -0.0501 -0.2239 -0.0954
  250MPD2    C1 3842   4.347   1.016  13.149 -0.7196  0.0316 -0.7367
  250MPD2    C2 3843   4.307   0.990  13.017  0.0853  0.0210 -0.2939
  250MPD2    C3 3844   4.303   0.855  12.975 -0.0322  0.7015 -0.5903
  250MPD2    C4 3845   4.345   0.758  13.062  0.1010 -0.4698 -0.3286
  250MPD2    C5 3846   4.387   0.786  13.192 -0.8776 -0.3370  0.3080
  250MPD2     H 3847   4.288   1.070  12.946  1.0914  1.2525  0.8300
  250MPD2    H1 3848   4.345   0.652  13.036  4.3005 -0.7479  0.7674
  250MPD2    H2 3849   4.439   0.945  13.330 -2.0505 -0.4609  0.9247
  250MPD2    H3 3850   4.421   0.704  13.255 -1.9202  0.0172  1.3310
  250MPD2     N 3851   4.269   0.811  12.843  0.7563 -0.2132 -0.0740
  250MPD2    H5 3852   4.259   0.711  12.830  0.6517  0.0267 -1.7288
  250MPD2    N1 3853   4.345   1.150  13.202 -0.1587 -0.1269  0.0798
  250MPD2    H7 3854   4.379   1.160  13.297  0.0631  0.1373 -0.0279
  251TMC3    C1 3855   4.355   1.389  13.188 -0.1264  0.6864 -0.0135
  251TMC3    C2 3856   4.339   1.496  13.110  0.1601  0.8759  0.1038
  251TMC3    C3 3857   4.388   1.617  13.155  0.4113 -0.3441  0.1031
  251TMC3    C4 3858   4.428   1.396  13.301  0.3717 -0.0896  0.3923
  251TMC3    C5 3859   4.491   1.516  13.328  0.9446 -0.6407 -0.3551
  251TMC3    C6 3860   4.474   1.629  13.258 -0.4702  0.5572 -0.2451
  251TMC3     C 3861   4.305   1.264  13.135 -0.0738 -0.2428 -0.2049
  251TMC3     O 3862   4.220   1.269  13.043  0.4946 -0.2492 -0.5128
  251TMC3     H 3863   4.295   1.504  13.011  2.2781  3.5558 -0.6571
  251TMC3    H1 3864   4.431   1.322  13.381  0.5163 -0.7681 -0.2417
  251TMC3    H2 3865   4.509   1.725  13.294  1.1399  0.1888 -0.8454
  251TMC3    C7 3866   4.618   1.497  13.388 -0.5216  0.5838 -0.5081
  251TMC3    C8 3867   4.325   1.739  13.098  0.1302  0.2018 -0.4277
  251TMC3    O1 3868   4.648   1.379  13.407  0.1444 -0.6803  0.4725
  251TMC3    O2 3869   4.228   1.719  13.024 -0.4321  0.0208 -0.1770
  252TMC3    C1 3870   0.372   2.578   8.945  1.0923 -0.0170  0.7649
  252TMC3    C2 3871   0.405   2.679   9.026 -0.4430 -0.0353  0.4654
  252TMC3    C3 3872   0.454   2.639   9.150  0.5613  0.0787  1.0069
  252TMC3    C4 3873   0.394   2.446   8.977  0.4861 -0.4870  0.0694
  252TMC3    C5 3874   0.467   2.415   9.086  0.3953 -0.7295  0.4990
  252TMC3    C6 3875   0.493   2.512   9.176  0.5181 -0.3508  0.3341
  252TMC3     C 3876   0.287   2.596   8.825 -0.0426  0.5065  1.0430
  252TMC3     O 3877   0.235   2.495   8.776 -0.3772  0.2851 -0.7703
  252TMC3     H 3878   0.366   2.779   9.010 -1.2540 -0.2854  0.8900
  252TMC3    H1 3879   0.358   2.363   8.916  0.8601 -0.9563  0.4934
  252TMC3    H2 3880   0.550   2.483   9.263 -0.7346 -2.3536  0.5005
  252TMC3    C7 3881   0.500   2.283   9.135  0.5402 -0.8564 -0.2088
  252TMC3    C8 3882   0.505   2.746   9.235 -0.0115  0.5457  0.1515
  252TMC3    O1 3883   0.604   2.270   9.194  0.8922  0.4755 -0.3204
  252TMC3    O2 3884   0.554   2.848   9.187  0.6402 -0.2638  0.1742
  253MPD2     C 3885   0.875   0.863  14.871  0.1912 -0.7074  0.1432
  253MPD2    C1 3886   0.754   0.873  14.929 -0.1457  0.5168 -0.6231
  253MPD2    C2 3887   0.737   0.868  15.065  0.4477 -0.5497 -0.5984
  253MPD2    C3 3888   0.848   0.844  15.144  0.0489 -0.2040 -0.2799
  253MPD2    C4 3889   0.978   0.847  15.089  0.1430  0.2394  0.5502
  253MPD2    C5 3890   0.984   0.844  14.954 -0.1603  0.1970  0.1921
  253MPD2     H 3891   0.636   0.875  15.104 -0.2054  0.3955 -2.4751
  253MPD2    H1 3892   1.068   0.870  15.146 -0.6054  3.3663  0.4951
  253MPD2    H2 3893   0.888   0.867  14.764  0.6757  0.5681  0.2449
  253MPD2    H3 3894   1.080   0.838  14.903  0.9452 -2.6966  2.6203
  253MPD2     N 3895   0.842   0.837  15.285 -0.1327 -0.0177 -0.3778
  253MPD2    H5 3896   0.924   0.802  15.332 -1.1142 -2.0199 -0.1362
  253MPD2    N1 3897   0.638   0.893  14.852 -0.1949 -0.1673 -0.2515
  253MPD2    H7 3898   0.551   0.897  14.905 -1.1126  1.7086 -1.8921
  254TMC3    C1 3899   0.742   0.861  15.505 -0.3541 -0.3068  0.2757
  254TMC3    C2 3900   0.617   0.860  15.563 -0.1062  0.1943 -0.0699
  254TMC3    C3 3901   0.606   0.842  15.701 -0.5726  0.3132  0.2449
  254TMC3    C4 3902   0.852   0.836  15.576  0.9323 -0.4687  0.0370
  254TMC3    C5 3903   0.842   0.827  15.718  0.4875  0.6871  0.3333
  254TMC3    C6 3904   0.719   0.831  15.778  0.4112 -0.3549 -0.0977
  254TMC3     C 3905   0.728   0.864  15.359  0.6983  0.3367 -0.8291
  254TMC3     O 3906   0.617   0.902  15.316  0.1979 -0.1440 -0.4062
  254TMC3     H 3907   0.534   0.829  15.500 -1.8035 -1.2299  2.8482
  254TMC3    H1 3908   0.951   0.855  15.536  0.0668  1.5742 -1.1271
  254TMC3    H2 3909   0.708   0.837  15.885  3.0479 -0.7216  0.2009
  254TMC3    C7 3910   0.966   0.833  15.794  0.2344  0.2904  0.6414
  254TMC3    C8 3911   0.477   0.865  15.764  0.0309  0.1354 -0.3653
  254TMC3    O1 3912   1.064   0.875  15.736  0.5674  0.8902 -0.2937
  254TMC3    O2 3913   0.471   0.842  15.884  0.5024  0.4111  0.2925
  255MPD2     C 3914   3.198   3.949  10.912  0.0791  0.2239  0.8133
  255MPD2    C1 3915   3.221   4.035  10.809 -0.0446 -0.0491 -0.1135
  255MPD2    C2 3916   3.311   4.006  10.711  0.4731 -0.9523 -0.5779
  255MPD2    C3 3917   3.390   3.895  10.720 -0.6202  0.3588  0.5591
  255MPD2    C4 3918   3.379   3.814  10.825 -0.2389  0.1349 -0.4851
  255MPD2    C5 3919   3.280   3.841  10.922  0.2153  0.4994  0.4432
  255MPD2     H 3920   3.291   4.057  10.618  2.4781 -1.2920 -1.1932
  255MPD2    H1 3921   3.425   3.716  10.830 -0.4913  0.0358 -0.1415
  255MPD2    H2 3922   3.118   3.975  10.982 -1.8684 -1.7762 -0.6576
  255MPD2    H3 3923   3.268   3.780  11.010 -1.7022  1.1365  0.6258
  255MPD2     N 3924   3.489   3.885  10.618  0.2205  0.1255 -0.0653
  255MPD2    H5 3925   3.481   3.952  10.543 -1.9285 -0.2846 -0.2079
  255MPD2    N1 3926   3.156   4.157  10.794  0.0925  0.5516  0.3527
  255MPD2    H7 3927   3.167   4.211  10.709 -1.7270  1.0032  0.3981
  256TMC3    C1 3928   3.073   4.360  10.851 -0.3426 -0.1717  0.5812
  256TMC3    C2 3929   3.166   4.434  10.923  0.1436 -0.1787 -0.4972
  256TMC3    C3 3930   3.244   4.519  10.840  0.2952  0.0794 -0.0564
  256TMC3    C4 3931   3.053   4.371  10.715  0.2491  0.5602 -0.5403
  256TMC3    C5 3932   3.135   4.456  10.644  0.6187 -0.0879  0.0299
  256TMC3    C6 3933   3.234   4.538  10.704 -0.3465 -0.4933  0.7831
  256TMC3     C 3934   3.084   4.219  10.890 -0.1020  0.0433  0.0244
  256TMC3     O 3935   3.055   4.191  11.006  0.1667 -0.1386  0.4169
  256TMC3     H 3936   3.206   4.403  11.019  0.3935  0.6256 -0.3397
  256TMC3    H1 3937   2.987   4.301  10.665  0.1213 -0.2721  0.7992
  256TMC3    H2 3938   3.306   4.599  10.652  0.4627 -0.9131  1.3987
  256TMC3    C7 3939   3.164   4.403  10.515 -0.0633  0.2580 -0.9524
  256TMC3    C8 3940   3.358   4.580  10.904  0.4151 -0.7033 -0.6759
  256TMC3    O1 3941   3.168   4.281  10.507  0.0597 -0.6457 -0.0276
  256TMC3    O2 3942   3.347   4.619  11.017 -0.4396  0.1392  0.2922
  257MPD2     C 3943   2.855   0.600  12.957  0.0649  0.1714  0.5227
  257MPD2    C1 3944   2.945   0.668  13.033 -0.1786  0.6372 -0.0314
  257MPD2    C2 3945   2.981   0.614  13.147  0.7560 -0.3512 -0.4052
  257MPD2    C3 3946   2.930   0.491  13.194  0.5819 -0.2949 -1.1068
  257MPD2    C4 3947   2.834   0.427  13.120 -0.2200  0.1598 -0.2196
  257MPD2    C5 3948   2.796   0.486  12.998  0.8509  0.6331 -0.4566
  257MPD2     H 3949   3.056   0.670  13.201  0.9119 -0.6285 -0.3396
  257MPD2    H1 3950   2.787   0.331  13.137  0.4423 -0.0774  0.2822
  257MPD2    H2 3951   2.828   0.629  12.857  1.1560  1.0966  0.4943
  257MPD2    H3 3952   2.729   0.431  12.933 -2.2610  2.3247  1.3212
  257MPD2     N 3953   2.981   0.443  13.314  0.1359  0.3355  0.6190
  257MPD2    H5 3954   3.065   0.488  13.350 -1.1919  1.5721  2.2055
  257MPD2    N1 3955   3.003   0.781  12.977 -0.0462  0.1486 -0.4814
  257MPD2    H7 3956   2.975   0.807  12.883  1.7010  2.0184 -0.4738
  258TMC3    C1 3957   3.052   0.283  13.462  0.8705 -0.2364 -0.5915
  258TMC3    C2 3958   3.135   0.195  13.401 -0.1381  0.3667 -0.5441
  258TMC3    C3 3959   3.262   0.172  13.451 -0.2992 -0.5796 -0.8342
  258TMC3    C4 3960   3.087   0.357  13.575  0.2893 -0.2316  0.2257
  258TMC3    C5 3961   3.206   0.311  13.633  0.6244 -0.0409 -0.0369
  258TMC3    C6 3962   3.296   0.227  13.569  0.1684 -0.3869 -0.0280
  258TMC3     C 3963   2.946   0.325  13.373 -0.1174  0.4792 -0.3121
  258TMC3     O 3964   2.862   0.246  13.336 -0.1578 -0.5698  0.4830
  258TMC3     H 3965   3.106   0.154  13.305 -1.7678 -1.2110  0.6193
  258TMC3    H1 3966   3.023   0.421  13.634  1.0592  1.3016 -0.6133
  258TMC3    H2 3967   3.396   0.206  13.606  0.7239 -0.9844 -1.8375
  258TMC3    C7 3968   3.227   0.345  13.775  0.2070  0.1143 -0.2488
  258TMC3    C8 3969   3.354   0.085  13.376  0.5043 -0.1003 -0.2530
  258TMC3    O1 3970   3.171   0.444  13.816  0.1557 -0.7683  0.0726
  258TMC3    O2 3971   3.319   0.056  13.263 -0.4265 -0.1677 -0.3050
  259MPD2     C 3972   2.132   2.473   0.880 -0.5616 -0.1435  0.1667
  259MPD2    C1 3973   2.006   2.419   0.908  0.0074  0.0186 -0.0844
  259MPD2    C2 3974   1.911   2.439   0.812  0.3284 -0.0963  0.3861
  259MPD2    C3 3975   1.936   2.500   0.687  0.2373 -0.4939  0.1530
  259MPD2    C4 3976   2.061   2.556   0.667 -0.4228  0.2744 -0.2687
  259MPD2    C5 3977   2.158   2.543   0.761  0.1995 -0.2968 -0.4564
  259MPD2     H 3978   1.817   2.384   0.820 -0.1106  0.7018  0.6865
  259MPD2    H1 3979   2.094   2.619   0.585 -0.7732  0.5376 -0.2067
  259MPD2    H2 3980   2.217   2.468   0.947  1.0804 -2.6924 -2.0909
  259MPD2    H3 3981   2.259   2.578   0.742 -0.7101  2.5281 -0.0848
  259MPD2     N 3982   1.836   2.511   0.595  0.2740 -1.0131  0.6196
  259MPD2    H5 3983   1.747   2.468   0.616 -0.3733  0.1360  0.2080
  259MPD2    N1 3984   1.985   2.354   1.027  0.1868  0.1912 -0.3442
  259MPD2    H7 3985   2.054   2.350   1.101  0.4562  1.4096 -0.5367
  260TMC3    C1 3986   1.736   2.568   0.387 -0.3728  0.7652  0.4731
  260TMC3    C2 3987   1.728   2.669   0.291 -0.1132  0.0986 -0.2847
  260TMC3    C3 3988   1.694   2.630   0.164 -0.1623 -0.4589 -0.3808
  260TMC3    C4 3989   1.699   2.437   0.358 -0.7836 -0.6941  0.0647
  260TMC3    C5 3990   1.662   2.407   0.230  0.1018 -0.4072 -0.0741
  260TMC3    C6 3991   1.665   2.502   0.138  0.1929  0.6882  0.5888
  260TMC3     C 3992   1.841   2.594   0.483 -0.8010 -0.6922 -0.7925
  260TMC3     O 3993   1.921   2.683   0.448  0.2875  0.0314 -0.3167
  260TMC3     H 3994   1.790   2.758   0.298 -0.4904  0.3548 -0.1973
  260TMC3    H1 3995   1.712   2.359   0.432  3.7927 -0.3369 -0.3739
  260TMC3    H2 3996   1.654   2.482   0.032  1.2954  0.7288  0.4665
  260TMC3    C7 3997   1.682   2.273   0.179  0.5739 -0.0235  0.1258
  260TMC3    C8 3998   1.787   2.683   0.074  0.6398 -0.1838 -0.2730
  260TMC3    O1 3999   1.736   2.271   0.067 -0.1226  0.2084 -0.3034
  260TMC3    O2 4000   1.816   2.802   0.094  0.2142  0.5289 -0.3558
  261MPD2     C 4001   3.720   0.910  12.169 -0.7778 -0.7352  0.3138
  261MPD2    C1 4002   3.848   0.881  12.123  0.2737  0.5755 -0.2798
  261MPD2    C2 4003   3.867   0.885  11.984  0.1274  0.6546 -0.0918
  261MPD2    C3 4004   3.763   0.914  11.891  1.3496 -0.0682  0.5807
  261MPD2    C4 4005   3.639   0.948  11.945 -0.1910 -0.6078 -0.8724
  261MPD2    C5 4006   3.619   0.942  12.082 -0.0242 -0.2998 -0.0458
  261MPD2     H 4007   3.966   0.856  11.950  1.4403  4.5856  0.3013
  261MPD2    H1 4008   3.557   0.986  11.886  0.3554 -1.2880 -2.0570
  261MPD2    H2 4009   3.688   0.902  12.272 -1.2340  0.7414  0.2964
  261MPD2    H3 4010   3.525   0.965  12.129  0.7921 -0.4302  1.6236
  261MPD2     N 4011   3.792   0.923  11.750 -0.5425  0.6943  0.7522
  261MPD2    H5 4012   3.886   0.894  11.725 -1.8375  0.3567 -3.6619
  261MPD2    N1 4013   3.953   0.842  12.212  0.5416 -0.4708 -0.7581
  261MPD2    H7 4014   4.042   0.813  12.173  0.1734 -0.1962 -1.8154
  262TMC3    C1 4015   3.757   0.994  11.526  0.4437  1.1292  0.7609
  262TMC3    C2 4016   3.669   1.069  11.452 -0.2550  0.2952 -0.2586
  262TMC3    C3 4017   3.699   1.197  11.413  0.0960  0.2659  0.0277
  262TMC3    C4 4018   3.895   1.035  11.526 -0.2411 -0.4703 -0.1806
  262TMC3    C5 4019   3.925   1.147  11.453 -0.3155 -0.2097  0.3374
  262TMC3    C6 4020   3.829   1.230  11.397  0.4469 -0.2092  0.1938
  262TMC3     C 4021   3.695   0.959  11.652 -0.3085 -0.4924 -0.1857
  262TMC3     O 4022   3.571   0.971  11.656 -0.2307 -0.0977 -0.4899
  262TMC3     H 4023   3.566   1.036  11.437  0.3607 -2.6130  1.8122
  262TMC3    H1 4024   3.974   0.977  11.571 -0.7705  0.4690  1.9878
  262TMC3    H2 4025   3.851   1.330  11.360 -2.2462 -0.8195 -3.1125
  262TMC3    C7 4026   4.070   1.173  11.432 -0.4097 -0.3089  0.4920
  262TMC3    C8 4027   3.623   1.300  11.471  0.1948 -0.1692  0.2981
  262TMC3    O1 4028   4.143   1.086  11.476  1.0114  0.2523 -0.1116
  262TMC3    O2 4029   3.650   1.411  11.427 -0.2368  0.4266  0.0693
  263MPD2     C 4030   4.548   4.652  11.534 -0.4038  0.0894 -0.1470
  263MPD2    C1 4031   4.662   4.668  11.461  0.5436 -1.0762  0.4208
  263MPD2    C2 4032   4.661   4.736  11.342  0.4265  0.4263  0.4422
  263MPD2    C3 4033   4.543   0.040  11.280  0.1940  0.0985 -0.2560
  263MPD2    C4 4034   4.428   0.022  11.355 -0.6290 -0.7271  0.4759
  263MPD2    C5 4035   4.431   4.700  11.482  0.3606 -0.6015 -0.5997
  263MPD2     H 4036   0.013   0.015  11.283  1.1665  1.6923  1.8935
  263MPD2    H1 4037   4.333   0.053  11.313 -1.6921 -0.5731  2.9661
  263MPD2    H2 4038   4.542   4.594  11.626  3.5669  0.2816  0.2489
  263MPD2    H3 4039   4.334   4.683  11.526  1.0653  1.0094  1.5648
  263MPD2     N 4040   4.548   0.096  11.153  0.1369  0.3135 -0.0866
  263MPD2    H5 4041   4.641   0.123  11.124 -0.4948  2.6914  0.1232
  263MPD2    N1 4042   0.042   4.613  11.520  0.4335 -0.0797 -0.4748
  263MPD2    H7 4043   0.030   4.567  11.609  0.7259 -1.4033 -1.1145
  264TMC3    C1 4044   4.466   0.206  10.966  0.0858  0.1206 -0.3856
  264TMC3    C2 4045   4.395   0.322  10.967  0.0168  0.5245 -0.5437
  264TMC3    C3 4046   4.446   0.426  10.895  0.3594  0.7663  0.4951
  264TMC3    C4 4047   4.583   0.198  10.904 -0.1746  0.0953 -0.2650
  264TMC3    C5 4048   4.623   0.304  10.827  0.5876 -0.4445  1.1843
  264TMC3    C6 4049   4.560   0.426  10.829 -0.9290  0.1727 -0.5253
  264TMC3     C 4050   4.434   0.128  11.080 -0.3249  0.5329  0.0119
  264TMC3     O 4051   4.314   0.100  11.106 -0.1054 -0.8128 -0.2791
  264TMC3     H 4052   4.308   0.345  11.027  0.0283  1.0508 -0.7215
  264TMC3    H1 4053   4.633   0.102  10.904  3.4489  1.9586  0.0277
  264TMC3    H2 4054   4.593   0.510  10.769 -0.0416 -1.2246 -2.0070
  264TMC3    C7 4055   4.709   0.275  10.711 -0.6394  0.9240 -0.0250
  264TMC3    C8 4056   4.403   0.552  10.947 -0.0604  0.2074  0.2765
  264TMC3    O1 4057   0.018   0.370  10.650  0.5074  0.6554  0.2989
  264TMC3    O2 4058   4.282   0.566  10.944  0.3824  0.1801 -0.5544
  265MPD2     C 4059   2.036   0.322  15.576  1.0814 -0.4303  0.0520
  265MPD2    C1 4060   2.084   0.425  15.497 -0.0931  0.0330  0.0745
  265MPD2    C2 4061   2.172   0.396  15.394  0.7658 -0.1723  0.6152
  265MPD2    C3 4062   2.222   0.272  15.375  0.3755 -0.5562  0.1187
  265MPD2    C4 4063   2.172   0.168  15.457 -0.2614 -0.3113  0.5594
  265MPD2    C5 4064   2.079   0.196  15.550 -0.0174 -0.0234  0.5140
  265MPD2     H 4065   2.199   0.471  15.321 -1.6833  0.9707  0.9028
  265MPD2    H1 4066   2.200   0.065  15.442 -1.8716 -0.5577 -0.7547
  265MPD2    H2 4067   1.974   0.347  15.661 -1.1180  2.2314 -2.3371
  265MPD2    H3 4068   2.053   0.116  15.618 -0.9133  1.5745  2.0520
  265MPD2     N 4069   2.316   0.233  15.284  0.4904 -0.3565 -0.1652
  265MPD2    H5 4070   2.344   0.136  15.278  3.0485  0.4775 -1.6259
  265MPD2    N1 4071   2.034   0.554  15.505 -0.1438  0.5441 -0.1130
  265MPD2    H7 4072   2.036   0.612  15.423 -0.4673 -1.0830 -1.2802
  266TMC3    C1 4073   1.891   0.734  15.596  0.3236 -0.5534 -0.9688
  266TMC3    C2 4074   1.873   0.807  15.707 -0.4162  0.0434  0.1593
  266TMC3    C3 4075   1.775   0.899  15.696 -0.3411  0.4921 -0.0574
  266TMC3    C4 4076   1.807   0.738  15.478 -0.1276 -0.0792 -0.1858
  266TMC3    C5 4077   1.719   0.834  15.474 -0.1959 -0.3011 -0.7230
  266TMC3    C6 4078   1.697   0.914  15.585 -0.0682  0.3368  0.7585
  266TMC3     C 4079   1.970   0.610  15.615 -0.0090 -0.7938  0.3407
  266TMC3     O 4080   1.972   0.567  15.732 -0.3521  0.0575  0.7076
  266TMC3     H 4081   1.926   0.799  15.801  0.9776 -1.0454 -0.7285
  266TMC3    H1 4082   1.831   0.671  15.397  0.7675 -1.3775  1.1367
  266TMC3    H2 4083   1.628   0.998  15.583 -0.9805 -0.4279  0.0728
  266TMC3    C7 4084   1.636   0.847  15.355  0.1274  0.0288 -0.1044
  266TMC3    C8 4085   1.712   0.959  15.816  0.2153 -0.1302 -0.0332
  266TMC3    O1 4086   1.688   0.811  15.256 -0.1528  0.2728 -0.3831
  266TMC3    O2 4087   1.594   0.989  15.806  0.0931  0.8216 -0.5804
  267MPD2     C 4088   3.597   2.522   0.866  0.9725  0.1550  0.7984
  267MPD2    C1 4089   3.666   2.453   0.770 -0.1160  0.3243 -1.0501
  267MPD2    C2 4090   3.628   2.481   0.642 -0.0369  0.8229 -0.1272
  267MPD2    C3 4091   3.531   2.576   0.615  0.4875 -0.4966  0.2729
  267MPD2    C4 4092   3.472   2.652   0.715 -0.1057 -0.1921  0.7694
  267MPD2    C5 4093   3.508   2.624   0.843 -0.1389  0.4958 -0.4873
  267MPD2     H 4094   3.672   2.423   0.561 -1.0550 -1.8122  1.2144
  267MPD2    H1 4095   3.397   2.729   0.702 -1.8430 -2.2403 -1.3110
  267MPD2    H2 4096   3.611   2.510   0.973 -2.1057  0.7012  1.2432
  267MPD2    H3 4097   3.461   2.668   0.931 -0.6024  0.1235 -0.5516
  267MPD2     N 4098   3.476   2.598   0.485 -0.2300  0.0542 -0.0072
  267MPD2    H5 4099   3.404   2.669   0.482 -1.7359 -1.4789 -0.3774
  267MPD2    N1 4100   3.747   2.347   0.808 -0.2894 -0.2994  0.2016
  267MPD2    H7 4101   3.758   2.322   0.906  2.8944  0.3391  0.0143
  268TMC3    C1 4102   3.898   2.161   0.779 -0.0919 -0.2442 -0.1876
  268TMC3    C2 4103   3.991   2.104   0.698  0.8443 -0.0273  0.8661
  268TMC3    C3 4104   4.055   1.995   0.741 -0.5608 -0.1757 -0.1613
  268TMC3    C4 4105   3.875   2.118   0.907  0.4869  0.4574  0.5069
  268TMC3    C5 4106   3.949   2.009   0.940 -0.6745 -0.5148  0.1674
  268TMC3    C6 4107   4.039   1.941   0.862  0.3021 -0.0541  0.4918
  268TMC3     C 4108   3.823   2.268   0.720  0.3759 -0.1102 -0.5952
  268TMC3     O 4109   3.834   2.272   0.597  0.5285  0.2975 -0.2702
  268TMC3     H 4110   4.010   2.146   0.600  0.7178 -1.0669  0.3921
  268TMC3    H1 4111   3.792   2.165   0.959 -0.5558  1.1454 -1.7686
  268TMC3    H2 4112   4.089   1.850   0.893  0.8837  0.4479  1.0312
  268TMC3    C7 4113   3.963   1.991   1.086  0.2967  0.1631  0.3497
  268TMC3    C8 4114   4.146   1.921   0.658  0.4201  0.5331  0.1917
  268TMC3    O1 4115   4.031   1.897   1.127 -0.8442 -0.0101  0.5926
  268TMC3    O2 4116   4.215   1.838   0.710 -0.9001 -0.3052  0.0085
  269MPD2     C 4117   4.698   1.176  15.364  0.5713 -0.3669 -0.6598
  269MPD2    C1 4118   4.587   1.219  15.432 -0.7128 -0.4087 -0.1972
  269MPD2    C2 4119   4.553   1.352  15.432  0.4299  0.5127  0.0221
  269MPD2    C3 4120   4.634   1.442  15.365  0.9774 -0.4822 -0.0066
  269MPD2    C4 4121   0.007   1.393  15.298 -0.1280 -0.2676  0.4270
  269MPD2    C5 4122   0.031   1.264  15.295 -0.2479  0.1353 -0.0070
  269MPD2     H 4123   4.465   1.394  15.481  0.1579 -1.5706  1.3377
  269MPD2    H1 4124   0.077   1.461  15.250 -2.2014 -0.0908 -2.3439
  269MPD2    H2 4125   4.734   1.074  15.371  2.2623  0.4774  2.7822
  269MPD2    H3 4126   0.113   1.213  15.246 -0.2006  0.7388 -0.5507
  269MPD2     N 4127   4.607   1.579  15.382  0.7551  0.1426 -0.5576
  269MPD2    H5 4128   4.514   1.604  15.414  0.8893 -0.3193  0.1960
  269MPD2    N1 4129   4.524   1.112  15.504  0.8204 -0.9017 -0.0150
  269MPD2    H7 4130   4.566   1.019  15.506  2.7466 -0.0671 -1.3877
  270TMC3    C1 4131   4.352   1.056  15.665  0.0397  0.1208 -0.6820
  270TMC3    C2 4132   4.214   1.032  15.667  0.1718 -0.0644  0.0321
  270TMC3    C3 4133   4.172   0.928  15.744 -0.5329 -0.5495 -0.4017
  270TMC3    C4 4134   4.441   1.013  15.760  0.7371 -0.2081 -0.9247
  270TMC3    C5 4135   4.398   0.933  15.851 -0.3358 -1.0736 -0.5987
  270TMC3    C6 4136   4.263   0.889  15.841  0.2946 -0.4428  0.2088
  270TMC3     C 4137   4.405   1.142  15.564  0.7852 -0.2283  0.0708
  270TMC3     O 4138   4.327   1.236  15.550  0.3103  0.2126 -0.7076
  270TMC3     H 4139   4.154   1.061  15.581  0.6583 -1.0244 -0.6250
  270TMC3    H1 4140   4.541   1.050  15.778  0.9426 -0.6258 -1.1866
  270TMC3    H2 4141   4.226   0.811  15.907  0.2993  0.3580  1.1592
  270TMC3    C7 4142   4.496   0.867  15.931 -0.3049 -0.2712  0.0895
  270TMC3    C8 4143   4.123   0.818  15.670  0.3472 -0.9311 -0.8136
  270TMC3    O1 4144   4.599   0.833  15.879  0.5233  0.2376  0.8028
  270TMC3    O2 4145   4.177   0.710  15.689 -0.3495  0.3912  0.4525
  271MPD2     C 4146   3.977   0.621  13.768 -0.8608  0.1463  0.2607
  271MPD2    C1 4147   3.946   0.691  13.882 -0.3636 -0.0478  0.5577
  271MPD2    C2 4148   3.853   0.794  13.867  0.5116 -0.2890  0.0316
  271MPD2    C3 4149   3.782   0.815  13.750  0.0712 -0.0274 -0.7284
  271MPD2    C4 4150   3.812   0.739  13.642 -0.8246  0.2719 -0.7651
  271MPD2    C5 4151   3.918   0.652  13.647 -0.1542  0.2542  0.0068
  271MPD2     H 4152   3.820   0.841  13.959 -1.0217  0.2600 -0.8070
  271MPD2    H1 4153   3.755   0.749  13.551 -2.4419 -1.2347  0.0848
  271MPD2    H2 4154   4.046   0.537  13.772 -1.8370 -0.7618 -1.9889
  271MPD2    H3 4155   3.948   0.579  13.572 -3.3442  1.2818 -2.2959
  271MPD2     N 4156   3.681   0.918  13.733 -0.2011  0.1428 -0.5316
  271MPD2    H5 4157   3.637   0.915  13.642 -0.8009  4.2895 -0.3554
  271MPD2    N1 4158   4.012   0.667  14.010  0.1231  0.8619 -0.0620
  271MPD2    H7 4159   3.965   0.712  14.088 -2.4532 -1.0528 -0.4930
  272TMC3    C1 4160   4.149   0.574  14.177 -0.8473  0.2848  0.0694
  272TMC3    C2 4161   4.273   0.541  14.204 -0.2863  0.6863 -0.1860
  272TMC3    C3 4162   4.307   0.536  14.338 -0.2196 -0.3735 -0.6349
  272TMC3    C4 4163   4.055   0.599  14.275 -0.8893  0.3462 -0.6158
  272TMC3    C5 4164   4.094   0.600  14.406  0.5778 -0.4869 -0.5376
  272TMC3    C6 4165   4.224   0.569  14.441 -0.8320  0.0425 -0.6209
  272TMC3     C 4166   4.115   0.581  14.038 -0.2363  0.4460  0.3992
  272TMC3     O 4167   4.189   0.526  13.956  0.2746  0.1581  0.0575
  272TMC3     H 4168   4.343   0.531  14.123  0.7346  1.8185  0.5511
  272TMC3    H1 4169   3.952   0.623  14.252 -0.8143  0.8641 -0.4197
  272TMC3    H2 4170   4.261   0.564  14.543 -1.0926 -0.1501 -0.5376
  272TMC3    C7 4171   4.020   0.679  14.506  0.0968  0.9231  0.6581
  272TMC3    C8 4172   4.450   0.500  14.366  0.0826  0.6693  0.7833
  272TMC3    O1 4173   4.056   0.651  14.623 -0.1111  0.0919 -0.5139
  272TMC3    O2 4174   4.529   0.547  14.282 -0.2036  0.5406 -0.3874
  273MPD2     C 4175   0.389   3.858  11.585  0.0582  0.2174  0.4003
  273MPD2    C1 4176   0.502   3.908  11.647 -0.3556 -0.1969  0.0333
  273MPD2    C2 4177   0.600   3.956  11.560 -0.0564 -0.2088 -0.1958
  273MPD2    C3 4178   0.594   3.921  11.423 -0.4894  0.5396  0.3999
  273MPD2    C4 4179   0.476   3.883  11.366  0.3175 -0.1186 -0.2604
  273MPD2    C5 4180   0.373   3.853  11.451 -0.1043  0.0689 -0.6009
  273MPD2     H 4181   0.691   4.003  11.594 -0.3948  0.3655 -0.0916
  273MPD2    H1 4182   0.472   3.864  11.259  1.6648  0.5590 -0.4346
  273MPD2    H2 4183   0.305   3.830  11.648  0.7278  2.7257  2.4321
  273MPD2    H3 4184   0.276   3.834  11.406 -0.4352  2.4963 -0.8944
  273MPD2     N 4185   0.706   3.935  11.332  0.3776  0.0649 -0.2176
  273MPD2    H5 4186   0.692   3.914  11.233 -0.0753 -0.9044  0.0441
  273MPD2    N1 4187   0.497   3.923  11.788 -0.4177  0.2945 -0.3744
  273MPD2    H7 4188   0.412   3.888  11.832  0.7180 -0.9933  0.7820
  274TMC3    C1 4189   0.923   3.979  11.247  0.3336  0.0681 -0.5249
  274TMC3    C2 4190   0.877   3.967  11.121  0.3404  0.0475 -0.2801
  274TMC3    C3 4191   0.953   4.020  11.018 -0.2443  0.0576 -0.0959
  274TMC3    C4 4192   1.043   4.033  11.274  0.0740 -0.9782 -0.7118
  274TMC3    C5 4193   1.105   4.102  11.179 -0.2799 -0.5769  0.5886
  274TMC3    C6 4194   1.057   4.101  11.047  0.2612  0.1319  0.0444
  274TMC3     C 4195   0.832   3.976  11.362  0.7146  0.1747 -0.1622
  274TMC3     O 4196   0.880   4.030  11.461  0.3129  0.5233 -0.0910
  274TMC3     H 4197   0.784   3.916  11.097  0.2850 -0.7643  1.6795
  274TMC3    H1 4198   1.098   4.027  11.367  1.0245 -2.5117 -1.3810
  274TMC3    H2 4199   1.119   4.142  10.969  0.0514 -0.4077 -0.4140
  274TMC3    C7 4200   1.137   4.234  11.226 -0.3745  0.3287 -0.4492
  274TMC3    C8 4201   0.866   4.034  10.904 -0.7043  0.3688  0.1322
  274TMC3    O1 4202   1.221   4.309  11.174 -0.1284  0.0391  0.2009
  274TMC3    O2 4203   0.779   3.951  10.876  0.4815  0.1342  0.0546
  275MPD2     C 4204   0.633   1.547  14.391  0.1153 -0.3627 -0.0909
  275MPD2    C1 4205   0.540   1.625  14.445 -0.0944  0.1615 -0.6707
  275MPD2    C2 4206   0.405   1.590  14.426 -0.0512 -0.8484  0.5577
  275MPD2    C3 4207   0.362   1.469  14.369 -0.2159 -0.0950 -0.4491
  275MPD2    C4 4208   0.466   1.389  14.318  0.3650  0.1204 -0.4629
  275MPD2    C5 4209   0.600   1.424  14.333 -0.6750 -0.1021 -0.2878
  275MPD2     H 4210   0.331   1.654  14.472  1.5131  2.5376 -1.6699
  275MPD2    H1 4211   0.449   1.293  14.270 -0.9501  1.1119 -1.9615
  275MPD2    H2 4212   0.739   1.572  14.393  0.3796 -1.7372  3.4373
  275MPD2    H3 4213   0.675   1.360  14.289  1.7718  1.5744  1.3968
  275MPD2     N 4214   0.225   1.421  14.370 -0.3410  1.0854  0.2805
  275MPD2    H5 4215   0.213   1.327  14.333 -1.4502  0.6390  1.8027
  275MPD2    N1 4216   0.566   1.752  14.507 -0.1741  0.4528 -0.5648
  275MPD2    H7 4217   0.483   1.811  14.511 -0.6426 -0.3988  2.3766
  276TMC3    C1 4218   0.686   1.908  14.630 -0.1145 -0.4248  0.6328
  276TMC3    C2 4219   0.561   1.924  14.688  0.2725 -0.7402 -0.9130
  276TMC3    C3 4220   0.563   1.951  14.817 -0.4937 -0.1379 -0.1103
  276TMC3    C4 4221   0.806   1.918  14.698 -0.4136 -0.3068  0.1049
  276TMC3    C5 4222   0.798   1.927  14.832  0.2659 -0.5090  0.1867
  276TMC3    C6 4223   0.676   1.954  14.890  0.4079  0.6775 -0.2831
  276TMC3     C 4224   0.690   1.798  14.536 -0.4582 -0.7313 -0.0987
  276TMC3     O 4225   0.795   1.735  14.544  0.2215 -0.2990 -0.3208
  276TMC3     H 4226   0.472   1.936  14.628 -1.4373 -2.6225  1.2692
  276TMC3    H1 4227   0.899   1.932  14.644  0.3848 -1.3348  1.2185
  276TMC3    H2 4228   0.663   1.964  14.997 -0.3770 -2.4412 -0.0824
  276TMC3    C7 4229   0.917   1.933  14.909 -0.7825  0.3685 -0.2323
  276TMC3    C8 4230   0.446   1.893  14.883  0.7631 -1.1622  0.8791
  276TMC3    O1 4231   0.903   1.981  15.023 -0.4522  1.1508 -0.3558
  276TMC3    O2 4232   0.395   1.945  14.983  0.6073  0.3039  0.4930
  277MPD2     C 4233   2.413   0.861  13.496  0.2472  0.0669  0.0632
  277MPD2    C1 4234   2.277   0.872  13.494  0.3867 -0.1792 -0.5571
  277MPD2    C2 4235   2.204   0.816  13.593  0.1595  0.0580  0.1465
  277MPD2    C3 4236   2.262   0.735  13.693  0.2558  0.0150  0.3027
  277MPD2    C4 4237   2.400   0.733  13.698  1.2761  0.3897  0.3550
  277MPD2    C5 4238   2.469   0.793  13.601  0.3113  0.9109  0.3343
  277MPD2     H 4239   2.096   0.821  13.583  0.4780  1.0035 -2.8722
  277MPD2    H1 4240   2.457   0.673  13.768  1.6057 -1.4304 -1.4691
  277MPD2    H2 4241   2.485   0.881  13.418  0.9519  1.6199  1.1161
  277MPD2    H3 4242   2.576   0.776  13.609  0.3893  1.6057  0.7960
  277MPD2     N 4243   2.184   0.672  13.785  0.0250 -0.2716 -0.1347
  277MPD2    H5 4244   2.083   0.683  13.773 -0.1220 -0.1285  1.3057
  277MPD2    N1 4245   2.223   0.949  13.391 -0.2874 -0.0903  0.1450
  277MPD2    H7 4246   2.287   1.000  13.330 -3.2436  1.4691 -1.6621
  278TMC3    C1 4247   2.114   0.510  13.943  0.1102  0.4123 -0.0550
  278TMC3    C2 4248   2.112   0.375  13.948  0.6353  1.3926 -0.0375
  278TMC3    C3 4249   2.010   0.319  14.020  0.0554 -0.3615 -0.4841
  278TMC3    C4 4250   2.016   0.581  13.999  0.1649 -0.0937 -0.1417
  278TMC3    C5 4251   1.917   0.526  14.069 -0.0461  0.2596 -0.1382
  278TMC3    C6 4252   1.905   0.386  14.076  0.1132 -0.3426 -0.0298
  278TMC3     C 4253   2.221   0.571  13.862 -0.3486 -0.6595  0.4131
  278TMC3     O 4254   2.319   0.504  13.850  0.5497 -0.4116  0.5783
  278TMC3     H 4255   2.192   0.310  13.915  0.6746  1.0101  0.8119
  278TMC3    H1 4256   2.036   0.687  14.002  0.1707 -0.1556  1.5481
  278TMC3    H2 4257   1.826   0.339  14.134 -0.4217 -0.7316 -1.0797
  278TMC3    C7 4258   1.818   0.601  14.151 -0.6417 -0.7444  0.1473
  278TMC3    C8 4259   1.984   0.182  13.992  0.2840  0.9842  0.4312
  278TMC3    O1 4260   1.863   0.705  14.195  0.1483  0.1458 -0.2171
  278TMC3    O2 4261   2.088   0.121  13.965 -0.0939 -0.3484  0.8185
  279MPD2     C 4262   0.693   0.829  17.420  0.0726  0.1089  0.3547
  279MPD2    C1 4263   0.775   0.912  17.496  0.1381 -0.3387 -0.1228
  279MPD2    C2 4264   0.911   0.899  17.466  0.5312  0.4263  0.0203
  279MPD2    C3 4265   0.955   0.803  17.374  0.4350 -0.8058  0.9646
  279MPD2    C4 4266   0.869   0.710  17.321  0.2594 -1.3438 -0.1687
  279MPD2    C5 4267   0.738   0.731  17.337  0.4063 -0.2352 -1.3656
  279MPD2     H 4268   0.981   0.959  17.523 -1.1810  1.5605  0.9260
  279MPD2    H1 4269   0.892   0.620  17.265 -1.6104 -2.0192  0.1376
  279MPD2    H2 4270   0.586   0.843  17.416  0.3213  1.5629 -1.0765
  279MPD2    H3 4271   0.665   0.661  17.299  0.9295 -1.0773 -0.8349
  279MPD2     N 4272   1.088   0.766  17.349 -0.1008  0.1965  0.4978
  279MPD2    H5 4273   1.106   0.694  17.279 -1.2946  0.3172  0.0743
  279MPD2    N1 4274   0.725   1.001  17.594 -0.3585 -0.5516 -0.0269
  279MPD2    H7 4275   0.628   0.991  17.621 -0.1696 -0.0613  0.8353
  280TMC3    C1 4276   0.703   1.189  17.721  0.1932 -0.1325 -0.2155
  280TMC3    C2 4277   0.621   1.114   0.062 -0.6870  0.4474 -0.0713
  280TMC3    C3 4278   0.556   1.182   0.160  0.0615  1.1356 -0.4489
  280TMC3    C4 4279   0.722   1.326  17.729 -0.5019  0.2340  0.0537
  280TMC3    C5 4280   0.644   1.387   0.084 -0.2064 -0.0704  0.5288
  280TMC3    C6 4281   0.568   1.317   0.176 -0.3641  0.2363 -0.2474
  280TMC3     C 4282   0.793   1.106  17.640 -0.0153  0.8627  0.1963
  280TMC3     O 4283   0.904   1.155  17.609 -0.2416  0.6566  0.5664
  280TMC3     H 4284   0.609   1.006   0.051  1.7107  0.2107 -0.2985
  280TMC3    H1 4285   0.787   1.383  17.663  0.3408 -1.2795 -0.4169
  280TMC3    H2 4286   0.524   1.359   0.266  0.7971  0.4365  0.2229
  280TMC3    C7 4287   0.646   1.535   0.105 -0.0330 -0.0734  0.4822
  280TMC3    C8 4288   0.449   1.119   0.239 -0.5420  0.2649 -0.4364
  280TMC3    O1 4289   0.635   1.570   0.224 -0.1721 -0.3400  0.3238
  280TMC3    O2 4290   0.405   1.186   0.334  0.1953  0.1674 -0.2988
  281TMC3    C1 4291   0.151   1.133  13.602 -0.3926 -0.0401 -0.1040
  281TMC3    C2 4292   0.220   1.211  13.515 -0.3361 -0.1707 -0.3798
  281TMC3    C3 4293   0.258   1.172  13.388 -0.0962 -0.6007  0.4723
  281TMC3    C4 4294   0.118   1.004  13.562 -0.2619  0.5872  0.3522
  281TMC3    C5 4295   0.152   0.964  13.434  0.2328  0.4120 -0.6263
  281TMC3    C6 4296   0.216   1.049  13.345  0.1618  0.1775  0.3883
  281TMC3     C 4297   0.037   1.210  13.668  0.0698 -0.2602  0.0102
  281TMC3     O 4298   4.672   1.145  13.692 -0.4122  0.2784 -0.0952
  281TMC3     H 4299   0.267   1.304  13.547  1.9503 -1.4163 -0.1125
  281TMC3    H1 4300   0.046   0.954  13.626  1.2216 -2.2266 -0.2065
  281TMC3    H2 4301   0.229   1.018  13.242 -0.4979  1.2918 -0.0333
  281TMC3    C7 4302   0.105   0.838  13.379 -0.3594 -0.2991 -0.6458
  281TMC3    C8 4303   0.376   1.218  13.318  0.0514 -0.4378  0.3197
  281TMC3    O1 4304   0.121   0.819  13.261 -0.0954 -0.9003  0.1607
  281TMC3    O2 4305   0.450   1.124  13.290 -0.0498  0.0326 -0.1014
  282MPD2     C 4306   1.781   1.889  14.958  0.0117  0.0518  0.0980
  282MPD2    C1 4307   1.820   2.018  14.947  0.0672 -0.9157  0.0262
  282MPD2    C2 4308   1.815   2.073  14.822 -0.1247  0.9762 -0.2097
  282MPD2    C3 4309   1.771   2.001  14.710  0.7312  0.3314  0.4334
  282MPD2    C4 4310   1.718   1.876  14.733  0.7979  0.4816  0.3541
  282MPD2    C5 4311   1.723   1.820  14.854 -0.4184 -0.1979  0.0176
  282MPD2     H 4312   1.859   2.170  14.800 -1.2669  1.4586 -0.3519
  282MPD2    H1 4313   1.668   1.817  14.657 -0.4585  3.2786 -1.0128
  282MPD2    H2 4314   1.796   1.837  15.052  0.2613 -0.8543 -0.4491
  282MPD2    H3 4315   1.710   1.716  14.882  0.4865 -0.7566 -1.6104
  282MPD2     N 4316   1.804   2.059  14.585  0.7966 -0.5506 -0.5140
  282MPD2    H5 4317   1.819   2.160  14.580  1.9309 -0.6749  0.4944
  282MPD2    N1 4318   1.879   2.074  15.059  0.3066  0.4137  0.3106
  282MPD2    H7 4319   1.882   2.023  15.147 -1.0806 -0.3922 -0.1132
  283TMC3    C1 4320   1.989   2.230  15.202  0.3866  0.5342  0.3614
  283TMC3    C2 4321   1.987   2.361  15.246  0.2496  0.3345 -0.5792
  283TMC3    C3 4322   2.010   2.388  15.384  0.2773 -0.0220 -0.1810
  283TMC3    C4 4323   2.016   2.125  15.294 -0.5470  0.0670  0.8233
  283TMC3    C5 4324   2.036   2.153  15.429  0.2053  0.8471 -0.0342
  283TMC3    C6 4325   2.021   2.281  15.474 -0.2474  0.4905 -0.5838
  283TMC3     C 4326   1.949   2.197  15.064 -0.2324  0.2447  0.0883
  283TMC3     O 4327   1.959   2.282  14.973 -0.8236 -0.8968  0.5397
  283TMC3     H 4328   1.980   2.443  15.176 -0.3998  1.5905  0.9451
  283TMC3    H1 4329   2.055   2.033  15.251  1.4303  1.0129  0.5872
  283TMC3    H2 4330   2.037   2.307  15.578 -0.1517 -2.1506  0.0748
  283TMC3    C7 4331   1.992   2.055  15.529 -0.0797  0.4268  0.5731
  283TMC3    C8 4332   2.016   2.526  15.441  0.4775 -0.6648  0.4589
  283TMC3    O1 4333   1.995   2.093  15.646  0.7612 -0.2554 -0.0803
  283TMC3    O2 4334   2.028   2.532  15.562 -0.3393 -0.1744  0.1102
  284MPD2     C 4335   0.233   1.777  12.336  0.2020  0.2646 -0.0754
  284MPD2    C1 4336   0.289   1.758  12.214 -0.4276  0.3660 -0.0982
  284MPD2    C2 4337   0.417   1.708  12.203 -0.0657  0.3212 -0.6343
  284MPD2    C3 4338   0.488   1.688  12.326 -0.1884 -0.0529 -0.9699
  284MPD2    C4 4339   0.427   1.703  12.446 -0.2060 -1.2212 -0.1309
  284MPD2    C5 4340   0.298   1.754  12.451  0.2897 -0.7115  0.0038
  284MPD2     H 4341   0.460   1.691  12.105 -1.0728  3.3661 -1.6088
  284MPD2    H1 4342   0.476   1.679  12.540  0.5865 -0.5758 -0.3820
  284MPD2    H2 4343   0.130   1.810  12.332  0.2910  0.4403 -1.0986
  284MPD2    H3 4344   0.237   1.766  12.540  2.4671 -3.1448  1.8308
  284MPD2     N 4345   0.617   1.631  12.333 -0.3549  0.4338 -0.3788
  284MPD2    H5 4346   0.634   1.587  12.423 -0.6788  0.9853 -0.0424
  284MPD2    N1 4347   0.234   1.816  12.094 -0.3181  0.4350 -0.1987
  284MPD2    H7 4348   0.288   1.797  12.010 -0.7777  0.8448 -0.5841
  285TMC3    C1 4349   0.078   1.913  11.959  0.2176 -0.5605  0.9748
  285TMC3    C2 4350   0.111   1.825  11.859  0.0041  0.3113  0.3677
  285TMC3    C3 4351   0.073   1.858  11.728 -0.1166 -0.5427 -0.3025
  285TMC3    C4 4352   0.007   2.025  11.931  0.3851  0.4312 -0.3062
  285TMC3    C5 4353   4.687   2.043  11.809  0.3830 -0.0211 -0.1057
  285TMC3    C6 4354   4.731   1.966  11.703  0.0104 -0.6793  0.3183
  285TMC3     C 4355   0.126   1.896  12.092  0.7569 -1.2406 -0.0174
  285TMC3     O 4356   0.086   1.971  12.178 -0.2868 -0.2120 -0.2117
  285TMC3     H 4357   0.170   1.734  11.866  0.2405  0.4935  0.7280
  285TMC3    H1 4358   4.720   2.099  12.007  0.2759 -1.1175  1.1667
  285TMC3    H2 4359   4.695   1.989  11.603 -0.1365 -0.9901  0.2990
  285TMC3    C7 4360   4.663   2.184  11.780 -0.1870  0.4757 -0.4580
  285TMC3    C8 4361   0.109   1.780  11.613  0.2882 -1.0787 -1.1648
  285TMC3    O1 4362   0.004   2.268  11.828 -0.4949 -0.2797 -0.2114
  285TMC3    O2 4363   0.088   1.657  11.619  0.1197 -0.1677  0.7359
  286MPD2     C 4364   0.098   0.930   0.932 -0.1448 -0.6270 -0.2329
  286MPD2    C1 4365   0.193   0.886   1.020 -0.2885 -1.1803  0.1337
  286MPD2    C2 4366   0.226   0.752   1.027  0.0985 -0.1812 -0.2463
  286MPD2    C3 4367   0.173   0.651   0.942  0.3446 -0.5047  0.2571
  286MPD2    C4 4368   0.080   0.700   0.853 -0.7419 -0.3526  0.2189
  286MPD2    C5 4369   0.044   0.835   0.849  0.2759 -0.2196 -0.2119
  286MPD2     H 4370   0.308   0.732   1.095 -0.2931 -1.8726 -0.2848
  286MPD2    H1 4371   0.035   0.636   0.778  1.8756 -1.1830 -0.6218
  286MPD2    H2 4372   0.067   1.033   0.923 -0.1837 -0.5705  0.5434
  286MPD2    H3 4373   4.710   0.867   0.773  0.6346 -0.7573 -0.7697
  286MPD2     N 4374   0.218   0.517   0.928 -0.1132 -0.3041  0.3547
  286MPD2    H5 4375   0.158   0.449   0.882 -2.1803  0.5803  1.7652
  286MPD2    N1 4376   0.261   0.973   1.110  1.1661  0.1729 -0.1502
  286MPD2    H7 4377   0.332   0.923   1.162  0.1411  0.2964  1.3548
  287TMC3    C1 4378   0.349   0.319   0.948 -0.3760  0.1369  0.2239
  287TMC3    C2 4379   0.273   0.265   0.841  0.3509  0.3431  0.4870
  287TMC3    C3 4380   0.272   0.124   0.828  0.4825 -1.0369  0.2025
  287TMC3    C4 4381   0.417   0.243   1.040 -0.3066 -0.4757  0.0546
  287TMC3    C5 4382   0.403   0.105   1.026 -0.1821  0.5030 -0.5568
  287TMC3    C6 4383   0.340   0.044   0.919 -0.1263 -0.1494  0.4210
  287TMC3     C 4384   0.333   0.460   0.983  0.2130  0.3268  0.7827
  287TMC3     O 4385   0.416   0.502   1.063  0.2066 -0.6938  0.1582
  287TMC3     H 4386   0.211   0.324   0.775  2.1226  1.9241  0.2385
  287TMC3    H1 4387   0.471   0.286   1.124 -0.3428 -2.7791  1.2646
  287TMC3    H2 4388   0.331   4.673   0.906 -0.1826 -0.1001  0.0724
  287TMC3    C7 4389   0.483   0.023   1.115 -0.5024 -0.4679  0.3852
  287TMC3    C8 4390   0.199   0.064   0.722 -0.3220 -0.4951  0.0392
  287TMC3    O1 4391   0.556   0.076   1.196 -0.2897  0.0887 -0.4687
  287TMC3    O2 4392   0.220   4.682   0.695 -0.2048 -0.1091 -0.3217
  288TMC3    C1 4393   2.577   0.260  13.888  0.0610  0.3213  0.6105
  288TMC3    C2 4394   2.573   0.258  14.022  0.5613  0.4478 -0.0613
  288TMC3    C3 4395   2.495   0.163  14.080 -0.3991  0.6683  0.8765
  288TMC3    C4 4396   2.501   0.171  13.813  0.1634 -0.3751  0.4023
  288TMC3    C5 4397   2.427   0.077  13.886 -0.4037 -0.0346  0.5855
  288TMC3    C6 4398   2.426   0.069  14.016 -0.7237  0.3570 -0.4446
  288TMC3     C 4399   2.650   0.367  13.817 -0.0613  0.2094 -0.0254
  288TMC3     O 4400   2.727   0.435  13.881  0.3258 -0.1303  0.2754
  288TMC3     H 4401   2.629   0.327  14.084  1.4416  0.9150 -1.3912
  288TMC3    H1 4402   2.490   0.169  13.705 -0.2215 -1.1896  0.4619
  288TMC3    H2 4403   2.375   4.719  14.057 -0.1589 -0.0407 -0.5675
  288TMC3    C7 4404   2.338   4.732  13.816 -0.0379  0.0916  0.3371
  288TMC3    C8 4405   2.469   0.192  14.222  0.2718 -0.1456  0.4563
  288TMC3    O1 4406   2.340   4.613  13.850  0.3779  0.3789  0.0552
  288TMC3    O2 4407   2.508   0.298  14.270 -0.1969 -0.2302  0.5398
  289MPD2     C 4408   2.291   3.951  14.447 -0.0445  0.3280 -0.3846
  289MPD2    C1 4409   2.249   4.087  14.444 -0.3914  1.0490  0.7035
  289MPD2    C2 4410   2.144   4.122  14.366 -0.5450 -0.6252 -0.7037
  289MPD2    C3 4411   2.063   4.026  14.307 -0.0644 -0.1192 -0.3641
  289MPD2    C4 4412   2.097   3.893  14.322  0.4120  0.4136 -0.0470
  289MPD2    C5 4413   2.209   3.855  14.387  0.2631  0.7192  0.1543
  289MPD2     H 4414   2.135   4.229  14.350 -1.3983 -0.9733 -2.6613
  289MPD2    H1 4415   2.039   3.810  14.282  0.1601  0.7956 -0.4712
  289MPD2    H2 4416   2.382   3.919  14.496  0.2112 -0.2828 -1.2539
  289MPD2    H3 4417   2.240   3.752  14.397 -0.6771  0.2949 -1.3393
  289MPD2     N 4418   1.945   4.056  14.241 -1.0242  0.2716 -0.0358
  289MPD2    H5 4419   1.894   3.975  14.206  1.6711 -1.0956 -0.8248
  289MPD2    N1 4420   2.324   4.192  14.505  0.2436 -0.1259 -0.1707
  289MPD2    H7 4421   2.299   4.287  14.478 -1.6383 -0.0641  1.7893
  290TMC3    C1 4422   1.762   4.188  14.180 -1.0126 -0.5571 -1.2603
  290TMC3    C2 4423   1.719   4.315  14.155  0.4801 -0.7938 -1.2524
  290TMC3    C3 4424   1.585   4.333  14.166 -0.0612 -0.5626  0.2658
  290TMC3    C4 4425   1.674   4.088  14.220 -0.6066  0.4513  0.7275
  290TMC3    C5 4426   1.542   4.107  14.227 -0.6140 -0.4001 -0.0346
  290TMC3    C6 4427   1.490   4.235  14.201 -0.9187  0.1298  0.3596
  290TMC3     C 4428   1.892   4.182  14.227  0.5280 -0.9993 -0.5138
  290TMC3     O 4429   1.939   4.294  14.260 -0.1568  0.3339 -0.2201
  290TMC3     H 4430   1.788   4.391  14.119  1.3560 -0.9431  0.1249
  290TMC3    H1 4431   1.723   3.999  14.256  0.7607  1.0378  0.3035
  290TMC3    H2 4432   1.387   4.268  14.212 -0.3380  1.4681  1.7719
  290TMC3    C7 4433   1.451   4.001  14.240  0.6161 -0.0192 -0.4014
  290TMC3    C8 4434   1.531   4.468  14.186 -0.3015  0.7160  0.5228
  290TMC3    O1 4435   1.341   4.040  14.277 -0.3405 -0.8428 -0.3839
  290TMC3    O2 4436   1.409   4.486  14.182  0.1409 -0.4957 -0.1900
  291MPD2     C 4437   1.209   4.383   0.059  0.0270 -0.4239  0.2705
  291MPD2    C1 4438   1.331   4.323   0.095 -0.1960 -0.1340 -0.6735
  291MPD2    C2 4439   1.445   4.403   0.104 -0.4495 -0.0852  0.4234
  291MPD2    C3 4440   1.439   4.536   0.071  0.5664  0.8465  0.6134
  291MPD2    C4 4441   1.314   4.598   0.046 -1.0675  0.3830  0.7035
  291MPD2    C5 4442   1.203   4.517   0.042  0.6482  0.0161 -0.3902
  291MPD2     H 4443   1.538   4.354   0.130  0.1736  0.9088  0.1052
  291MPD2    H1 4444   1.303   4.706   0.042  0.4375  0.4454 -1.4178
  291MPD2    H2 4445   1.121   4.321   0.058 -1.1052  1.2180 -1.5411
  291MPD2    H3 4446   1.101   4.552   0.030  0.6103 -0.2725 -0.9048
  291MPD2     N 4447   1.554   4.622   0.074 -0.7874  0.3071  0.0387
  291MPD2    H5 4448   1.534   4.721   0.067  2.1084  0.9159  0.1416
  291MPD2    N1 4449   1.347   4.181   0.133  0.4215 -0.2718  0.4685
  291MPD2    H7 4450   1.434   4.156   0.176  1.3205 -0.6097 -1.5251
  292TMC3    C1 4451   1.298   3.959   0.175  0.5920 -0.1663  0.1491
  292TMC3    C2 4452   1.377   3.949   0.288 -0.1950 -0.5732 -0.3171
  292TMC3    C3 4453   1.403   3.821   0.325  0.5584 -0.1417  0.1671
  292TMC3    C4 4454   1.248   3.847   0.110 -0.0388  0.2247 -0.3885
  292TMC3    C5 4455   1.266   3.724   0.165 -0.2659  0.7367  0.0573
  292TMC3    C6 4456   1.357   3.709   0.266 -0.1612  0.0636 -0.3816
  292TMC3     C 4457   1.248   4.085   0.130  0.2030 -0.2957  0.4527
  292TMC3     O 4458   1.146   4.088   0.064 -0.2625 -0.7603 -0.2638
  292TMC3     H 4459   1.404   4.036   0.346 -0.9001 -1.0236  0.6700
  292TMC3    H1 4460   1.193   3.857   0.017  1.4018 -1.5958 -1.4454
  292TMC3    H2 4461   1.382   3.614   0.312  0.5335  0.2965 -0.2855
  292TMC3    C7 4462   1.214   3.597   0.108  0.2966 -0.1727  0.2141
  292TMC3    C8 4463   1.442   3.795   0.460 -1.2930  0.1573  0.5209
  292TMC3    O1 4464   1.249   3.493   0.157  0.4850 -0.4021 -0.1843
  292TMC3    O2 4465   1.542   3.851   0.505 -0.4327 -0.2539 -0.1267
  293MPD2     C 4466   3.081   0.279  12.823 -0.1587  0.3468 -0.1150
  293MPD2    C1 4467   3.112   0.410  12.797  0.1120 -0.1438  0.8115
  293MPD2    C2 4468   3.186   0.478  12.889  0.1119  0.7749 -0.0162
  293MPD2    C3 4469   3.244   0.414  13.003 -0.0937 -0.0971  0.2711
  293MPD2    C4 4470   3.214   0.279  13.022  0.2077 -0.3274 -0.0709
  293MPD2    C5 4471   3.138   0.212  12.928  0.2231  0.0937  0.1927
  293MPD2     H 4472   3.205   0.584  12.873 -2.1237  1.0950 -0.5601
  293MPD2    H1 4473   3.251   0.215  13.101 -0.5831 -0.5702  0.1080
  293MPD2    H2 4474   3.030   0.209  12.758 -0.9561 -0.2437  1.1278
  293MPD2    H3 4475   3.105   0.110  12.948 -0.2318  0.0687 -0.6976
  293MPD2     N 4476   3.321   0.493  13.090  0.8453  0.0944 -0.2172
  293MPD2    H5 4477   3.294   0.590  13.102 -0.7334 -0.2289 -1.1303
  293MPD2    N1 4478   3.033   0.460  12.694 -0.0709 -0.3689  0.6203
  293MPD2    H7 4479   2.968   0.396  12.649 -0.8843  1.1048 -0.3341
  294TMC3    C1 4480   2.960   0.620  12.530 -0.0260  0.5799 -0.8524
  294TMC3    C2 4481   2.845   0.546  12.534  0.0966 -0.4954  0.4284
  294TMC3    C3 4482   2.767   0.540  12.421  0.5468  0.2575  0.1267
  294TMC3    C4 4483   2.999   0.688  12.414 -0.4529 -0.1159  0.4599
  294TMC3    C5 4484   2.920   0.670  12.306 -0.4498  0.0510 -0.3026
  294TMC3    C6 4485   2.800   0.611  12.310 -0.1592  0.4213  0.0612
  294TMC3     C 4486   3.056   0.587  12.633 -0.0620 -0.3492  0.0560
  294TMC3     O 4487   3.143   0.666  12.656 -0.5144 -0.1332  0.0010
  294TMC3     H 4488   2.807   0.521  12.632 -0.6343  0.8258  0.4864
  294TMC3    H1 4489   3.090   0.746  12.419 -0.1710 -0.3686 -1.7216
  294TMC3    H2 4490   2.726   0.620  12.231  0.3935  3.6773 -0.1125
  294TMC3    C7 4491   2.953   0.749  12.191  0.0834  0.4331 -0.6181
  294TMC3    C8 4492   2.637   0.462  12.436  0.0937  0.5322 -0.1898
  294TMC3    O1 4493   2.859   0.800  12.135 -0.0548  0.3108 -0.4569
  294TMC3    O2 4494   2.580   0.448  12.541 -0.1375 -0.3282 -0.0084
  295MPD2     C 4495   4.337   4.456   1.012 -0.3196 -0.5783 -0.2944
  295MPD2    C1 4496   4.234   4.376   0.967 -0.2492 -0.6240 -0.4835
  295MPD2    C2 4497   4.257   4.241   0.972 -0.3948 -0.0511 -0.3021
  295MPD2    C3 4498   4.369   4.180   1.030  0.4062 -0.5504  0.1612
  295MPD2    C4 4499   4.451   4.268   1.091 -0.3500  0.4183 -0.1831
  295MPD2    C5 4500   4.445   4.397   1.076 -1.0205 -0.2998  0.0379
  295MPD2     H 4501   4.179   4.177   0.934  0.2001 -0.0242 -1.5833
  295MPD2    H1 4502   4.531   4.229   1.153  1.1534  0.8715 -1.8219
  295MPD2    H2 4503   4.335   4.564   1.005  1.7702 -0.3902  2.0196
  295MPD2    H3 4504   4.524   4.460   1.114 -1.0688 -0.4352  0.3586
  295MPD2     N 4505   4.376   4.045   1.065  0.3913 -0.6105  0.6657
  295MPD2    H5 4506   4.444   4.008   1.130 -0.9120 -2.6790  0.8285
  295MPD2    N1 4507   4.110   4.430   0.921  0.3457 -0.2075  0.0121
  295MPD2    H7 4508   4.044   4.364   0.881 -0.9538  1.2271 -0.2022
  296TMC3    C1 4509   4.323   3.806   1.059  0.2145  1.1105 -0.2646
  296TMC3    C2 4510   4.435   3.790   1.140 -0.2427 -0.4203 -0.0533
  296TMC3    C3 4511   4.473   3.664   1.153 -0.0022 -0.1097 -0.3253
  296TMC3    C4 4512   4.256   3.705   0.998  0.4316 -0.0964 -0.5098
  296TMC3    C5 4513   4.301   3.576   1.026  0.2629 -0.3914  0.9561
  296TMC3    C6 4514   4.422   3.558   1.087  0.0998  0.3729  0.5394
  296TMC3     C 4515   4.288   3.942   1.022 -0.0155 -0.3299 -0.5337
  296TMC3     O 4516   4.185   3.958   0.962  0.2435  0.1580 -0.7199
  296TMC3     H 4517   4.505   3.865   1.177 -0.7477 -0.9129  1.9296
  296TMC3    H1 4518   4.179   3.724   0.924  2.0422 -3.1701 -2.9597
  296TMC3    H2 4519   4.469   3.460   1.091  0.2978  0.3812 -1.5084
  296TMC3    C7 4520   4.231   3.466   0.974  0.3813  0.5029  0.7562
  296TMC3    C8 4521   4.587   3.640   1.233 -0.9373  0.0805  0.2557
  296TMC3    O1 4522   4.183   3.476   0.860  0.0002 -0.4078 -0.5154
  296TMC3    O2 4523   4.674   3.570   1.182 -0.9744 -0.7546  0.0627
  297MPD2     C 4524   0.953   1.067  16.216 -0.0638  0.3063  0.3496
  297MPD2    C1 4525   0.956   1.112  16.088  0.0594 -0.4737 -0.9340
  297MPD2    C2 4526   1.080   1.167  16.048 -0.4146  0.0163  0.1373
  297MPD2    C3 4527   1.187   1.179  16.133 -0.4738 -0.2634 -0.0420
  297MPD2    C4 4528   1.184   1.111  16.255  1.0372 -0.1783  0.5457
  297MPD2    C5 4529   1.066   1.062  16.296 -0.0413  0.3209 -0.7316
  297MPD2     H 4530   1.083   1.228  15.958 -3.1909  1.0975  0.7804
  297MPD2    H1 4531   1.263   1.107  16.329 -0.3599  2.8431  2.2045
  297MPD2    H2 4532   0.865   1.028  16.265  1.5332 -0.8313  2.3434
  297MPD2    H3 4533   1.053   1.016  16.393  2.9205  0.0616 -0.4570
  297MPD2     N 4534   1.286   1.273  16.099 -0.0331  0.2413 -0.8612
  297MPD2    H5 4535   1.287   1.316  16.008 -0.8620  0.5897 -0.7000
  297MPD2    N1 4536   0.838   1.138  16.016  0.4930 -0.3661  0.2206
  297MPD2    H7 4537   0.844   1.196  15.932  0.7550 -1.2637 -0.3825
  298TMC3    C1 4538   0.615   1.147  15.956 -0.8242 -0.1459 -0.2940
  298TMC3    C2 4539   0.636   1.180  15.825  0.1250 -0.3450 -0.7768
  298TMC3    C3 4540   0.529   1.232  15.761  0.3014 -0.6913 -0.2336
  298TMC3    C4 4541   0.506   1.184  16.029 -0.0659 -0.5310 -0.2057
  298TMC3    C5 4542   0.415   1.258  15.960  1.0539 -0.1681  0.1143
  298TMC3    C6 4543   0.417   1.284  15.819 -0.0814  0.1842 -0.0761
  298TMC3     C 4544   0.712   1.092  16.045 -0.1753 -0.3881 -0.7657
  298TMC3     O 4545   0.678   1.021  16.139 -0.3729 -0.3810 -0.3577
  298TMC3     H 4546   0.735   1.176  15.781  1.1416  0.4138  1.4672
  298TMC3    H1 4547   0.486   1.170  16.135 -0.2088 -0.7961 -0.2692
  298TMC3    H2 4548   0.338   1.328  15.760  1.1338  0.8267 -1.2288
  298TMC3    C7 4549   0.298   1.311  16.037 -0.1715  0.1115  0.2959
  298TMC3    C8 4550   0.567   1.264  15.616  0.1271 -0.4573 -0.0788
  298TMC3    O1 4551   0.311   1.301  16.160  0.0727 -0.1003  0.1531
  298TMC3    O2 4552   0.662   1.197  15.574 -0.2729  0.2795  0.0466
  299MPD2     C 4553   1.206   1.166  10.897  0.3636 -0.2793 -0.6133
  299MPD2    C1 4554   1.246   1.214  10.766 -0.0474 -0.4678  0.1920
  299MPD2    C2 4555   1.178   1.163  10.656 -0.2838 -0.5344 -0.1874
  299MPD2    C3 4556   1.076   1.071  10.671 -0.2202  0.2471  0.0225
  299MPD2    C4 4557   1.039   1.038  10.797  0.4128  0.2368 -0.1835
  299MPD2    C5 4558   1.110   1.074  10.910 -0.1866  0.3295 -0.3307
  299MPD2     H 4559   1.199   1.192  10.554 -2.8883 -0.0487 -0.5859
  299MPD2    H1 4560   0.950   0.979  10.816  0.0925  0.3021 -1.4652
  299MPD2    H2 4561   1.259   1.201  10.985  0.6075  0.5358 -1.0787
  299MPD2    H3 4562   1.079   1.039  11.008  0.8042 -1.4156 -0.6456
  299MPD2     N 4563   0.996   1.020  10.564  0.3479 -0.1043  0.8114
  299MPD2    H5 4564   0.919   0.956  10.582  0.5640 -0.4340  0.5585
  299MPD2    N1 4565   1.356   1.304  10.756  0.3028  1.3158  0.4060
  299MPD2    H7 4566   1.408   1.313  10.843  0.7076  1.4559  0.1532
  300TMC3    C1 4567   0.891   1.020  10.356  0.5595  0.6136  0.2646
  300TMC3    C2 4568   0.856   1.112  10.257  0.0411 -0.0566  0.4927
  300TMC3    C3 4569   0.736   1.091  10.193 -0.5710  0.5487 -0.4553
  300TMC3    C4 4570   0.807   0.920  10.392 -0.0002 -0.2302 -0.1145
  300TMC3    C5 4571   0.688   0.914  10.325  0.1391 -0.2463  0.1098
  300TMC3    C6 4572   0.651   0.989  10.223  0.3654  0.4511  0.9752
  300TMC3     C 4573   1.015   1.047  10.426 -0.3662 -1.1033  0.2716
  300TMC3     O 4574   1.104   1.113  10.378  0.1860  0.1217  0.5428
  300TMC3     H 4575   0.934   1.182  10.231  1.0320 -2.4001 -2.7967
  300TMC3    H1 4576   0.823   0.838  10.461  1.8734  0.4333  0.2209
  300TMC3    H2 4577   0.547   0.995  10.192  0.5952 -3.7524 -0.5212
  300TMC3    C7 4578   0.594   0.846  10.396  1.4776  0.0121  0.1881
  300TMC3    C8 4579   0.672   1.210  10.123  0.1193  0.1102  0.4180
  300TMC3    O1 4580   0.508   0.784  10.333 -0.0469  0.0757  0.0067
  300TMC3    O2 4581   0.583   1.181  10.048 -0.2377  0.4996 -0.6330
  301MPD2     C 4582   3.470   2.636   1.533  0.0155  0.0641  0.1998
  301MPD2    C1 4583   3.362   2.567   1.483  0.4087 -0.4186  0.0762
  301MPD2    C2 4584   3.359   2.430   1.492  0.8851 -0.0647  0.3479
  301MPD2    C3 4585   3.459   2.349   1.546 -0.3449  0.3001  0.1281
  301MPD2    C4 4586   3.567   2.418   1.597 -0.1893 -0.6098 -0.3316
  301MPD2    C5 4587   3.568   2.554   1.589 -0.0370 -0.3122  0.0717
  301MPD2     H 4588   3.277   2.397   1.429  1.0303  0.4179 -0.1005
  301MPD2    H1 4589   3.645   2.359   1.645  1.4865  1.7562 -0.1241
  301MPD2    H2 4590   3.493   2.742   1.533 -2.6306  0.6422 -2.2181
  301MPD2    H3 4591   3.657   2.599   1.631  0.1032 -0.6089  0.0917
  301MPD2     N 4592   3.445   2.210   1.555 -0.1578 -0.2265  0.1715
  301MPD2    H5 4593   3.523   2.156   1.591  0.1585 -1.4601 -2.3863
  301MPD2    N1 4594   3.256   2.630   1.415  0.5287 -0.8749  0.6385
  301MPD2    H7 4595   3.173   2.573   1.407  1.3460 -2.2193  1.7351
  302TMC3    C1 4596   3.381   1.990   1.472  0.0277 -0.3118 -0.6963
  302TMC3    C2 4597   3.411   1.922   1.585 -0.0207 -0.5210 -0.5415
  302TMC3    C3 4598   3.381   1.790   1.592  0.7765  0.6006  0.4396
  302TMC3    C4 4599   3.308   1.926   1.370  0.1564 -0.2518  0.3945
  302TMC3    C5 4600   3.295   1.792   1.369 -0.6530 -0.1102  0.6122
  302TMC3    C6 4601   3.324   1.719   1.487  0.0983  0.4716 -0.3766
  302TMC3     C 4602   3.357   2.138   1.483  0.2139  0.1375 -0.1230
  302TMC3     O 4603   3.267   2.178   1.407 -0.8832 -0.0751 -0.1163
  302TMC3     H 4604   3.434   1.979   1.674  3.5005 -3.1962  0.2779
  302TMC3    H1 4605   3.293   1.980   1.277  0.6978 -1.0635 -0.1593
  302TMC3    H2 4606   3.299   1.614   1.485  0.0488  0.4806 -0.2470
  302TMC3    C7 4607   3.244   1.723   1.252  0.4713 -0.2672  0.0629
  302TMC3    C8 4608   3.429   1.712   1.704 -0.1678  0.2406  0.4215
  302TMC3    O1 4609   3.304   1.627   1.203 -0.1022 -0.4396 -0.4685
  302TMC3    O2 4610   3.461   1.778   1.798 -0.2493  0.0715  0.1887
  303MPD2     C 4611   4.485   0.696   9.780  0.0294  0.6097  0.2181
  303MPD2    C1 4612   4.349   0.729   9.796  1.6197 -0.3247  0.2888
  303MPD2    C2 4613   4.265   0.742   9.687  0.9876 -0.1412  0.3031
  303MPD2    C3 4614   4.307   0.744   9.556  0.0903  0.1216 -0.0296
  303MPD2    C4 4615   4.441   0.714   9.544  0.0589 -0.4016 -0.1874
  303MPD2    C5 4616   4.530   0.693   9.651  0.2542 -0.4207  0.2201
  303MPD2     H 4617   4.160   0.761   9.706  1.4881  2.0244  0.9559
  303MPD2    H1 4618   4.487   0.704   9.446 -3.3904 -0.7276 -1.7548
  303MPD2    H2 4619   4.554   0.678   9.862 -0.3442 -2.2511 -0.1175
  303MPD2    H3 4620   4.637   0.684   9.638  0.3261 -0.8571  1.1568
  303MPD2     N 4621   4.221   0.756   9.444 -0.2438 -0.1875  0.1896
  303MPD2    H5 4622   4.259   0.763   9.350 -0.4375 -0.5795  0.0835
  303MPD2    N1 4623   4.296   0.736   9.932 -0.3259  0.6222  0.6429
  303MPD2    H7 4624   4.362   0.714  10.006  0.3336  2.7731  0.7076
  304TMC3    C1 4625   4.143   0.776  10.107  0.1254 -0.6355 -0.1282
  304TMC3    C2 4626   4.066   0.877  10.159 -0.5667  0.4427  0.3214
  304TMC3    C3 4627   4.004   0.860  10.280  0.4962 -0.5626 -0.8527
  304TMC3    C4 4628   4.136   0.653  10.158  0.3948  0.2084 -0.1094
  304TMC3    C5 4629   4.068   0.634  10.271  0.9796 -0.1377 -0.2355
  304TMC3    C6 4630   4.023   0.744  10.346  0.2268  0.2213  0.0537
  304TMC3     C 4631   4.168   0.785   9.968 -0.0238 -0.2619  0.0003
  304TMC3     O 4632   4.084   0.836   9.900 -0.2419 -0.0654  0.4324
  304TMC3     H 4633   4.057   0.974  10.112 -1.2269  0.8634  1.3138
  304TMC3    H1 4634   4.190   0.569  10.117 -1.6562 -1.4247  0.5722
  304TMC3    H2 4635   3.977   0.733  10.444 -0.5883 -4.0914 -0.8268
  304TMC3    C7 4636   3.978   0.531  10.256  0.3531  0.2804 -0.2325
  304TMC3    C8 4637   3.855   0.872  10.267  0.5651 -0.1086 -0.8653
  304TMC3    O1 4638   3.939   0.493  10.141  0.4198 -0.7148 -0.2638
  304TMC3    O2 4639   3.817   0.836  10.155 -0.2066 -0.3833 -0.0621
  305MPD2     C 4640   2.029   2.743  13.962 -0.3174 -0.7634  0.0476
  305MPD2    C1 4641   2.101   2.630  13.972  0.7857  0.4106 -0.1613
  305MPD2    C2 4642   2.068   2.517  13.898  0.1111  0.1255  1.3822
  305MPD2    C3 4643   1.965   2.527  13.812  0.4500 -0.6841 -0.0560
  305MPD2    C4 4644   1.885   2.638  13.803 -0.7330 -0.6013 -0.2231
  305MPD2    C5 4645   1.920   2.741  13.876 -0.1578 -0.6320 -0.4595
  305MPD2     H 4646   2.141   2.437  13.893  0.6722  0.7199  0.1728
  305MPD2    H1 4647   1.804   2.643  13.732 -1.9741 -0.6596  1.2051
  305MPD2    H2 4648   2.061   2.838  14.004  0.6211 -0.5353 -1.1805
  305MPD2    H3 4649   1.868   2.832  13.846  1.4215 -0.1152 -1.6455
  305MPD2     N 4650   1.923   2.419  13.737 -0.2176  0.1273 -0.1318
  305MPD2    H5 4651   1.836   2.433  13.685 -0.5241  0.2723  0.4208
  305MPD2    N1 4652   2.206   2.639  14.060  0.6513 -0.1588 -0.0565
  305MPD2    H7 4653   2.229   2.723  14.111 -1.1362 -0.3089  0.9696
  306TMC3    C1 4654   2.359   2.548  14.227  0.4049 -0.5163 -0.1216
  306TMC3    C2 4655   2.465   2.452  14.231 -0.3437 -1.2196 -0.0056
  306TMC3    C3 4656   2.565   2.478  14.321 -0.2246 -1.0197  0.9380
  306TMC3    C4 4657   2.359   2.661  14.294  0.3051 -0.0369  0.0286
  306TMC3    C5 4658   2.459   2.677  14.385 -0.2939 -0.1104  0.3360
  306TMC3    C6 4659   2.567   2.590  14.401  0.2406 -0.9330 -0.0106
  306TMC3     C 4660   2.276   2.526  14.108  0.1115 -0.6450  0.3937
  306TMC3     O 4661   2.241   2.405  14.099  0.4897  0.3264 -0.1457
  306TMC3     H 4662   2.455   2.365  14.168  1.8187 -0.6896 -1.0626
  306TMC3    H1 4663   2.268   2.720  14.300 -0.2647 -0.9708  0.6812
  306TMC3    H2 4664   2.649   2.603  14.471 -0.1430  1.3986  0.0145
  306TMC3    C7 4665   2.447   2.801  14.459  0.0234 -0.5191 -0.5184
  306TMC3    C8 4666   2.671   2.386  14.350  0.0618 -0.3851 -0.4115
  306TMC3    O1 4667   2.350   2.877  14.436  0.5019 -0.3608  0.5866
  306TMC3    O2 4668   2.768   2.424  14.410  0.1293  0.0516 -0.2157
  307MPD2     C 4669   4.403   1.454   1.012  0.6648  0.2665 -0.4426
  307MPD2    C1 4670   4.323   1.549   0.959  0.8056 -0.6469  0.1254
  307MPD2    C2 4671   4.221   1.606   1.039 -0.2198  0.0887 -0.4919
  307MPD2    C3 4672   4.192   1.565   1.169  0.3224 -0.2531  0.5481
  307MPD2    C4 4673   4.278   1.474   1.221  0.0223 -0.0278  0.1795
  307MPD2    C5 4674   4.375   1.417   1.142  0.4095 -0.4593 -0.5641
  307MPD2     H 4675   4.164   1.690   1.000  0.9816  1.7866  1.3851
  307MPD2    H1 4676   4.288   1.461   1.328  0.1980  1.0043  0.2864
  307MPD2    H2 4677   4.476   1.394   0.960  3.2666  1.2997  2.0505
  307MPD2    H3 4678   4.441   1.347   1.192 -0.6818 -1.0082  0.1089
  307MPD2     N 4679   4.068   1.601   1.237 -0.0862  0.2903  0.1953
  307MPD2    H5 4680   4.018   1.670   1.183  0.5813 -0.1694 -1.0069
  307MPD2    N1 4681   4.336   1.594   0.824 -0.0792  0.0037 -0.1255
  307MPD2    H7 4682   4.290   1.679   0.795 -0.7950 -0.7762 -1.2822
  308TMC3    C1 4683   3.665   1.494   1.334  0.5240 -0.2482 -0.3798
  308TMC3    C2 4684   3.636   1.617   1.278  0.8724  0.3903  0.2727
  308TMC3    C3 4685   3.724   1.720   1.282  0.2744 -0.7636 -0.2687
  308TMC3    C4 4686   3.786   1.479   1.395 -0.0251  0.2596  0.4503
  308TMC3    C5 4687   3.879   1.585   1.392 -0.2466  0.4044  0.1637
  308TMC3    C6 4688   3.854   1.704   1.329  0.2401 -0.4880 -0.2330
  308TMC3     C 4689   3.591   1.372   1.296 -0.8671 -0.0222 -0.6615
  308TMC3     O 4690   3.636   1.271   1.344  0.1440 -0.2654  0.1762
  308TMC3     H 4691   3.533   1.634   1.248  1.1043  0.7052 -0.3462
  308TMC3    H1 4692   3.820   1.379   1.419  1.9548  0.8134  0.0256
  308TMC3    H2 4693   3.926   1.784   1.332  0.0021 -0.2844 -0.0225
  308TMC3    C7 4694   4.017   1.541   1.359 -0.0930 -0.4284 -0.4837
  308TMC3    C8 4695   3.684   1.856   1.261 -0.1289  0.2284  0.0772
  308TMC3    O1 4696   4.068   1.443   1.421 -0.0082 -0.3791 -1.1590
  308TMC3    O2 4697   3.714   1.930   1.355  0.6118 -0.1705  0.1476
  309MPD2     C 4698   3.339   1.365  17.389 -0.4903  0.0087  0.6607
  309MPD2    C1 4699   3.255   1.327  17.284  0.2689 -0.4812 -0.2039
  309MPD2    C2 4700   3.124   1.298  17.309  0.1109  0.7449  0.3227
  309MPD2    C3 4701   3.076   1.305  17.440 -0.1763 -0.3321  0.4494
  309MPD2    C4 4702   3.156   1.354  17.543  0.4707 -0.6675  0.5451
  309MPD2    C5 4703   3.290   1.387  17.513 -0.0248  0.9124  0.1516
  309MPD2     H 4704   3.058   1.261  17.232  1.3431  1.1087 -0.9075
  309MPD2    H1 4705   3.113   1.385  17.637 -3.6777 -1.9157 -0.9338
  309MPD2    H2 4706   3.443   1.393  17.379 -0.3198 -0.8256  0.0855
  309MPD2    H3 4707   3.357   1.435  17.583  0.3949  0.1864  0.2457
  309MPD2     N 4708   2.944   1.270  17.471 -0.0782  0.3655 -0.5866
  309MPD2    H5 4709   2.878   1.276  17.394 -0.7012 -1.8143 -0.2239
  309MPD2    N1 4710   3.301   1.287  17.159 -0.2485 -0.4176  0.0163
  309MPD2    H7 4711   3.240   1.253  17.086 -1.8096  2.3080  0.0689
  310TMC3    C1 4712   3.472   1.242  16.989  0.6972  0.8065 -0.3881
  310TMC3    C2 4713   3.382   1.258  16.889  0.1141  0.2004  0.1828
  310TMC3    C3 4714   3.429   1.237  16.763 -0.3643  0.1231 -0.0160
  310TMC3    C4 4715   3.601   1.215  16.972  0.1133  1.2465 -0.1377
  310TMC3    C5 4716   3.644   1.193  16.844 -0.0324 -0.0469 -0.2194
  310TMC3    C6 4717   3.560   1.206  16.740 -0.0054 -0.1366 -0.4011
  310TMC3     C 4718   3.437   1.291  17.119 -0.3521  0.1383 -0.3136
  310TMC3     O 4719   3.533   1.325  17.185  0.1595  0.1963 -0.7270
  310TMC3     H 4720   3.281   1.294  16.903 -0.3885 -1.4485  0.7293
  310TMC3    H1 4721   3.664   1.191  17.056  1.1502  0.7444 -1.0603
  310TMC3    H2 4722   3.608   1.196  16.644 -1.0784  1.6862 -1.1419
  310TMC3    C7 4723   3.781   1.133  16.842  0.5527  1.5223  0.2322
  310TMC3    C8 4724   3.353   1.290  16.651 -0.4296  0.7509 -0.3081
  310TMC3    O1 4725   3.844   1.133  16.943  0.6313 -0.0548  0.1786
  310TMC3    O2 4726   3.423   1.316  16.556  0.4028  0.0852  0.1298
  311MPD2     C 4727   0.993   2.286  12.573 -0.3636 -0.3639  0.2321
  311MPD2    C1 4728   0.998   2.388  12.661  0.8484 -0.1906 -0.1197
  311MPD2    C2 4729   0.890   2.409  12.740  0.2494 -0.0278 -0.3149
  311MPD2    C3 4730   0.784   2.319  12.738 -0.2892 -0.5759 -0.2095
  311MPD2    C4 4731   0.782   2.218  12.647 -0.6616  0.3829 -0.1502
  311MPD2    C5 4732   0.883   2.206  12.561 -0.5485 -0.7973 -0.9202
  311MPD2     H 4733   0.887   2.497  12.803  2.1625 -0.2925  0.1272
  311MPD2    H1 4734   0.701   2.146  12.644  0.4451 -0.9223  1.2098
  311MPD2    H2 4735   1.059   2.276  12.488  0.1451  0.5018  0.5323
  311MPD2    H3 4736   0.876   2.119  12.496  0.5731 -0.3103 -1.6921
  311MPD2     N 4737   0.689   2.344  12.838 -0.3703 -0.5069 -0.7154
  311MPD2    H5 4738   0.704   2.427  12.895  0.0945  0.0271 -1.6136
  311MPD2    N1 4739   1.102   2.482  12.657 -1.1092  0.0770 -0.4486
  311MPD2    H7 4740   1.090   2.569  12.707  0.4957  1.6391 -2.7760
  312TMC3    C1 4741   0.499   2.327  12.967 -0.0548  0.3527  0.0272
  312TMC3    C2 4742   0.371   2.355  12.919 -0.4392  0.1184  0.6686
  312TMC3    C3 4743   0.273   2.349  13.017 -0.1503 -0.4390 -0.1062
  312TMC3    C4 4744   0.531   2.319  13.096  0.0091 -0.0657  0.2946
  312TMC3    C5 4745   0.437   2.308  13.191 -0.3117 -0.0549  0.1643
  312TMC3    C6 4746   0.304   2.321  13.153 -0.1129 -0.0458 -0.5830
  312TMC3     C 4747   0.588   2.267  12.876 -1.2511  0.5201  0.5863
  312TMC3     O 4748   0.554   2.162  12.826 -0.2306  0.6141  0.2333
  312TMC3     H 4749   0.345   2.348  12.814 -2.0067 -0.7124  1.1090
  312TMC3    H1 4750   0.634   2.293  13.120  0.1487 -0.0476 -0.2828
  312TMC3    H2 4751   0.227   2.293  13.224 -0.8911  0.6033 -1.1609
  312TMC3    C7 4752   0.475   2.303  13.333  0.5390 -0.2515  0.3176
  312TMC3    C8 4753   0.135   2.337  12.971  0.3714 -0.5065  0.3762
  312TMC3    O1 4754   0.581   2.249  13.354  0.4421  0.1842  0.2225
  312TMC3    O2 4755   0.059   2.286  13.053 -1.1453  0.1097  0.0591
  313MPD2     C 4756   4.681   1.439  11.026 -0.5902  0.6479 -0.1217
  313MPD2    C1 4757   0.042   1.517  10.958 -0.2147 -0.1782  0.1402
  313MPD2    C2 4758   0.139   1.456  10.886  0.5169 -0.1435  0.3653
  313MPD2    C3 4759   0.132   1.322  10.857 -0.1711  0.4713  0.4529
  313MPD2    C4 4760   0.028   1.248  10.910 -0.2348 -0.0185 -0.5921
  313MPD2    C5 4761   4.674   1.301  10.997 -0.2196  0.5595  0.5436
  313MPD2     H 4762   0.214   1.524  10.846 -1.7290  1.9291 -0.3257
  313MPD2    H1 4763   0.015   1.142  10.890 -2.5394  0.3324 -0.9635
  313MPD2    H2 4764   4.606   1.475  11.095 -0.7298 -0.6960  0.4255
  313MPD2    H3 4765   4.591   1.243  11.036  0.4296 -0.3196  0.6186
  313MPD2     N 4766   0.212   1.256  10.768 -0.1591  0.1891  0.0199
  313MPD2    H5 4767   0.188   1.160  10.745  1.1640  0.3276 -1.9282
  313MPD2    N1 4768   0.043   1.655  10.976  0.7169  0.1086 -0.6687
  313MPD2    H7 4769   0.112   1.698  10.915 -0.5878  0.7515 -1.7000
  314TMC3    C1 4770   0.006   1.876  11.042 -0.2347  0.3438 -0.2128
  314TMC3    C2 4771   0.113   1.939  11.107 -0.2653  0.4515 -0.3303
  314TMC3    C3 4772   0.164   2.049  11.050  0.1860 -0.3825 -0.3111
  314TMC3    C4 4773   4.688   1.910  10.921  1.1860  0.0254  0.0148
  314TMC3    C5 4774   0.021   2.015  10.863  0.0124  0.9757  0.3877
  314TMC3    C6 4775   0.122   2.087  10.923  0.5713  0.5921 -0.4436
  314TMC3     C 4776   4.708   1.742  11.068 -0.1532  0.1174  0.1521
  314TMC3     O 4777   4.604   1.714  11.126 -0.4058  0.8490  0.6081
  314TMC3     H 4778   0.152   1.903  11.202 -2.3524  0.4921  0.5484
  314TMC3    H1 4779   4.605   1.859  10.873  0.7784  1.4761 -0.8218
  314TMC3    H2 4780   0.181   2.167  10.880  2.2325 -0.7135 -0.6034
  314TMC3    C7 4781   4.724   2.050  10.726 -0.4340 -0.7466  0.2870
  314TMC3    C8 4782   0.279   2.109  11.115  0.4934  0.6650 -0.6684
  314TMC3    O1 4783   4.606   2.032  10.690 -0.3923  0.2901  0.5178
  314TMC3    O2 4784   0.376   2.135  11.048 -0.2673 -0.7292  0.6732
  315MPD2     C 4785   4.687   2.071  17.697 -0.6049  0.2368  0.1287
  315MPD2    C1 4786   0.080   2.028  17.722  0.1470  0.4119 -0.1909
  315MPD2    C2 4787   0.179   2.057  17.629 -0.2188 -0.2554  0.2337
  315MPD2    C3 4788   0.153   2.117  17.509 -0.0615  0.1787  0.7614
  315MPD2    C4 4789   0.024   2.158  17.479  0.0454  0.0701  0.6480
  315MPD2    C5 4790   4.662   2.125  17.570  0.1469 -0.2359  0.2475
  315MPD2     H 4791   0.281   2.036  17.659  0.7189  2.8908 -0.7703
  315MPD2    H1 4792   4.722   2.196  17.385 -2.8079 -2.3993  0.8369
  315MPD2    H2 4793   4.604   2.056   0.019 -0.8922  0.3016 -0.2138
  315MPD2    H3 4794   4.564   2.161  17.541 -0.4316 -0.1157  2.3667
  315MPD2     N 4795   0.261   2.142  17.428 -0.5777  0.0409  0.5310
  315MPD2    H5 4796   0.347   2.122  17.478 -0.3200 -0.8754 -0.2930
  315MPD2    N1 4797   0.119   1.948   0.089 -0.1230 -0.6979 -0.1255
  315MPD2    H7 4798   0.216   1.919   0.099  0.1167  0.7373  1.7685
  316TMC3    C1 4799   0.381   2.215  17.236 -0.4575 -0.4147 -0.2970
  316TMC3    C2 4800   0.475   2.245  17.325 -0.3562  0.1941 -0.3767
  316TMC3    C3 4801   0.592   2.171  17.316  0.5322  0.0924 -0.2287
  316TMC3    C4 4802   0.399   2.133  17.123  0.0653  1.1625 -0.1344
  316TMC3    C5 4803   0.524   2.066  17.109 -0.4537  0.3543 -0.1811
  316TMC3    C6 4804   0.618   2.087  17.207 -0.1140 -0.3893 -0.2917
  316TMC3     C 4805   0.253   2.195  17.300  0.2419  0.4889  0.4648
  316TMC3     O 4806   0.157   2.183  17.229  0.2815 -0.1670 -0.4503
  316TMC3     H 4807   0.452   2.317  17.403  0.0544  0.9020 -0.9129
  316TMC3    H1 4808   0.312   2.117  17.060 -0.4089 -0.5855  0.9516
  316TMC3    H2 4809   0.713   2.036  17.202 -1.3776 -2.5973 -1.3235
  316TMC3    C7 4810   0.555   1.954  17.019  0.6751 -0.8569 -0.5272
  316TMC3    C8 4811   0.657   2.148  17.447  0.0025 -0.2844  0.7177
  316TMC3    O1 4812   0.674   1.938  16.987  0.1908 -0.5811 -0.3559
  316TMC3    O2 4813   0.673   2.239  17.526  0.0195  0.3291  0.0326
  317MPD2     C 4814   2.338   4.220  12.729 -0.2338  0.2774 -0.2663
  317MPD2    C1 4815   2.416   4.109  12.735  0.4849 -0.2327 -1.3373
  317MPD2    C2 4816   2.434   4.050  12.857 -0.5605  0.2120 -0.7135
  317MPD2    C3 4817   2.366   4.096  12.972  0.4816 -0.4105 -0.2636
  317MPD2    C4 4818   2.297   4.213  12.961 -0.0759  0.0442 -0.2323
  317MPD2    C5 4819   2.284   4.273  12.845 -0.9594  0.1667 -0.5495
  317MPD2     H 4820   2.487   3.955  12.861 -0.6538  0.3068  2.0769
  317MPD2    H1 4821   2.260   4.259  13.051  0.9618  1.7189 -0.6600
  317MPD2    H2 4822   2.343   4.279  12.639 -0.7946  1.1432  0.2700
  317MPD2    H3 4823   2.230   4.366  12.834  1.8852  1.8512 -0.2879
  317MPD2     N 4824   2.373   4.028  13.096 -0.3377 -0.0192 -0.0347
  317MPD2    H5 4825   2.417   3.937  13.091  0.6206  0.1363  5.5192
  317MPD2    N1 4826   2.494   4.057  12.624  0.4463 -0.4976  0.7124
  317MPD2    H7 4827   2.553   3.977  12.642 -1.8976 -2.3704  0.0008
  318TMC3    C1 4828   2.420   3.987  13.321  0.3950  0.2047 -0.6101
  318TMC3    C2 4829   2.365   3.863  13.313 -0.0332  0.9474 -0.8228
  318TMC3    C3 4830   2.404   3.770  13.408  0.4480 -0.8002  0.1748
  318TMC3    C4 4831   2.510   4.015  13.417 -0.1722  0.5317  0.1584
  318TMC3    C5 4832   2.556   3.916  13.498  1.0033  0.1728 -0.1512
  318TMC3    C6 4833   2.509   3.795  13.488 -0.7593 -0.5532 -0.0607
  318TMC3     C 4834   2.372   4.086  13.228  0.1051 -0.1719  0.2005
  318TMC3     O 4835   2.376   4.203  13.261  0.0074  0.2120  0.2132
  318TMC3     H 4836   2.295   3.832  13.237  0.3888  0.8853 -1.1903
  318TMC3    H1 4837   2.537   4.116  13.444 -0.6035  0.6112  0.2885
  318TMC3    H2 4838   2.528   3.719  13.563  0.0425 -0.5947 -0.3057
  318TMC3    C7 4839   2.631   3.939  13.616  0.0915  0.1090 -0.4080
  318TMC3    C8 4840   2.320   3.651  13.425  1.0981 -0.6239  0.0712
  318TMC3    O1 4841   2.609   4.035  13.687  0.2416  0.4569  0.0400
  318TMC3    O2 4842   2.366   3.562  13.494 -0.1395 -0.1056 -0.0948
  319MPD2     C 4843   3.286   0.775  16.650 -1.3850  0.2903  0.3714
  319MPD2    C1 4844   3.179   0.776  16.729 -0.3172  0.7778  0.4656
  319MPD2    C2 4845   3.052   0.742  16.682  1.3435 -0.1531 -0.2610
  319MPD2    C3 4846   3.034   0.700  16.552  0.5054  0.4522 -0.1359
  319MPD2    C4 4847   3.149   0.701  16.468  0.0984  0.8403  0.5604
  319MPD2    C5 4848   3.268   0.733  16.517 -0.0860  0.0353  0.1334
  319MPD2     H 4849   2.961   0.753  16.740  0.0730 -3.4185 -1.6191
  319MPD2    H1 4850   3.145   0.666  16.366  0.6491  1.5129  0.3113
  319MPD2    H2 4851   3.387   0.793  16.685 -0.2943 -3.8131 -0.6134
  319MPD2    H3 4852   3.361   0.729  16.463 -0.3778  1.9638 -0.5259
  319MPD2     N 4853   2.909   0.660  16.495 -0.0470  0.4455  0.2856
  319MPD2    H5 4854   2.915   0.644  16.395  1.3135 -1.0421  0.6058
  319MPD2    N1 4855   3.189   0.792  16.872  0.2582  0.4121  0.8674
  319MPD2    H7 4856   3.105   0.771  16.925  2.1474  1.5384  4.2412
  320TMC3    C1 4857   2.669   0.609  16.487  0.3808  0.9270 -0.0708
  320TMC3    C2 4858   2.666   0.634  16.353  0.4245 -0.5591 -0.8204
  320TMC3    C3 4859   2.564   0.581  16.280 -0.4896 -0.1395  0.2590
  320TMC3    C4 4860   2.577   0.542  16.562  0.1510  0.0149  0.2965
  320TMC3    C5 4861   2.476   0.494  16.489  0.6246  0.0722 -0.2358
  320TMC3    C6 4862   2.468   0.515  16.350 -0.5299 -0.4785 -0.3168
  320TMC3     C 4863   2.791   0.639  16.568  0.1332 -0.6291 -0.1855
  320TMC3     O 4864   2.783   0.634  16.689  0.3925 -0.0986 -0.2140
  320TMC3     H 4865   2.739   0.702  16.312 -0.1545  0.7784  0.3885
  320TMC3    H1 4866   2.594   0.518  16.666  2.0330  1.9260  0.4070
  320TMC3    H2 4867   2.386   0.465  16.301 -0.5016 -0.5741 -0.2663
  320TMC3    C7 4868   2.423   0.368  16.530  0.0199  0.1907 -0.4070
  320TMC3    C8 4869   2.550   0.619  16.142 -0.0802  0.3337  0.3500
  320TMC3    O1 4870   2.405   0.284  16.439 -0.1659  0.0242 -0.3616
  320TMC3    O2 4871   2.624   0.702  16.096  0.0036  0.1678 -0.8173
  321TMC3    C1 4872   3.265   0.833  17.085 -0.5823  0.5521 -0.9503
  321TMC3    C2 4873   3.149   0.761  17.127  0.3780 -0.7493  0.2360
  321TMC3    C3 4874   3.089   0.796  17.245 -0.4108 -1.0835 -0.1506
  321TMC3    C4 4875   3.313   0.943  17.149 -0.0613  0.3527 -0.3334
  321TMC3    C5 4876   3.245   0.980  17.265 -1.0504  0.3762  0.2302
  321TMC3    C6 4877   3.132   0.907  17.306 -0.5189 -0.6715 -0.0108
  321TMC3     C 4878   3.293   0.843  16.942  0.3522  0.8113  0.6328
  321TMC3     O 4879   3.398   0.893  16.903 -0.2395 -0.1361 -0.2459
  321TMC3     H 4880   3.129   0.667  17.076  0.4243 -1.0511  0.7740
  321TMC3    H1 4881   3.400   0.994  17.109  0.6593  1.5965  2.8223
  321TMC3    H2 4882   3.073   0.954  17.383 -1.6059 -0.2183 -1.1247
  321TMC3    C7 4883   3.321   1.002  17.383  0.4087 -0.7632 -0.3115
  321TMC3    C8 4884   3.082   0.684  17.332 -0.4525 -0.5088 -0.7557
  321TMC3    O1 4885   3.265   0.977  17.488 -0.6008 -0.2713 -0.1402
  321TMC3    O2 4886   3.041   0.580  17.289 -0.3626  0.1632  0.4387
  322MPD2     C 4887   1.921   1.864  13.581 -0.6696  0.2252 -0.5354
  322MPD2    C1 4888   1.965   1.794  13.694  0.2838 -0.0437 -0.2978
  322MPD2    C2 4889   1.992   1.658  13.693  0.0939  0.3774  0.6408
  322MPD2    C3 4890   1.982   1.588  13.577  0.2476  0.1735 -0.6781
  322MPD2    C4 4891   1.935   1.656  13.465  0.0561  0.4605  0.7326
  322MPD2    C5 4892   1.896   1.790  13.468 -0.1382  0.4574 -0.0781
  322MPD2     H 4893   2.028   1.610  13.783 -1.1375 -1.7167  0.0114
  322MPD2    H1 4894   1.933   1.605  13.369  2.5503  0.8126  0.4808
  322MPD2    H2 4895   1.902   1.971  13.579  0.1140  0.4116  2.4139
  322MPD2    H3 4896   1.852   1.829  13.377  1.0441  0.6857 -0.5565
  322MPD2     N 4897   2.038   1.457  13.579  0.1537 -0.0355 -0.9840
  322MPD2    H5 4898   2.056   1.408  13.667 -1.0814 -0.9415 -1.2367
  322MPD2    N1 4899   1.980   1.872  13.804  0.1388 -0.2858  0.2556
  322MPD2    H7 4900   1.964   1.972  13.794 -0.7005 -0.4291  0.1395
  323TMC3    C1 4901   2.075   1.935  14.017  0.2193 -0.5379  0.2462
  323TMC3    C2 4902   2.144   2.044  13.973 -1.1693 -0.5987 -0.1728
  323TMC3    C3 4903   2.243   2.093  14.055  0.5416  0.6766  0.2911
  323TMC3    C4 4904   2.094   1.880  14.144  0.7001 -0.7790 -0.1381
  323TMC3    C5 4905   2.177   1.948  14.231 -0.4402  0.9682 -0.6629
  323TMC3    C6 4906   2.262   2.051  14.182 -0.8329 -0.2970 -0.5192
  323TMC3     C 4907   2.032   1.827  13.923 -0.3011 -1.0571  0.0810
  323TMC3     O 4908   2.025   1.711  13.967  0.4466 -0.3616 -0.2193
  323TMC3     H 4909   2.132   2.078  13.871 -2.3115  0.7169  0.4054
  323TMC3    H1 4910   2.029   1.798  14.173 -0.7391  0.2796 -0.3712
  323TMC3    H2 4911   2.335   2.095  14.248  2.1644  0.8551 -4.6020
  323TMC3    C7 4912   2.226   1.861  14.339  0.9282  0.2114  0.2344
  323TMC3    C8 4913   2.360   2.149  13.990  0.3396  0.5826  0.3722
  323TMC3    O1 4914   2.209   1.740  14.322  0.5328  0.4567 -0.3650
  323TMC3    O2 4915   2.464   2.126  14.049 -0.9922  0.2031 -0.4547
  324MPD2     C 4916   3.944   2.923  14.759  0.5130  0.6719 -0.0563
  324MPD2    C1 4917   3.935   3.062  14.749 -0.0388 -0.0797 -0.4358
  324MPD2    C2 4918   3.830   3.114  14.672 -0.0599 -0.0681  0.3211
  324MPD2    C3 4919   3.729   3.032  14.631 -0.0337 -0.2056 -0.3724
  324MPD2    C4 4920   3.754   2.896  14.632  0.0579 -0.5953 -0.1930
  324MPD2    C5 4921   3.857   2.842  14.700  0.1779  0.3309 -0.2381
  324MPD2     H 4922   3.816   3.220  14.658 -1.0709 -0.4152 -1.4160
  324MPD2    H1 4923   3.673   2.828  14.606 -0.3346 -1.1538  2.3999
  324MPD2    H2 4924   4.018   2.877  14.824  2.6871 -0.2270 -3.1673
  324MPD2    H3 4925   3.869   2.736  14.721 -0.7084 -0.2925 -2.8669
  324MPD2     N 4926   3.605   3.075  14.571 -0.1777  0.3195  0.4996
  324MPD2    H5 4927   3.528   3.009  14.571  0.8578 -0.8979  0.6201
  324MPD2    N1 4928   4.025   3.159  14.804 -0.3626 -0.4031  0.3355
  324MPD2    H7 4929   3.998   3.256  14.788 -1.8618 -0.5150  2.2130
  325TMC3    C1 4930   3.426   3.227  14.528 -0.0101 -0.0053  0.2546
  325TMC3    C2 4931   3.339   3.135  14.480  0.5854  0.2230  0.3789
  325TMC3    C3 4932   3.205   3.163  14.483 -0.1444  0.2180 -0.0922
  325TMC3    C4 4933   3.381   3.343  14.588  0.7042 -0.2052  0.4936
  325TMC3    C5 4934   3.247   3.366  14.584  0.1688 -0.1438 -0.1594
  325TMC3    C6 4935   3.157   3.273  14.548  0.7211 -0.1932  0.0994
  325TMC3     C 4936   3.569   3.209  14.545  0.5812  0.5418 -0.4210
  325TMC3     O 4937   3.637   3.309  14.553  0.0817 -0.0678  0.2014
  325TMC3     H 4938   3.362   3.036  14.444  1.7941  0.2033  1.2160
  325TMC3    H1 4939   3.451   3.422  14.610 -0.8597  1.5253 -0.6969
  325TMC3    H2 4940   3.053   3.296  14.567  0.5992  0.1368 -0.9906
  325TMC3    C7 4941   3.213   3.468  14.684  0.3779 -0.2993 -0.5217
  325TMC3    C8 4942   3.116   3.062  14.418  0.5510 -0.3857 -0.0109
  325TMC3    O1 4943   3.304   3.535  14.737 -0.2430  0.2048 -0.2240
  325TMC3    O2 4944   3.160   2.951  14.394  0.0437 -0.0283  0.3030
  326MPD2     C 4945   0.132   4.101  11.130 -0.0450 -0.0409 -0.1677
  326MPD2    C1 4946   0.209   4.145  11.030 -0.8893 -0.2996 -0.0056
  326MPD2    C2 4947   0.320   4.217  11.062  0.3239 -0.5323  0.1030
  326MPD2    C3 4948   0.362   4.240  11.189  0.9545 -0.0819  0.0173
  326MPD2    C4 4949   0.280   4.194  11.293  0.6622  1.0210  0.0512
  326MPD2    C5 4950   0.169   4.125  11.255  0.2485  0.3057 -0.0121
  326MPD2     H 4951   0.379   4.251  10.977 -0.0837 -1.7254 -0.6568
  326MPD2    H1 4952   0.309   4.216  11.395 -0.2133  0.2307  0.4688
  326MPD2    H2 4953   0.041   4.044  11.123  0.0621  0.0120 -1.9694
  326MPD2    H3 4954   0.110   4.092  11.340  0.0348  0.1558 -0.2229
  326MPD2     N 4955   0.475   4.307  11.216  0.2097  0.7869  0.2100
  326MPD2    H5 4956   0.488   4.352  11.306 -0.1925  0.1783  0.5757
  326MPD2    N1 4957   0.179   4.134  10.893 -0.1184  0.2515 -0.2533
  326MPD2    H7 4958   0.241   4.187  10.833  0.9997  1.2415  1.7765
  327TMC3    C1 4959   0.093   4.040  10.696  0.0683  0.5606 -0.5859
  327TMC3    C2 4960   4.725   4.071  10.618  0.7289  0.0027 -0.0706
  327TMC3    C3 4961   0.014   4.118  10.490  0.3913 -0.4742 -0.4149
  327TMC3    C4 4962   0.215   4.041  10.645 -0.3034 -0.0008  0.8205
  327TMC3    C5 4963   0.241   4.087  10.518 -0.7563 -0.6728 -0.4028
  327TMC3    C6 4964   0.138   4.122  10.434  0.1649 -0.2026  0.5662
  327TMC3     C 4965   0.071   4.073  10.833  0.0168 -0.2736  0.4388
  327TMC3     O 4966   4.707   4.033  10.885 -0.1499  0.5114  0.2768
  327TMC3     H 4967   4.636   4.107  10.668 -0.3849 -1.1496 -1.2480
  327TMC3    H1 4968   0.295   4.014  10.713  0.5332 -0.9499 -0.5344
  327TMC3    H2 4969   0.157   4.152  10.332  1.5771  1.5751  1.3553
  327TMC3    C7 4970   0.362   4.170  10.496 -0.3977  0.2677  0.1712
  327TMC3    C8 4971   4.674   4.230  10.439  0.4059 -0.0353  0.2501
  327TMC3    O1 4972   0.364   4.236  10.395 -0.1350 -0.1393  0.3111
  327TMC3    O2 4973   4.707   4.277  10.329  0.0209  0.0848  0.2377
  328MPD2     C 4974   2.549   4.176  17.343 -0.7161  0.8382  0.2287
  328MPD2    C1 4975   2.458   4.078  17.357 -0.1633 -0.4687  0.4595
  328MPD2    C2 4976   2.345   4.068  17.274 -0.3583 -0.2039  0.6442
  328MPD2    C3 4977   2.332   4.155  17.167  0.0338  0.1057  0.2411
  328MPD2    C4 4978   2.424   4.255  17.159  0.0556 -0.2240 -0.6645
  328MPD2    C5 4979   2.529   4.267  17.246 -0.2417  0.4712  0.1452
  328MPD2     H 4980   2.272   3.989  17.286  0.0713 -0.8380 -1.0128
  328MPD2    H1 4981   2.414   4.328  17.079 -0.8262 -0.3592 -0.6774
  328MPD2    H2 4982   2.636   4.191  17.406  0.4079 -2.5043 -0.5042
  328MPD2    H3 4983   2.594   4.354  17.246 -1.5640  1.4570  2.1629
  328MPD2     N 4984   2.221   4.157  17.073 -0.0475  0.3042 -0.0353
  328MPD2    H5 4985   2.213   4.229  17.001  0.4841  1.4970  1.0920
  328MPD2    N1 4986   2.470   4.003  17.477  0.2463  0.0481  0.1385
  328MPD2    H7 4987   2.548   4.022  17.539 -1.8648  0.5372  2.6388
  329TMC3    C1 4988   2.388   3.873  17.660 -0.4006  0.2629 -0.5570
  329TMC3    C2 4989   2.476   3.950  17.738  0.2265 -0.0763  0.5986
  329TMC3    C3 4990   2.441   3.975   0.121  0.0962 -0.1683 -0.7345
  329TMC3    C4 4991   2.275   3.822  17.720  0.9772  0.0254 -0.5322
  329TMC3    C5 4992   2.226   3.873   0.088 -0.4455 -0.2154  0.8006
  329TMC3    C6 4993   2.313   3.940   0.164  0.1325 -0.2461 -0.4350
  329TMC3     C 4994   2.373   3.913  17.522  0.5016 -1.0442 -0.6672
  329TMC3     O 4995   2.269   3.873  17.467  0.5322 -0.3263 -0.7117
  329TMC3     H 4996   2.573   3.982  17.702  1.6852 -1.8093  3.0158
  329TMC3    H1 4997   2.200   3.769  17.663  0.8231  0.4156 -0.6918
  329TMC3    H2 4998   2.277   3.976   0.260  0.3297  0.1253 -0.5005
  329TMC3    C7 4999   2.106   3.806   0.150 -0.2615 -0.8828  1.0115
  329TMC3    C8 5000   2.498   4.100   0.164 -0.2244 -0.0308 -0.1111
  329TMC3    O1 5001   2.040   3.746   0.068 -0.7903 -0.1882  0.3014
  329TMC3    O2 5002   2.618   4.124   0.185 -0.4228 -0.1893 -0.2226
  330TMC3    C1 5003   0.271   3.381   9.465  0.3069  0.2051 -0.2676
  330TMC3    C2 5004   0.212   3.312   9.370  0.6916  0.4120  0.0714
  330TMC3    C3 5005   0.272   3.197   9.329 -0.3169 -0.6351 -0.0185
  330TMC3    C4 5006   0.396   3.347   9.517  0.2750 -1.1183  0.7056
  330TMC3    C5 5007   0.459   3.236   9.464  0.6513 -0.1382 -0.9275
  330TMC3    C6 5008   0.399   3.164   9.368 -0.5161 -0.5790  0.5076
  330TMC3     C 5009   0.222   3.514   9.501 -0.6199 -0.7629 -0.5803
  330TMC3     O 5010   0.290   3.573   9.582  0.1151 -0.3785 -0.9831
  330TMC3     H 5011   0.118   3.337   9.321 -0.8638 -2.7419  1.4090
  330TMC3    H1 5012   0.450   3.411   9.586  1.4176 -0.1315 -1.0631
  330TMC3    H2 5013   0.443   3.077   9.321 -1.2090 -1.0924  0.8016
  330TMC3    C7 5014   0.606   3.227   9.474 -0.4631  0.3229  0.2730
  330TMC3    C8 5015   0.207   3.114   9.223  0.2736 -0.1567 -0.4410
  330TMC3    O1 5016   0.656   3.176   9.375  0.2794  0.0709  0.9801
  330TMC3    O2 5017   0.138   3.162   9.136  0.7786 -0.0420  0.2677
  331MPD2     C 5018   3.458   2.402  13.102 -0.5369 -0.2442 -0.0564
  331MPD2    C1 5019   3.457   2.466  12.980 -0.0401 -0.2605 -0.1285
  331MPD2    C2 5020   3.374   2.414  12.883  0.4963 -0.3356  0.1600
  331MPD2    C3 5021   3.297   2.297  12.907  0.3866  0.5058 -0.0282
  331MPD2    C4 5022   3.301   2.229  13.027 -0.3320  0.3079 -0.5815
  331MPD2    C5 5023   3.380   2.293  13.121 -0.4269  0.9337 -0.0234
  331MPD2     H 5024   3.372   2.472  12.791 -0.7442 -1.2315 -0.3700
  331MPD2    H1 5025   3.252   2.134  13.043  0.4406 -0.1985 -1.2122
  331MPD2    H2 5026   3.515   2.438  13.187 -0.8899  0.0923  0.0347
  331MPD2    H3 5027   3.382   2.264  13.226 -0.9926 -1.2873 -0.6219
  331MPD2     N 5028   3.231   2.238  12.795 -0.0560  0.0044 -0.4624
  331MPD2    H5 5029   3.229   2.300  12.715 -0.5164  1.2846  0.5486
  331MPD2    N1 5030   3.529   2.585  12.962 -0.0066  0.3074 -0.1895
  331MPD2    H7 5031   3.554   2.638  13.045 -0.7921 -0.4403  0.5341
  332TMC3    C1 5032   3.134   2.090  12.653 -0.5457 -0.4942 -0.1944
  332TMC3    C2 5033   3.075   2.192  12.589 -0.2127  0.3694 -0.0447
  332TMC3    C3 5034   3.070   2.174  12.451  0.2418 -0.0297  0.8537
  332TMC3    C4 5035   3.203   1.980  12.601 -0.3913 -0.2119 -0.7179
  332TMC3    C5 5036   3.211   1.983  12.469 -0.2110  0.0659  0.1331
  332TMC3    C6 5037   3.139   2.073  12.386 -0.1436  0.3579 -0.3110
  332TMC3     C 5038   3.166   2.116  12.792 -0.2582  0.1917 -0.7999
  332TMC3     O 5039   3.178   2.021  12.867  0.0458  0.3649  0.0243
  332TMC3     H 5040   3.025   2.274  12.639 -1.4657 -0.0723 -0.5957
  332TMC3    H1 5041   3.256   1.900  12.653  0.3751  0.1503 -0.9307
  332TMC3    H2 5042   3.163   2.078  12.280 -0.5949 -1.7754 -0.5159
  332TMC3    C7 5043   3.309   1.901  12.400 -0.2879  0.3171 -0.3323
  332TMC3    C8 5044   3.038   2.295  12.373  0.8004  0.1628 -0.9276
  332TMC3    O1 5045   3.259   1.820  12.321 -0.4241  0.4646  0.3653
  332TMC3    O2 5046   3.093   2.306  12.261  0.6172 -0.7290  0.0467
  333MPD2     C 5047   3.482   3.105  11.226 -0.0578 -0.3525 -0.3465
  333MPD2    C1 5048   3.475   3.041  11.104  0.2484 -0.1921 -0.0566
  333MPD2    C2 5049   3.450   2.901  11.101 -0.3852  0.3052 -1.0977
  333MPD2    C3 5050   3.434   2.829  11.223  0.4550  0.5875 -0.0073
  333MPD2    C4 5051   3.447   2.901  11.341 -0.1259 -0.3951  0.3869
  333MPD2    C5 5052   3.469   3.032  11.338  0.2328 -0.4508  0.9221
  333MPD2     H 5053   3.438   2.844  11.009  0.6333 -0.9656 -0.4412
  333MPD2    H1 5054   3.436   2.850  11.435 -2.4178  1.5224  1.1683
  333MPD2    H2 5055   3.506   3.210  11.232 -0.4288 -0.3770  1.4090
  333MPD2    H3 5056   3.469   3.089  11.430  0.5057 -0.2862  0.8213
  333MPD2     N 5057   3.398   2.689  11.211  0.2253  0.0659 -0.4498
  333MPD2    H5 5058   3.394   2.660  11.114  0.7869  0.2676 -0.5353
  333MPD2    N1 5059   3.518   3.102  10.988 -0.4262 -0.2972 -0.2666
  333MPD2    H7 5060   3.560   3.191  11.012 -0.3000 -0.1620 -0.9772
  334TMC3    C1 5061   3.615   3.113  10.774 -0.0945  0.2575  0.3020
  334TMC3    C2 5062   3.661   3.024  10.675  1.0389  0.1177  0.5501
  334TMC3    C3 5063   3.790   3.050  10.622 -0.5403  0.8167  0.6249
  334TMC3    C4 5064   3.688   3.221  10.819 -0.2522  0.9386 -0.1942
  334TMC3    C5 5065   3.814   3.251  10.763  0.0409 -0.4429 -0.1188
  334TMC3    C6 5066   3.865   3.162  10.666 -0.1693  0.1770  0.3626
  334TMC3     C 5067   3.524   3.046  10.864 -0.2491  0.1129 -0.1440
  334TMC3     O 5068   3.461   2.955  10.814 -0.3174  0.1505 -0.2671
  334TMC3     H 5069   3.609   2.934  10.644  1.1182 -0.0466  0.8927
  334TMC3    H1 5070   3.637   3.299  10.875 -0.9188  1.3383 -1.3539
  334TMC3    H2 5071   3.958   3.196  10.622  0.2004 -1.8384 -0.4213
  334TMC3    C7 5072   3.874   3.384  10.776 -0.7516  0.1529 -0.1629
  334TMC3    C8 5073   3.875   2.925  10.606 -0.2820  0.7180 -0.5555
  334TMC3    O1 5074   3.864   3.439  10.885  0.1164 -0.1290  0.1463
  334TMC3    O2 5075   3.812   2.820  10.602 -0.7300  0.3421 -0.2130
  335TMC3    C1 5076   3.181   3.804  17.445 -0.1448 -0.1806  0.1587
  335TMC3    C2 5077   3.142   3.865  17.335  0.6499  0.6093 -0.4755
  335TMC3    C3 5078   3.223   3.865  17.226 -0.0258  0.2829  0.4434
  335TMC3    C4 5079   3.306   3.732  17.454  0.2683 -0.6690 -0.4349
  335TMC3    C5 5080   3.389   3.745  17.346  0.0600  0.1024 -0.3368
  335TMC3    C6 5081   3.346   3.811  17.232 -0.6646 -0.1399 -0.2346
  335TMC3     C 5082   3.088   3.814  17.559  0.3510  0.0609 -0.1431
  335TMC3     O 5083   3.014   3.908  17.560  0.5549 -0.0374 -0.0036
  335TMC3     H 5084   3.057   3.932  17.333 -1.1330 -1.5909  0.7889
  335TMC3    H1 5085   3.343   3.686  17.545 -0.0357 -0.0066  0.0295
  335TMC3    H2 5086   3.407   3.819  17.143  0.0278 -0.2435  0.2333
  335TMC3    C7 5087   3.486   3.635  17.319  0.4527  0.4526  0.2883
  335TMC3    C8 5088   3.153   3.839  17.101 -0.0353 -0.2121 -0.2228
  335TMC3    O1 5089   3.568   3.664  17.227 -0.4423 -0.1731 -1.0903
  335TMC3    O2 5090   3.230   3.846  17.003 -0.0226  0.1258 -0.0987
  336MPD2     C 5091   2.598   1.813  15.979 -0.0547 -0.1562  0.7048
  336MPD2    C1 5092   2.584   1.691  15.920  0.4252 -0.5357 -0.3502
  336MPD2    C2 5093   2.641   1.580  15.975  0.2806  0.5579  0.5411
  336MPD2    C3 5094   2.717   1.592  16.093 -0.3850  0.3266 -0.2450
  336MPD2    C4 5095   2.716   1.711  16.164 -1.1877 -0.4098 -0.6837
  336MPD2    C5 5096   2.675   1.823  16.099 -0.6282  0.2880 -0.2367
  336MPD2     H 5097   2.633   1.485  15.923 -1.2705  2.0100 -1.8582
  336MPD2    H1 5098   2.767   1.737  16.256  0.1911  2.8659 -2.3619
  336MPD2    H2 5099   2.556   1.905  15.940 -0.0682  0.4228  2.0703
  336MPD2    H3 5100   2.683   1.925  16.135  0.9063 -0.8855  2.7642
  336MPD2     N 5101   2.783   1.497  16.162  0.3005 -0.7766  0.0867
  336MPD2    H5 5102   2.788   1.517  16.262  1.3926  3.9384 -0.8889
  336MPD2    N1 5103   2.514   1.693  15.799  0.2996 -0.7297 -0.3721
  336MPD2    H7 5104   2.463   1.779  15.783  1.9950  0.6355  1.5584
  337TMC3    C1 5105   2.403   1.643  15.599  0.1359 -0.0394  0.2468
  337TMC3    C2 5106   2.346   1.556  15.512 -0.1523 -0.4186 -0.5426
  337TMC3    C3 5107   2.314   1.586  15.384 -0.0179 -0.3555  0.2653
  337TMC3    C4 5108   2.409   1.774  15.557 -0.2559  0.1139 -0.4090
  337TMC3    C5 5109   2.364   1.802  15.436  0.2281 -0.3052 -0.2267
  337TMC3    C6 5110   2.324   1.717  15.343  0.9456  0.1466 -0.0920
  337TMC3     C 5111   2.472   1.588  15.717 -0.6250  0.3187  0.2255
  337TMC3     O 5112   2.493   1.472  15.735  0.3998 -0.3936 -0.1091
  337TMC3     H 5113   2.316   1.456  15.540  1.9619 -0.8370  0.2305
  337TMC3    H1 5114   2.458   1.855  15.610 -1.1481  0.3735  0.0157
  337TMC3    H2 5115   2.269   1.751  15.256 -0.6983  0.2731  0.9972
  337TMC3    C7 5116   2.373   1.944  15.390  0.3663  1.2883  0.5230
  337TMC3    C8 5117   2.184   1.524  15.349  0.1098 -0.7384  0.2775
  337TMC3    O1 5118   2.357   1.950  15.270  0.1962 -0.0806 -0.3132
  337TMC3    O2 5119   2.109   1.507  15.445  0.4428 -0.9378 -0.0569
  338MPD2     C 5120   2.339   1.348   1.303 -0.1517 -0.7001 -0.1176
  338MPD2    C1 5121   2.363   1.408   1.177 -0.3013  0.2314  0.1717
  338MPD2    C2 5122   2.269   1.498   1.127  0.0629 -0.3786 -0.1522
  338MPD2    C3 5123   2.149   1.517   1.199  0.5321 -0.0709  0.2952
  338MPD2    C4 5124   2.128   1.454   1.320 -0.1933 -0.0375  0.0166
  338MPD2    C5 5125   2.216   1.363   1.365 -0.1511 -0.3046 -0.5517
  338MPD2     H 5126   2.285   1.547   1.031  0.0518  0.4305  0.2620
  338MPD2    H1 5127   2.040   1.481   1.378  0.7637 -0.5468  1.6866
  338MPD2    H2 5128   2.417   1.288   1.349 -0.1449 -0.5722  0.0372
  338MPD2    H3 5129   2.193   1.308   1.455 -1.7510  0.0505 -0.7368
  338MPD2     N 5130   2.057   1.604   1.141  0.7911  0.4063  0.0409
  338MPD2    H5 5131   2.084   1.640   1.050  1.7984 -0.7049 -0.1086
  338MPD2    N1 5132   2.481   1.389   1.100 -0.0761 -0.0088 -0.1877
  338MPD2    H7 5133   2.494   1.437   1.012 -1.4686  1.3634  0.3530
  339TMC3    C1 5134   1.857   1.692   1.055 -0.2476 -0.0863  0.4024
  339TMC3    C2 5135   1.737   1.649   1.019  0.5881  0.0775  0.0351
  339TMC3    C3 5136   1.692   1.675   0.895 -0.0439  0.4942 -0.1190
  339TMC3    C4 5137   1.931   1.775   0.980 -0.0637  0.0490  0.0936
  339TMC3    C5 5138   1.877   1.810   0.862  0.0130  0.6760  0.4482
  339TMC3    C6 5139   1.765   1.758   0.813 -0.6141 -0.5089  0.2561
  339TMC3     C 5140   1.922   1.616   1.166 -0.3480  0.0635 -0.3170
  339TMC3     O 5141   1.846   1.558   1.244  0.4455 -0.0773 -0.1467
  339TMC3     H 5142   1.684   1.585   1.090 -1.1647  0.7031 -0.6937
  339TMC3    H1 5143   2.018   1.824   1.024  0.4212 -1.3236  0.6745
  339TMC3    H2 5144   1.715   1.802   0.727 -2.3315 -1.6323  0.6798
  339TMC3    C7 5145   1.977   1.819   0.755  0.3172  0.1536  0.3125
  339TMC3    C8 5146   1.654   1.567   0.807 -0.1763 -0.2384  0.5076
  339TMC3    O1 5147   2.082   1.882   0.765 -0.2525 -0.0739  0.2635
  339TMC3    O2 5148   1.687   1.578   0.687 -0.2240  0.3098 -0.4180
  340MPD2     C 5149   3.408   4.457  10.074  0.7207 -0.3994  0.2380
  340MPD2    C1 5150   3.376   4.339  10.142 -0.1448 -0.4347  0.6302
  340MPD2    C2 5151   3.298   4.351  10.261 -0.2650 -0.1233 -0.2413
  340MPD2    C3 5152   3.264   4.481  10.307  0.0489  0.4395  0.1482
  340MPD2    C4 5153   3.310   4.595  10.241  0.0012 -0.9846  0.0831
  340MPD2    C5 5154   3.377   4.581  10.119  0.5970  0.5294  0.0269
  340MPD2     H 5155   3.262   4.263  10.313 -1.4988  0.3131 -0.3653
  340MPD2    H1 5156   3.282   4.695  10.271 -1.4833 -1.5593  0.6169
  340MPD2    H2 5157   3.454   4.457   9.976 -1.2980  2.0021 -0.7227
  340MPD2    H3 5158   3.407   4.667  10.061 -1.1800  0.3440 -1.1654
  340MPD2     N 5159   3.195   4.503  10.425 -0.1578  0.4088 -0.6035
  340MPD2    H5 5160   3.185   4.597  10.462  0.1542 -1.3581  3.8748
  340MPD2    N1 5161   3.434   4.225  10.091 -0.2102  0.0656  0.0791
  340MPD2    H7 5162   3.486   4.240  10.005 -0.7775  2.1011  0.1096
  341TMC3    C1 5163   3.471   3.991  10.072  0.0106 -0.4561 -0.3233
  341TMC3    C2 5164   3.427   3.869  10.114 -0.3071  0.5304 -0.0479
  341TMC3    C3 5165   3.493   3.759  10.068 -0.2037  0.5680 -0.5238
  341TMC3    C4 5166   3.569   4.016   9.987  0.3473  0.1012 -0.0784
  341TMC3    C5 5167   3.644   3.901   9.966 -0.4740 -0.3044 -0.1391
  341TMC3    C6 5168   3.612   3.770   9.998 -0.8358 -0.7460  0.1304
  341TMC3     C 5169   3.385   4.096  10.111 -0.2317  0.6259 -0.2500
  341TMC3     O 5170   3.306   4.073  10.203  0.6473  0.2199 -0.1261
  341TMC3     H 5171   3.341   3.857  10.178 -1.3544 -0.2661 -1.6172
  341TMC3    H1 5172   3.609   4.112   9.959  0.9351  0.2433  1.2690
  341TMC3    H2 5173   3.667   3.684   9.961 -0.7282 -1.2021  1.3276
  341TMC3    C7 5174   3.762   3.918   9.892  0.2566 -0.0114  0.3216
  341TMC3    C8 5175   3.457   3.632  10.128 -0.0046  0.2790  0.5951
  341TMC3    O1 5176   3.855   3.842   9.921  0.0987 -0.0889  0.4409
  341TMC3    O2 5177   3.377   3.644  10.217 -0.1498  0.3247  0.4078
  342MPD2     C 5178   0.974   2.221  17.684 -0.6006 -0.3623  0.0446
  342MPD2    C1 5179   1.100   2.233  17.624 -0.2370 -0.2696 -0.7297
  342MPD2    C2 5180   1.161   2.349  17.623  1.0327  0.1910  0.2081
  342MPD2    C3 5181   1.113   2.459  17.697 -0.0808 -0.6445  0.4605
  342MPD2    C4 5182   1.010   2.434   0.039 -0.6541 -0.3467 -0.1012
  342MPD2    C5 5183   0.932   2.324   0.017 -0.1924 -0.9020 -1.1115
  342MPD2     H 5184   1.252   2.359  17.565  0.7467  0.3813 -0.2065
  342MPD2    H1 5185   0.965   2.518   0.090  1.5369 -0.7686  2.5382
  342MPD2    H2 5186   0.918   2.129  17.670 -1.1415 -0.0177 -0.0321
  342MPD2    H3 5187   0.835   2.323   0.064  0.8752 -1.7420  1.1308
  342MPD2     N 5188   1.180   2.584  17.688 -0.3058 -0.1344 -0.8390
  342MPD2    H5 5189   1.140   2.655   0.003 -1.4109 -2.0814  0.7403
  342MPD2    N1 5190   1.164   2.128  17.560  0.6061  0.0874 -0.7710
  342MPD2    H7 5191   1.256   2.149  17.521  0.9442  1.3235  0.6850
  343TMC3    C1 5192   1.200   1.926  17.435  0.2137 -0.0801  0.1861
  343TMC3    C2 5193   1.281   1.994  17.342 -0.1314  0.0201 -0.0065
  343TMC3    C3 5194   1.323   1.923  17.232  0.1867 -0.6657  0.7645
  343TMC3    C4 5195   1.167   1.801  17.409 -0.0758 -0.5221  0.6912
  343TMC3    C5 5196   1.209   1.737  17.298 -0.1236 -0.5711 -0.4322
  343TMC3    C6 5197   1.292   1.795  17.208  0.5734  0.1966 -0.3135
  343TMC3     C 5198   1.119   2.000  17.535  0.5844  0.1440  0.3962
  343TMC3     O 5199   1.028   1.944  17.593  0.5196  0.6979 -0.6243
  343TMC3     H 5200   1.320   2.091  17.372 -1.8766  1.1309 -1.3490
  343TMC3    H1 5201   1.104   1.751  17.481  0.0245 -0.6674  0.6771
  343TMC3    H2 5202   1.281   1.768  17.104 -1.4528  0.4815 -0.1680
  343TMC3    C7 5203   1.157   1.604  17.269 -0.9252  0.2948  0.7080
  343TMC3    C8 5204   1.426   1.993  17.157  0.2979  0.4732 -0.6357
  343TMC3    O1 5205   1.055   1.579  17.331 -0.1141  0.2548  0.3810
  343TMC3    O2 5206   1.436   2.111  17.163  0.7542  0.1340  0.1525
  344MPD2     C 5207   1.967   1.651  10.177 -0.3048  0.1311 -0.2848
  344MPD2    C1 5208   1.977   1.660  10.314  0.1501 -0.2119  0.2186
  344MPD2    C2 5209   2.070   1.747  10.371  0.2939  0.2835 -1.0588
  344MPD2    C3 5210   2.147   1.835  10.296  0.1058  0.8497 -0.0628
  344MPD2    C4 5211   2.140   1.813  10.159  0.6126 -0.6850  0.6359
  344MPD2    C5 5212   2.054   1.724  10.103  0.1469  0.6261 -0.4797
  344MPD2     H 5213   2.057   1.753  10.479 -0.0244  0.8672 -1.1290
  344MPD2    H1 5214   2.194   1.867  10.082 -1.4825 -1.4736 -1.3831
  344MPD2    H2 5215   1.902   1.586  10.120  0.5713  0.1021 -1.2601
  344MPD2    H3 5216   2.055   1.697   9.998  2.2962 -1.2849  0.0252
  344MPD2     N 5217   2.224   1.943  10.348 -0.1729  0.3805  0.0382
  344MPD2    H5 5218   2.270   2.005  10.283 -0.0220 -0.9494 -1.1213
  344MPD2    N1 5219   1.895   1.591  10.407  0.0514  0.2794 -0.3112
  344MPD2    H7 5220   1.906   1.621  10.504 -2.0805  0.0190  0.0114
  345TMC3    C1 5221   2.265   2.128  10.503  0.0766  0.2374 -0.0508
  345TMC3    C2 5222   2.207   2.185  10.614 -0.2295 -0.3778 -0.5700
  345TMC3    C3 5223   2.202   2.329  10.604 -0.4368  0.8052  0.1774
  345TMC3    C4 5224   2.304   2.199  10.395  0.1407  0.3601  0.2015
  345TMC3    C5 5225   2.299   2.334  10.393  0.2355 -0.9591  0.0819
  345TMC3    C6 5226   2.250   2.406  10.498 -0.3875 -0.3360 -0.3341
  345TMC3     C 5227   2.212   1.987  10.481  0.5848 -0.0809 -0.1372
  345TMC3     O 5228   2.146   1.944  10.573 -0.3667  0.1851 -0.1932
  345TMC3     H 5229   2.145   2.143  10.693  0.1478 -1.4915 -0.8769
  345TMC3    H1 5230   2.332   2.154  10.301  1.7376 -0.0118  0.8638
  345TMC3    H2 5231   2.243   2.515  10.498  0.4093 -0.2794  1.0084
  345TMC3    C7 5232   2.297   2.399  10.260  0.2075  0.9926  0.0973
  345TMC3    C8 5233   2.191   2.403  10.726 -0.0654  0.0496 -0.3688
  345TMC3    O1 5234   2.302   2.326  10.161 -0.6752  0.2652 -0.5770
  345TMC3    O2 5235   2.168   2.522  10.721  0.0530  0.4844 -0.3032
  346MPD2     C 5236   1.812   3.474  14.326 -0.3534 -0.0553  0.1513
  346MPD2    C1 5237   1.944   3.467  14.293  0.5870 -0.2066 -0.1793
  346MPD2    C2 5238   2.043   3.461  14.389 -0.1091 -0.2765 -0.0923
  346MPD2    C3 5239   2.014   3.470  14.526 -0.7612  0.4821 -1.0015
  346MPD2    C4 5240   1.881   3.472  14.562  0.0566 -0.1723 -0.5874
  346MPD2    C5 5241   1.782   3.461  14.462 -0.0980 -0.4967 -0.4606
  346MPD2     H 5242   2.147   3.482  14.367 -0.1235  0.2283  0.3146
  346MPD2    H1 5243   1.848   3.470  14.665 -1.4066  1.2332 -1.0470
  346MPD2    H2 5244   1.733   3.481  14.251  0.4355  1.8902 -0.4745
  346MPD2    H3 5245   1.681   3.453  14.500  0.1223  1.6223  0.5496
  346MPD2     N 5246   2.122   3.478  14.619 -0.4251 -0.1709  0.4249
  346MPD2    H5 5247   2.218   3.478  14.585 -0.6889  0.3175 -0.3126
  346MPD2    N1 5248   1.991   3.469  14.162  0.8090  0.8040  0.1873
  346MPD2    H7 5249   2.092   3.471  14.151  0.6864 -1.1526 -1.2304
  347TMC3    C1 5250   2.234   3.433  14.833  0.1618 -0.2778 -0.1469
  347TMC3    C2 5251   2.349   3.497  14.794  0.3926 -0.6647 -0.3384
  347TMC3    C3 5252   2.454   3.490  14.876  0.3894 -0.6218 -0.1907
  347TMC3    C4 5253   2.227   3.374  14.955 -0.0720 -0.3833  0.1086
  347TMC3    C5 5254   2.338   3.367  15.035 -0.0086  0.0577  0.5268
  347TMC3    C6 5255   2.456   3.420  14.998 -0.4068 -0.3958  0.6888
  347TMC3     C 5256   2.108   3.448  14.758 -0.5193 -0.0209  0.3568
  347TMC3     O 5257   2.014   3.398  14.818  0.0706  0.2232 -0.4172
  347TMC3     H 5258   2.348   3.558  14.704  1.7604 -0.2261 -0.0484
  347TMC3    H1 5259   2.133   3.331  14.988 -0.5130  0.4381 -0.0832
  347TMC3    H2 5260   2.542   3.396  15.060  1.4128  0.1987 -1.5661
  347TMC3    C7 5261   2.326   3.296  15.160  0.3149 -0.1155 -0.1433
  347TMC3    C8 5262   2.578   3.545  14.828  0.3219 -0.2032 -0.3123
  347TMC3    O1 5263   2.252   3.201  15.162  0.2692 -0.3141 -0.0582
  347TMC3    O2 5264   2.591   3.573  14.708 -0.1321  0.3472  0.5513
  348MPD2     C 5265   0.889   3.290  12.239  0.2044 -0.0451  0.0032
  348MPD2    C1 5266   0.893   3.254  12.108  0.0231 -0.5129 -0.7128
  348MPD2    C2 5267   0.869   3.344  12.007 -0.5860  0.6908  1.1265
  348MPD2    C3 5268   0.831   3.473  12.041 -0.0042 -0.0408  0.3892
  348MPD2    C4 5269   0.812   3.508  12.174 -0.8163 -0.8413  0.4311
  348MPD2    C5 5270   0.841   3.412  12.271 -0.5571  0.2381 -0.3488
  348MPD2     H 5271   0.863   3.319  11.902 -0.7598  2.5481  0.6827
  348MPD2    H1 5272   0.794   3.609  12.207  2.2560  0.2637 -1.2555
  348MPD2    H2 5273   0.912   3.226  12.324 -1.7830 -1.5303 -0.5501
  348MPD2    H3 5274   0.830   3.442  12.375  0.9945  1.8279 -0.6488
  348MPD2     N 5275   0.820   3.566  11.938 -0.7499  0.1023  0.1908
  348MPD2    H5 5276   0.850   3.530  11.848 -1.4961 -0.6935  0.2604
  348MPD2    N1 5277   0.927   3.123  12.074  0.5681  0.3775 -0.2564
  348MPD2    H7 5278   0.926   3.104  11.974  0.9510 -0.8290 -0.0306
  349TMC3    C1 5279   0.948   2.882  12.097  0.2467  0.3583 -0.5812
  349TMC3    C2 5280   1.020   2.777  12.149  0.4308  0.2522  0.3383
  349TMC3    C3 5281   1.017   2.661  12.083 -0.2618 -0.1497  0.4159
  349TMC3    C4 5282   0.897   2.877  11.970  0.1216  0.6981 -0.2015
  349TMC3    C5 5283   0.913   2.761  11.904 -0.1291 -0.0100  0.3217
  349TMC3    C6 5284   0.962   2.648  11.961  0.8198 -0.5349  0.3794
  349TMC3     C 5285   0.943   3.015  12.160  0.1811  0.2388 -0.0118
  349TMC3     O 5286   0.964   3.006  12.277  0.7152  0.0183  0.2810
  349TMC3     H 5287   1.069   2.789  12.245  0.1735  0.4629  0.4432
  349TMC3    H1 5288   0.830   2.947  11.922  0.0555  0.0831 -1.0118
  349TMC3    H2 5289   0.946   2.555  11.908  1.7259 -0.5231  0.0786
  349TMC3    C7 5290   0.850   2.748  11.781  0.1374  0.8689  0.2385
  349TMC3    C8 5291   1.091   2.548  12.143  0.1648  0.6546 -0.2161
  349TMC3    O1 5292   0.785   2.647  11.762  0.3724 -0.0823  0.7521
  349TMC3    O2 5293   1.100   2.562  12.263 -0.7573  0.7636  0.3440
  350MPD2     C 5294   0.278   1.639   9.778 -0.4633  0.0227 -0.2910
  350MPD2    C1 5295   0.264   1.506   9.777 -0.5438  0.0689  0.2307
  350MPD2    C2 5296   0.282   1.427   9.896  0.2135 -0.3074  0.1427
  350MPD2    C3 5297   0.309   1.486  10.017  0.3520  0.2214 -0.2728
  350MPD2    C4 5298   0.312   1.624  10.024 -0.1707  0.1486  0.3654
  350MPD2    C5 5299   0.297   1.691   9.904 -0.4049  0.5583 -0.1388
  350MPD2     H 5300   0.277   1.320   9.884  1.9180 -0.3072 -0.5760
  350MPD2    H1 5301   0.318   1.683  10.115 -0.4623 -1.4372  1.4104
  350MPD2    H2 5302   0.259   1.699   9.690 -0.7232 -0.3413 -0.4849
  350MPD2    H3 5303   0.283   1.798   9.915 -2.6512  0.1219  1.3689
  350MPD2     N 5304   0.316   1.403  10.134 -0.3116 -0.3977 -0.1086
  350MPD2    H5 5305   0.298   1.306  10.112  1.5538 -0.8284  0.2592
  350MPD2    N1 5306   0.227   1.433   9.660  0.4052  0.6829 -0.4342
  350MPD2    H7 5307   0.222   1.333   9.679  1.1112  0.8231  0.5215
  351TMC3    C1 5308   0.171   1.377   9.437  0.0304  0.1731 -0.0091
  351TMC3    C2 5309   0.187   1.242   9.472 -0.4096  0.0533 -0.4349
  351TMC3    C3 5310   0.126   1.156   9.387 -0.1445 -0.8808 -0.1795
  351TMC3    C4 5311   0.122   1.420   9.321 -0.2720  0.3453 -0.5323
  351TMC3    C5 5312   0.082   1.326   9.232 -0.0046 -0.2324  0.5418
  351TMC3    C6 5313   0.080   1.193   9.268  0.6711  0.2168  0.0436
  351TMC3     C 5314   0.206   1.477   9.532  0.1110  0.0376  0.1217
  351TMC3     O 5315   0.225   1.589   9.483  0.3947 -0.5094 -0.2042
  351TMC3     H 5316   0.239   1.206   9.560 -2.4998  1.2446  1.2891
  351TMC3    H1 5317   0.098   1.526   9.316  2.5093  0.9526 -0.9677
  351TMC3    H2 5318   0.051   1.114   9.200 -1.4314  0.8283  0.2395
  351TMC3    C7 5319   4.729   1.372   9.129 -1.4378  0.2023 -0.5425
  351TMC3    C8 5320   0.151   1.012   9.404 -0.0676  0.4432 -0.1203
  351TMC3    O1 5321   4.659   1.280   9.089  0.4186 -0.0088  0.1262
  351TMC3    O2 5322   0.172   0.951   9.301 -0.5612  0.0311 -0.8744
  352MPD2     C 5323   2.955   3.454   0.888  0.3695 -0.7524  0.1603
  352MPD2    C1 5324   2.880   3.450   1.007 -0.1304  0.4709 -0.0223
  352MPD2    C2 5325   2.907   3.358   1.102 -0.4725 -0.0427 -0.0566
  352MPD2    C3 5326   3.015   3.271   1.093  0.1448  0.2458 -0.6529
  352MPD2    C4 5327   3.107   3.300   0.994 -0.5483 -0.2840  0.7636
  352MPD2    C5 5328   3.072   3.387   0.896 -0.6836  0.1218  0.6431
  352MPD2     H 5329   2.838   3.349   1.186  0.1633 -0.2500  0.4405
  352MPD2    H1 5330   3.203   3.248   0.998  0.2639  1.2378  0.8827
  352MPD2    H2 5331   2.954   3.535   0.816 -0.1593 -2.7573 -2.0934
  352MPD2    H3 5332   3.131   3.413   0.809  0.0278  0.2255  1.1532
  352MPD2     N 5333   3.049   3.166   1.186 -0.1894  0.6741 -0.0684
  352MPD2    H5 5334   3.134   3.113   1.169 -0.1948  0.7618 -0.3792
  352MPD2    N1 5335   2.759   3.528   1.008 -0.0071  0.0050  0.0370
  352MPD2    H7 5336   2.734   3.573   0.921  2.2170  0.9582 -0.1147
  353TMC3    C1 5337   2.991   2.997   1.349 -0.5646 -0.1047 -0.0754
  353TMC3    C2 5338   3.120   2.947   1.359 -0.1295 -0.1767 -0.1129
  353TMC3    C3 5339   3.139   2.816   1.333  0.5802  0.1426 -0.1033
  353TMC3    C4 5340   2.885   2.909   1.319  0.5758 -0.2001  0.0656
  353TMC3    C5 5341   2.909   2.776   1.290 -0.5541 -0.8502  0.3958
  353TMC3    C6 5342   3.036   2.732   1.304 -0.0448 -0.1588 -0.0783
  353TMC3     C 5343   2.961   3.126   1.291  0.8557  0.7512  0.3653
  353TMC3     O 5344   2.871   3.190   1.343  0.1201 -0.1427  0.2745
  353TMC3     H 5345   3.205   3.011   1.380 -0.3282  0.5458 -1.4715
  353TMC3    H1 5346   2.787   2.946   1.292  1.2539  1.4754 -0.1089
  353TMC3    H2 5347   3.060   2.633   1.268 -1.4075 -0.9019  1.0161
  353TMC3    C7 5348   2.813   2.674   1.253 -0.7962 -0.4913  0.2076
  353TMC3    C8 5349   3.265   2.761   1.363  0.3771 -0.6341  0.3718
  353TMC3    O1 5350   2.857   2.566   1.213 -0.0722 -0.0343 -0.3945
  353TMC3    O2 5351   3.367   2.830   1.351 -0.5242 -0.6483  1.3914
  354TMC3    C1 5352   4.456   4.158  13.492 -0.1456  0.0900 -0.0513
  354TMC3    C2 5353   4.472   4.296  13.494  0.0704  0.1731 -0.3847
  354TMC3    C3 5354   4.472   4.364  13.371 -0.0724  0.1280 -0.2146
  354TMC3    C4 5355   4.455   4.087  13.375 -0.0198 -0.0116 -0.4110
  354TMC3    C5 5356   4.487   4.154  13.263  0.9286 -0.1713  0.2172
  354TMC3    C6 5357   4.475   4.294  13.252 -0.7440  0.4598 -1.0291
  354TMC3     C 5358   4.418   4.084  13.614  0.2735  0.1052 -0.2984
  354TMC3     O 5359   4.352   3.979  13.611 -0.6790  0.3498 -0.3295
  354TMC3     H 5360   4.457   4.343  13.590  0.6660 -0.6310  0.0955
  354TMC3    H1 5361   4.464   3.979  13.386 -0.5110 -0.2633 -2.5905
  354TMC3    H2 5362   4.473   4.340  13.154  0.2334 -0.2670 -1.3899
  354TMC3    C7 5363   4.545   4.071  13.161  0.1295  0.2350 -0.7383
  354TMC3    C8 5364   4.460   4.505  13.369  0.0161  0.6261 -0.5368
  354TMC3    O1 5365   4.502   3.955  13.160 -0.1691  0.6330 -0.3912
  354TMC3    O2 5366   4.416   4.563  13.468  0.5371  0.3446 -0.1058
  355MPD2     C 5367   0.146   0.762  12.149 -0.3136 -0.5523 -1.0818
  355MPD2    C1 5368   0.167   0.662  12.049  0.0381 -0.3594 -0.0533
  355MPD2    C2 5369   0.206   0.537  12.090  0.0244 -0.0117 -0.4450
  355MPD2    C3 5370   0.221   0.507  12.224 -0.2419 -0.1421 -0.5844
  355MPD2    C4 5371   0.187   0.601  12.316 -0.0114 -0.2403 -0.0423
  355MPD2    C5 5372   0.146   0.724  12.283 -0.0253 -0.8233 -0.1437
  355MPD2     H 5373   0.245   0.469  12.015  0.2793  0.6762 -0.9419
  355MPD2    H1 5374   0.175   0.578  12.421 -0.6991  2.0273  0.3825
  355MPD2    H2 5375   0.107   0.858  12.119  0.1255 -0.6828 -2.0613
  355MPD2    H3 5376   0.117   0.792  12.362  2.2553  1.1388 -0.9981
  355MPD2     N 5377   0.302   0.402  12.264 -0.5644  0.1890  0.1850
  355MPD2    H5 5378   0.334   0.412  12.360 -0.9146  1.0619  0.2028
  355MPD2    N1 5379   0.148   0.697  11.911 -0.1407 -0.5759  0.9507
  355MPD2    H7 5380   0.166   0.794  11.886 -1.4205 -0.9403 -1.3831
  356TMC3    C1 5381   0.499   0.278  12.220  1.0020 -0.0346  0.2166
  356TMC3    C2 5382   0.583   0.264  12.106 -0.3782  0.3101 -0.4273
  356TMC3    C3 5383   0.720   0.292  12.119 -0.0635  0.0081 -0.2055
  356TMC3    C4 5384   0.549   0.311  12.343  0.1195 -0.6473 -0.2769
  356TMC3    C5 5385   0.681   0.347  12.350 -0.7008  0.2548  0.7931
  356TMC3    C6 5386   0.767   0.337  12.240 -0.1358 -0.3636 -0.0085
  356TMC3     C 5387   0.361   0.308  12.184 -0.2917  0.1199  0.0496
  356TMC3     O 5388   0.333   0.274  12.067 -0.2584 -0.1836 -0.0385
  356TMC3     H 5389   0.547   0.224  12.012 -1.9117 -0.0508  0.3174
  356TMC3    H1 5390   0.494   0.318  12.437 -0.8851  3.3052 -1.1401
  356TMC3    H2 5391   0.875   0.345  12.248 -0.1075  0.9616 -1.5352
  356TMC3    C7 5392   0.734   0.364  12.487  0.2607  0.1241  0.1117
  356TMC3    C8 5393   0.785   0.321  11.990 -0.3269  0.0452  0.3525
  356TMC3    O1 5394   0.696   0.290  12.580 -0.2990  0.1318 -0.0201
  356TMC3    O2 5395   0.751   0.259  11.887  0.2627  0.5069  0.1547
  357MPD2     C 5396   4.370   0.683   1.131 -0.4980 -0.3060 -1.0643
  357MPD2    C1 5397   4.478   0.637   1.217 -0.3928  0.4980  0.5329
  357MPD2    C2 5398   4.454   0.515   1.282 -0.7032  0.3687 -0.2374
  357MPD2    C3 5399   4.341   0.436   1.251 -0.5480 -0.2616 -0.1847
  357MPD2    C4 5400   4.241   0.484   1.168 -0.6370 -0.6781 -0.2119
  357MPD2    C5 5401   4.258   0.605   1.109 -0.1394  0.9678  0.2561
  357MPD2     H 5402   4.523   0.487   1.360 -0.4002  2.4314  0.2389
  357MPD2    H1 5403   4.164   0.416   1.133 -1.9854  0.8487 -0.1896
  357MPD2    H2 5404   4.375   0.778   1.079 -2.0424 -1.3068 -3.0289
  357MPD2    H3 5405   4.179   0.651   1.051 -0.5336  1.4021  1.1284
  357MPD2     N 5406   4.328   0.302   1.297  0.5403 -1.0558  0.2343
  357MPD2    H5 5407   4.244   0.253   1.268 -0.6546 -0.2650  2.3486
  357MPD2    N1 5408   4.594   0.718   1.236 -0.0448  0.0612  0.3270
  357MPD2    H7 5409   4.566   0.813   1.215  2.3429  0.7428  0.2542
  358TMC3    C1 5410   0.019   0.550   1.315  0.1065 -0.7008  0.1364
  358TMC3    C2 5411   4.736   0.456   1.215 -0.7300  0.5046  0.7557
  358TMC3    C3 5412   0.046   0.335   1.253  0.2113  0.4324  0.2158
  358TMC3    C4 5413   0.076   0.527   1.439 -0.3537 -0.6815  0.0762
  358TMC3    C5 5414   0.114   0.396   1.470  0.1319 -0.7870 -0.6440
  358TMC3    C6 5415   0.100   0.298   1.373 -0.2121  0.3761 -0.0915
  358TMC3     C 5416   4.715   0.691   1.289  0.6630 -0.3670  0.7770
  358TMC3     O 5417   0.052   0.771   1.343 -0.6669  0.3160 -0.5283
  358TMC3     H 5418   4.704   0.484   1.115 -0.9093  0.7483  0.8828
  358TMC3    H1 5419   0.098   0.606   1.511  2.7468 -0.6950 -0.8567
  358TMC3    H2 5420   0.083   0.201   1.419 -2.0850  1.3878  1.3623
  358TMC3    C7 5421   0.128   0.364   1.614  0.1290  0.1762 -0.1569
  358TMC3    C8 5422   0.010   0.223   1.172  0.1388  0.2420  0.6098
  358TMC3    O1 5423   0.078   0.439   1.696 -0.1419  0.3226  0.0873
  358TMC3    O2 5424   4.669   0.244   1.078  0.2014 -0.3971 -0.1314
  359MPD2     C 5425   4.730   3.753  12.259 -0.1959 -0.1842  0.0688
  359MPD2    C1 5426   0.121   3.714  12.292  0.2969  0.2664 -0.4002
  359MPD2    C2 5427   0.152   3.589  12.330  0.1073 -0.5247  0.3620
  359MPD2    C3 5428   0.048   3.492  12.318  0.6246  0.8219  0.0301
  359MPD2    C4 5429   4.652   3.534  12.311 -0.0804  0.0879  0.0770
  359MPD2    C5 5430   4.628   3.666  12.284  0.1478  0.0528 -0.2024
  359MPD2     H 5431   0.258   3.580  12.350  0.4499 -0.3284 -1.3774
  359MPD2    H1 5432   4.573   3.460  12.315 -1.5509  1.5801 -1.1094
  359MPD2    H2 5433   4.709   3.856  12.233 -0.7999 -0.3483 -0.0861
  359MPD2    H3 5434   4.528   3.701  12.262 -0.4222 -0.3172  1.7810
  359MPD2     N 5435   0.065   3.354  12.331 -0.2249 -0.1327  0.0650
  359MPD2    H5 5436   4.718   3.297  12.330 -1.2881  1.4108  1.9904
  359MPD2    N1 5437   0.234   3.797  12.278 -0.4690 -0.4947  0.2347
  359MPD2    H7 5438   0.320   3.755  12.311  0.2014  1.1388  0.5698
  360TMC3    C1 5439   0.382   3.945  12.173 -0.1006 -0.6298  0.0165
  360TMC3    C2 5440   0.480   3.927  12.268  0.3196  0.0512  0.6560
  360TMC3    C3 5441   0.610   3.960  12.232  0.5040 -0.1777 -0.7398
  360TMC3    C4 5442   0.419   3.988  12.044  0.5495 -0.1943 -1.0445
  360TMC3    C5 5443   0.548   4.007  12.006  0.0461 -0.0163 -0.1969
  360TMC3    C6 5444   0.652   3.994  12.101 -0.7001  0.8521 -0.0641
  360TMC3     C 5445   0.246   3.917  12.208 -0.6203  0.1243  1.0779
  360TMC3     O 5446   0.156   3.975  12.151  0.0684 -0.0186 -0.1897
  360TMC3     H 5447   0.458   3.916  12.374 -1.2008 -1.5203  0.1942
  360TMC3    H1 5448   0.332   4.010  11.984 -0.8864 -0.8478  0.7904
  360TMC3    H2 5449   0.753   4.019  12.072 -0.6484  0.7615  0.0404
  360TMC3    C7 5450   0.591   3.987  11.871 -0.5540  0.0215  0.3045
  360TMC3    C8 5451   0.717   3.937  12.329  0.1141 -0.6294 -0.6520
  360TMC3    O1 5452   0.699   4.039  11.836 -0.6543 -0.2264 -0.2463
  360TMC3    O2 5453   0.686   3.961  12.443 -0.0682 -0.5736  0.0704
  361MPD2     C 5454   2.573   2.688  16.521 -0.1638  0.0579  0.2972
  361MPD2    C1 5455   2.497   2.738  16.623 -0.0781 -0.3140 -0.0127
  361MPD2    C2 5456   2.482   2.671  16.743 -0.5528  0.0300 -0.7066
  361MPD2    C3 5457   2.528   2.547  16.759 -0.8573  0.3695 -0.3838
  361MPD2    C4 5458   2.600   2.492  16.658  0.0996 -0.5983 -1.0853
  361MPD2    C5 5459   2.625   2.567  16.543  0.7660 -0.1415  0.1584
  361MPD2     H 5460   2.415   2.711  16.819  1.0994 -0.5785  1.0754
  361MPD2    H1 5461   2.659   2.404  16.681 -0.8721 -1.3548 -1.5440
  361MPD2    H2 5462   2.607   2.744  16.434 -1.1795 -0.6533 -0.5614
  361MPD2    H3 5463   2.689   2.528  16.465 -0.1300 -1.0977 -0.0905
  361MPD2     N 5464   2.513   2.470  16.873 -0.4871  0.1220  0.7071
  361MPD2    H5 5465   2.567   2.385  16.863 -0.4725  0.2774 -0.6196
  361MPD2    N1 5466   2.429   2.859  16.601  0.5184  0.5340 -0.7160
  361MPD2    H7 5467   2.392   2.906  16.683 -1.3387 -1.8697 -0.1869
  362TMC3    C1 5468   2.323   3.043  16.493  0.2628 -0.1404  0.8760
  362TMC3    C2 5469   2.313   3.105  16.617 -0.3052  0.3782  0.3941
  362TMC3    C3 5470   2.199   3.176  16.647  0.8015 -0.4516 -0.3550
  362TMC3    C4 5471   2.230   3.062  16.397  0.2880 -0.2066  0.4688
  362TMC3    C5 5472   2.128   3.146  16.431  0.3738  0.3933 -0.3137
  362TMC3    C6 5473   2.109   3.202  16.554  0.0579 -0.1356  0.1064
  362TMC3     C 5474   2.402   2.917  16.480  0.2973 -0.1719 -0.1573
  362TMC3     O 5475   2.428   2.883  16.365 -0.3429  0.2067 -0.0234
  362TMC3     H 5476   2.402   3.093  16.678 -0.6151 -0.1663  0.7346
  362TMC3    H1 5477   2.229   3.003  16.307 -2.9501  1.0963 -0.3503
  362TMC3    H2 5478   2.035   3.278  16.577 -0.2673 -0.4701  0.1604
  362TMC3    C7 5479   2.039   3.192  16.330 -0.3320  0.8289 -0.3990
  362TMC3    C8 5480   2.189   3.234  16.779  0.3206  0.1413  0.2441
  362TMC3    O1 5481   1.944   3.260  16.366 -0.0858 -0.2645 -0.1261
  362TMC3    O2 5482   2.286   3.241  16.845  0.3196 -0.0441  1.0801
  363TMC3    C1 5483   0.943   0.617   9.704  0.8510  0.2108  0.7589
  363TMC3    C2 5484   0.856   0.523   9.756  0.3404 -0.1633 -0.5380
  363TMC3    C3 5485   0.725   0.528   9.705  0.4105 -0.3207 -0.4410
  363TMC3    C4 5486   0.907   0.701   9.599  0.0508  0.5872 -0.2673
  363TMC3    C5 5487   0.778   0.702   9.553 -0.1688  0.3781 -0.0969
  363TMC3    C6 5488   0.690   0.616   9.610 -0.5138  0.1142  0.0956
  363TMC3     C 5489   1.069   0.630   9.781 -0.6609  0.2028 -0.6339
  363TMC3     O 5490   1.098   0.554   9.873  0.2203  0.1634  0.2910
  363TMC3     H 5491   0.882   0.484   9.854 -0.3283  0.0942 -0.2552
  363TMC3    H1 5492   0.976   0.766   9.547  0.3297  0.7006  0.2435
  363TMC3    H2 5493   0.586   0.627   9.584 -1.0692 -0.9087  1.8519
  363TMC3    C7 5494   0.736   0.833   9.532 -0.2508 -0.0000  0.3433
  363TMC3    C8 5495   0.625   0.457   9.783 -0.0986  0.7969  0.4062
  363TMC3    O1 5496   0.821   0.908   9.577  0.2692 -0.1664 -0.3856
  363TMC3    O2 5497   0.509   0.484   9.764 -0.1408 -0.3516 -0.5394
  364MPD2     C 5498   4.328   4.600  10.485  0.3109 -0.7440 -0.3530
  364MPD2    C1 5499   4.449   4.603  10.421 -0.4508  0.1957  0.1672
  364MPD2    C2 5500   4.523   4.489  10.422  0.0902 -1.3425  0.1189
  364MPD2    C3 5501   4.480   4.371  10.483  0.2504  0.5539 -0.1358
  364MPD2    C4 5502   4.358   4.375  10.540 -0.1405 -0.8576  0.1721
  364MPD2    C5 5503   4.278   4.479  10.541  0.2416  0.8059 -0.1439
  364MPD2     H 5504   4.616   4.483  10.368 -0.0403  1.0533 -0.3828
  364MPD2    H1 5505   4.313   4.285  10.581 -1.5131 -0.0305  0.4706
  364MPD2    H2 5506   4.265   4.687  10.474 -0.0452 -0.8647  0.7247
  364MPD2    H3 5507   4.178   4.474  10.582  0.4153 -0.1108  0.1543
  364MPD2     N 5508   4.553   4.252  10.496  0.5519 -0.2090  0.0873
  364MPD2    H5 5509   4.511   4.184  10.558 -0.4059  0.5626  0.2857
  364MPD2    N1 5510   4.516   4.718  10.374  0.0080  0.3593  0.2187
  364MPD2    H7 5511   4.602   4.707  10.323  0.2840 -0.1479  0.7973
  365TMC3    C1 5512   4.568   0.214  10.369 -0.1881  0.2044 -0.1144
  365TMC3    C2 5513   4.667   0.185  10.267 -0.0251 -0.1412  0.2269
  365TMC3    C3 5514   4.712   0.294  10.202  0.2666  0.7101  0.1773
  365TMC3    C4 5515   4.530   0.338  10.397 -0.0933 -0.6226 -0.3406
  365TMC3    C5 5516   4.594   0.444  10.333 -0.1847  0.4082  0.6713
  365TMC3    C6 5517   4.681   0.417  10.234 -0.0762  1.7667  0.1430
  365TMC3     C 5518   4.483   0.107  10.428  0.6162 -0.2285  0.6889
  365TMC3     O 5519   4.396   0.143  10.505 -0.0245  0.1448 -0.0718
  365TMC3     H 5520   4.698   0.086  10.236  0.5635 -0.3397  1.4384
  365TMC3    H1 5521   4.459   0.357  10.476  0.6243  0.9090 -0.0701
  365TMC3    H2 5522   4.714   0.504  10.180  0.9670  1.1764 -0.1628
  365TMC3    C7 5523   4.543   0.578  10.349 -0.3640  0.8811  0.1909
  365TMC3    C8 5524   0.044   0.279  10.077  0.1876  0.5281  0.5849
  365TMC3    O1 5525   4.610   0.669  10.301  0.1418 -0.4714 -0.4253
  365TMC3    O2 5526   0.122   0.366  10.033  0.2924  0.3215 -0.2653
  366MPD2     C 5527   3.004   0.530  15.208  0.3242 -1.0261 -0.0319
  366MPD2    C1 5528   2.990   0.668  15.208  0.2833 -0.1106 -0.1339
  366MPD2    C2 5529   3.103   0.745  15.217 -0.6229 -0.1867  0.4844
  366MPD2    C3 5530   3.223   0.690  15.249 -0.3110 -0.0324 -0.4483
  366MPD2    C4 5531   3.228   0.552  15.271  0.0921 -0.9745  0.6836
  366MPD2    C5 5532   3.122   0.476  15.242  0.9900  0.1417  0.4624
  366MPD2     H 5533   3.085   0.852  15.210 -2.7570 -0.6766 -1.7377
  366MPD2    H1 5534   3.321   0.500  15.293  0.5833  0.2883  1.5906
  366MPD2    H2 5535   2.924   0.458  15.205  0.9365 -1.7615  1.4600
  366MPD2    H3 5536   3.124   0.368  15.252  3.8142  0.0458 -1.2547
  366MPD2     N 5537   3.330   0.776  15.265  0.1625  0.5555 -0.0600
  366MPD2    H5 5538   3.318   0.869  15.226 -1.6210  2.0908  4.1103
  366MPD2    N1 5539   2.868   0.740  15.214  0.6579 -0.0218  0.3450
  366MPD2    H7 5540   2.864   0.840  15.225  2.0941  0.2077 -1.1690
  367TMC3    C1 5541   2.658   0.794  15.204  0.2160 -0.6485 -0.7438
  367TMC3    C2 5542   2.703   0.896  15.283 -0.1862 -0.6060  0.1750
  367TMC3    C3 5543   2.651   1.025  15.268 -0.1195  1.1493  0.1088
  367TMC3    C4 5544   2.570   0.826  15.099  0.6168 -0.9866  0.5900
  367TMC3    C5 5545   2.527   0.953  15.087 -0.4489 -0.2057  0.7810
  367TMC3    C6 5546   2.550   1.055  15.176  0.8139 -0.1846  0.4035
  367TMC3     C 5547   2.746   0.685  15.186  0.2209 -0.5862 -0.5251
  367TMC3     O 5548   2.707   0.579  15.133 -0.0720 -0.4764  0.0311
  367TMC3     H 5549   2.758   0.870  15.373 -1.5373  1.4582  1.6089
  367TMC3    H1 5550   2.555   0.749  15.024 -1.5329  0.4263 -0.4348
  367TMC3    H2 5551   2.502   1.152  15.165  2.2476  0.3452 -1.2888
  367TMC3    C7 5552   2.407   0.983  14.998 -0.3369  0.1919 -0.4656
  367TMC3    C8 5553   2.731   1.132  15.335 -0.2034 -0.8068  0.1654
  367TMC3    O1 5554   2.364   1.100  14.991  0.5668  0.0951 -0.2858
  367TMC3    O2 5555   2.842   1.106  15.377 -0.2961 -0.5622 -0.5268
  368MPD2     C 5556   3.948   2.756  13.593  0.5599  0.3916  0.3068
  368MPD2    C1 5557   3.920   2.791  13.461 -0.1128 -0.1354  0.4866
  368MPD2    C2 5558   4.004   2.751  13.360  0.6370  0.0722  0.3829
  368MPD2    C3 5559   4.115   2.675  13.388 -0.0947  0.1495  0.0161
  368MPD2    C4 5560   4.149   2.655  13.521 -0.9470  0.2853  1.3927
  368MPD2    C5 5561   4.075   2.698  13.622  0.2864  0.7525  0.0436
  368MPD2     H 5562   3.970   2.783  13.262  2.1181 -0.2080 -0.2251
  368MPD2    H1 5563   4.238   2.598  13.546 -1.3442  0.1288  2.4490
  368MPD2    H2 5564   3.870   2.762  13.668 -1.3017 -2.4237 -1.3981
  368MPD2    H3 5565   4.110   2.670  13.721  0.8651  1.2843 -0.0103
  368MPD2     N 5566   4.202   2.634  13.280  0.3366 -0.3957  0.2304
  368MPD2    H5 5567   4.287   2.588  13.312  1.5477 -0.4320 -3.0254
  368MPD2    N1 5568   3.813   2.880  13.434 -0.1643 -0.0183 -0.1121
  368MPD2    H7 5569   3.737   2.888  13.500 -1.4552 -0.3472 -1.5689
  369TMC3    C1 5570   3.676   3.016  13.300  0.0143 -0.4559 -0.1380
  369TMC3    C2 5571   3.668   3.120  13.217 -0.3428  0.1577  0.5620
  369TMC3    C3 5572   3.553   3.166  13.178 -0.3345  0.0410 -0.1127
  369TMC3    C4 5573   3.564   2.949  13.343 -0.1419 -0.6259 -0.1103
  369TMC3    C5 5574   3.446   3.000  13.297  0.3247 -0.2782  0.0060
  369TMC3    C6 5575   3.436   3.108  13.213  0.7279 -0.6087 -0.7613
  369TMC3     C 5576   3.805   2.958  13.324  0.4473  0.0329  0.5128
  369TMC3     O 5577   3.896   2.998  13.257 -0.4332  0.2468 -0.1485
  369TMC3     H 5578   3.759   3.165  13.178 -0.6085 -1.4739 -1.9766
  369TMC3    H1 5579   3.566   2.858  13.401 -1.0840 -0.6788 -0.1607
  369TMC3    H2 5580   3.345   3.143  13.166  1.0428  1.5399  0.2198
  369TMC3    C7 5581   3.320   2.942  13.342 -0.1709  0.4623 -0.3912
  369TMC3    C8 5582   3.554   3.296  13.112  0.5271 -0.0778  0.2774
  369TMC3    O1 5583   3.330   2.898  13.454  0.1758 -0.0301 -0.0987
  369TMC3    O2 5584   3.466   3.327  13.033  0.3829 -0.6704 -0.1174
  370TMC3    C1 5585   3.441   3.374  16.277 -0.8354 -0.2048 -0.6500
  370TMC3    C2 5586   3.330   3.323  16.341 -0.2302  0.2218  0.0819
  370TMC3    C3 5587   3.261   3.219  16.294  0.1144 -0.3769  0.1335
  370TMC3    C4 5588   3.491   3.327  16.158  0.1958  0.1206  0.2351
  370TMC3    C5 5589   3.419   3.220  16.113 -1.1690 -0.5708  0.3836
  370TMC3    C6 5590   3.314   3.159  16.180 -0.1458 -0.6698 -0.1454
  370TMC3     C 5591   3.525   3.462  16.364  0.1708 -0.4196  0.6038
  370TMC3     O 5592   3.501   3.464  16.485  0.1971 -0.6895 -0.0506
  370TMC3     H 5593   3.311   3.355  16.443  2.1596  1.1795  0.2134
  370TMC3    H1 5594   3.592   3.350  16.127  0.0544 -0.5144 -0.7129
  370TMC3    H2 5595   3.267   3.068  16.145  0.7083 -0.6697 -1.2758
  370TMC3    C7 5596   3.498   3.132  16.027  0.3693 -0.1826  0.3004
  370TMC3    C8 5597   3.172   3.139  16.377 -0.7297 -0.3815  0.1646
  370TMC3    O1 5598   3.619   3.150  16.016 -0.4754  0.1109 -0.1992
  370TMC3    O2 5599   3.186   3.018  16.362 -0.2805 -0.7480  0.5542
  371TMC3    C1 5600   4.606   1.809  15.353 -0.3011 -0.0010  0.0865
  371TMC3    C2 5601   4.512   1.799  15.460 -0.5667 -0.6406 -0.2926
  371TMC3    C3 5602   4.489   1.914  15.524  0.0666 -0.3479 -0.7529
  371TMC3    C4 5603   4.673   1.920  15.321  0.9479 -0.2198  0.2603
  371TMC3    C5 5604   4.637   2.031  15.390 -0.2303  0.1416  0.4543
  371TMC3    C6 5605   4.545   2.033  15.483  0.3049  0.0652  0.0094
  371TMC3     C 5606   4.680   1.688  15.341  0.0610 -0.0292  0.1840
  371TMC3     O 5607   0.062   1.689  15.309  0.0346 -0.3012 -0.3840
  371TMC3     H 5608   4.462   1.710  15.496 -2.1025  0.3376  0.0144
  371TMC3    H1 5609   0.023   1.922  15.255  1.3227 -0.7939  0.7332
  371TMC3    H2 5610   4.523   2.119  15.546 -1.2864 -1.0948  1.0672
  371TMC3    C7 5611   4.715   2.155  15.378  0.2891 -0.5555 -0.3129
  371TMC3    C8 5612   4.463   1.888  15.664  0.4271  0.3949 -0.5705
  371TMC3    O1 5613   4.711   2.228  15.475  0.1810 -0.4885  0.3272
  371TMC3    O2 5614   4.530   1.793  15.702 -0.0204 -0.7995  0.1853
  372MPD2     C 5615   3.648   3.164  13.634  0.0695  0.1880  0.4928
  372MPD2    C1 5616   3.782   3.163  13.671  0.0535 -0.2397 -0.2111
  372MPD2    C2 5617   3.830   3.062  13.756 -0.2696  0.0071  0.6180
  372MPD2    C3 5618   3.746   2.971  13.815 -0.2798  0.6638  0.7091
  372MPD2    C4 5619   3.611   2.983  13.779 -0.1182 -0.5712 -0.9761
  372MPD2    C5 5620   3.567   3.072  13.685 -0.2443 -0.2415 -0.5111
  372MPD2     H 5621   3.934   3.058  13.785 -0.1299 -0.1126  0.1109
  372MPD2    H1 5622   3.532   2.917  13.812 -1.4538  1.2592 -0.5144
  372MPD2    H2 5623   3.614   3.247  13.574  0.3038 -0.0280  0.0635
  372MPD2    H3 5624   3.460   3.074  13.663 -0.4586 -1.0072  0.4350
  372MPD2     N 5625   3.791   2.864  13.895 -0.2572  0.1347  0.2211
  372MPD2    H5 5626   3.891   2.852  13.911 -0.1592 -0.1050 -0.5418
  372MPD2    N1 5627   3.886   3.233  13.604  0.1500  0.5994  0.5977
  372MPD2    H7 5628   3.977   3.223  13.647  1.6656  0.5315 -2.5586
  373TMC3    C1 5629   3.775   2.673  14.027 -0.8688  0.8053 -0.2093
  373TMC3    C2 5630   3.723   2.613  14.139  0.4179 -0.3617 -0.0662
  373TMC3    C3 5631   3.807   2.529  14.207  0.1285 -0.3239 -0.1725
  373TMC3    C4 5632   3.907   2.651  13.997 -0.1853 -0.6317 -0.1156
  373TMC3    C5 5633   3.980   2.563  14.067 -0.1297 -0.6217 -0.4898
  373TMC3    C6 5634   3.940   2.507  14.175  0.2046 -0.6767  0.5230
  373TMC3     C 5635   3.707   2.780  13.954  0.0009 -0.1449 -0.4824
  373TMC3     O 5636   3.587   2.769  13.968  0.2198  0.8939 -0.3770
  373TMC3     H 5637   3.618   2.614  14.165  0.2636  1.4011 -0.7299
  373TMC3    H1 5638   3.959   2.679  13.906 -1.1475  1.2920 -0.0745
  373TMC3    H2 5639   3.991   2.420  14.215 -0.7143 -0.4789  2.1073
  373TMC3    C7 5640   4.121   2.562  14.040  0.2574 -0.2433 -0.2238
  373TMC3    C8 5641   3.739   2.432  14.282 -0.6441 -0.9641  1.2336
  373TMC3    O1 5642   4.148   2.535  13.928  0.5973  0.1263 -1.3060
  373TMC3    O2 5643   3.644   2.371  14.228  0.0736 -0.1926  0.5889
  374TMC3    C1 5644   0.353   2.857  10.012 -0.1335 -0.3270 -0.6454
  374TMC3    C2 5645   0.399   2.983  10.027  0.1946  0.0632  0.2663
  374TMC3    C3 5646   0.399   3.060   9.910 -0.2199 -0.3221 -0.0668
  374TMC3    C4 5647   0.283   2.814   9.904 -0.0254 -0.0321 -0.4838
  374TMC3    C5 5648   0.281   2.894   9.789 -0.7985  0.3894 -0.2152
  374TMC3    C6 5649   0.346   3.015   9.790 -0.2232 -0.1934 -0.6117
  374TMC3     C 5650   0.341   2.777  10.129  0.2070 -0.2542  0.5120
  374TMC3     O 5651   0.236   2.717  10.146  0.0175 -0.1658  0.1768
  374TMC3     H 5652   0.442   3.024  10.118  0.7079 -0.1142  0.1014
  374TMC3    H1 5653   0.226   2.723   9.920 -0.1503 -0.1332 -1.4720
  374TMC3    H2 5654   0.338   3.077   9.702 -0.5087  0.4109 -0.1559
  374TMC3    C7 5655   0.182   2.870   9.688 -0.3752 -0.2387 -1.0999
  374TMC3    C8 5656   0.443   3.197   9.910 -0.2918  0.7307 -0.0426
  374TMC3    O1 5657   0.169   2.962   9.607 -0.0440  0.2040 -0.6072
  374TMC3    O2 5658   0.463   3.246   9.799  0.3362 -0.1122 -0.2162
  375MPD2     C 5659   4.471   2.815  16.880  0.2665  0.4127 -0.1149
  375MPD2    C1 5660   4.457   2.942  16.839  0.1393  0.0064 -0.6358
  375MPD2    C2 5661   4.529   2.987  16.731  0.3582  0.7185 -0.2193
  375MPD2    C3 5662   4.612   2.908  16.663  0.2804  0.4808 -0.5765
  375MPD2    C4 5663   4.624   2.779  16.708 -0.2735  0.1470 -0.0885
  375MPD2    C5 5664   4.546   2.728  16.811 -0.7803 -0.3466 -0.6825
  375MPD2     H 5665   4.526   3.094  16.716 -1.9288  0.7335  0.2732
  375MPD2    H1 5666   4.681   2.706  16.651 -2.1310 -0.7835 -0.7397
  375MPD2    H2 5667   4.410   2.762  16.953  0.2612 -0.4083 -0.7048
  375MPD2    H3 5668   4.554   2.630  16.855 -0.4448 -0.4905 -1.0675
  375MPD2     N 5669   4.702   2.969  16.572  0.6971  0.5663  0.5492
  375MPD2    H5 5670   0.051   2.915  16.559  0.3954 -0.0619  1.1967
  375MPD2    N1 5671   4.380   3.033  16.915  0.1130  0.7132  0.4195
  375MPD2    H7 5672   4.377   3.130  16.886 -0.0104  0.7135  0.4344
  376TMC3    C1 5673   0.072   3.128  16.426  0.6911 -0.1504  0.2247
  376TMC3    C2 5674   0.189   3.146  16.493  0.6258 -0.2234  0.5930
  376TMC3    C3 5675   0.274   3.259  16.468  0.4082  0.4580 -0.2188
  376TMC3    C4 5676   0.046   3.217  16.326  0.2453  0.5797  0.1565
  376TMC3    C5 5677   0.131   3.322  16.297  0.2800 -0.5108  0.1322
  376TMC3    C6 5678   0.242   3.346  16.374  0.7174 -0.0473 -0.0760
  376TMC3     C 5679   4.686   3.087  16.501 -0.0114  0.3834  0.3093
  376TMC3     O 5680   4.585   3.161  16.481  0.0423  0.0929  0.1702
  376TMC3     H 5681   0.194   3.092  16.587  0.2783  1.3850  1.5430
  376TMC3    H1 5682   4.684   3.215  16.279  0.4006 -2.1775 -0.0805
  376TMC3    H2 5683   0.318   3.419  16.347 -0.2416  0.9005 -0.1983
  376TMC3    C7 5684   0.099   3.427  16.214 -0.2386  0.0666  0.9445
  376TMC3    C8 5685   0.366   3.301  16.576  0.0339 -0.1006  0.2855
  376TMC3    O1 5686   0.159   3.532  16.229  0.2299 -0.0231 -0.2138
  376TMC3    O2 5687   0.384   3.422  16.586  0.3305 -0.2571  0.3057
  377MPD2     C 5688   3.190   3.365  13.228 -0.1852 -0.1791  0.4263
  377MPD2    C1 5689   3.094   3.336  13.133 -0.1163 -0.4956 -0.1667
  377MPD2    C2 5690   2.983   3.258  13.167 -0.0131  0.1407  0.1559
  377MPD2    C3 5691   2.975   3.209  13.295 -0.3106  0.5790  0.3911
  377MPD2    C4 5692   3.066   3.246  13.392  0.5457 -0.5068 -1.0210
  377MPD2    C5 5693   3.176   3.320  13.354 -0.0647  0.1317  0.4576
  377MPD2     H 5694   2.903   3.243  13.096  0.5038  0.7191 -0.5561
  377MPD2    H1 5695   3.068   3.197  13.489 -0.6674  0.5679 -0.4341
  377MPD2    H2 5696   3.278   3.424  13.203 -0.9791  0.3063 -1.2310
  377MPD2    H3 5697   3.267   3.346  13.409  0.2505  0.0243 -0.0129
  377MPD2     N 5698   2.864   3.138  13.346 -0.5517  0.3029  0.4004
  377MPD2    H5 5699   2.873   3.115  13.444  1.5597  0.9254  0.3392
  377MPD2    N1 5700   3.117   3.387  13.004 -0.5113  0.2540  0.1562
  377MPD2    H7 5701   3.208   3.421  12.977 -0.6970  0.8038  0.2220
  378TMC3    C1 5702   3.048   3.457  12.545  0.9771  0.1006  0.1173
  378TMC3    C2 5703   2.997   3.449  12.665  0.0819  0.0069 -0.0730
  378TMC3    C3 5704   3.079   3.424  12.775 -0.1183  0.2605  0.1439
  378TMC3    C4 5705   3.183   3.457  12.524 -0.2035 -0.1435  0.2073
  378TMC3    C5 5706   3.264   3.420  12.631 -0.7169 -0.2344 -0.1286
  378TMC3    C6 5707   3.215   3.408  12.760  0.3216  0.1225  0.0645
  378TMC3     C 5708   2.960   3.505  12.436 -0.1004 -0.0309 -1.0350
  378TMC3     O 5709   2.845   3.499  12.466 -0.7324 -0.3141 -0.0246
  378TMC3     H 5710   2.889   3.454  12.673 -0.0766 -0.2518 -1.8991
  378TMC3    H1 5711   3.221   3.462  12.422 -2.8979 -1.8950 -0.8606
  378TMC3    H2 5712   3.290   3.363  12.824  1.3753  0.9353 -0.5917
  378TMC3    C7 5713   3.406   3.414  12.613 -0.1542  0.2781  0.3459
  378TMC3    C8 5714   3.021   3.384  12.901  0.2163  0.0971  0.4393
  378TMC3    O1 5715   3.463   3.459  12.713  0.3811 -0.1390  0.0686
  378TMC3    O2 5716   2.899   3.360  12.904  0.0024 -0.4999  0.2247
  379MPD2     C 5717   2.985   1.594  16.452 -0.1714 -0.7487 -0.5103
  379MPD2    C1 5718   3.089   1.534  16.390  0.2140 -0.0167 -0.5044
  379MPD2    C2 5719   3.161   1.436  16.460  0.2546  0.1459  0.1684
  379MPD2    C3 5720   3.143   1.417  16.596 -0.4381  0.9853 -1.4640
  379MPD2    C4 5721   3.038   1.482  16.663 -0.2107 -1.0943 -0.2544
  379MPD2    C5 5722   2.959   1.568  16.587 -0.5742  0.1712  0.7156
  379MPD2     H 5723   3.236   1.381  16.404  0.6471 -0.0009  0.8425
  379MPD2    H1 5724   3.013   1.457  16.765  0.4655  0.5087  0.3017
  379MPD2    H2 5725   2.922   1.664  16.399 -0.2541 -0.0748  0.4787
  379MPD2    H3 5726   2.874   1.611  16.638 -0.2223  0.9125  0.6836
  379MPD2     N 5727   3.229   1.332  16.678  0.4631  0.1601  0.8275
  379MPD2    H5 5728   3.197   1.300  16.769  1.5980  0.2924  1.2788
  379MPD2    N1 5729   3.108   1.567  16.254  0.6991 -0.2577 -0.1919
  379MPD2    H7 5730   3.060   1.650  16.218 -1.3176 -0.9831  0.8671
  380TMC3    C1 5731   3.207   1.574  16.039 -0.6436 -0.1652 -0.6162
  380TMC3    C2 5732   3.327   1.530  15.996 -0.2546  0.4495  0.2687
  380TMC3    C3 5733   3.345   1.497  15.866  0.4815 -0.2968 -0.2126
  380TMC3    C4 5734   3.099   1.579  15.957  0.7440 -0.3550  0.6911
  380TMC3    C5 5735   3.117   1.531  15.832  0.5815 -0.6728  0.2627
  380TMC3    C6 5736   3.241   1.491  15.777 -0.1663 -0.3052 -0.0588
  380TMC3     C 5737   3.198   1.506  16.168  0.1721  0.5739 -0.6499
  380TMC3     O 5738   3.277   1.412  16.188  0.2743  0.1080 -0.4478
  380TMC3     H 5739   3.410   1.549  16.063  0.1875 -0.2421 -0.0771
  380TMC3    H1 5740   3.010   1.634  15.985  0.2195 -1.3504  0.9938
  380TMC3    H2 5741   3.254   1.460  15.674  1.1256 -1.8134  0.5588
  380TMC3    C7 5742   3.021   1.582  15.741  1.1775  0.0557  0.0766
  380TMC3    C8 5743   3.461   1.411  15.842 -0.8132 -0.2149  0.0226
  380TMC3    O1 5744   2.990   1.698  15.753  0.1812 -0.3112  0.1923
  380TMC3    O2 5745   3.523   1.404  15.737  0.2035 -0.0707 -0.2532
  381TMC3    C1 5746   3.208   2.524  16.157  0.5949 -1.1896 -0.5559
  381TMC3    C2 5747   3.304   2.617  16.163  0.1547 -1.1724 -0.1753
  381TMC3    C3 5748   3.295   2.698  16.276  0.4948  0.0206  0.5577
  381TMC3    C4 5749   3.110   2.509  16.250 -0.2090 -0.1904  0.0293
  381TMC3    C5 5750   3.104   2.596  16.360  0.0067  0.8289  0.3442
  381TMC3    C6 5751   3.201   2.688  16.374  0.9360  0.6816  0.2909
  381TMC3     C 5752   3.200   2.451  16.035 -0.6949 -0.5358  0.1646
  381TMC3     O 5753   3.088   2.415  16.000  1.1504 -0.2222  0.4495
  381TMC3     H 5754   3.380   2.626  16.087 -1.3901 -1.1961 -1.7408
  381TMC3    H1 5755   3.037   2.429  16.246  0.0784 -0.4535 -0.0128
  381TMC3    H2 5756   3.182   2.756  16.457 -2.0839 -1.4174  1.3111
  381TMC3    C7 5757   3.046   2.546  16.484  0.0970 -0.1523  0.0598
  381TMC3    C8 5758   3.425   2.765  16.292  0.2048  0.0793  0.8915
  381TMC3    O1 5759   3.063   2.424  16.502 -0.0816 -0.3114 -0.2424
  381TMC3    O2 5760   3.524   2.710  16.252 -0.0287 -0.0023 -0.0580
  382MPD2     C 5761   2.511   0.459  17.269 -0.4938  0.6081  0.0815
  382MPD2    C1 5762   2.387   0.461  17.335  0.2838  0.2289 -0.0577
  382MPD2    C2 5763   2.339   0.338  17.382  0.2712 -0.3596 -0.8977
  382MPD2    C3 5764   2.405   0.214  17.368 -0.4502  0.1438 -0.4913
  382MPD2    C4 5765   2.527   0.222  17.309  0.1370 -0.7198  0.2342
  382MPD2    C5 5766   2.583   0.341  17.260  0.4847  0.3832  0.3112
  382MPD2     H 5767   2.244   0.337  17.434 -0.4552  0.9344 -2.1695
  382MPD2    H1 5768   2.593   0.136  17.300 -1.4173 -1.8420 -0.2944
  382MPD2    H2 5769   2.555   0.555  17.243 -1.1369  0.8901  0.0341
  382MPD2    H3 5770   2.682   0.338  17.216  0.0456 -2.1091 -0.5171
  382MPD2     N 5771   2.358   0.085  17.413  0.3165 -1.1883 -0.1778
  382MPD2    H5 5772   2.423   0.007  17.409 -0.0609 -1.5574  0.9565
  382MPD2    N1 5773   2.313   0.582  17.347  0.5859 -0.2389  0.1284
  382MPD2    H7 5774   2.224   0.573  17.395  0.3894  0.0376 -0.1889
  383TMC3    C1 5775   2.220   4.668  17.517 -0.4635  0.0687 -0.4280
  383TMC3    C2 5776   2.101   4.599  17.480  0.3549  0.0996 -0.3052
  383TMC3    C3 5777   2.104   4.457  17.479  0.0021  0.1589 -0.3385
  383TMC3    C4 5778   2.331   4.606  17.546  0.5650  0.1807 -0.5807
  383TMC3    C5 5779   2.335   4.473  17.541 -0.2853 -0.2333  1.2920
  383TMC3    C6 5780   2.221   4.400  17.509 -0.2530  0.0291 -0.9040
  383TMC3     C 5781   2.234   0.058  17.462 -0.4222  0.4289  0.1190
  383TMC3     O 5782   2.133   0.128  17.462 -0.5282 -0.2875  0.3059
  383TMC3     H 5783   2.010   4.651  17.455  0.6746  0.0726 -1.5418
  383TMC3    H1 5784   2.408   4.660  17.600  1.0310 -1.8280  0.7997
  383TMC3    H2 5785   2.235   4.293  17.523  0.2355  0.0622 -1.1450
  383TMC3    C7 5786   2.453   4.400  17.573  0.1979 -0.1483 -0.5613
  383TMC3    C8 5787   1.989   4.385  17.424  0.2225 -0.2048  0.5778
  383TMC3    O1 5788   2.439   4.283  17.615 -0.9003 -0.1554 -0.8879
  383TMC3    O2 5789   1.887   4.450  17.404  0.2527  0.1066  0.1217
  384MPD2     C 5790   3.874   1.254  12.036 -0.1775 -0.8001  0.1242
  384MPD2    C1 5791   4.002   1.284  12.082  0.3772  0.2175 -0.3016
  384MPD2    C2 5792   4.104   1.270  11.990 -0.2608 -0.0988 -0.3530
  384MPD2    C3 5793   4.085   1.226  11.861  0.2578 -0.4507 -0.4760
  384MPD2    C4 5794   3.961   1.216  11.809  0.0016  0.0402 -0.2364
  384MPD2    C5 5795   3.855   1.226  11.902  0.3740 -0.0776 -0.0575
  384MPD2     H 5796   4.208   1.279  12.020 -0.3194 -2.2200  0.5318
  384MPD2    H1 5797   3.942   1.195  11.705  0.3602 -0.4662 -0.2023
  384MPD2    H2 5798   3.788   1.263  12.102  0.0217 -2.1210  0.5522
  384MPD2    H3 5799   3.753   1.212  11.868  1.0757 -1.6525 -1.4815
  384MPD2     N 5800   4.193   1.192  11.772 -0.2697 -0.0369  0.1875
  384MPD2    H5 5801   4.163   1.160  11.680 -2.4569 -0.4562  1.0469
  384MPD2    N1 5802   4.015   1.328  12.217  0.5587  0.2134  0.0984
  384MPD2    H7 5803   3.945   1.297  12.284  2.6318 -3.0354  0.7583
  385TMC3    C1 5804   4.415   1.122  11.707 -0.0838 -0.1034 -0.0187
  385TMC3    C2 5805   4.374   0.994  11.679  0.2564  0.5510  0.5848
  385TMC3    C3 5806   4.468   0.896  11.678  0.1837 -0.5702  0.6494
  385TMC3    C4 5807   4.545   1.143  11.757  0.4396  0.2986 -0.4591
  385TMC3    C5 5808   4.635   1.044  11.768 -0.3653 -0.2215  0.1855
  385TMC3    C6 5809   4.598   0.915  11.731  0.4337  0.0129  0.1089
  385TMC3     C 5810   4.328   1.195  11.797  0.1505  0.2329  0.5265
  385TMC3     O 5811   4.382   1.239  11.896  0.7756 -0.4232 -0.3093
  385TMC3     H 5812   4.270   0.973  11.656  0.5252  0.1844 -0.2689
  385TMC3    H1 5813   4.574   1.248  11.751 -2.0023  0.9136 -1.7084
  385TMC3    H2 5814   4.673   0.839  11.713 -0.4541 -0.5302 -1.3140
  385TMC3    C7 5815   4.706   1.054  11.893  0.2017 -0.7443 -0.4731
  385TMC3    C8 5816   4.459   0.761  11.612 -0.4511  0.2004 -0.2398
  385TMC3    O1 5817   0.062   0.975  11.913  0.4299 -0.2684 -0.0836
  385TMC3    O2 5818   4.548   0.677  11.628  0.0095 -0.1508 -0.4125
  386TMC3    C1 5819   0.004   3.804  11.865  0.3247  0.4282  0.5487
  386TMC3    C2 5820   4.724   3.907  11.769 -0.3608 -0.6782  0.4041
  386TMC3    C3 5821   4.591   3.937  11.750 -0.6293  0.1516 -0.0050
  386TMC3    C4 5822   4.641   3.749  11.940  0.1705  0.4062 -0.8683
  386TMC3    C5 5823   4.510   3.777  11.897  0.0010 -0.3752  0.2540
  386TMC3    C6 5824   4.484   3.876  11.809 -0.2240  0.0012 -0.0129
  386TMC3     C 5825   0.140   3.752  11.887 -0.1032 -0.5500 -0.4463
  386TMC3     O 5826   0.238   3.827  11.876 -0.2563  0.4582 -0.1993
  386TMC3     H 5827   0.070   3.947  11.712 -1.2565  2.5107  1.3522
  386TMC3    H1 5828   4.658   3.664  12.005 -0.6377 -0.1512 -1.3970
  386TMC3    H2 5829   4.381   3.902  11.790 -0.5556 -0.8177  0.6446
  386TMC3    C7 5830   4.397   3.690  11.929 -0.1341 -0.3467 -0.0538
  386TMC3    C8 5831   4.555   4.001  11.627  0.7915 -0.3314 -0.6488
  386TMC3    O1 5832   4.285   3.735  11.905 -0.2796 -0.0399  0.1235
  386TMC3    O2 5833   4.448   3.971  11.585  0.5150 -0.3255 -0.1034
  387MPD2     C 5834   1.795   3.857  10.361  0.7679  0.0621  0.3455
  387MPD2    C1 5835   1.897   3.810  10.447  0.8193  0.8923  0.1392
  387MPD2    C2 5836   1.955   3.687  10.428  0.2015  0.6618 -0.2791
  387MPD2    C3 5837   1.925   3.601  10.321  0.6653 -0.4729 -0.3656
  387MPD2    C4 5838   1.821   3.643  10.235 -0.2200  0.6517  0.2282
  387MPD2    C5 5839   1.755   3.764  10.262  0.7886  0.3013 -0.5455
  387MPD2     H 5840   2.043   3.663  10.485  1.3889 -0.8199 -2.7323
  387MPD2    H1 5841   1.791   3.598  10.141 -0.9342  1.0312  0.2708
  387MPD2    H2 5842   1.746   3.953  10.369 -0.4272 -0.3333 -2.4503
  387MPD2    H3 5843   1.672   3.801  10.203  0.8221  0.5906 -0.4131
  387MPD2     N 5844   2.015   3.496  10.304 -0.3406  0.2644  0.0277
  387MPD2    H5 5845   2.082   3.473  10.376  0.0529  2.4372  0.3455
  387MPD2    N1 5846   1.964   3.897  10.538 -0.3474  0.2243 -0.2158
  387MPD2    H7 5847   2.041   3.859  10.591 -0.3697 -0.8115 -0.9171
  388TMC3    C1 5848   2.058   4.108  10.583  1.1579 -0.2406 -0.4824
  388TMC3    C2 5849   2.045   4.232  10.636  0.1455 -0.2406 -0.1350
  388TMC3    C3 5850   2.161   4.299  10.669  0.4583  0.3870  0.2839
  388TMC3    C4 5851   2.183   4.061  10.565 -0.0295 -0.2045 -0.6428
  388TMC3    C5 5852   2.297   4.135  10.599 -1.4619 -0.0329 -0.0290
  388TMC3    C6 5853   2.286   4.254  10.653 -0.5210  0.3251 -0.0876
  388TMC3     C 5854   1.942   4.033  10.541 -0.2380  0.4446  0.1830
  388TMC3     O 5855   1.836   4.093  10.528 -0.0510 -0.0572  0.4166
  388TMC3     H 5856   1.948   4.260  10.675 -0.3779  0.4185 -1.9264
  388TMC3    H1 5857   2.194   3.971  10.505  1.1985  0.1556 -0.9500
  388TMC3    H2 5858   2.373   4.313  10.678 -0.3616 -0.0296  0.1864
  388TMC3    C7 5859   2.426   4.078  10.579 -0.3379  0.1695  0.2130
  388TMC3    C8 5860   2.135   4.434  10.720 -0.5760 -0.2558 -0.2705
  388TMC3    O1 5861   2.527   4.148  10.579 -0.2720  0.3792  0.2640
  388TMC3    O2 5862   2.014   4.467  10.721 -0.1877 -0.3569 -0.2056
  389MPD2     C 5863   1.456   1.765  10.709 -0.3506  0.4176 -0.5185
  389MPD2    C1 5864   1.319   1.748  10.683  0.1465 -0.1372 -0.1591
  389MPD2    C2 5865   1.249   1.675  10.777  0.1537 -0.9603  0.4939
  389MPD2    C3 5866   1.308   1.641  10.894 -0.0683  0.5004  0.9162
  389MPD2    C4 5867   1.438   1.681  10.917 -0.0458  0.1744 -0.1154
  389MPD2    C5 5868   1.516   1.734  10.823  0.3520  0.0401 -0.4579
  389MPD2     H 5869   1.147   1.640  10.764  0.5231 -0.6955 -2.9447
  389MPD2    H1 5870   1.478   1.671  11.017  2.1547 -0.6060 -1.0595
  389MPD2    H2 5871   1.517   1.824  10.642 -0.3988  0.1031 -0.8398
  389MPD2    H3 5872   1.622   1.752  10.838  0.4704  0.0316 -1.2718
  389MPD2     N 5873   1.247   1.579  11.003  0.4704 -0.9637 -0.7191
  389MPD2    H5 5874   1.319   1.555  11.071 -0.8705  0.0037  1.0532
  389MPD2    N1 5875   1.271   1.802  10.563  0.1932 -0.2773  0.3456
  389MPD2    H7 5876   1.340   1.864  10.521 -0.2903  0.9732  1.3911
  390TMC3    C1 5877   1.109   1.453  11.144  0.4448  0.7297 -0.4622
  390TMC3    C2 5878   0.999   1.373  11.159 -0.3347  0.2015  0.1184
  390TMC3    C3 5879   1.004   1.286  11.266  0.5476  0.2823 -0.2123
  390TMC3    C4 5880   1.208   1.458  11.242  0.0147 -0.4417  0.3651
  390TMC3    C5 5881   1.202   1.371  11.351  0.2394  0.2351 -0.4947
  390TMC3    C6 5882   1.102   1.284  11.360  0.0500 -0.0923 -0.0788
  390TMC3     C 5883   1.117   1.534  11.021 -0.7249  0.1715 -0.4687
  390TMC3     O 5884   1.014   1.545  10.955 -0.4868  0.1942  0.7755
  390TMC3     H 5885   0.925   1.376  11.079 -0.8378  2.8432  0.6874
  390TMC3    H1 5886   1.291   1.527  11.233 -0.4448  0.0363 -0.2016
  390TMC3    H2 5887   1.099   1.212  11.441 -1.0659  1.2009  1.0296
  390TMC3    C7 5888   1.296   1.408  11.463 -0.3133  0.0275 -0.7444
  390TMC3    C8 5889   0.891   1.203  11.304 -0.3878 -0.0420  0.1948
  390TMC3    O1 5890   1.397   1.473  11.432 -0.1086 -0.5494  0.1901
  390TMC3    O2 5891   0.890   1.080  11.298  0.3169 -0.6476  0.0494
  391MPD2     C 5892   0.554   3.340  11.416  0.3411 -0.2651 -0.4090
  391MPD2    C1 5893   0.665   3.417  11.391 -0.1149 -0.0042 -0.0714
  391MPD2    C2 5894   0.730   3.400  11.267 -0.1754  0.5984  0.1917
  391MPD2    C3 5895   0.679   3.317  11.172 -0.0034 -0.2124  0.8246
  391MPD2    C4 5896   0.566   3.234  11.202  0.1429 -0.0912  0.1970
  391MPD2    C5 5897   0.507   3.247  11.327 -0.9149  0.4020  0.2398
  391MPD2     H 5898   0.823   3.452  11.249  2.1329 -3.3196  0.8905
  391MPD2    H1 5899   0.519   3.162  11.136  0.4400 -2.1499  2.2107
  391MPD2    H2 5900   0.511   3.345  11.515  1.7002 -3.0495  0.3187
  391MPD2    H3 5901   0.414   3.197  11.350  0.1517 -1.1094  1.3230
  391MPD2     N 5902   0.745   3.304  11.053  0.4210  0.3793  0.4230
  391MPD2    H5 5903   0.837   3.347  11.051  0.0530  1.3053  3.1822
  391MPD2    N1 5904   0.718   3.505  11.493 -1.0282 -0.1277  0.2312
  391MPD2    H7 5905   0.666   3.500  11.580  0.3246 -1.4781  0.9638
  392TMC3    C1 5906   0.766   3.303  10.827  0.2048 -0.7121  0.6246
  392TMC3    C2 5907   0.698   3.301  10.712 -0.4444 -0.1886 -0.0477
  392TMC3    C3 5908   0.734   3.387  10.608 -0.5101  0.0227  0.1258
  392TMC3    C4 5909   0.868   3.392  10.845  0.0383 -0.1349 -0.5438
  392TMC3    C5 5910   0.901   3.472  10.736 -0.1232 -0.3104 -0.0346
  392TMC3    C6 5911   0.827   3.481  10.628 -0.4773 -0.3487 -0.1173
  392TMC3     C 5912   0.691   3.254  10.938 -0.2173  0.2958  0.4387
  392TMC3     O 5913   0.572   3.231  10.916  0.2640  0.4956 -0.9443
  392TMC3     H 5914   0.629   3.221  10.689 -0.2056 -0.9040  1.7308
  392TMC3    H1 5915   0.925   3.407  10.936  3.1366 -0.5734 -2.4035
  392TMC3    H2 5916   0.872   3.534  10.545  3.6462 -0.2358  2.1574
  392TMC3    C7 5917   1.003   3.574  10.767 -0.1141  0.7123  0.3138
  392TMC3    C8 5918   0.693   3.363  10.471 -0.1741 -0.9926 -0.0003
  392TMC3    O1 5919   1.068   3.567  10.869 -0.5210 -0.1241  0.2137
  392TMC3    O2 5920   0.621   3.265  10.458 -0.3070  0.2435  0.0760
  393TMC3    C1 5921   4.303   1.572  10.938 -0.1325 -0.4139 -0.0858
  393TMC3    C2 5922   4.186   1.562  11.007 -0.6912  0.4864  0.3755
  393TMC3    C3 5923   4.125   1.440  11.020 -1.0745 -0.6364 -0.3165
  393TMC3    C4 5924   4.364   1.456  10.882 -0.4938 -0.1887  0.2852
  393TMC3    C5 5925   4.296   1.338  10.896 -0.6327  0.0925  0.9525
  393TMC3    C6 5926   4.177   1.319  10.972 -0.1969  0.0226  0.4563
  393TMC3     C 5927   4.317   1.685  10.854  0.2652 -0.0437 -0.3276
  393TMC3     O 5928   4.278   1.791  10.896 -0.2534  0.4146 -0.4223
  393TMC3     H 5929   4.133   1.653  11.033  0.0656  0.5223  1.7688
  393TMC3    H1 5930   4.457   1.456  10.825  0.0098 -0.7055  1.1110
  393TMC3    H2 5931   4.129   1.222  10.983  0.0561 -0.0092  1.2879
  393TMC3    C7 5932   4.351   1.211  10.853 -0.1897 -0.0675 -0.6569
  393TMC3    C8 5933   3.993   1.438  11.078 -0.4575 -0.3488 -0.3956
  393TMC3    O1 5934   4.286   1.112  10.889  0.1205 -0.8941 -0.0356
  393TMC3    O2 5935   3.964   1.528  11.155  0.0700 -0.7098 -0.3656
  394TMC3    C1 5936   1.134   1.851  10.372 -0.2037  0.4600  0.9240
  394TMC3    C2 5937   1.016   1.896  10.329 -0.5450 -0.1113  0.5439
  394TMC3    C3 5938   1.008   1.951  10.201 -0.5873 -0.0200 -0.1922
  394TMC3    C4 5939   1.246   1.871  10.295 -0.1021  0.3363  0.3573
  394TMC3    C5 5940   1.235   1.938  10.176 -0.4627 -0.2307 -0.3825
  394TMC3    C6 5941   1.111   1.980  10.129 -0.1047  0.1973 -0.9695
  394TMC3     C 5942   1.147   1.789  10.506 -0.3993 -0.4538 -0.3614
  394TMC3     O 5943   1.047   1.737  10.556 -0.3972  0.0778 -0.7196
  394TMC3     H 5944   0.926   1.895  10.390  0.3162  0.9028  1.8275
  394TMC3    H1 5945   1.342   1.835  10.332 -0.6087  0.1295  1.4537
  394TMC3    H2 5946   1.102   2.021  10.030 -1.0820 -1.8979 -1.7384
  394TMC3    C7 5947   1.346   2.024  10.161 -0.3313 -0.4151  0.1125
  394TMC3    C8 5948   0.904   1.904  10.113 -0.1875  0.9267  0.0284
  394TMC3    O1 5949   1.329   2.146  10.158  0.0764  0.2350  0.3973
  394TMC3    O2 5950   0.896   1.952   9.999  0.0848 -0.7474  0.0062
  395TMC3    C1 5951   1.233   3.447  14.906  0.1346 -0.7846 -0.2079
  395TMC3    C2 5952   1.106   3.482  14.931  1.4631  0.0163 -0.1186
  395TMC3    C3 5953   1.073   3.610  14.908 -0.0451  0.9498  0.6771
  395TMC3    C4 5954   1.336   3.543  14.877 -0.0851  0.2203 -0.0713
  395TMC3    C5 5955   1.292   3.669  14.869  0.5050  0.8212 -0.1931
  395TMC3    C6 5956   1.163   3.706  14.885 -0.4586  0.7083 -0.0813
  395TMC3     C 5957   1.277   3.355  15.008 -0.7595  0.0969  0.8587
  395TMC3     O 5958   1.366   3.285  14.973  0.0265  0.6044  0.5429
  395TMC3     H 5959   1.033   3.406  14.956  1.6254  0.0471  0.4670
  395TMC3    H1 5960   1.442   3.522  14.881 -0.1716 -0.4522 -1.5990
  395TMC3    H2 5961   1.131   3.802  14.848  2.7003  2.4644  1.6941
  395TMC3    C7 5962   1.385   3.779  14.828 -0.1336 -0.7595  0.1558
  395TMC3    C8 5963   0.931   3.647  14.929 -0.3202 -0.2274  0.2106
  395TMC3    O1 5964   1.361   3.888  14.874 -0.0884  0.3585  0.1666
  395TMC3    O2 5965   0.922   3.769  14.950 -0.2309  0.1386 -0.0644
  396MPD2     C 5966   0.482   4.574  16.885  0.9149 -0.4772 -0.2512
  396MPD2    C1 5967   0.595   4.606  16.957  0.7288 -0.2177  0.1388
  396MPD2    C2 5968   0.702   4.663  16.893  0.5240 -0.5037  0.3537
  396MPD2    C3 5969   0.692   4.710  16.767  0.0979  0.1312 -0.0109
  396MPD2    C4 5970   0.568   4.695  16.701  0.2680 -0.0831  0.5506
  396MPD2    C5 5971   0.467   4.622  16.764 -1.1041 -0.3993 -0.5618
  396MPD2     H 5972   0.791   4.699  16.943  0.3901 -1.4448  1.2577
  396MPD2    H1 5973   0.551   4.731  16.600  1.3466 -0.7429  0.1409
  396MPD2    H2 5974   0.396   4.528  16.932  3.2778 -2.2409  2.4057
  396MPD2    H3 5975   0.371   4.609  16.716 -1.6123  2.6265 -0.3269
  396MPD2     N 5976   0.805   0.046  16.709 -0.2471  0.5573 -0.7197
  396MPD2    H5 5977   0.876   0.079  16.774 -1.4895  1.7450  0.0304
  396MPD2    N1 5978   0.597   4.561  17.089 -0.2342  0.7241 -0.7314
  396MPD2    H7 5979   0.528   4.494  17.121 -0.5708  1.8570  0.8785
  397TMC3    C1 5980   0.717   4.504  17.281  0.0827 -0.1994  0.5510
  397TMC3    C2 5981   0.850   4.468  17.273 -0.1039  0.0795 -0.1769
  397TMC3    C3 5982   0.880   4.335  17.251  0.3239 -0.4269 -0.1946
  397TMC3    C4 5983   0.620   4.410  17.298  0.5372  0.1327  0.0539
  397TMC3    C5 5984   0.652   4.284  17.269  0.2896  0.3396 -0.8391
  397TMC3    C6 5985   0.778   4.243  17.242  0.0215  0.5959 -0.1431
  397TMC3     C 5986   0.690   4.604  17.178 -0.0325 -1.1242 -0.3457
  397TMC3     O 5987   0.778   4.691  17.159 -0.1268  0.1474 -0.6184
  397TMC3     H 5988   0.917   4.548  17.243 -0.3643 -0.0623 -1.1475
  397TMC3    H1 5989   0.518   4.443  17.309 -0.2490 -2.6238  0.9748
  397TMC3    H2 5990   0.804   4.138  17.235  0.7861  0.7387  0.6142
  397TMC3    C7 5991   0.550   4.179  17.275 -0.1390  0.4867  0.1582
  397TMC3    C8 5992   0.988   4.300  17.163  0.0448  0.1276 -0.1063
  397TMC3    O1 5993   0.573   4.074  17.219 -0.6155  0.0014 -0.3869
  397TMC3    O2 5994   0.975   4.205  17.089 -0.3264 -0.4865  0.2984
  398MPD2     C 5995   3.024   1.555   0.519 -0.5119  0.2391  0.2631
  398MPD2    C1 5996   3.162   1.556   0.518  0.4687  0.3122 -0.0108
  398MPD2    C2 5997   3.228   1.668   0.479  0.2231 -0.7286 -0.7299
  398MPD2    C3 5998   3.170   1.787   0.455  0.0360 -0.2343 -0.4807
  398MPD2    C4 5999   3.038   1.795   0.466 -0.5207 -0.6849 -0.1795
  398MPD2    C5 6000   2.967   1.677   0.484 -0.3346  0.0780  0.4600
  398MPD2     H 6001   3.336   1.654   0.477  0.6662  2.5783 -0.6386
  398MPD2    H1 6002   2.976   1.879   0.439 -0.2539 -0.8198 -1.1884
  398MPD2    H2 6003   2.971   1.461   0.527 -1.0539  0.5063 -0.1827
  398MPD2    H3 6004   2.859   1.676   0.483 -0.3084 -0.3093 -2.2420
  398MPD2     N 6005   3.248   1.893   0.402 -0.0922 -0.1223  0.2819
  398MPD2    H5 6006   3.346   1.873   0.385 -0.3653 -0.4130 -0.9366
  398MPD2    N1 6007   3.242   1.441   0.564  0.4377  0.3587 -0.5973
  398MPD2    H7 6008   3.342   1.450   0.555  0.4626  0.1786 -0.5052
  399TMC3    C1 6009   3.300   1.246   0.672 -0.1056 -0.0794  0.0759
  399TMC3    C2 6010   3.418   1.297   0.708  0.0486  0.0444  0.3546
  399TMC3    C3 6011   3.520   1.211   0.723  0.0197  0.3431 -0.5590
  399TMC3    C4 6012   3.290   1.117   0.639  1.1600  0.1331 -0.7665
  399TMC3    C5 6013   3.395   1.035   0.652  0.1853  0.8628  0.1990
  399TMC3    C6 6014   3.517   1.078   0.693 -0.2777 -0.9560  0.1330
  399TMC3     C 6015   3.196   1.328   0.623 -0.7384  0.6730  0.0320
  399TMC3     O 6016   3.082   1.293   0.628 -0.0603 -0.5145 -0.0793
  399TMC3     H 6017   3.434   1.399   0.740  1.3680 -0.5768  1.7069
  399TMC3    H1 6018   3.192   1.070   0.636  1.1512  0.2893 -2.5508
  399TMC3    H2 6019   3.599   1.008   0.693  0.0304 -0.6051  2.9121
  399TMC3    C7 6020   3.387   0.894   0.622 -0.2747 -0.0962 -0.0794
  399TMC3    C8 6021   3.636   1.257   0.803  0.4560  0.0576 -0.4204
  399TMC3    O1 6022   3.457   0.816   0.687 -0.1536  0.6641  0.1787
  399TMC3    O2 6023   3.633   1.376   0.839  0.1893 -0.3014 -0.2189
  400TMC3    C1 6024   2.014   4.091  16.978 -0.5532 -0.2091 -1.0168
  400TMC3    C2 6025   1.940   3.985  16.929 -0.1409  0.2063  0.6390
  400TMC3    C3 6026   1.853   4.007  16.831 -0.7685 -0.2036  0.1122
  400TMC3    C4 6027   1.989   4.217  16.938  0.2313 -0.7206  0.3718
  400TMC3    C5 6028   1.900   4.233  16.836  0.0300  0.1376 -0.0335
  400TMC3    C6 6029   1.827   4.130  16.782  0.3278  0.2085 -0.0527
  400TMC3     C 6030   2.123   4.056  17.061  0.7744 -0.6269  0.1734
  400TMC3     O 6031   2.138   3.937  17.087  0.7066  0.2397 -0.3735
  400TMC3     H 6032   1.944   3.888  16.977  0.9826  0.5093  1.1430
  400TMC3    H1 6033   2.039   4.298  16.989 -0.4885 -1.6549  2.5179
  400TMC3    H2 6034   1.762   4.155  16.699  1.5130  0.8269 -0.8013
  400TMC3    C7 6035   1.861   4.363  16.776 -0.0456  0.7728  0.7128
  400TMC3    C8 6036   1.751   3.904  16.813  0.2907 -0.1474 -0.0962
  400TMC3    O1 6037   1.759   4.377  16.705  0.2824  0.3342 -0.5511
  400TMC3    O2 6038   1.724   3.832  16.909 -0.2350 -0.1546  0.3639
  401MPD2     C 6039   0.334   3.213   0.845 -0.5719 -0.2019  0.3439
  401MPD2    C1 6040   0.386   3.188   0.970 -0.1606  0.0993 -0.1627
  401MPD2    C2 6041   0.300   3.126   1.056  0.0768 -0.0242 -0.2409
  401MPD2    C3 6042   0.169   3.097   1.032 -0.0788  0.2808  0.3694
  401MPD2    C4 6043   0.122   3.124   0.915  0.0888  0.4466 -0.0692
  401MPD2    C5 6044   0.202   3.185   0.825 -0.0833  0.3116 -0.1070
  401MPD2     H 6045   0.336   3.113   1.158 -1.2013 -0.9320  0.1058
  401MPD2    H1 6046   0.023   3.095   0.883 -0.3742  0.3889  1.4049
  401MPD2    H2 6047   0.387   3.259   0.762  0.6181 -0.5392  0.9141
  401MPD2    H3 6048   0.149   3.219   0.737  0.2244  1.6684  0.2340
  401MPD2     N 6049   0.096   3.021   1.131  0.5057  0.0717 -0.7936
  401MPD2    H5 6050   0.155   2.989   1.207 -1.8278 -1.8229  0.2357
  401MPD2    N1 6051   0.520   3.214   1.009 -0.7836  0.1897 -0.0115
  401MPD2    H7 6052   0.544   3.184   1.103  0.0868 -1.0668 -0.6248
  402TMC3    C1 6053   4.669   2.891   1.245  0.6750  0.3234 -0.2675
  402TMC3    C2 6054   0.003   2.914   1.359 -0.6507  0.6461 -0.0705
  402TMC3    C3 6055   4.735   2.826   1.463 -0.4610 -0.2334  0.2130
  402TMC3    C4 6056   4.607   2.762   1.226  0.2348 -0.4951 -0.3320
  402TMC3    C5 6057   4.624   2.666   1.320  0.9106 -0.2749  0.9090
  402TMC3    C6 6058   4.682   2.700   1.440  0.2265  0.2597  0.1503
  402TMC3     C 6059   4.705   2.972   1.128  0.0035 -0.2000 -0.2452
  402TMC3     O 6060   4.624   2.976   1.036 -0.3542  0.4948  0.9516
  402TMC3     H 6061   0.054   3.009   1.363  0.6284 -0.0063 -0.7617
  402TMC3    H1 6062   4.555   2.747   1.131  0.2161 -0.2797 -0.3565
  402TMC3    H2 6063   4.697   2.620   1.510  0.6084  0.1739 -0.0263
  402TMC3    C7 6064   4.648   2.529   1.284  0.1570 -0.1274  0.0498
  402TMC3    C8 6065   0.115   2.824   1.547 -0.2147 -0.0234 -0.6064
  402TMC3    O1 6066   4.617   2.444   1.370 -0.0406 -0.3520 -0.0911
  402TMC3    O2 6067   0.176   2.721   1.568  0.0988 -0.4914 -0.7497
  403MPD2     C 6068   3.348   1.158  13.246 -0.3037  0.7076 -0.2899
  403MPD2    C1 6069   3.442   1.086  13.311  0.6145  0.1775  0.6059
  403MPD2    C2 6070   3.548   1.154  13.370 -0.7888 -0.7060  0.3404
  403MPD2    C3 6071   3.550   1.287  13.379  0.0216  0.0030 -0.0730
  403MPD2    C4 6072   3.459   1.364  13.304  0.1742  0.2490  0.0032
  403MPD2    C5 6073   3.358   1.292  13.236  0.1183  0.2849 -0.8645
  403MPD2     H 6074   3.631   1.102  13.416  0.6098 -2.4075 -4.0811
  403MPD2    H1 6075   3.468   1.472  13.305  1.3101  0.1447  0.3295
  403MPD2    H2 6076   3.268   1.110  13.191 -0.2266  0.5280 -0.2451
  403MPD2    H3 6077   3.275   1.345  13.192 -1.1606 -0.1608  0.9855
  403MPD2     N 6078   3.668   1.338  13.438  0.0774 -0.6474  0.7209
  403MPD2    H5 6079   3.715   1.264  13.490 -0.6498 -1.3976  0.3129
  403MPD2    N1 6080   3.440   0.944  13.308  0.6305  0.7459 -0.1691
  403MPD2    H7 6081   3.357   0.896  13.272  0.7727 -0.4650  1.0971
  404TMC3    C1 6082   3.466   0.727  13.405 -0.0765  0.5562  0.0794
  404TMC3    C2 6083   3.488   0.663  13.523  0.2567  0.3259  0.3709
  404TMC3    C3 6084   3.506   0.527  13.519  0.2265  0.2849  0.0230
  404TMC3    C4 6085   3.430   0.662  13.289  0.5582  0.4731  0.0907
  404TMC3    C5 6086   3.447   0.530  13.287 -0.5153 -0.2706 -0.6409
  404TMC3    C6 6087   3.488   0.461  13.399  0.5236  0.4331 -0.1666
  404TMC3     C 6088   3.506   0.864  13.398  0.1342 -0.2284 -0.5516
  404TMC3     O 6089   3.597   0.896  13.474  0.0330  0.5979  0.5399
  404TMC3     H 6090   3.506   0.715  13.616  0.0039  0.7755  0.1624
  404TMC3    H1 6091   3.410   0.715  13.197 -0.2802 -0.2695 -0.1518
  404TMC3    H2 6092   3.472   0.353  13.397  3.3574 -0.0299  1.2520
  404TMC3    C7 6093   3.422   0.448  13.170  0.0776 -0.3261  0.1336
  404TMC3    C8 6094   3.567   0.448  13.628  0.9611 -0.4167  0.0810
  404TMC3    O1 6095   3.468   0.332  13.166 -0.1126  0.0978  0.1053
  404TMC3    O2 6096   3.614   0.337  13.600 -0.3211 -0.9483 -0.4836
  405MPD2     C 6097   4.325   1.814  14.371 -0.3223  0.3791 -0.6612
  405MPD2    C1 6098   4.187   1.784  14.373 -0.9671  0.2873  0.1253
  405MPD2    C2 6099   4.117   1.781  14.494  0.3685  0.6622 -0.0098
  405MPD2    C3 6100   4.176   1.807  14.616  0.4098  0.0582  0.2214
  405MPD2    C4 6101   4.310   1.836  14.615  0.4926 -0.4851  0.8001
  405MPD2    C5 6102   4.382   1.844  14.494  0.6272 -0.1097  0.6265
  405MPD2     H 6103   4.008   1.782  14.501  0.2900 -3.6784 -0.4628
  405MPD2    H1 6104   4.357   1.873  14.706  0.9756 -1.4396  0.9440
  405MPD2    H2 6105   4.381   1.820  14.278  1.3257  0.2534  0.3263
  405MPD2    H3 6106   4.488   1.866  14.493  0.4517  0.7991  2.2148
  405MPD2     N 6107   4.090   1.791  14.728  0.2459 -0.0794  0.1488
  405MPD2    H5 6108   3.994   1.764  14.711 -0.3498  1.4499  1.1321
  405MPD2    N1 6109   4.124   1.753  14.252 -0.6550  0.3739  0.5198
  405MPD2    H7 6110   4.180   1.765  14.169 -0.3199 -0.1990  0.6653
  406TMC3    C1 6111   3.890   1.741  15.123  0.5942  0.4142  0.0705
  406TMC3    C2 6112   3.815   1.636  15.066  1.1601 -0.5210  0.2239
  406TMC3    C3 6113   3.855   1.590  14.944  0.2952 -0.2473 -0.1971
  406TMC3    C4 6114   4.003   1.791  15.059  0.1699 -0.8093  0.3793
  406TMC3    C5 6115   4.048   1.730  14.941  0.6754  0.4656  0.6883
  406TMC3    C6 6116   3.974   1.632  14.884  1.1326  0.2081  0.9744
  406TMC3     C 6117   3.818   1.821  15.214  0.2723  0.4064 -0.8327
  406TMC3     O 6118   3.883   1.875  15.307 -0.6768 -0.0551  0.5484
  406TMC3     H 6119   3.717   1.614  15.107  0.9619  3.8679  2.1106
  406TMC3    H1 6120   4.042   1.890  15.074  2.1997 -1.3536 -1.3474
  406TMC3    H2 6121   4.015   1.573  14.803 -1.3436  0.5167 -0.4869
  406TMC3    C7 6122   4.132   1.806  14.857 -0.6684 -0.4378  0.2437
  406TMC3    C8 6123   3.770   1.504  14.869  0.0747  0.3575  0.8486
  406TMC3    O1 6124   4.214   1.881  14.911  0.2484 -0.0274 -1.0609
  406TMC3    O2 6125   3.688   1.441  14.930  0.2300 -0.1457  0.1875
  407MPD2     C 6126   1.576   3.310   9.805 -0.1090 -0.6328  0.6903
  407MPD2    C1 6127   1.668   3.349   9.892 -0.3550  0.0543  1.2019
  407MPD2    C2 6128   1.641   3.387  10.028  0.3127  0.3605 -0.2171
  407MPD2    C3 6129   1.510   3.393  10.067 -0.0152 -0.6922  0.0466
  407MPD2    C4 6130   1.411   3.358   9.975 -0.2898  0.6004  0.3063
  407MPD2    C5 6131   1.445   3.317   9.845  0.5379 -0.0904  0.1412
  407MPD2     H 6132   1.727   3.426  10.082  0.9787  0.5943 -1.4614
  407MPD2    H1 6133   1.308   3.368  10.007 -0.5255  0.2799 -0.3626
  407MPD2    H2 6134   1.604   3.269   9.709 -1.3207 -0.0160  0.0635
  407MPD2    H3 6135   1.373   3.283   9.771 -0.1233  3.0704 -0.6773
  407MPD2     N 6136   1.465   3.430  10.195 -0.2195 -0.0235 -0.3827
  407MPD2    H5 6137   1.365   3.450  10.203  0.1113  2.1921 -1.7429
  407MPD2    N1 6138   1.806   3.348   9.863 -0.6848 -1.4133  0.5279
  407MPD2    H7 6139   1.869   3.383   9.934  2.7553 -2.3372 -2.0983
  408TMC3    C1 6140   1.996   3.383   9.731 -0.5523  0.5686  0.2744
  408TMC3    C2 6141   2.093   3.302   9.679 -0.1922  0.6839 -0.1164
  408TMC3    C3 6142   2.222   3.318   9.722 -0.1293  0.7184 -0.4001
  408TMC3    C4 6143   2.015   3.498   9.806  0.2215 -0.0982 -0.6131
  408TMC3    C5 6144   2.153   3.520   9.838  0.8564  0.7742  0.6318
  408TMC3    C6 6145   2.248   3.429   9.800 -0.0882  0.3693 -1.1680
  408TMC3     C 6146   1.861   3.328   9.739  0.0447  0.6506  0.1330
  408TMC3     O 6147   1.817   3.274   9.637  0.0096  0.7480 -0.3344
  408TMC3     H 6148   2.060   3.208   9.636  0.7946  0.0237  0.5824
  408TMC3    H1 6149   1.932   3.558   9.842  0.0381 -0.6271 -0.1528
  408TMC3    H2 6150   2.353   3.441   9.828 -0.0455  1.0433 -1.6365
  408TMC3    C7 6151   2.199   3.631   9.918 -0.0895 -0.2368  0.1688
  408TMC3    C8 6152   2.300   3.195   9.747  0.3833 -0.5465  0.4902
  408TMC3    O1 6153   2.317   3.631   9.958  0.4877 -0.0365 -0.0834
  408TMC3    O2 6154   2.248   3.088   9.767 -0.7225 -0.0454  0.4163
  409MPD2     C 6155   1.035   3.436  16.901 -0.4744  0.3317  0.1043
  409MPD2    C1 6156   1.164   3.443  16.936  0.0873  0.1904 -0.6207
  409MPD2    C2 6157   1.228   3.560  16.936 -0.3817  0.0896 -0.4297
  409MPD2    C3 6158   1.165   3.667  16.875 -0.8255 -0.0240  0.3393
  409MPD2    C4 6159   1.039   3.657  16.817  0.5957  0.3145  0.3195
  409MPD2    C5 6160   0.973   3.542  16.835 -0.0525  0.5030 -0.1657
  409MPD2     H 6161   1.325   3.575  16.984 -0.0611  1.3852 -1.4883
  409MPD2    H1 6162   0.986   3.739  16.772  1.5636  0.5760 -0.3423
  409MPD2    H2 6163   0.981   3.342  16.908 -0.1814 -0.0587 -2.6241
  409MPD2    H3 6164   0.876   3.533  16.789 -0.9239  0.6976  1.6531
  409MPD2     N 6165   1.226   3.796  16.872  0.2989 -0.4455 -0.1013
  409MPD2    H5 6166   1.194   3.856  16.797  4.6633  0.7933 -0.9416
  409MPD2    N1 6167   1.228   3.335  16.988  0.8952 -0.1352  0.8983
  409MPD2    H7 6168   1.328   3.340  17.005  0.8878  2.9906 -0.1096
  410TMC3    C1 6169   1.384   3.966  16.910 -0.2822  0.3475 -0.0562
  410TMC3    C2 6170   1.453   4.039  17.002  0.0461  0.2056  0.7570
  410TMC3    C3 6171   1.520   4.154  16.968 -0.1107  0.2106 -0.0735
  410TMC3    C4 6172   1.390   4.005  16.779  0.2355  0.3941  0.2151
  410TMC3    C5 6173   1.459   4.116  16.746  0.3854 -0.0694 -0.4360
  410TMC3    C6 6174   1.528   4.195  16.835 -1.4825  0.8061 -0.5296
  410TMC3     C 6175   1.334   3.840  16.950 -0.3514  0.4089  0.0232
  410TMC3     O 6176   1.393   3.785  17.045  0.3931  0.4895 -0.0635
  410TMC3     H 6177   1.424   4.018  17.104 -0.6179 -0.0886  0.5061
  410TMC3    H1 6178   1.351   3.936  16.704 -0.9992  1.0820  0.2321
  410TMC3    H2 6179   1.563   4.292  16.800  1.4635  0.4874  1.5761
  410TMC3    C7 6180   1.439   4.150  16.600  0.8143  0.1530 -0.0405
  410TMC3    C8 6181   1.628   4.191  17.060  0.0035 -0.0128 -0.5752
  410TMC3    O1 6182   1.350   4.083  16.550  0.0723  0.1514 -0.3143
  410TMC3    O2 6183   1.689   4.300  17.050  0.0831 -0.3263  0.0560
  411MPD2     C 6184   1.635   4.515  14.591  0.3747 -0.9692 -0.0166
  411MPD2    C1 6185   1.542   4.531  14.693 -0.2129  0.9362 -0.3610
  411MPD2    C2 6186   1.441   4.437  14.701 -0.5960 -0.0324 -0.5068
  411MPD2    C3 6187   1.428   4.329  14.610  0.1831  0.1226  0.3455
  411MPD2    C4 6188   1.525   4.311  14.515  0.4579 -0.5455 -0.3289
  411MPD2    C5 6189   1.630   4.401  14.514 -0.3690  0.0942  0.3174
  411MPD2     H 6190   1.358   4.461  14.768 -0.0314  1.8623 -0.4817
  411MPD2    H1 6191   1.542   4.215  14.467  0.4608  0.1130 -1.6701
  411MPD2    H2 6192   1.715   4.587  14.584  0.8127 -1.1838  3.0205
  411MPD2    H3 6193   1.716   4.388  14.449 -1.5407 -3.5297 -0.5328
  411MPD2     N 6194   1.319   4.235  14.613 -0.7113 -0.1292  0.1653
  411MPD2    H5 6195   1.328   4.159  14.546 -1.3441  0.0765 -0.1509
  411MPD2    N1 6196   1.531   4.642  14.781  0.2268 -0.5532 -0.1097
  411MPD2    H7 6197   1.463   4.639  14.856  0.5328 -0.3690  0.1723
  412TMC3    C1 6198   1.122   4.124  14.654 -0.2417 -0.1224 -0.1627
  412TMC3    C2 6199   1.012   4.097  14.736 -0.2561 -0.4166  0.1777
  412TMC3    C3 6200   0.940   3.987  14.702 -0.0028  0.2011  0.3577
  412TMC3    C4 6201   1.136   4.071  14.532 -0.5705 -0.6248 -0.5178
  412TMC3    C5 6202   1.056   3.971  14.494  0.2580  0.1173 -0.3915
  412TMC3    C6 6203   0.965   3.920  14.586 -0.2394 -0.4215  0.0624
  412TMC3     C 6204   1.205   4.236  14.688  0.2905  0.0960  0.1385
  412TMC3     O 6205   1.179   4.300  14.788 -0.2610 -0.1887 -0.4962
  412TMC3     H 6206   0.969   4.152  14.818 -1.4404  0.3230 -0.9296
  412TMC3    H1 6207   1.218   4.099  14.467  0.1125 -0.4816  0.3990
  412TMC3    H2 6208   0.901   3.838  14.556  1.1484 -1.0678 -1.1532
  412TMC3    C7 6209   0.990   3.992  14.372  0.0882  0.3335 -0.1316
  412TMC3    C8 6210   0.796   3.991  14.740  0.3876 -0.5139 -0.4259
  412TMC3    O1 6211   0.871   3.982  14.387  0.2980  0.3314 -0.5236
  412TMC3    O2 6212   0.767   4.043  14.850 -0.1873 -0.2915  0.2463
  413MPD2     C 6213   3.454   3.046  15.522 -0.3282 -0.1487 -0.5503
  413MPD2    C1 6214   3.411   2.948  15.429 -0.5775 -0.3213  0.2898
  413MPD2    C2 6215   3.482   2.824  15.420 -0.6110  0.4920  0.3325
  413MPD2    C3 6216   3.583   2.801  15.509  0.1558  0.4099  0.2687
  413MPD2    C4 6217   3.633   2.904  15.589 -0.5293 -0.7036  0.3675
  413MPD2    C5 6218   3.563   3.019  15.599 -0.3561 -0.1510  0.1496
  413MPD2     H 6219   3.455   2.747  15.350 -0.0714  0.3764  0.2508
  413MPD2    H1 6220   3.704   2.882  15.668  0.9231  0.2096 -0.6789
  413MPD2    H2 6221   3.407   3.144  15.528 -0.8924 -0.4393 -0.1983
  413MPD2    H3 6222   3.581   3.089  15.680  0.8874  0.3682 -0.5764
  413MPD2     N 6223   3.641   2.673  15.497  0.4107 -0.3504 -0.5472
  413MPD2    H5 6224   3.605   2.608  15.428 -2.8422 -0.0810  0.8947
  413MPD2    N1 6225   3.299   2.978  15.349 -0.2410  0.1672 -0.6866
  413MPD2    H7 6226   3.248   3.055  15.392 -0.4917  0.0680 -0.8052
  414TMC3    C1 6227   3.784   2.504  15.519 -0.4985 -0.4693  0.8759
  414TMC3    C2 6228   3.823   2.411  15.602 -0.2073 -0.3006  0.9781
  414TMC3    C3 6229   3.846   2.289  15.548 -0.5659  0.3712 -1.2254
  414TMC3    C4 6230   3.753   2.486  15.385  0.0539  0.2506  0.5182
  414TMC3    C5 6231   3.770   2.362  15.341 -0.4362  0.3436 -0.0298
  414TMC3    C6 6232   3.814   2.258  15.418  0.6210 -0.4038 -0.1178
  414TMC3     C 6233   3.741   2.628  15.579 -0.8542  0.6584 -0.3633
  414TMC3     O 6234   3.811   2.682  15.664  0.7375  0.3515  0.7424
  414TMC3     H 6235   3.831   2.438  15.707  1.3059  2.5942  0.0858
  414TMC3    H1 6236   3.737   2.561  15.308 -2.1711  0.3185  1.0319
  414TMC3    H2 6237   3.819   2.158  15.376 -0.2585 -0.2583 -0.5611
  414TMC3    C7 6238   3.664   2.333  15.247  0.1720 -0.6377  0.6480
  414TMC3    C8 6239   3.873   2.177  15.633 -0.7336  0.0128 -0.4721
  414TMC3    O1 6240   3.566   2.401  15.276  0.0025 -0.3854  0.2102
  414TMC3    O2 6241   3.876   2.065  15.582  0.4714 -0.0648  0.5460
  415TMC3    C1 6242   4.018   0.749   9.320  0.5325 -0.0189 -0.6058
  415TMC3    C2 6243   4.031   0.860   9.240  0.3777  0.3204  0.1370
  415TMC3    C3 6244   3.930   0.895   9.155 -0.6728 -0.3500 -0.3056
  415TMC3    C4 6245   3.898   0.694   9.333  0.7953 -0.2604  0.3409
  415TMC3    C5 6246   3.797   0.724   9.250  0.2518  0.0622 -0.1885
  415TMC3    C6 6247   3.817   0.822   9.153  0.6198  0.2032 -0.1256
  415TMC3     C 6248   4.084   0.756   9.447 -0.3944  0.8316  0.5809
  415TMC3     O 6249   4.017   0.733   9.544  0.6002  0.2963  0.1052
  415TMC3     H 6250   4.116   0.926   9.252 -1.2323  2.3070  0.6590
  415TMC3    H1 6251   3.902   0.613   9.406 -1.5678  0.0756  0.8412
  415TMC3    H2 6252   3.745   0.852   9.077  2.3944  1.3915 -1.3359
  415TMC3    C7 6253   3.667   0.656   9.259 -0.3691 -0.2781 -0.2011
  415TMC3    C8 6254   3.927   1.020   9.069 -0.2752 -0.5303 -0.1045
  415TMC3    O1 6255   3.593   0.664   9.160 -0.0481 -0.8140 -0.4983
  415TMC3    O2 6256   3.840   1.040   8.983  0.6566  0.2923  0.0489
  416MPD2     C 6257   0.944   4.629  11.496 -0.1070  0.0558 -0.4358
  416MPD2    C1 6258   0.857   4.525  11.501 -0.1883 -0.4287  0.2979
  416MPD2    C2 6259   0.894   4.404  11.438  0.7627 -0.0416 -0.0378
  416MPD2    C3 6260   1.017   4.388  11.377 -0.0517  0.1927 -0.2209
  416MPD2    C4 6261   1.101   4.500  11.363 -0.3688 -0.2146  0.2704
  416MPD2    C5 6262   1.065   4.616  11.434 -0.0608  0.4064  0.0628
  416MPD2     H 6263   0.828   4.318  11.451  0.1565  0.3916 -0.2450
  416MPD2    H1 6264   1.202   4.498  11.325 -0.1166  0.1230  0.9258
  416MPD2    H2 6265   0.923   4.720  11.551 -0.1147  1.6359 -3.0278
  416MPD2    H3 6266   1.135   4.699  11.444  1.0563 -0.3956 -1.0774
  416MPD2     N 6267   1.044   4.259  11.323 -0.8233  0.4745  0.4789
  416MPD2    H5 6268   0.977   4.187  11.348 -0.3279  0.3297  1.4140
  416MPD2    N1 6269   0.730   4.555  11.559 -0.3317  0.2408  0.0483
  416MPD2    H7 6270   0.725   4.649  11.596  0.6544 -0.2131  1.3278
  417TMC3    C1 6271   0.493   4.543  11.592  0.0064 -0.3338  0.0922
  417TMC3    C2 6272   0.486   4.579  11.722  0.1426  0.3877  0.2898
  417TMC3    C3 6273   0.372   4.624  11.775  0.0653 -0.5687 -0.2614
  417TMC3    C4 6274   0.388   4.549  11.510  0.4528  0.1688  0.0927
  417TMC3    C5 6275   0.271   4.593  11.560  0.0966 -0.1049  0.3480
  417TMC3    C6 6276   0.256   4.631  11.695  0.2181  0.2637 -0.3450
  417TMC3     C 6277   0.610   4.488  11.531  0.0367  0.4927  0.1869
  417TMC3     O 6278   0.603   4.389  11.464 -0.0837 -0.1705 -0.0423
  417TMC3     H 6279   0.579   4.582  11.778  1.2394 -0.5118 -1.4638
  417TMC3    H1 6280   0.398   4.511  11.409 -2.6578  2.5368 -1.1099
  417TMC3    H2 6281   0.157   4.661  11.727  0.4511 -0.8362  1.4241
  417TMC3    C7 6282   0.170   4.623  11.465 -0.3516 -0.5216  0.3305
  417TMC3    C8 6283   0.349   4.666  11.910  0.5502 -0.4945 -0.3075
  417TMC3    O1 6284   0.208   4.634  11.346 -0.4490 -0.4010 -0.4887
  417TMC3    O2 6285   0.232   4.683  11.937 -0.3593  0.4636 -0.2910
  418TMC3    C1 6286   3.546   2.080   0.303  0.3581  0.2005 -0.7652
  418TMC3    C2 6287   3.416   2.091   0.283  0.1932 -0.1268 -0.4582
  418TMC3    C3 6288   3.326   2.110   0.387  1.0032  0.3740 -0.3021
  418TMC3    C4 6289   3.592   2.103   0.431 -0.2916 -1.1193 -0.7172
  418TMC3    C5 6290   3.506   2.143   0.527 -0.7157  0.4591 -1.0413
  418TMC3    C6 6291   3.372   2.146   0.510 -0.4882 -0.0596 -0.2540
  418TMC3     C 6292   3.641   2.039   0.201 -0.3145 -0.9842 -0.3269
  418TMC3     O 6293   3.595   2.050   0.088  0.3106  0.4582 -0.2383
  418TMC3     H 6294   3.370   2.051   0.193 -1.9625  0.8585  0.1808
  418TMC3    H1 6295   3.695   2.097   0.463 -0.3175  2.7267  0.1151
  418TMC3    H2 6296   3.304   2.151   0.594  0.7177  0.2166  0.6995
  418TMC3    C7 6297   3.545   2.092   0.665 -0.0653  0.7190  0.0875
  418TMC3    C8 6298   3.208   2.030   0.403 -0.4077 -0.0914  0.2221
  418TMC3    O1 6299   3.625   2.002   0.676 -0.0876 -0.2481  0.1457
  418TMC3    O2 6300   3.103   2.081   0.433  0.2202  0.4711 -0.5949
  419MPD2     C 6301   2.798   4.275  12.169  1.1232 -0.1646  0.1261
  419MPD2    C1 6302   2.692   4.350  12.210 -0.2477  0.4897  0.0348
  419MPD2    C2 6303   2.669   4.382  12.345  0.6424 -0.3182  0.2861
  419MPD2    C3 6304   2.755   4.338  12.443 -0.5693  0.4688  0.7392
  419MPD2    C4 6305   2.861   4.264  12.403  0.3769 -0.3768  0.0262
  419MPD2    C5 6306   2.882   4.236  12.267  0.3203  0.4839  0.3851
  419MPD2     H 6307   2.576   4.428  12.378  0.9330  0.8043 -0.5037
  419MPD2    H1 6308   2.937   4.236  12.476 -1.2093 -1.6261  1.1976
  419MPD2    H2 6309   2.801   4.243  12.066 -1.1824 -0.7915  0.2406
  419MPD2    H3 6310   2.955   4.159  12.244 -1.8266 -1.7648  1.0547
  419MPD2     N 6311   2.725   4.379  12.576 -0.3143 -0.4670  0.7144
  419MPD2    H5 6312   2.651   4.448  12.585  1.2906  1.1455  1.5996
  419MPD2    N1 6313   2.598   4.405  12.114  0.0415  0.2404  0.2631
  419MPD2    H7 6314   2.539   4.480  12.151 -1.4822  0.2425 -2.1763
  420TMC3    C1 6315   2.745   4.369  12.811 -0.6495  0.1277  0.2900
  420TMC3    C2 6316   2.684   4.493  12.803 -1.2792 -0.0890 -0.4799
  420TMC3    C3 6317   2.595   4.513  12.902 -0.1058 -1.0201  0.8713
  420TMC3    C4 6318   2.727   4.280  12.915  0.3434 -0.0686 -0.4618
  420TMC3    C5 6319   2.642   4.308  13.013  0.3489  0.5083  0.2991
  420TMC3    C6 6320   2.563   4.420  13.004 -0.5241 -0.2804 -0.1184
  420TMC3     C 6321   2.775   4.306  12.684 -0.1762 -0.9712 -0.4232
  420TMC3     O 6322   2.827   4.191  12.687 -0.4005  0.5216  0.8143
  420TMC3     H 6323   2.702   4.566  12.725  0.1288  1.5730  1.3910
  420TMC3    H1 6324   2.781   4.186  12.919  2.1428  1.0521  1.9130
  420TMC3    H2 6325   2.482   4.440  13.073 -1.0447 -2.6730 -0.0394
  420TMC3    C7 6326   2.682   4.296  13.153 -0.0467 -0.2619 -0.4089
  420TMC3    C8 6327   2.551   4.649  12.930  0.2542 -0.0715  0.4763
  420TMC3    O1 6328   2.661   4.394  13.223  0.5655  0.3584 -0.7302
  420TMC3    O2 6329   2.558   4.724  12.832 -0.4034  0.4721  0.3013
  421TMC3    C1 6330   3.830   1.502  13.508  1.0006 -0.8816 -0.1939
  421TMC3    C2 6331   3.846   1.611  13.589 -0.3596  0.1891 -0.0536
  421TMC3    C3 6332   3.965   1.640  13.638  0.2136 -0.0502 -0.2300
  421TMC3    C4 6333   3.930   1.411  13.490 -0.5662  0.2433 -0.2843
  421TMC3    C5 6334   4.055   1.438  13.546  0.2045 -0.3324  0.4782
  421TMC3    C6 6335   4.069   1.550  13.621 -0.6575  0.4310  0.8249
  421TMC3     C 6336   3.694   1.472  13.460  0.4689 -0.0277  0.2600
  421TMC3     O 6337   3.619   1.568  13.432  0.0581 -0.0250 -0.1134
  421TMC3     H 6338   3.766   1.676  13.621 -0.1182  0.3575  0.2162
  421TMC3    H1 6339   3.921   1.335  13.414  0.5598  2.1402 -2.3332
  421TMC3    H2 6340   4.169   1.573  13.655  0.2235 -0.0880 -1.4448
  421TMC3    C7 6341   4.162   1.333  13.536 -0.3294  0.1101 -0.0740
  421TMC3    C8 6342   3.993   1.745  13.730  0.4051  0.2700 -0.2115
  421TMC3    O1 6343   4.269   1.352  13.588  0.0741 -0.9084 -0.3401
  421TMC3    O2 6344   4.113   1.753  13.758 -0.0687  0.3699  0.2399
  422TMC3    C1 6345   1.490   2.701  12.473  0.1729 -0.7609  0.2561
  422TMC3    C2 6346   1.464   2.808  12.550 -0.1229 -0.4813  0.6369
  422TMC3    C3 6347   1.349   2.811  12.626  0.1729 -0.1421 -0.4251
  422TMC3    C4 6348   1.408   2.592  12.492  0.2503  0.2077  0.4639
  422TMC3    C5 6349   1.285   2.594  12.558 -0.2852 -0.4643 -0.3463
  422TMC3    C6 6350   1.253   2.709  12.621  0.2411  0.5523 -0.5942
  422TMC3     C 6351   1.632   2.686  12.418 -0.5731 -0.3907 -0.2420
  422TMC3     O 6352   1.667   2.787  12.361 -0.0598 -0.3229  0.0327
  422TMC3     H 6353   1.537   2.886  12.537  0.0905 -0.8672 -0.4677
  422TMC3    H1 6354   1.445   2.499  12.451 -0.0560  0.4983 -0.4753
  422TMC3    H2 6355   1.163   2.736  12.676  0.3600  1.0621 -0.6474
  422TMC3    C7 6356   1.217   2.468  12.592 -0.5475 -0.4272  0.2344
  422TMC3    C8 6357   1.330   2.939  12.694 -0.3537 -0.2465  0.6836
  422TMC3    O1 6358   1.281   2.371  12.551 -0.0529 -0.2862  0.0823
  422TMC3    O2 6359   1.426   2.998  12.743 -0.0070 -0.1245  0.1931
  423MPD2     C 6360   2.271   3.578   0.499 -0.6485  0.3256  0.3372
  423MPD2    C1 6361   2.391   3.537   0.556  0.2443  0.6328 -0.0912
  423MPD2    C2 6362   2.492   3.470   0.481 -0.0609  0.5203  0.0879
  423MPD2    C3 6363   2.470   3.449   0.349  0.4950  0.5345 -0.3693
  423MPD2    C4 6364   2.355   3.499   0.290 -0.2906 -0.3022  0.1740
  423MPD2    C5 6365   2.258   3.553   0.365  0.4253  0.2718 -0.5140
  423MPD2     H 6366   2.582   3.438   0.533  0.1634 -0.4369 -0.8845
  423MPD2    H1 6367   2.341   3.480   0.184 -1.4976  0.1683  0.2425
  423MPD2    H2 6368   2.186   3.618   0.554  0.1860  0.1882  1.7479
  423MPD2    H3 6369   2.162   3.569   0.316  0.0848  1.0136  0.4039
  423MPD2     N 6370   2.567   3.396   0.261 -0.6726  0.4550  0.3291
  423MPD2    H5 6371   2.552   3.406   0.161 -2.9653  0.9229  0.7303
  423MPD2    N1 6372   2.417   3.559   0.690 -0.4119  0.4260 -0.0974
  423MPD2    H7 6373   2.496   3.510   0.730 -0.7222 -0.4737 -0.5804
  424TMC3    C1 6374   2.395   3.636   0.912 -0.8008 -0.3887 -0.0211
  424TMC3    C2 6375   2.512   3.577   0.944  0.1008  0.5047 -0.6437
  424TMC3    C3 6376   2.550   3.600   1.076 -0.3396 -0.0699  0.4783
  424TMC3    C4 6377   2.318   3.708   1.001  0.1953  0.2498 -0.2594
  424TMC3    C5 6378   2.353   3.728   1.128  0.4774 -0.1728 -0.7960
  424TMC3    C6 6379   2.475   3.677   1.168  0.0661 -0.2235  0.1805
  424TMC3     C 6380   2.334   3.619   0.779 -0.1080 -0.2191 -0.6139
  424TMC3     O 6381   2.220   3.657   0.766  0.3401  0.4761 -0.3469
  424TMC3     H 6382   2.558   3.498   0.886  0.4222 -1.2668  2.0012
  424TMC3    H1 6383   2.231   3.761   0.964 -0.8384 -1.4779 -0.2708
  424TMC3    H2 6384   2.522   3.695   1.264  0.7383 -1.1510  0.0264
  424TMC3    C7 6385   2.256   3.744   1.242 -0.1838 -0.6256 -0.0145
  424TMC3    C8 6386   2.683   3.550   1.118  0.5307 -0.1447  0.2318
  424TMC3    O1 6387   2.308   3.770   1.352 -0.1320  0.3322  0.4486
  424TMC3    O2 6388   2.703   3.527   1.240  0.0480  0.4661  0.4198
  425MPD2     C 6389   1.937   2.692  17.151 -0.6081 -0.1817 -0.0795
  425MPD2    C1 6390   1.853   2.602  17.211 -0.7328 -0.0562 -0.2123
  425MPD2    C2 6391   1.740   2.637  17.281  0.5279  0.6401  0.0273
  425MPD2    C3 6392   1.724   2.767  17.310  0.2214  0.6979  0.0802
  425MPD2    C4 6393   1.811   2.865  17.267  0.2885  0.1394 -0.0793
  425MPD2    C5 6394   1.908   2.820  17.187  0.9759 -0.4245  0.1637
  425MPD2     H 6395   1.672   2.571  17.334  0.9269  0.9232  0.8956
  425MPD2    H1 6396   1.792   2.970  17.288 -2.1187 -0.3563  0.3207
  425MPD2    H2 6397   2.032   2.673  17.103 -0.8457 -1.9293  0.1607
  425MPD2    H3 6398   1.978   2.896  17.156  1.7794 -1.5878 -0.8627
  425MPD2     N 6399   1.617   2.797  17.393  0.0520  0.5528 -0.6402
  425MPD2    H5 6400   1.554   2.723  17.423 -0.3797  1.2954  0.2747
  425MPD2    N1 6401   1.879   2.471  17.182 -0.1821 -0.1680  0.0894
  425MPD2    H7 6402   1.957   2.442  17.124 -1.2764  0.2017 -1.5604
  426TMC3    C1 6403   1.847   2.235  17.177 -0.5345  0.6718 -0.2240
  426TMC3    C2 6404   1.959   2.235  17.097  0.2500 -0.8266  0.4239
  426TMC3    C3 6405   2.013   2.113  17.078  0.3100  0.6417 -0.1133
  426TMC3    C4 6406   1.806   2.125  17.249 -0.3617  0.2671  0.4970
  426TMC3    C5 6407   1.869   2.011  17.231 -0.2700 -0.0690 -0.0569
  426TMC3    C6 6408   1.974   1.999  17.143 -0.6324 -0.7685 -0.1674
  426TMC3     C 6409   1.794   2.363  17.220 -0.0106 -0.4942 -0.3735
  426TMC3     O 6410   1.696   2.352  17.292 -1.0103  0.0168 -0.2664
  426TMC3     H 6411   1.993   2.314  17.031 -1.7238 -0.6376 -0.3597
  426TMC3    H1 6412   1.710   2.133  17.298  0.1329  0.0015  1.5017
  426TMC3    H2 6413   2.004   1.901  17.109  2.3629  0.7411 -1.8761
  426TMC3    C7 6414   1.810   1.888  17.282  0.9438  0.0793 -0.1226
  426TMC3    C8 6415   2.076   2.079  16.943  0.3907 -0.4114 -0.1966
  426TMC3    O1 6416   1.853   1.782  17.240 -0.4765 -0.0030  0.6802
  426TMC3    O2 6417   2.109   1.962  16.932  0.0570 -0.2864  0.3463
  427MPD2     C 6418   0.526   4.323  14.993  0.7317  0.2275  0.1249
  427MPD2    C1 6419   0.502   4.381  15.117 -0.1842 -0.2349  0.4083
  427MPD2    C2 6420   0.385   4.450  15.142 -0.0712  0.7507  0.2134
  427MPD2    C3 6421   0.285   4.447  15.047 -0.0172  0.1531 -0.1558
  427MPD2    C4 6422   0.304   4.378  14.929  0.8590  0.2504 -0.1608
  427MPD2    C5 6423   0.424   4.327  14.903  0.0399 -0.2131 -0.1976
  427MPD2     H 6424   0.373   4.503  15.236 -2.8293  2.5330 -1.1538
  427MPD2    H1 6425   0.223   4.361  14.859 -0.0267 -0.8261  1.0913
  427MPD2    H2 6426   0.620   4.275  14.968 -0.7027 -0.9720 -3.0523
  427MPD2    H3 6427   0.439   4.276  14.808 -2.0063 -1.9008  0.3786
  427MPD2     N 6428   0.165   4.517  15.058  0.4101 -0.7243  0.1369
  427MPD2    H5 6429   0.102   4.502  14.980 -0.0957  0.5961  0.2895
  427MPD2    N1 6430   0.594   4.368  15.225  0.0435 -0.2628 -0.0299
  427MPD2    H7 6431   0.565   4.396  15.317  0.1663 -0.4493  0.0655
  428TMC3    C1 6432   0.786   4.303  15.350  0.1299 -0.2184  0.2556
  428TMC3    C2 6433   0.717   4.211  15.424 -0.4125  1.3123 -0.0392
  428TMC3    C3 6434   0.748   4.205  15.558  0.6165 -0.5479  0.2485
  428TMC3    C4 6435   0.877   4.392  15.401  0.6568  0.4264  0.8337
  428TMC3    C5 6436   0.915   4.378  15.533  0.3461  0.0761  0.1382
  428TMC3    C6 6437   0.856   4.280  15.607  0.3077 -0.0537  0.2323
  428TMC3     C 6438   0.726   4.325  15.220 -1.0057  0.0433 -0.3494
  428TMC3     O 6439   0.788   4.289  15.119 -0.3754  0.0977 -0.5761
  428TMC3     H 6440   0.644   4.146  15.379  0.6108  0.6108 -0.6816
  428TMC3    H1 6441   0.915   4.477  15.346  0.9398 -0.6583 -0.6400
  428TMC3    H2 6442   0.889   4.268  15.710 -1.8284  0.9616  1.0222
  428TMC3    C7 6443   1.052   4.413  15.581 -0.7200 -0.2299  0.2397
  428TMC3    C8 6444   0.735   4.078  15.620 -0.1860 -0.8141 -0.0752
  428TMC3    O1 6445   1.079   4.410  15.702 -0.3996  0.2224  0.4017
  428TMC3    O2 6446   0.826   4.022  15.681 -0.0664 -0.5314 -0.4936
  429MPD2     C 6447   1.481   4.723  17.507  0.3408  0.6080  0.4781
  429MPD2    C1 6448   1.605   4.663  17.461  0.1532 -0.9446  0.5361
  429MPD2    C2 6449   1.710   0.008  17.422  0.7270  0.5309  0.1530
  429MPD2    C3 6450   1.705   0.146  17.427 -0.3636  0.5779 -0.4270
  429MPD2    C4 6451   1.579   0.198  17.458  0.3978  0.9458 -0.4421
  429MPD2    C5 6452   1.466   0.125  17.504 -0.6193 -0.3346 -1.0861
  429MPD2     H 6453   1.801   4.691  17.398 -0.6578 -2.3900  1.4354
  429MPD2    H1 6454   1.564   0.304  17.439  3.4581  1.3403 -0.5471
  429MPD2    H2 6455   1.404   4.651  17.531 -0.1009  1.2456  0.9717
  429MPD2    H3 6456   1.375   0.183  17.511 -0.5134 -0.6768  3.4234
  429MPD2     N 6457   1.816   0.209  17.359  0.3365 -0.4398  0.4626
  429MPD2    H5 6458   1.903   0.158  17.345  0.8151  0.5450 -0.1555
  429MPD2    N1 6459   1.615   4.522  17.454 -0.1010  0.6639  0.1502
  429MPD2    H7 6460   1.709   4.484  17.442  0.2554  1.3483  0.7488
  430TMC3    C1 6461   1.935   0.371  17.238  0.1317  0.1093  0.5347
  430TMC3    C2 6462   1.920   0.476  17.160  0.0422  1.1371 -0.1887
  430TMC3    C3 6463   1.989   0.488  17.043  0.3896  0.0178 -0.1824
  430TMC3    C4 6464   2.029   0.278  17.207  0.3779 -0.0451 -0.3162
  430TMC3    C5 6465   2.104   0.286  17.092 -0.1416  0.2336  0.1097
  430TMC3    C6 6466   2.084   0.396  17.013 -0.0573  0.4976  0.6823
  430TMC3     C 6467   1.821   0.338  17.321 -0.0511 -0.0374  0.0047
  430TMC3     O 6468   1.733   0.417  17.312  0.4773 -0.4440 -0.4145
  430TMC3     H 6469   1.862   0.559  17.198 -0.6450  0.0341  1.1566
  430TMC3    H1 6470   2.040   0.193  17.272  0.7908 -0.6240 -1.1379
  430TMC3    H2 6471   2.160   0.410  16.938 -0.6728 -2.4522 -0.4821
  430TMC3    C7 6472   2.108   0.160  17.027 -0.4651 -0.3756  0.6701
  430TMC3    C8 6473   1.897   0.506  16.942  0.5846 -0.0176  0.9153
  430TMC3    O1 6474   2.118   0.063  17.098  0.6292 -0.9974 -0.4637
  430TMC3    O2 6475   1.930   0.450  16.838 -0.4286 -0.3864 -0.0511
  431MPD2     C 6476   2.378   0.313  12.406 -0.1963  0.0752  0.2618
  431MPD2    C1 6477   2.478   0.333  12.311  0.6617  0.1685 -0.8200
  431MPD2    C2 6478   2.463   0.253  12.202  0.2091 -0.8099  0.3502
  431MPD2    C3 6479   2.364   0.162  12.188 -0.2217 -1.1719 -0.0116
  431MPD2    C4 6480   2.277   0.137  12.282  0.4482 -0.5706 -0.7903
  431MPD2    C5 6481   2.278   0.219  12.391  0.7265  0.1830 -0.6806
  431MPD2     H 6482   2.535   0.263  12.122 -1.5676 -0.4071 -1.1965
  431MPD2    H1 6483   2.202   0.060  12.276  0.5045 -0.7115  0.2296
  431MPD2    H2 6484   2.368   0.379  12.492  0.5792  0.3713  0.1306
  431MPD2    H3 6485   2.209   0.205  12.473  0.9270  2.4583 -0.1249
  431MPD2     N 6486   2.364   0.073  12.078 -0.4553  0.8634 -0.7819
  431MPD2    H5 6487   2.310   4.723  12.088  1.2676 -0.0644  0.4049
  431MPD2    N1 6488   2.590   0.417  12.315 -0.8936 -0.0907 -1.0044
  431MPD2    H7 6489   2.650   0.423  12.234 -0.0156  2.2827 -0.1874
  432TMC3    C1 6490   2.413   4.709  11.887  0.3337  0.1157  0.7307
  432TMC3    C2 6491   2.434   4.716  11.756  0.4498 -0.3604 -0.9594
  432TMC3    C3 6492   2.515   4.627  11.693 -1.2265  0.0929  0.0745
  432TMC3    C4 6493   2.456   4.602  11.966 -0.3720 -0.0887  0.6858
  432TMC3    C5 6494   2.527   4.502  11.896 -0.2858 -0.0433 -0.5501
  432TMC3    C6 6495   2.553   4.516  11.761  1.2059  0.6318  0.7030
  432TMC3     C 6496   2.424   0.097  11.961 -0.2993  0.3413  0.0237
  432TMC3     O 6497   2.478   0.198  11.912  0.4297  0.0770  0.0730
  432TMC3     H 6498   2.404   0.067  11.699  0.9028 -0.0889 -0.7775
  432TMC3    H1 6499   2.447   4.598  12.074 -1.6558 -1.4610  0.5237
  432TMC3    H2 6500   2.614   4.443  11.709 -2.2628 -0.3875 -1.9688
  432TMC3    C7 6501   2.601   4.391  11.977  0.0641  0.4378 -0.2145
  432TMC3    C8 6502   2.604   4.693  11.600  0.2216 -0.0845  0.4589
  432TMC3    O1 6503   2.646   4.296  11.914 -0.0693  0.4448 -0.0269
  432TMC3    O2 6504   2.559   0.055  11.540 -0.1439  0.0385 -0.4061
  433MPD2     C 6505   1.670   3.640  11.211 -0.3160 -0.4061 -0.2483
  433MPD2    C1 6506   1.602   3.531  11.271 -0.5745  0.1249 -0.6660
  433MPD2    C2 6507   1.587   3.534  11.409  0.3709 -0.4706  0.0544
  433MPD2    C3 6508   1.614   3.650  11.476 -0.8145 -0.6182 -0.0007
  433MPD2    C4 6509   1.687   3.756  11.419  0.2135  0.0201  0.0833
  433MPD2    C5 6510   1.718   3.745  11.290 -0.2729  0.2335  0.4914
  433MPD2     H 6511   1.550   3.447  11.464  0.4180 -0.3633  0.2573
  433MPD2    H1 6512   1.716   3.844  11.475 -3.3343  1.2014  0.1285
  433MPD2    H2 6513   1.694   3.638  11.106 -1.7155 -2.0548 -0.5431
  433MPD2    H3 6514   1.781   3.819  11.243  1.0687 -1.6486 -0.6638
  433MPD2     N 6515   1.591   3.648  11.614  0.2527  0.0532 -0.7371
  433MPD2    H5 6516   1.579   3.557  11.658  0.4366 -0.3064 -1.4332
  433MPD2    N1 6517   1.553   3.427  11.188 -0.1102 -0.4844  0.0017
  433MPD2    H7 6518   1.579   3.425  11.090 -0.4231 -0.7448 -0.0776
  434TMC3    C1 6519   1.457   3.220  11.116 -0.3679 -0.2501  0.8074
  434TMC3    C2 6520   1.442   3.103  11.179 -0.5202  0.0091 -0.0162
  434TMC3    C3 6521   1.471   2.996  11.105  0.6414  0.4166  0.4037
  434TMC3    C4 6522   1.507   3.238  10.990 -0.5860 -0.0214  0.0708
  434TMC3    C5 6523   1.556   3.123  10.927  0.2004 -0.6319  0.0030
  434TMC3    C6 6524   1.538   3.004  10.989 -0.0569  0.2203 -0.2546
  434TMC3     C 6525   1.469   3.324  11.224 -0.4247  0.9243  0.2467
  434TMC3     O 6526   1.419   3.307  11.333 -0.2264 -0.2151  0.5826
  434TMC3     H 6527   1.400   3.100  11.279 -0.4764 -0.8692 -0.0241
  434TMC3    H1 6528   1.510   3.339  10.950 -0.1723 -0.1461 -0.2141
  434TMC3    H2 6529   1.573   2.911  10.944  1.2181  0.6914 -0.2374
  434TMC3    C7 6530   1.582   3.126  10.785 -0.4731 -0.2097  0.4922
  434TMC3    C8 6531   1.510   2.890  11.184 -0.1019 -0.0923  0.3739
  434TMC3    O1 6532   1.556   3.226  10.728 -0.1852 -0.1580 -0.1572
  434TMC3    O2 6533   1.593   2.920  11.270  0.2864 -0.0713 -0.5574
  435MPD2     C 6534   3.503   3.419  15.547  0.6775  0.2343 -0.1728
  435MPD2    C1 6535   3.500   3.439  15.686  0.8936  0.5800 -0.2801
  435MPD2    C2 6536   3.605   3.390  15.765 -0.4514 -0.5884 -0.5144
  435MPD2    C3 6537   3.707   3.322  15.709  0.3869  0.3760  0.0239
  435MPD2    C4 6538   3.715   3.307  15.574  0.2430 -0.0864 -0.6125
  435MPD2    C5 6539   3.611   3.352  15.495  0.5775 -0.7327  0.3385
  435MPD2     H 6540   3.596   3.402  15.872  2.5472  0.7313 -0.4088
  435MPD2    H1 6541   3.788   3.243  15.525  0.4691  0.1810 -0.6289
  435MPD2    H2 6542   3.424   3.448  15.480 -0.4650  0.8268  1.4319
  435MPD2    H3 6543   3.619   3.344  15.388 -3.5100 -2.4208  0.1809
  435MPD2     N 6544   3.796   3.257  15.796  0.0730  0.4632  0.0039
  435MPD2    H5 6545   3.756   3.236  15.887 -0.3596  1.4139  0.0341
  435MPD2    N1 6546   3.390   3.499  15.751  0.1757  0.3293  0.4463
  435MPD2    H7 6547   3.413   3.529  15.844  0.7131  0.9800  0.1004
  436TMC3    C1 6548   3.149   3.673  16.013 -0.5026 -0.4375 -0.1143
  436TMC3    C2 6549   3.218   3.657  15.894 -0.2459  0.3846  0.9232
  436TMC3    C3 6550   3.175   3.559  15.812 -0.3511 -0.8303 -0.1116
  436TMC3    C4 6551   3.039   3.597  16.046  0.2222  0.7107  0.1578
  436TMC3    C5 6552   2.997   3.502  15.956 -0.3612  0.1137  0.0949
  436TMC3    C6 6553   3.064   3.486  15.833 -0.4508  0.5375 -0.6150
  436TMC3     C 6554   3.221   3.745  16.112  0.1449  0.0758  0.1180
  436TMC3     O 6555   3.336   3.779  16.087 -0.7076  0.2394 -0.1591
  436TMC3     H 6556   3.302   3.720  15.869 -1.3921  1.4094 -0.3970
  436TMC3    H1 6557   3.003   3.596  16.148  1.7606 -0.6499  0.6805
  436TMC3    H2 6558   3.043   3.402  15.768  0.0747  0.5215 -0.7690
  436TMC3    C7 6559   2.963   3.381  16.021  0.0853  0.6706  0.3982
  436TMC3    C8 6560   3.260   3.514  15.699  0.6588 -0.5365  0.9703
  436TMC3    O1 6561   3.001   3.365  16.137 -0.1485 -0.3265  0.1765
  436TMC3    O2 6562   3.217   3.470  15.596  0.8201 -0.2603  0.2434
  437TMC3    C1 6563   2.289   1.163  12.369  0.6279 -0.3373  0.0644
  437TMC3    C2 6564   2.193   1.234  12.300 -0.4901 -0.1709 -1.1802
  437TMC3    C3 6565   2.230   1.311  12.194 -0.4235  0.0741  0.0296
  437TMC3    C4 6566   2.425   1.174  12.343 -0.2956 -0.5422  0.3484
  437TMC3    C5 6567   2.458   1.247  12.230  0.3300 -0.1103 -0.6784
  437TMC3    C6 6568   2.362   1.318  12.153 -0.1900 -0.4752 -0.7987
  437TMC3     C 6569   2.244   1.079  12.480  0.3218  1.0372  0.1291
  437TMC3     O 6570   2.145   1.013  12.453 -0.0107 -0.4394 -0.1286
  437TMC3     H 6571   2.092   1.216  12.334 -0.2042 -0.4575 -0.4943
  437TMC3    H1 6572   2.492   1.112  12.401 -1.1293 -1.0703  0.7424
  437TMC3    H2 6573   2.392   1.357  12.056 -1.7636  3.1745  0.1631
  437TMC3    C7 6574   2.587   1.241  12.178 -0.7969 -0.0251  0.7035
  437TMC3    C8 6575   2.127   1.389  12.121  0.3865  0.3137 -0.5815
  437TMC3    O1 6576   2.606   1.279  12.067  0.2215 -0.0323  0.3902
  437TMC3    O2 6577   2.013   1.362  12.155  0.3069 -0.3314 -0.1926
  438MPD2     C 6578   4.223   1.278  16.482  0.0599 -0.1047 -0.4544
  438MPD2    C1 6579   4.308   1.200  16.559 -0.0648 -0.5590  0.2074
  438MPD2    C2 6580   4.283   1.202  16.694 -0.1994  0.0324 -0.3335
  438MPD2    C3 6581   4.184   1.278  16.753  0.5667 -0.1301  0.3929
  438MPD2    C4 6582   4.102   1.351  16.672  0.2529 -1.0841 -0.5251
  438MPD2    C5 6583   4.118   1.345  16.537  0.7642 -0.0613 -0.0360
  438MPD2     H 6584   4.364   1.154  16.749 -1.1864 -2.3838 -1.0176
  438MPD2    H1 6585   4.024   1.413  16.715  2.3623  2.4097 -1.7554
  438MPD2    H2 6586   4.240   1.281  16.375  1.2794 -0.2454 -0.2734
  438MPD2    H3 6587   4.050   1.416  16.490  3.2571  1.4514 -1.3299
  438MPD2     N 6588   4.163   1.280  16.894  0.0341  0.5598 -0.7051
  438MPD2    H5 6589   4.077   1.324  16.925 -0.2972 -1.1330  0.7569
  438MPD2    N1 6590   4.427   1.140  16.515  0.3908 -0.0395 -0.1774
  438MPD2    H7 6591   4.469   1.080  16.585  0.6586 -1.0696 -1.2175
  439TMC3    C1 6592   4.609   1.070  16.382  0.0713  0.4288 -0.5317
  439TMC3    C2 6593   4.678   1.077  16.263 -0.1683  0.0255  0.6275
  439TMC3    C3 6594   0.049   1.000  16.254 -0.9887 -0.4474 -0.2817
  439TMC3    C4 6595   4.647   0.995  16.487  0.0588 -1.1983 -0.7078
  439TMC3    C5 6596   0.021   0.922  16.474 -0.5531 -0.6486 -0.0244
  439TMC3    C6 6597   0.095   0.925  16.361 -0.0535  0.5418  0.3321
  439TMC3     C 6598   4.484   1.145  16.395  0.3117 -0.1530 -0.1186
  439TMC3     O 6599   4.449   1.206  16.296 -0.1726 -0.2998  0.0779
  439TMC3     H 6600   4.642   1.152  16.195  0.8653  0.6084  0.7145
  439TMC3    H1 6601   4.608   1.010  16.587 -0.2412 -0.7143 -0.8945
  439TMC3    H2 6602   0.182   0.860  16.355 -0.6976 -0.4532  1.7157
  439TMC3    C7 6603   0.099   0.908  16.601 -0.0005  0.4573  0.4470
  439TMC3    C8 6604   0.132   1.005  16.136  0.1734  0.4629  0.1652
  439TMC3    O1 6605   0.069   0.988  16.690  0.1991 -0.7206 -0.5239
  439TMC3    O2 6606   0.249   0.964  16.143 -0.2918  0.6740  0.0220
  440MPD2     C 6607   3.780   1.382  15.343  0.3603 -0.0812  0.2958
  440MPD2    C1 6608   3.785   1.494  15.418  0.0648  0.2140  0.5874
  440MPD2    C2 6609   3.896   1.506  15.501 -0.3353 -0.1429 -0.0803
  440MPD2    C3 6610   4.008   1.426  15.490  1.0967  0.0317 -0.7010
  440MPD2    C4 6611   3.999   1.310  15.412  0.0885 -0.7330  0.2518
  440MPD2    C5 6612   3.884   1.297  15.336  0.4668  0.5098 -1.0135
  440MPD2     H 6613   3.892   1.580  15.579  0.6251  0.3991 -0.5337
  440MPD2    H1 6614   4.073   1.232  15.411  1.9302  1.0164 -0.8095
  440MPD2    H2 6615   3.700   1.352  15.276 -0.6142  3.3559 -0.1095
  440MPD2    H3 6616   3.881   1.209  15.273  0.2375 -0.2593  0.0769
  440MPD2     N 6617   4.125   1.439  15.576  0.1906  0.0433 -0.6364
  440MPD2    H5 6618   4.191   1.362  15.573  1.6997  1.3873 -1.3395
  440MPD2    N1 6619   3.672   1.580  15.439 -0.3460  0.5839 -0.4221
  440MPD2    H7 6620   3.684   1.660  15.501  1.4555 -0.8293  1.0411
  441TMC3    C1 6621   4.225   1.506  15.778  0.2793  0.5662  0.4306
  441TMC3    C2 6622   4.231   1.609  15.865  0.2243  0.7107  0.7489
  441TMC3    C3 6623   4.183   1.604  15.988 -0.6178  0.1972  0.3513
  441TMC3    C4 6624   4.193   1.378  15.816 -0.1772  1.0067 -0.5156
  441TMC3    C5 6625   4.179   1.364  15.953 -0.0317 -0.0893  0.0432
  441TMC3    C6 6626   4.165   1.477  16.035  0.0556  0.1405 -0.9396
  441TMC3     C 6627   4.144   1.543  15.662 -0.3533  0.1464 -0.6993
  441TMC3     O 6628   4.096   1.657  15.666 -0.1667  0.6397  0.0034
  441TMC3     H 6629   4.246   1.711  15.830  1.5041 -0.1052 -1.0428
  441TMC3    H1 6630   4.207   1.291  15.754  1.7597  0.3155  0.8948
  441TMC3    H2 6631   4.133   1.463  16.137 -1.0497  0.0733 -1.2932
  441TMC3    C7 6632   4.078   1.263  15.986  0.2377 -0.4166 -0.2178
  441TMC3    C8 6633   4.091   1.700  16.045 -0.3566  0.8762 -0.2336
  441TMC3    O1 6634   4.109   1.178  16.066 -0.1701 -0.3648  0.3922
  441TMC3    O2 6635   4.072   1.690  16.167  0.1032  0.7067  0.1323
  442MPD2     C 6636   1.898   2.139  16.322  0.0895 -0.0912  0.3019
  442MPD2    C1 6637   1.781   2.085  16.381 -0.4150 -0.3875  0.0628
  442MPD2    C2 6638   1.739   1.967  16.328  0.2824 -0.2800  0.3365
  442MPD2    C3 6639   1.801   1.903  16.226  0.3598  0.1092 -0.6347
  442MPD2    C4 6640   1.911   1.960  16.165  0.3041 -0.4648  0.0475
  442MPD2    C5 6641   1.958   2.075  16.216  0.3620  0.7702 -1.1738
  442MPD2     H 6642   1.655   1.923  16.381 -1.9241  2.4020 -0.9280
  442MPD2    H1 6643   1.976   1.896  16.106 -0.8436 -2.5812  1.0740
  442MPD2    H2 6644   1.948   2.226  16.363  1.3556 -0.5295 -0.3031
  442MPD2    H3 6645   2.058   2.108  16.188  1.1217 -0.1103  0.4648
  442MPD2     N 6646   1.767   1.770  16.182 -0.3877  0.5963 -0.4470
  442MPD2    H5 6647   1.831   1.729  16.115 -0.6427  0.4291 -0.5862
  442MPD2    N1 6648   1.705   2.142  16.480 -0.5442  0.7602  0.5478
  442MPD2    H7 6649   1.614   2.109  16.510 -1.3383  0.3409 -2.3485
  443TMC3    C1 6650   1.603   2.307  16.594  0.0141 -0.8704 -0.1555
  443TMC3    C2 6651   1.573   2.442  16.583  0.7624 -0.6275 -0.0448
  443TMC3    C3 6652   1.452   2.490  16.629  0.1384 -0.4312 -0.1396
  443TMC3    C4 6653   1.521   2.215  16.646  0.1831  0.7609 -0.1700
  443TMC3    C5 6654   1.411   2.267  16.713  0.1289 -0.8528  0.2640
  443TMC3    C6 6655   1.372   2.400  16.701  0.5953 -0.6767 -0.2307
  443TMC3     C 6656   1.722   2.266  16.524 -0.3088  0.3014 -0.1819
  443TMC3     O 6657   1.798   2.359  16.499  0.3879 -0.1223  0.2550
  443TMC3     H 6658   1.647   2.514  16.550 -0.6920  1.4192  1.1916
  443TMC3    H1 6659   1.545   2.110  16.660 -2.1473  0.3733  0.9023
  443TMC3    H2 6660   1.291   2.439  16.761  0.4178 -1.2692 -0.0836
  443TMC3    C7 6661   1.321   2.165  16.773 -1.1541  0.0605  0.2111
  443TMC3    C8 6662   1.412   2.629  16.611  0.4169 -0.4248  0.0930
  443TMC3    O1 6663   1.314   2.050  16.734  0.3668 -0.3502 -0.0885
  443TMC3    O2 6664   1.359   2.679  16.712  0.7996  0.0396  0.0878
  444MPD2     C 6665   1.629   2.070  16.954  0.1248  0.3574  0.4844
  444MPD2    C1 6666   1.592   1.943  16.987  0.0739 -0.4135  0.0312
  444MPD2    C2 6667   1.661   1.846  16.932  0.2132 -0.2467  0.4889
  444MPD2    C3 6668   1.762   1.862  16.831 -0.6576  0.0078  0.6486
  444MPD2    C4 6669   1.788   1.988  16.796  0.3571 -0.2817 -0.2535
  444MPD2    C5 6670   1.719   2.092  16.859  0.0453  0.1429  0.8513
  444MPD2     H 6671   1.615   1.751  16.952  0.0761 -0.1065  0.8264
  444MPD2    H1 6672   1.859   2.009  16.717  0.3938  2.1031  0.4117
  444MPD2    H2 6673   1.587   2.157  17.005 -0.4771 -0.2260  0.9857
  444MPD2    H3 6674   1.748   2.196  16.844  0.6427 -0.4556 -2.1862
  444MPD2     N 6675   1.816   1.746  16.771  0.1842  0.2936 -0.6050
  444MPD2    H5 6676   1.888   1.766  16.703 -0.6675  1.5849 -1.1215
  444MPD2    N1 6677   1.491   1.907  17.071 -0.2184 -0.0540  0.2869
  444MPD2    H7 6678   1.468   1.809  17.081 -1.1473  0.2991  1.6767
  445TMC3    C1 6679   1.877   1.519  16.751  0.1175  0.1275  0.3325
  445TMC3    C2 6680   1.829   1.394  16.733  0.3935 -0.6823 -0.7305
  445TMC3    C3 6681   1.918   1.286  16.718  0.8487 -0.4826 -0.3299
  445TMC3    C4 6682   2.013   1.549  16.752  0.2099 -0.4010 -0.2656
  445TMC3    C5 6683   2.096   1.439  16.745  0.3875 -0.3343  0.2776
  445TMC3    C6 6684   2.054   1.305  16.729  0.0727  0.6515 -0.7939
  445TMC3     C 6685   1.784   1.617  16.806  0.2239  0.2354  0.4602
  445TMC3     O 6686   1.686   1.574  16.858  0.5384 -0.0968 -0.0375
  445TMC3     H 6687   1.725   1.372  16.754 -0.2357  1.1871 -1.9383
  445TMC3    H1 6688   2.044   1.649  16.778 -0.7706 -0.2884  0.4867
  445TMC3    H2 6689   2.135   1.233  16.726 -0.6661 -0.1636 -1.3850
  445TMC3    C7 6690   2.237   1.471  16.739  0.3605  0.0496 -0.7002
  445TMC3    C8 6691   1.871   1.158  16.675  0.5936 -0.5421  0.4278
  445TMC3    O1 6692   2.281   1.560  16.669  0.1341  0.7449  0.2482
  445TMC3    O2 6693   1.955   1.069  16.668 -0.0277 -0.6674  0.1650
  446MPD2     C 6694   1.223   2.794  11.704  0.0104  0.9519  0.2552
  446MPD2    C1 6695   1.239   2.822  11.567 -0.5390  0.0101 -0.4305
  446MPD2    C2 6696   1.355   2.887  11.524  0.2171 -0.9454  0.3548
  446MPD2    C3 6697   1.465   2.900  11.608  0.3265  0.1927  0.1408
  446MPD2    C4 6698   1.439   2.882  11.745 -0.0459 -0.2435 -0.8007
  446MPD2    C5 6699   1.317   2.838  11.789 -0.1442 -0.6853  0.3609
  446MPD2     H 6700   1.371   2.906  11.418  0.3365 -3.0479 -0.0194
  446MPD2    H1 6701   1.523   2.898  11.811 -0.1081 -2.6554 -0.1389
  446MPD2    H2 6702   1.142   2.736  11.747 -0.4724  1.3028 -0.1815
  446MPD2    H3 6703   1.308   2.826  11.896  0.4920 -0.6794  0.4198
  446MPD2     N 6704   1.590   2.943  11.554 -0.2874  0.3542  0.9675
  446MPD2    H5 6705   1.601   2.963  11.455 -0.8453  0.4609  0.9256
  446MPD2    N1 6706   1.137   2.778  11.480  0.1602  0.2405 -0.3783
  446MPD2    H7 6707   1.129   2.830  11.393  1.9968  2.9006  1.0452
  447TMC3    C1 6708   1.811   3.028  11.540  0.1675  0.0640  0.5083
  447TMC3    C2 6709   1.779   3.100  11.420 -0.8602 -0.3005 -0.1386
  447TMC3    C3 6710   1.883   3.148  11.341  0.0111 -0.5611  0.6774
  447TMC3    C4 6711   1.941   3.014  11.579 -0.2365 -0.2409  0.6064
  447TMC3    C5 6712   2.034   3.062  11.490 -0.0010 -0.4324  0.6432
  447TMC3    C6 6713   2.009   3.118  11.368 -0.7436  0.0562 -0.2715
  447TMC3     C 6714   1.709   2.973  11.624 -0.5450 -0.0596 -0.4197
  447TMC3     O 6715   1.728   2.968  11.747 -0.1575 -0.0229 -0.4327
  447TMC3     H 6716   1.676   3.129  11.402 -0.9373  0.7868  2.0487
  447TMC3    H1 6717   1.974   2.953  11.662  1.5580 -1.8912 -1.3268
  447TMC3    H2 6718   2.089   3.139  11.298 -0.1070  0.4059  0.5597
  447TMC3    C7 6719   2.170   3.020  11.505 -0.1664 -0.3980 -0.1766
  447TMC3    C8 6720   1.858   3.201  11.206  0.1121 -0.4561 -0.6722
  447TMC3    O1 6721   2.227   3.008  11.396 -0.9877  0.3359 -0.4948
  447TMC3    O2 6722   1.750   3.166  11.161 -0.4413  0.0710  0.0995
  448TMC3    C1 6723   4.154   2.210  17.458  0.1780 -0.4790 -0.7030
  448TMC3    C2 6724   4.121   2.144  17.349  0.1581  0.0376 -0.1611
  448TMC3    C3 6725   4.157   2.013  17.350 -0.0583  0.0189  0.0145
  448TMC3    C4 6726   4.222   2.159  17.564 -0.3255 -0.1675 -0.3439
  448TMC3    C5 6727   4.235   2.027  17.574 -0.0645 -0.0256 -0.2083
  448TMC3    C6 6728   4.211   1.948  17.461 -0.1171 -0.4697 -0.4379
  448TMC3     C 6729   4.109   2.346  17.484 -0.5763 -0.2807  0.9365
  448TMC3     O 6730   4.180   2.423  17.544 -0.2796  0.4257 -0.9223
  448TMC3     H 6731   4.089   2.202  17.263  2.0313  2.2331  0.6502
  448TMC3    H1 6732   4.233   2.219  17.653 -2.1887 -0.0288 -0.2095
  448TMC3    H2 6733   4.239   1.844  17.469  0.9633 -0.2135 -0.9314
  448TMC3    C7 6734   4.299   1.967  17.691  0.0542 -1.0486  0.6175
  448TMC3    C8 6735   4.172   1.939  17.232  0.1659 -0.3220  0.2669
  448TMC3    O1 6736   4.372   1.871  17.664 -0.6609  0.0200  0.7791
  448TMC3    O2 6737   4.260   1.853  17.237 -0.1172 -1.3510  0.0485
  449MPD2     C 6738   1.009   0.891  13.639  0.8762  0.2636 -0.2561
  449MPD2    C1 6739   0.918   0.994  13.613 -0.6294  0.7264  0.1108
  449MPD2    C2 6740   0.786   0.991  13.662 -0.1495  0.2038  0.0456
  449MPD2    C3 6741   0.747   0.886  13.743 -0.1532 -0.0881 -0.2652
  449MPD2    C4 6742   0.836   0.788  13.770  0.3244  0.7163  0.6130
  449MPD2    C5 6743   0.961   0.785  13.717  0.1243 -0.0080 -0.4805
  449MPD2     H 6744   0.718   1.071  13.638 -0.0187  0.2473 -0.1772
  449MPD2    H1 6745   0.818   0.710  13.844 -1.3402 -1.5831 -2.1801
  449MPD2    H2 6746   1.106   0.891  13.591  1.8255 -0.8345  1.6751
  449MPD2    H3 6747   1.023   0.704  13.754  0.7086 -0.2529 -1.9643
  449MPD2     N 6748   0.628   0.906  13.813 -0.1029  0.1105  0.1854
  449MPD2    H5 6749   0.577   0.985  13.776  1.2250  0.5323 -0.7523
  449MPD2    N1 6750   0.955   1.119  13.558  0.3907 -0.1618 -0.2445
  449MPD2    H7 6751   0.883   1.187  13.533  2.2851  2.1002  0.4507
  450TMC3    C1 6752   1.076   1.305  13.496 -0.3320  0.6528 -0.1166
  450TMC3    C2 6753   1.148   1.346  13.388 -0.2040  0.7898 -0.4399
  450TMC3    C3 6754   1.115   1.470  13.339  0.1197 -0.1898  0.0602
  450TMC3    C4 6755   0.975   1.380  13.561  0.1590  0.1370  0.1336
  450TMC3    C5 6756   0.946   1.504  13.500 -0.3420  0.1055  0.0877
  450TMC3    C6 6757   1.018   1.551  13.392  0.2040  0.0279  0.8467
  450TMC3     C 6758   1.078   1.164  13.520 -0.0437 -0.2033  0.1789
  450TMC3     O 6759   1.184   1.109  13.500 -0.3485 -0.0809 -0.0439
  450TMC3     H 6760   1.202   1.273  13.329  0.6480 -0.0309  1.3385
  450TMC3    H1 6761   0.940   1.350  13.659  1.6862  1.7773  1.1855
  450TMC3    H2 6762   0.981   1.642  13.347  0.7650 -0.3289 -0.3428
  450TMC3    C7 6763   0.828   1.582  13.539 -0.0039  0.2593 -0.9131
  450TMC3    C8 6764   1.219   1.550  13.265  0.2905  0.0242  0.6264
  450TMC3    O1 6765   0.816   1.696  13.490  0.3906 -0.5269  0.3277
  450TMC3    O2 6766   1.185   1.659  13.224  0.4474 -0.3462  0.0754
  451MPD2     C 6767   1.863   4.275   1.247  0.1991  0.3963 -0.3531
  451MPD2    C1 6768   1.859   4.385   1.171  0.4038  0.6349 -0.3628
  451MPD2    C2 6769   1.970   4.404   1.087  0.4698 -0.0274  0.0868
  451MPD2    C3 6770   2.070   4.311   1.066 -0.5628  0.0773 -0.4852
  451MPD2    C4 6771   2.066   4.203   1.143  0.3213  0.0219 -0.9826
  451MPD2    C5 6772   1.972   4.191   1.239 -0.0811  0.1097 -0.5143
  451MPD2     H 6773   1.974   4.492   1.024  2.2900 -0.8968 -1.0298
  451MPD2    H1 6774   2.135   4.123   1.123 -0.7374 -0.6914 -1.7841
  451MPD2    H2 6775   1.784   4.257   1.319 -0.0675 -0.0616 -0.7590
  451MPD2    H3 6776   1.970   4.109   1.310 -0.9396  1.8230  1.4453
  451MPD2     N 6777   2.176   4.344   0.969 -1.1382 -0.6939  0.0666
  451MPD2    H5 6778   2.163   4.428   0.915 -0.1964 -0.4429  0.2354
  451MPD2    N1 6779   1.744   4.474   1.170  0.0713  0.4381 -0.5082
  451MPD2    H7 6780   1.664   4.444   1.224  0.5767  1.4793  0.8233
  452TMC3    C1 6781   2.356   4.315   0.824  0.9247  0.0384 -0.9600
  452TMC3    C2 6782   2.273   4.353   0.720  0.3741 -0.0312  0.3107
  452TMC3    C3 6783   2.327   4.431   0.624 -0.3661  0.3232 -0.2785
  452TMC3    C4 6784   2.493   4.335   0.829  0.3713 -0.3748 -0.6339
  452TMC3    C5 6785   2.549   4.411   0.723  0.5011  0.8050  0.2437
  452TMC3    C6 6786   2.461   4.464   0.623 -0.2407 -0.7831  0.6859
  452TMC3     C 6787   2.290   4.263   0.944 -0.1349  0.4786 -0.2416
  452TMC3     O 6788   2.350   4.186   1.015  0.3162  0.1262  1.0805
  452TMC3     H 6789   2.167   4.331   0.720  0.5219 -0.7502 -0.5828
  452TMC3    H1 6790   2.546   4.311   0.921  1.3618  1.2313 -0.7841
  452TMC3    H2 6791   2.495   4.523   0.540  1.8052 -0.7216  1.5622
  452TMC3    C7 6792   2.691   4.413   0.693 -0.1423 -0.8309  0.0742
  452TMC3    C8 6793   2.234   4.493   0.535 -0.4254  0.2314  0.1692
  452TMC3    O1 6794   2.728   4.467   0.591 -0.4061 -0.4746  0.2106
  452TMC3    O2 6795   2.137   4.431   0.498 -0.1998 -0.1660  0.2356
  453TMC3    C1 6796   3.570   2.019  12.129  0.3581  0.1025 -1.2292
  453TMC3    C2 6797   3.526   1.889  12.094 -0.0539  0.4319 -0.2243
  453TMC3    C3 6798   3.488   1.871  11.962  0.2021  0.7095 -0.2218
  453TMC3    C4 6799   3.555   2.121  12.033 -0.3962 -0.3512  0.3492
  453TMC3    C5 6800   3.502   2.096  11.913 -0.0267  0.1861 -0.3324
  453TMC3    C6 6801   3.474   1.969  11.871  0.1216  0.0482 -0.4936
  453TMC3     C 6802   3.705   2.025  12.179 -0.1391 -0.0114 -0.5829
  453TMC3     O 6803   3.745   2.138  12.206 -0.4151  0.0199 -0.5963
  453TMC3     H 6804   3.537   1.804  12.161  0.2474  1.0396  0.4971
  453TMC3    H1 6805   3.595   2.221  12.044  0.5265 -0.5284 -1.4529
  453TMC3    H2 6806   3.438   1.946  11.771  0.4430 -1.7752 -0.1916
  453TMC3    C7 6807   3.536   2.191  11.809  0.1379 -0.5834  0.4611
  453TMC3    C8 6808   3.425   1.744  11.935  0.4408 -0.3362 -0.3434
  453TMC3    O1 6809   3.546   2.307  11.837 -0.1954  0.3893 -0.5661
  453TMC3    O2 6810   3.372   1.696  12.034 -0.2190 -0.4086 -0.1435
  454MPD2     C 6811   2.572   1.084  16.071 -0.1766  0.0567 -0.2703
  454MPD2    C1 6812   2.526   1.205  16.009 -0.3334 -0.2726  0.0405
  454MPD2    C2 6813   2.487   1.302  16.098  0.0045 -0.2109 -0.2219
  454MPD2    C3 6814   2.474   1.268  16.234 -0.0075 -0.4857  0.1006
  454MPD2    C4 6815   2.506   1.145  16.281 -0.5757  1.1163 -0.5444
  454MPD2    C5 6816   2.551   1.048  16.196 -0.2127  0.0332  0.6954
  454MPD2     H 6817   2.482   1.404  16.061 -1.1088 -0.7122 -1.4865
  454MPD2    H1 6818   2.494   1.131  16.388 -0.6475  0.5627 -0.6277
  454MPD2    H2 6819   2.614   1.007  16.007 -0.6752 -0.3091 -0.1575
  454MPD2    H3 6820   2.584   0.948  16.221  1.2371 -0.2427 -2.1972
  454MPD2     N 6821   2.411   1.354  16.326 -0.5538  0.1206 -0.1272
  454MPD2    H5 6822   2.375   1.312  16.411 -1.9451  1.8089  0.1110
  454MPD2    N1 6823   2.522   1.227  15.865 -0.3381  0.3394 -0.1796
  454MPD2    H7 6824   2.493   1.321  15.839 -1.4210 -0.4368 -1.7502
  455TMC3    C1 6825   2.261   1.518  16.379 -0.0755 -0.6878  0.1110
  455TMC3    C2 6826   2.244   1.655  16.385  0.2446 -0.6289 -0.1583
  455TMC3    C3 6827   2.116   1.703  16.408 -0.6002 -0.6278  0.0998
  455TMC3    C4 6828   2.155   1.432  16.379 -0.5850 -0.0026 -0.6442
  455TMC3    C5 6829   2.029   1.484  16.382  0.0869  0.0085  0.1414
  455TMC3    C6 6830   2.011   1.620  16.407 -0.1255  0.3643  0.4182
  455TMC3     C 6831   2.362   1.478  16.287  0.3029  0.0756 -1.0319
  455TMC3     O 6832   2.426   1.560  16.224 -0.0536  0.1039 -0.6489
  455TMC3     H 6833   2.332   1.719  16.392 -0.3176  0.1683 -0.4214
  455TMC3    H1 6834   2.165   1.325  16.359 -1.1770 -0.0357 -0.7718
  455TMC3    H2 6835   1.908   1.653  16.421  0.3344  1.4561  1.2513
  455TMC3    C7 6836   1.907   1.408  16.351  0.9651 -1.2269 -0.2201
  455TMC3    C8 6837   2.086   1.829  16.479 -0.6998 -0.0347 -0.5775
  455TMC3    O1 6838   1.798   1.436  16.394 -0.9399  0.3866  0.1438
  455TMC3    O2 6839   1.995   1.825  16.559 -0.1213  0.0724  0.2685
  456MPD2     C 6840   0.014   1.515  15.922  0.5811 -0.0928  0.1277
  456MPD2    C1 6841   0.092   1.444  16.012 -0.2548 -0.3154  0.0016
  456MPD2    C2 6842   0.056   1.432  16.142 -0.0823 -0.0257 -0.1550
  456MPD2    C3 6843   4.677   1.490  16.185  0.2173  0.0350  0.0918
  456MPD2    C4 6844   4.593   1.555  16.095 -1.2282  0.0711  0.0136
  456MPD2    C5 6845   4.633   1.564  15.962  0.8305  0.3296 -0.5145
  456MPD2     H 6846   0.115   1.381  16.217 -1.2911 -2.8593 -1.1010
  456MPD2    H1 6847   4.502   1.606  16.124  0.2057  1.2149  2.4539
  456MPD2    H2 6848   0.046   1.518  15.818 -0.7948  1.1906 -0.2698
  456MPD2    H3 6849   4.575   1.606  15.880  0.2383  0.2360 -0.1483
  456MPD2     N 6850   4.640   1.477  16.321 -0.3661  0.4347 -0.3483
  456MPD2    H5 6851   4.710   1.429  16.376 -1.6599 -1.2967 -0.1941
  456MPD2    N1 6852   0.201   1.377  15.964 -0.2196  0.6716  0.0787
  456MPD2    H7 6853   0.218   1.382  15.864  0.0193  1.0480  0.1407
  457TMC3    C1 6854   4.552   1.542  16.525 -0.0124 -0.0549 -0.5226
  457TMC3    C2 6855   4.438   1.544  16.599  0.3029  0.0207 -0.4279
  457TMC3    C3 6856   4.456   1.539  16.731 -0.3912 -0.2825 -0.1845
  457TMC3    C4 6857   4.684   1.539  16.574 -0.1906  0.2012  0.4378
  457TMC3    C5 6858   4.691   1.517  16.709  0.7270 -0.0409  0.0820
  457TMC3    C6 6859   4.581   1.519  16.788 -0.5556  0.4325  0.3409
  457TMC3     C 6860   4.532   1.535  16.384 -0.7167  0.6456  0.4531
  457TMC3     O 6861   4.430   1.587  16.341  0.1330 -0.0244  0.0952
  457TMC3     H 6862   4.340   1.543  16.552 -0.2780  0.4452  0.7569
  457TMC3    H1 6863   0.032   1.570  16.515 -1.0723  1.2964 -0.2420
  457TMC3    H2 6864   4.582   1.506  16.895 -0.2929 -1.1441  0.1572
  457TMC3    C7 6865   0.067   1.570  16.774 -0.1791 -0.1235 -0.5430
  457TMC3    C8 6866   4.363   1.603  16.822  0.4335  0.1409 -0.0485
  457TMC3    O1 6867   0.037   1.617  16.880 -0.2936 -0.5310 -0.5602
  457TMC3    O2 6868   4.392   1.616  16.940  0.1488  0.4242  0.6770
  458MPD2     C 6869   3.100   1.200  12.253 -0.2585 -0.1395 -0.5305
  458MPD2    C1 6870   3.029   1.161  12.363  0.1849 -0.2243  0.7793
  458MPD2    C2 6871   2.891   1.172  12.372  0.1550  0.3395 -0.0039
  458MPD2    C3 6872   2.820   1.212  12.259  0.5944  0.1884 -0.0894
  458MPD2    C4 6873   2.891   1.242  12.142 -0.3362  0.0571 -0.7438
  458MPD2    C5 6874   3.030   1.231  12.137  0.4537  0.4836  0.1516
  458MPD2     H 6875   2.846   1.147  12.468 -3.6019  3.0946 -1.0405
  458MPD2    H1 6876   2.847   1.268  12.046 -1.0669 -1.8723 -0.9509
  458MPD2    H2 6877   3.206   1.177  12.255 -0.4936 -0.9799  2.8393
  458MPD2    H3 6878   3.092   1.254  12.051 -0.0414  1.4457  0.0566
  458MPD2     N 6879   2.679   1.214  12.273 -0.2889  0.0365 -0.3615
  458MPD2    H5 6880   2.638   1.196  12.364  0.2483 -1.0461 -0.3308
  458MPD2    N1 6881   3.105   1.105  12.473  0.3055  0.0988  0.1393
  458MPD2    H7 6882   3.206   1.116  12.485  0.3193 -1.5508  1.6695
  459TMC3    C1 6883   3.138   1.034  12.702  0.3468 -0.3367 -0.3715
  459TMC3    C2 6884   3.265   1.091  12.711 -0.4830 -0.0128  1.1825
  459TMC3    C3 6885   3.336   1.063  12.819 -0.1125 -0.3471 -0.4838
  459TMC3    C4 6886   3.082   0.967  12.813 -0.0284 -0.1030 -0.6252
  459TMC3    C5 6887   3.157   0.950  12.925  0.4639 -0.7495 -0.0718
  459TMC3    C6 6888   3.286   0.984  12.924  0.0829 -0.1345  0.2298
  459TMC3     C 6889   3.048   1.046  12.586 -0.3767 -0.3190  0.3974
  459TMC3     O 6890   2.939   0.991  12.597 -0.2342 -0.1338 -0.0513
  459TMC3     H 6891   3.292   1.170  12.641  0.3912  0.5675  2.1681
  459TMC3    H1 6892   2.976   0.945  12.810  0.1878 -1.3757  1.1268
  459TMC3    H2 6893   3.347   0.954  13.009  1.0980 -2.1221 -1.1901
  459TMC3    C7 6894   3.112   0.852  13.021 -0.6466 -0.3853  0.4104
  459TMC3    C8 6895   3.464   1.123  12.830  0.4193 -0.2854  1.1096
  459TMC3    O1 6896   3.184   0.836  13.119  0.6676 -0.0966  0.0491
  459TMC3    O2 6897   3.494   1.231  12.777 -0.3593 -0.4891 -0.3945
  460MPD2     C 6898   2.011   3.498  11.064  0.3192 -1.1773  0.5965
  460MPD2    C1 6899   1.931   3.389  11.066  0.6396  0.2096 -0.0176
  460MPD2    C2 6900   1.831   3.383  10.973 -0.0529 -0.4757 -0.1398
  460MPD2    C3 6901   1.812   3.485  10.881  0.1818 -0.0466 -0.0921
  460MPD2    C4 6902   1.907   3.590  10.873  0.3158 -0.6011  0.4698
  460MPD2    C5 6903   1.998   3.601  10.974 -0.0247  0.6563 -0.1356
  460MPD2     H 6904   1.759   3.302  10.983 -1.6440  0.8762 -0.6148
  460MPD2    H1 6905   1.908   3.668  10.798 -1.1645 -1.1425 -0.1278
  460MPD2    H2 6906   2.083   3.511  11.144  2.9022  1.9588 -2.2523
  460MPD2    H3 6907   2.059   3.691  10.983  1.3118 -0.3814  1.3657
  460MPD2     N 6908   1.707   3.477  10.788 -0.7758 -0.3300 -0.3996
  460MPD2    H5 6909   1.656   3.393  10.762  0.6588 -0.8522 -1.5318
  460MPD2    N1 6910   1.952   3.297  11.170  0.0297 -0.0451  0.0032
  460MPD2    H7 6911   2.031   3.308  11.232  1.8424  0.2470 -2.3769
  461TMC3    C1 6912   1.560   3.577  10.617 -0.8037  0.2039  0.4761
  461TMC3    C2 6913   1.559   3.465  10.533 -0.5121 -0.4155  0.7551
  461TMC3    C3 6914   1.482   3.477  10.420 -0.6727  0.1937  0.5485
  461TMC3    C4 6915   1.485   3.693  10.598  0.3445 -0.3206  0.2049
  461TMC3    C5 6916   1.405   3.689  10.485 -0.6313 -0.2979  0.0616
  461TMC3    C6 6917   1.393   3.582  10.397  0.0820  0.1825  0.2975
  461TMC3     C 6918   1.662   3.590  10.726 -0.8744 -1.1669 -0.1486
  461TMC3     O 6919   1.677   3.705  10.761  0.3509  0.1224  0.2584
  461TMC3     H 6920   1.625   3.382  10.558  1.7031  0.7256 -1.3981
  461TMC3    H1 6921   1.484   3.776  10.668  1.4609  0.6988 -0.9768
  461TMC3    H2 6922   1.329   3.594  10.310  1.2752 -0.4160 -0.6664
  461TMC3    C7 6923   1.335   3.814  10.440  0.0501 -0.6996  0.0973
  461TMC3    C8 6924   1.547   3.415  10.300  0.1901 -0.2604 -0.2038
  461TMC3    O1 6925   1.237   3.798  10.372  0.7274 -0.3267  0.0020
  461TMC3    O2 6926   1.639   3.338  10.302 -0.3259 -0.7276 -0.2537
  462TMC3    C1 6927   1.809   0.190   0.142 -0.6772 -0.3521  0.1335
  462TMC3    C2 6928   1.944   0.165   0.136  0.6912 -0.3182  0.4823
  462TMC3    C3 6929   1.994   0.038   0.121  0.2366  0.2839 -0.0865
  462TMC3    C4 6930   1.723   0.091   0.117  0.2874  0.5304 -0.2517
  462TMC3    C5 6931   1.775   4.705   0.085  0.0584  0.2762 -0.7171
  462TMC3    C6 6932   1.909   4.669   0.102 -0.3367  0.0450  0.2373
  462TMC3     C 6933   1.763   0.290   0.234  0.3236  0.3134  0.3078
  462TMC3     O 6934   1.665   0.275   0.298  0.2889  0.0352 -0.0630
  462TMC3     H 6935   2.013   0.248   0.145 -0.8259  1.1240 -1.2042
  462TMC3    H1 6936   1.617   0.112   0.126 -0.4661 -2.4606 -2.2563
  462TMC3    H2 6937   1.943   4.570   0.075 -1.2442  0.2121 -1.5644
  462TMC3    C7 6938   1.688   4.587   0.067  0.3916 -0.6034  0.1298
  462TMC3    C8 6939   2.134   0.009   0.146  0.0585 -0.4227 -0.5654
  462TMC3    O1 6940   1.745   4.478   0.067 -0.8527 -0.6312  0.1132
  462TMC3    O2 6941   2.214   0.102   0.129 -0.0320  0.0073 -0.5203
  463MPD2     C 6942   3.097   3.192   1.609  0.3115 -0.3382  0.0270
  463MPD2    C1 6943   3.120   3.065   1.657  0.2488 -0.0330 -0.2700
  463MPD2    C2 6944   3.256   3.027   1.661 -0.1888 -0.4564  0.0238
  463MPD2    C3 6945   3.361   3.102   1.609  0.3878  0.2402 -0.2468
  463MPD2    C4 6946   3.333   3.220   1.544 -0.3726 -0.5005  0.1382
  463MPD2    C5 6947   3.199   3.264   1.552  0.8112  0.1537 -0.8350
  463MPD2     H 6948   3.282   2.927   1.692  1.2298  0.3782  1.5238
  463MPD2    H1 6949   3.410   3.278   1.494 -1.3825  2.1201  1.5953
  463MPD2    H2 6950   2.994   3.223   1.596  0.3192 -0.8124 -1.2263
  463MPD2    H3 6951   3.159   3.361   1.524 -1.0316 -0.2450  0.4008
  463MPD2     N 6952   3.498   3.063   1.613  0.5906 -0.3721 -0.0016
  463MPD2    H5 6953   3.554   3.114   1.545 -0.3539  0.3816 -0.2244
  463MPD2    N1 6954   3.029   2.979   1.729 -0.1510 -0.0644 -0.2745
  463MPD2    H7 6955   3.067   2.892   1.763  0.9972 -0.0596 -1.5653
  464TMC3    C1 6956   2.823   2.910   1.795  0.0276  0.1357 -0.0621
  464TMC3    C2 6957   2.707   2.959   1.845  0.3512  0.1934 -0.2363
  464TMC3    C3 6958   2.590   2.890   1.822  0.4337 -0.0614  0.3256
  464TMC3    C4 6959   2.820   2.788   1.734  0.1477  0.0638  0.0602
  464TMC3    C5 6960   2.706   2.717   1.718  0.0421  0.2661  0.5153
  464TMC3    C6 6961   2.586   2.768   1.753  0.3365  0.0580  0.5780
  464TMC3     C 6962   2.896   3.018   1.743 -0.6169  0.2449  0.5276
  464TMC3     O 6963   2.828   3.108   1.696  0.6004  0.5616  0.6284
  464TMC3     H 6964   2.701   3.060   1.884 -0.2293  0.0509  0.0502
  464TMC3    H1 6965   2.912   2.748   1.692 -0.3082 -1.1798  0.2423
  464TMC3    H2 6966   2.489   2.727   1.727  0.1214  1.0559 -0.1843
  464TMC3    C7 6967   2.712   2.589   1.658 -0.4526 -0.4808  0.2307
  464TMC3    C8 6968   2.470   2.964   1.804  0.1981 -0.3284 -0.0520
  464TMC3    O1 6969   2.820   2.540   1.629 -0.1491 -0.0548  0.1777
  464TMC3    O2 6970   2.413   2.934   1.697 -0.1041  0.1014 -0.0329
  465MPD2     C 6971   3.999   1.531  17.446  0.1563 -0.1265 -0.1718
  465MPD2    C1 6972   3.861   1.513  17.468 -0.0506  0.1973 -0.4942
  465MPD2    C2 6973   3.785   1.523  17.347  0.7134  0.5141  0.3358
  465MPD2    C3 6974   3.833   1.545  17.222  0.0792 -0.7516 -0.0666
  465MPD2    C4 6975   3.971   1.557  17.210  0.2999 -0.2038 -0.1998
  465MPD2    C5 6976   4.049   1.553  17.325 -0.3398  0.4501 -0.6757
  465MPD2     H 6977   3.678   1.508  17.349  0.6249  1.0681 -0.3808
  465MPD2    H1 6978   4.024   1.578  17.118  0.9328  0.4883  0.3213
  465MPD2    H2 6979   4.073   1.525  17.525  0.8124 -1.2986 -0.8793
  465MPD2    H3 6980   4.157   1.565  17.316 -0.3110 -0.4130 -1.4438
  465MPD2     N 6981   3.740   1.542  17.112 -0.4292  0.0330  0.1734
  465MPD2    H5 6982   3.642   1.525  17.132 -0.2310  0.0218  1.1340
  465MPD2    N1 6983   3.794   1.491  17.586  0.1571 -0.0762  0.3036
  465MPD2    H7 6984   3.693   1.480  17.586  0.2046 -0.5269  0.6979
  466TMC3    C1 6985   3.458   1.608  16.833 -0.5031 -0.1831 -0.2349
  466TMC3    C2 6986   3.487   1.648  16.704  0.4360  0.2383  0.7576
  466TMC3    C3 6987   3.622   1.660  16.671 -0.1359 -0.0843  0.7118
  466TMC3    C4 6988   3.553   1.586  16.930 -0.2454 -0.3373  0.1343
  466TMC3    C5 6989   3.678   1.590  16.891 -0.1708 -0.5467 -0.3415
  466TMC3    C6 6990   3.710   1.635  16.765 -0.1606 -0.0200  0.6517
  466TMC3     C 6991   3.318   1.621  16.889 -0.1154 -0.9118  0.8251
  466TMC3     O 6992   3.307   1.587  17.004 -0.2979  0.1208  0.1225
  466TMC3     H 6993   3.422   1.674  16.621  0.1504 -1.7962  0.3500
  466TMC3    H1 6994   3.527   1.574  17.034 -0.7109 -1.8345 -0.1666
  466TMC3    H2 6995   3.816   1.654  16.749 -0.5990  0.2562 -1.9710
  466TMC3    C7 6996   3.782   1.548  16.982  0.0375  0.3144 -0.0261
  466TMC3    C8 6997   3.661   1.783  16.604  0.2924 -0.0552 -0.0073
  466TMC3    O1 6998   3.892   1.521  16.937 -0.3397  0.4194 -0.1930
  466TMC3    O2 6999   3.761   1.785  16.536 -0.2566  0.5067 -0.0588
  467TMC3    C1 7000   0.205   0.016  13.838  0.4338 -0.5298 -0.2133
  467TMC3    C2 7001   0.173   0.150  13.825 -0.5238  1.0230 -0.1233
  467TMC3    C3 7002   0.042   0.182  13.792  0.0460 -0.0387 -0.3741
  467TMC3    C4 7003   0.116   4.651  13.819 -0.5122  0.6505  0.2185
  467TMC3    C5 7004   4.721   4.686  13.790 -0.4305 -0.4323 -0.0240
  467TMC3    C6 7005   4.688   0.082  13.765  0.3325 -0.1559 -0.3298
  467TMC3     C 7006   0.314   4.719  13.926  0.3957  1.0586  0.2456
  467TMC3     O 7007   0.354   0.074  13.994  0.2079  0.1276  0.1629
  467TMC3     H 7008   0.245   0.229  13.846 -1.4209  2.3913 -2.2029
  467TMC3    H1 7009   0.154   4.550  13.822  0.0187  0.8383 -0.2433
  467TMC3    H2 7010   4.585   0.114  13.753 -0.2787 -1.5840  1.2191
  467TMC3    C7 7011   4.629   4.588  13.841 -0.2349  0.8312  0.0931
  467TMC3    C8 7012   0.022   0.315  13.744  0.3084 -0.1065 -0.2916
  467TMC3    O1 7013   4.683   4.488  13.887 -0.0155  0.1017  1.0521
  467TMC3    O2 7014   0.089   0.401  13.795  0.5501 -0.7272 -0.4527
  468MPD2     C 7015   4.133   3.793  10.588 -0.3444  0.1129  0.0493
  468MPD2    C1 7016   4.063   3.777  10.703  0.2307  0.7052  0.0500
  468MPD2    C2 7017   4.009   3.653  10.731 -0.1848 -0.3857  0.3266
  468MPD2    C3 7018   4.001   3.551  10.642  0.2399  0.5275  0.0170
  468MPD2    C4 7019   4.061   3.568  10.520  0.6185 -0.3766  0.2061
  468MPD2    C5 7020   4.121   3.691  10.492 -0.4179 -0.0550 -0.0823
  468MPD2     H 7021   3.959   3.642  10.826 -0.1699 -1.0330  0.2604
  468MPD2    H1 7022   4.069   3.491  10.444 -0.1926  1.2997 -1.5876
  468MPD2    H2 7023   4.181   3.888  10.570  0.1912  0.1761  1.8077
  468MPD2    H3 7024   4.157   3.718  10.393  0.3406 -0.5225  0.0627
  468MPD2     N 7025   3.938   3.428  10.662  0.0335 -0.2820 -0.0275
  468MPD2    H5 7026   3.933   3.368  10.581 -0.7639 -1.1299  0.6619
  468MPD2    N1 7027   4.053   3.878  10.807 -0.5017 -1.0262 -0.1410
  468MPD2    H7 7028   4.017   3.844  10.895 -0.3005  2.0732  1.1403
  469TMC3    C1 7029   4.067   4.085  10.912 -0.2784  0.4049  0.1370
  469TMC3    C2 7030   4.175   4.166  10.940 -0.2313 -0.0969  0.6200
  469TMC3    C3 7031   4.197   4.216  11.061 -0.3689  0.0412  0.1609
  469TMC3    C4 7032   3.978   4.055  11.009 -0.0043  0.2159 -0.1290
  469TMC3    C5 7033   3.999   4.111  11.128  0.5987 -0.3107 -1.0201
  469TMC3    C6 7034   4.103   4.189  11.160 -0.8713  0.0601 -0.3656
  469TMC3     C 7035   4.076   4.010  10.791 -0.3249  0.6509 -0.1976
  469TMC3     O 7036   4.128   4.071  10.697 -0.8679  0.0297 -0.8744
  469TMC3     H 7037   4.248   4.191  10.864 -0.5076  1.0744  0.7440
  469TMC3    H1 7038   3.894   3.987  10.997  0.3815 -0.2314 -0.3280
  469TMC3    H2 7039   4.099   4.250  11.250 -1.1373 -0.0538 -0.3023
  469TMC3    C7 7040   3.884   4.097  11.213 -0.2269 -0.0483 -0.6007
  469TMC3    C8 7041   4.328   4.279  11.098 -0.5741  0.4579 -0.1351
  469TMC3    O1 7042   3.772   4.096  11.169  0.1232 -0.3276  0.0973
  469TMC3    O2 7043   4.415   4.296  11.013  0.2958  0.1854 -0.0504
  470TMC3    C1 7044   0.244   4.583  17.665  0.2943  0.4513  0.5106
  470TMC3    C2 7045   0.191   4.663   0.026  0.5259  0.3476 -0.1712
  470TMC3    C3 7046   0.212   4.623   0.153  0.2188 -0.8164  0.8240
  470TMC3    C4 7047   0.311   4.466  17.689 -0.0749 -0.3106 -0.5001
  470TMC3    C5 7048   0.332   4.437   0.073  0.2618  0.6417 -0.2849
  470TMC3    C6 7049   0.288   4.510   0.180 -0.3181 -0.0847  0.4204
  470TMC3     C 7050   0.233   4.637  17.532 -0.3883 -0.0824 -0.9961
  470TMC3     O 7051   0.327   4.607  17.458  0.3492  0.1149 -0.1112
  470TMC3     H 7052   0.152   0.025   0.004  1.1380  0.3867 -1.1148
  470TMC3    H1 7053   0.361   4.409  17.611  1.2320  0.7419 -0.4357
  470TMC3    H2 7054   0.285   4.463   0.278  2.5353 -3.4114 -1.0995
  470TMC3    C7 7055   0.407   4.316   0.108 -0.7152  0.0699  0.1840
  470TMC3    C8 7056   0.211   4.712   0.262 -0.3494  0.7034 -0.1053
  470TMC3    O1 7057   0.390   4.212   0.041 -0.1177  0.4478 -0.0082
  470TMC3    O2 7058   0.282   4.680   0.359 -0.6674 -0.1646  0.6595
  471MPD2     C 7059   1.457   0.615  16.694 -0.2996  0.0941  0.3817
  471MPD2    C1 7060   1.550   0.518  16.674 -0.3956  0.0913 -0.4148
  471MPD2    C2 7061   1.660   0.512  16.761 -0.1096  0.5164 -0.5273
  471MPD2    C3 7062   1.668   0.590  16.875  0.1384  0.1089  0.0431
  471MPD2    C4 7063   1.573   0.687  16.900 -0.0678 -0.4784 -0.5620
  471MPD2    C5 7064   1.464   0.701  16.807  0.7123  0.3353 -0.3509
  471MPD2     H 7065   1.734   0.436  16.742 -1.7472 -0.9732 -0.9404
  471MPD2    H1 7066   1.578   0.756  16.984 -1.3189 -2.0419  0.7957
  471MPD2    H2 7067   1.369   0.616  16.630  1.2452 -0.2142 -1.7329
  471MPD2    H3 7068   1.379   0.766  16.822  0.2368  0.2432 -2.6215
  471MPD2     N 7069   1.777   0.568  16.972 -0.5755  0.5524  0.6932
  471MPD2    H5 7070   1.763   0.610  17.063  1.6011  1.7368  0.4868
  471MPD2    N1 7071   1.548   0.423  16.568 -0.1197  0.5771  0.2835
  471MPD2    H7 7072   1.614   0.346  16.567  0.7858  1.3548  0.7338
  472TMC3    C1 7073   1.470   0.303  16.379  0.2923  0.1225  0.1780
  472TMC3    C2 7074   1.409   0.314  16.262  0.2539 -0.4407 -0.2470
  472TMC3    C3 7075   1.454   0.234  16.162 -0.0056 -0.8590  0.0109
  472TMC3    C4 7076   1.555   0.208  16.420 -0.3649  0.0537 -0.5429
  472TMC3    C5 7077   1.593   0.127  16.317 -0.0419 -0.5804 -0.4449
  472TMC3    C6 7078   1.561   0.151  16.189  0.3362  0.6140 -0.0556
  472TMC3     C 7079   1.456   0.423  16.467 -0.3853 -0.5433 -0.0211
  472TMC3     O 7080   1.368   0.500  16.444 -0.3909 -0.7416  0.1282
  472TMC3     H 7081   1.344   0.396  16.234 -0.2939 -0.4568  0.9860
  472TMC3    H1 7082   1.586   0.190  16.522 -2.6302 -0.9604 -0.0381
  472TMC3    H2 7083   1.605   0.096  16.107 -0.8518  3.3156 -2.5105
  472TMC3    C7 7084   1.609   4.717  16.351  0.2363  0.4309  0.0941
  472TMC3    C8 7085   1.442   0.277  16.033  0.4167  0.1104  0.1182
  472TMC3    O1 7086   1.631   4.693  16.470 -0.1933 -0.2359 -0.1565
  472TMC3    O2 7087   1.547   0.307  15.975 -0.1592 -0.1649 -0.3351
  473MPD2     C 7088   1.395   2.403  13.808 -0.7212 -0.0296 -0.1122
  473MPD2    C1 7089   1.327   2.510  13.756 -0.6621 -0.8207 -0.2367
  473MPD2    C2 7090   1.375   2.639  13.783  0.6220 -0.6105 -0.4661
  473MPD2    C3 7091   1.492   2.656  13.852  0.0431  0.1999 -0.3066
  473MPD2    C4 7092   1.556   2.547  13.908  0.4858  0.1383  1.0565
  473MPD2    C5 7093   1.508   2.421  13.882  0.4410 -0.1039 -0.2314
  473MPD2     H 7094   1.315   2.725  13.755 -0.0484 -1.5547 -1.9189
  473MPD2    H1 7095   1.645   2.546  13.970  2.2560  3.0878 -1.4108
  473MPD2    H2 7096   1.359   2.301  13.800  0.4243 -0.4379 -0.0316
  473MPD2    H3 7097   1.556   2.336  13.928 -0.0225 -0.8232 -1.0828
  473MPD2     N 7098   1.549   2.783  13.873  0.0562 -0.1265  0.4356
  473MPD2    H5 7099   1.647   2.784  13.900 -0.2840  1.4731  1.6060
  473MPD2    N1 7100   1.201   2.497  13.686  0.4753 -0.0821 -0.1737
  473MPD2    H7 7101   1.159   2.581  13.648  1.3553  0.7458  0.6896
  474TMC3    C1 7102   1.569   3.008  13.885  0.1322 -0.0609 -0.1306
  474TMC3    C2 7103   1.510   3.129  13.890 -0.4556  0.4166  0.7782
  474TMC3    C3 7104   1.562   3.229  13.959 -0.6026  0.1320 -0.8644
  474TMC3    C4 7105   1.677   2.988  13.962 -0.6435 -0.1702 -0.2556
  474TMC3    C5 7106   1.727   3.092  14.038 -0.6368 -0.3172 -0.2123
  474TMC3    C6 7107   1.673   3.212  14.044 -0.1677 -0.7489  0.3029
  474TMC3     C 7108   1.500   2.904  13.828  0.0675 -0.4426  0.1168
  474TMC3     O 7109   1.389   2.930  13.782  0.4739 -0.2879  0.3381
  474TMC3     H 7110   1.428   3.152  13.823 -0.4782  0.4358  0.8119
  474TMC3    H1 7111   1.715   2.888  13.980  0.1253  0.7535  3.2329
  474TMC3    H2 7112   1.725   3.290  14.099  1.8273 -0.1719 -2.4317
  474TMC3    C7 7113   1.815   3.058  14.143 -0.4539 -0.4062 -0.3918
  474TMC3    C8 7114   1.460   3.322  13.990 -0.1622 -0.1071  0.2645
  474TMC3    O1 7115   1.902   2.979  14.103  0.1412 -0.0402  0.0990
  474TMC3    O2 7116   1.344   3.286  13.974 -0.5049 -0.4426  0.1461
  475MPD2     C 7117   4.654   0.860  10.638 -0.7111  0.6749 -0.3476
  475MPD2    C1 7118   4.672   0.980  10.567  0.5231  0.4024  0.5215
  475MPD2    C2 7119   4.605   1.098  10.613  0.0256 -1.3390 -0.0108
  475MPD2    C3 7120   4.527   1.093  10.725  0.3972  0.1946  0.7154
  475MPD2    C4 7121   4.518   0.974  10.792  0.2630 -0.0419 -0.1994
  475MPD2    C5 7122   4.582   0.861  10.748 -0.0720  0.2404 -0.5296
  475MPD2     H 7123   4.622   1.186  10.553  0.5217 -0.8416  0.8626
  475MPD2    H1 7124   4.461   0.962  10.883  0.0606  2.7026  0.0297
  475MPD2    H2 7125   4.697   0.766  10.605 -1.5319  0.6629 -1.3991
  475MPD2    H3 7126   4.566   0.774  10.810 -3.3784  0.0157 -1.7154
  475MPD2     N 7127   4.465   1.207  10.771 -0.2826 -0.0107 -0.1478
  475MPD2    H5 7128   4.487   1.294  10.723  0.0567 -1.5173 -2.6956
  475MPD2    N1 7129   0.046   0.990  10.478  0.1435  0.4131 -0.1720
  475MPD2    H7 7130   0.102   0.906  10.465 -1.1269 -0.4002 -0.3662
  476TMC3    C1 7131   0.213   1.134  10.400 -0.1687  0.8538 -0.1481
  476TMC3    C2 7132   0.240   1.237  10.316  0.4797  0.3360 -0.0557
  476TMC3    C3 7133   0.334   1.325  10.349  0.3443 -0.3975 -0.8930
  476TMC3    C4 7134   0.267   1.132  10.524 -0.5904  0.0975  0.0701
  476TMC3    C5 7135   0.336   1.241  10.565  0.2229 -0.4104 -0.3586
  476TMC3    C6 7136   0.378   1.327  10.473  0.2104 -0.5059  0.2855
  476TMC3     C 7137   0.075   1.091  10.398  0.1777 -0.2188  0.1878
  476TMC3     O 7138   0.007   1.183  10.349  0.5765  0.5492 -0.6379
  476TMC3     H 7139   0.209   1.221  10.214  2.0424  4.3285 -1.1547
  476TMC3    H1 7140   0.241   1.053  10.594 -1.5854 -2.1435 -2.8294
  476TMC3    H2 7141   0.433   1.414  10.505 -0.1595 -0.2419  0.2114
  476TMC3    C7 7142   0.317   1.308  10.698 -0.0381  0.3045  0.3264
  476TMC3    C8 7143   0.347   1.444  10.263  0.2379 -0.1618  0.8132
  476TMC3    O1 7144   0.376   1.415  10.720 -0.9279 -0.0452 -0.1620
  476TMC3    O2 7145   0.366   1.550  10.317  0.3691  0.0367 -0.0074
  477MPD2     C 7146   2.203   2.640  11.594  0.0883  0.3683 -0.4797
  477MPD2    C1 7147   2.147   2.643  11.726 -0.2858 -0.1580 -0.1172
  477MPD2    C2 7148   2.235   2.621  11.833 -0.0503 -0.2751  0.5517
  477MPD2    C3 7149   2.368   2.587  11.813 -0.3252 -0.2093 -0.3097
  477MPD2    C4 7150   2.417   2.580  11.685  0.2761  0.6434 -0.0882
  477MPD2    C5 7151   2.336   2.615  11.583 -0.3163  0.0680 -0.1655
  477MPD2     H 7152   2.199   2.629  11.935  2.0927  0.9853  1.1905
  477MPD2    H1 7153   2.519   2.552  11.664  0.2466 -1.7532  2.9146
  477MPD2    H2 7154   2.148   2.657  11.503 -1.2991  0.7555  0.4291
  477MPD2    H3 7155   2.380   2.610  11.484 -2.8732 -1.1441 -1.2381
  477MPD2     N 7156   2.448   2.562  11.929  0.1298  0.0019 -0.4224
  477MPD2    H5 7157   2.407   2.559  12.022  1.1791 -2.2101 -0.0226
  477MPD2    N1 7158   2.011   2.666  11.744  0.4285  0.6695  0.3806
  477MPD2    H7 7159   1.952   2.657  11.662 -0.0655  1.1550  0.6871
  478TMC3    C1 7160   1.804   2.674  11.859 -0.4228 -0.6558 -0.4563
  478TMC3    C2 7161   1.748   2.715  11.972 -0.2209 -0.0903  0.2323
  478TMC3    C3 7162   1.621   2.669  11.990  0.3933  0.7626  0.4266
  478TMC3    C4 7163   1.748   2.585  11.770  0.6938  0.5758 -0.0451
  478TMC3    C5 7164   1.625   2.533  11.799 -0.5862  0.4682 -0.2284
  478TMC3    C6 7165   1.561   2.581  11.910 -0.1906 -0.3538 -0.3242
  478TMC3     C 7166   1.949   2.689  11.864 -0.3845  0.4338  0.7700
  478TMC3     O 7167   2.003   2.745  11.961  0.0323 -0.2537  0.6236
  478TMC3     H 7168   1.802   2.778  12.041 -1.4768  0.0068  1.1285
  478TMC3    H1 7169   1.801   2.543  11.685 -2.9364  0.4900 -2.2930
  478TMC3    H2 7170   1.457   2.553  11.922 -0.3896  1.2359  1.7205
  478TMC3    C7 7171   1.554   2.479  11.688  0.0661  0.5791 -0.2089
  478TMC3    C8 7172   1.531   2.751  12.071  0.3985  0.3071 -0.6906
  478TMC3    O1 7173   1.454   2.410  11.719 -0.0920  0.4125 -0.2043
  478TMC3    O2 7174   1.421   2.703  12.089  0.0169 -0.1039  0.3654
  479MPD2     C 7175   1.309   4.584  15.391 -0.2955  0.2637 -0.2638
  479MPD2    C1 7176   1.248   4.536  15.506 -0.3707  0.5378 -0.5674
  479MPD2    C2 7177   1.294   4.577  15.628 -0.0530 -0.4958 -1.0056
  479MPD2    C3 7178   1.383   4.674  15.645  0.1314  0.0803  0.3235
  479MPD2    C4 7179   1.449   4.711  15.533 -0.4080 -0.3554 -0.4887
  479MPD2    C5 7180   1.413   4.669  15.411 -0.3158 -0.0773  0.2883
  479MPD2     H 7181   1.250   4.539  15.719 -0.4414 -2.1100 -1.8609
  479MPD2    H1 7182   1.540   0.034  15.531 -0.1795 -0.7212 -1.0426
  479MPD2    H2 7183   1.278   4.557  15.291  2.5606 -0.0731 -1.0568
  479MPD2    H3 7184   1.475   4.700  15.327  0.8269 -1.8837  0.4779
  479MPD2     N 7185   1.424   4.722  15.770  0.1617 -0.0120  0.0851
  479MPD2    H5 7186   1.509   0.041  15.775 -1.6599  2.5462  2.3348
  479MPD2    N1 7187   1.136   4.461  15.480 -0.8445  0.0555  0.4499
  479MPD2    H7 7188   1.114   4.434  15.385  2.1262  1.1458 -0.5256
  480TMC3    C1 7189   1.036   4.577  15.958  1.3983 -0.6683 -0.5388
  480TMC3    C2 7190   0.959   4.636  15.861 -0.9900 -0.2440  0.3958
  480TMC3    C3 7191   1.018   4.722  15.775  0.2661  0.9458  0.6704
  480TMC3    C4 7192   1.170   4.608  15.971  0.6487  0.2372 -0.8094
  480TMC3    C5 7193   1.218   4.701  15.896  0.1857  0.7912  0.2139
  480TMC3    C6 7194   1.149   0.027  15.799 -0.2442 -0.2337 -1.0107
  480TMC3     C 7195   0.990   4.452  16.013 -0.2182 -0.2568  0.2687
  480TMC3     O 7196   1.078   4.372  16.042  0.0407  0.2681 -0.1971
  480TMC3     H 7197   0.856   4.614  15.833 -1.3584  0.6848  1.0099
  480TMC3    H1 7198   1.237   4.549  16.031 -1.5099 -0.4242  0.9467
  480TMC3    H2 7199   1.201   0.104  15.743  0.1386 -1.5277 -2.4394
  480TMC3    C7 7200   1.363   4.697  15.886 -0.1228 -0.2483  0.2369
  480TMC3    C8 7201   0.960   0.040  15.653 -0.6322 -0.5128 -0.1175
  480TMC3    O1 7202   1.429   4.681  15.988 -0.1567 -0.4316  0.5361
  480TMC3    O2 7203   0.841   0.031  15.649 -0.2091  0.0327 -0.8447
  481MPD2     C 7204   3.014   4.401  14.418  0.0239  0.0469 -0.6599
  481MPD2    C1 7205   2.912   4.306  14.401 -0.2767  1.1755 -0.4374
  481MPD2    C2 7206   2.871   4.223  14.501  0.2644 -0.0663 -0.0123
  481MPD2    C3 7207   2.928   4.230  14.631 -0.5692 -1.1095  0.5058
  481MPD2    C4 7208   3.022   4.330  14.649  0.2409 -0.8903 -0.5952
  481MPD2    C5 7209   3.067   4.411  14.550 -0.3797  0.5195  0.0127
  481MPD2     H 7210   2.788   4.156  14.484 -0.5434  0.5959  1.3973
  481MPD2    H1 7211   3.059   4.337  14.751  0.5777  0.7962 -0.8277
  481MPD2    H2 7212   3.037   4.469  14.337  0.3544 -0.1846 -0.7606
  481MPD2    H3 7213   3.144   4.485  14.573  3.1256 -2.3519 -2.4028
  481MPD2     N 7214   2.874   4.146  14.736 -0.3252 -0.2655 -0.6571
  481MPD2    H5 7215   2.917   4.167  14.826  0.0345 -0.2650 -0.8261
  481MPD2    N1 7216   2.861   4.297  14.265  0.5808 -0.4686  0.2667
  481MPD2    H7 7217   2.921   4.346  14.199 -0.8817  0.0242 -0.6782
  482TMC3    C1 7218   2.712   4.250  14.080  0.0450 -0.1614 -0.0544
  482TMC3    C2 7219   2.583   4.266  14.048  0.2825  0.4138 -0.6207
  482TMC3    C3 7220   2.549   4.289  13.915  0.1616 -0.2942  1.1174
  482TMC3    C4 7221   2.811   4.259  13.990 -0.2693 -0.1388 -0.1634
  482TMC3    C5 7222   2.775   4.280  13.859 -0.0281 -0.0481  0.6322
  482TMC3    C6 7223   2.649   4.296  13.816 -0.1326 -0.0374  0.7554
  482TMC3     C 7224   2.738   4.245  14.225  0.5445  0.6231  0.5740
  482TMC3     O 7225   2.655   4.197  14.295  0.2210 -0.5591  0.4936
  482TMC3     H 7226   2.510   4.265  14.127  2.0739 -3.1681  0.9785
  482TMC3    H1 7227   2.912   4.231  14.017  0.3153  1.1591 -1.0212
  482TMC3    H2 7228   2.620   4.293  13.712 -0.9653  0.7532  0.9647
  482TMC3    C7 7229   2.865   4.216  13.765 -0.4141  0.6560 -0.1502
  482TMC3    C8 7230   2.438   4.205  13.865  0.9437  0.2526 -0.1308
  482TMC3    O1 7231   2.949   4.134  13.805  0.1979 -0.5567 -0.2988
  482TMC3    O2 7232   2.415   4.118  13.946 -0.6027  0.2208 -0.6144
  483TMC3    C1 7233   0.737   3.316   1.000  0.6368 -0.0380 -0.1856
  483TMC3    C2 7234   0.834   3.370   0.916 -0.4374 -0.1316  0.2343
  483TMC3    C3 7235   0.967   3.372   0.954  0.0327 -0.1494  0.1748
  483TMC3    C4 7236   0.771   3.255   1.118 -0.1504 -0.1875  0.5002
  483TMC3    C5 7237   0.906   3.234   1.138 -0.0756  0.1186  0.7805
  483TMC3    C6 7238   0.998   3.292   1.062 -0.7429  0.5211 -0.5392
  483TMC3     C 7239   0.613   3.282   0.934  0.7471  0.0483 -0.7457
  483TMC3     O 7240   0.586   3.329   0.823 -0.0731 -0.5842  0.1988
  483TMC3     H 7241   0.811   3.415   0.820  0.2209 -2.5281 -1.0540
  483TMC3    H1 7242   0.707   3.218   1.197  0.0698  2.4234  1.8914
  483TMC3    H2 7243   1.106   3.278   1.067 -0.8618  0.5431  1.9923
  483TMC3    C7 7244   0.943   3.129   1.227  0.4613 -0.3511  0.4406
  483TMC3    C8 7245   1.060   3.429   0.854 -0.4141  0.3318 -0.6413
  483TMC3    O1 7246   0.855   3.055   1.264  0.5222  0.3157  0.2320
  483TMC3    O2 7247   1.018   3.459   0.743 -0.0372 -0.6996 -0.2454
  484MPD2     C 7248   3.740   0.961  13.004 -0.0147  0.2747 -0.2306
  484MPD2    C1 7249   3.681   1.053  12.918  0.5530 -0.6709 -0.4501
  484MPD2    C2 7250   3.761   1.142  12.842  0.2881  0.3206  0.3549
  484MPD2    C3 7251   3.896   1.119  12.843  0.0228 -0.6712 -0.0830
  484MPD2    C4 7252   3.950   1.020  12.924  0.0508 -0.1073 -0.1269
  484MPD2    C5 7253   3.870   0.946  13.003 -0.2936  0.2188 -0.4807
  484MPD2     H 7254   3.718   1.223  12.786 -4.5186 -0.5982  2.7524
  484MPD2    H1 7255   4.055   0.992  12.924 -0.0757 -0.5713 -0.3054
  484MPD2    H2 7256   3.681   0.896  13.067  0.1838  0.5255  0.2090
  484MPD2    H3 7257   3.911   0.864  13.060 -0.0911  0.4539 -0.2840
  484MPD2     N 7258   3.981   1.191  12.760  0.0559  0.0847  0.4711
  484MPD2    H5 7259   4.075   1.156  12.744 -0.2354  0.0094 -1.0890
  484MPD2    N1 7260   3.543   1.050  12.914  0.0944 -0.2012  0.9314
  484MPD2    H7 7261   3.506   0.968  12.961  2.4043 -1.4734  0.5206
  485TMC3    C1 7262   4.070   1.344  12.595  0.2103  0.6037 -0.1521
  485TMC3    C2 7263   4.204   1.327  12.628  0.3263 -0.0998 -0.5893
  485TMC3    C3 7264   4.292   1.390  12.545  0.8061  0.6912  0.3387
  485TMC3    C4 7265   4.034   1.388  12.471 -0.8582  0.0290 -0.1293
  485TMC3    C5 7266   4.131   1.442  12.388 -0.7008  1.0626 -0.3882
  485TMC3    C6 7267   4.254   1.454  12.428  0.4988  1.4212  0.8750
  485TMC3     C 7268   3.957   1.298  12.681 -0.1319 -0.3477  0.2023
  485TMC3     O 7269   3.865   1.373  12.690  0.2860  0.1731 -0.4799
  485TMC3     H 7270   4.245   1.290  12.722  1.0907  0.3792 -0.7296
  485TMC3    H1 7271   3.929   1.384  12.443 -0.7481  0.2727 -0.5714
  485TMC3    H2 7272   4.331   1.517  12.384  0.6450 -0.2523 -1.2187
  485TMC3    C7 7273   4.127   1.386  12.256 -0.3165  0.1449 -0.3188
  485TMC3    C8 7274   4.420   1.325  12.524 -0.2393 -0.5191 -0.9673
  485TMC3    O1 7275   4.240   1.388  12.205 -0.0376  0.9434 -0.0309
  485TMC3    O2 7276   4.469   1.270  12.620  0.0737  0.2709 -0.7258
  486MPD2     C 7277   0.233   4.733  13.184  0.5002 -0.3537 -0.6334
  486MPD2    C1 7278   0.337   0.001  13.088 -0.2085  0.5013  0.9745
  486MPD2    C2 7279   0.362   0.119  13.019  0.7312  0.6062 -0.3067
  486MPD2    C3 7280   0.276   0.232  13.031 -0.2575  0.1897 -0.1508
  486MPD2    C4 7281   0.169   0.217  13.122 -0.2651 -0.3467  1.0940
  486MPD2    C5 7282   0.152   0.107  13.193  0.6583 -0.1006 -0.7845
  486MPD2     H 7283   0.447   0.123  12.951 -0.2134 -0.8751 -1.5601
  486MPD2    H1 7284   0.117   0.307  13.155 -1.7701 -0.8157 -0.0498
  486MPD2    H2 7285   0.211   4.640  13.236 -1.0156 -0.3424 -1.2516
  486MPD2    H3 7286   0.076   0.101  13.269  1.5533  2.6342  0.3372
  486MPD2     N 7287   0.308   0.357  12.977  0.2970  0.1281 -0.1590
  486MPD2    H5 7288   0.389   0.359  12.916 -0.8537 -3.4209 -1.7879
  486MPD2    N1 7289   0.399   4.622  13.063 -0.4319 -0.0868 -0.1126
  486MPD2    H7 7290   0.371   4.548  13.127 -0.9049 -0.0321 -0.2555
  487TMC3    C1 7291   0.517   4.451  12.962  0.3441  1.2579 -0.1092
  487TMC3    C2 7292   0.507   4.378  12.844 -0.2853  0.4190 -0.4602
  487TMC3    C3 7293   0.519   4.238  12.852  0.1553  0.3153  0.5664
  487TMC3    C4 7294   0.551   4.394  13.079 -0.0037  0.5759  0.0617
  487TMC3    C5 7295   0.562   4.259  13.083  0.3343  0.4177  0.0146
  487TMC3    C6 7296   0.547   4.182  12.965 -0.1397  0.3753  0.1892
  487TMC3     C 7297   0.460   4.584  12.951  0.4145 -0.3999 -0.5066
  487TMC3     O 7298   0.485   4.650  12.846 -0.0994  0.0216  0.0745
  487TMC3     H 7299   0.452   4.421  12.761 -0.2688  2.4717  0.5934
  487TMC3    H1 7300   0.554   4.450  13.172  1.4184  0.7569 -0.0906
  487TMC3    H2 7301   0.539   4.075  12.973  0.4553  0.0733 -3.6375
  487TMC3    C7 7302   0.524   4.208  13.212  0.3205  0.1545  0.4046
  487TMC3    C8 7303   0.420   4.152  12.790  0.3566  0.2409 -0.3124
  487TMC3    O1 7304   0.578   4.253  13.311 -0.1242  0.7841 -0.1508
  487TMC3    O2 7305   0.461   4.040  12.757  0.6597  0.7115  0.4598
  488MPD2     C 7306   1.073   1.533  16.234  0.7908  1.0447 -0.1524
  488MPD2    C1 7307   1.127   1.625  16.325  0.5927 -0.8009  0.5661
  488MPD2    C2 7308   1.083   1.625  16.459  0.2653 -0.2169 -0.0236
  488MPD2    C3 7309   0.992   1.527  16.499 -0.5554 -0.0978  0.2188
  488MPD2    C4 7310   0.946   1.434  16.403  0.3587 -0.3220 -0.0433
  488MPD2    C5 7311   0.978   1.439  16.273 -0.4639 -0.1951 -0.4111
  488MPD2     H 7312   1.128   1.690  16.533  2.8713 -0.2334 -1.5888
  488MPD2    H1 7313   0.882   1.354  16.439  2.2253 -1.3917  0.9188
  488MPD2    H2 7314   1.114   1.517  16.135  2.3595  0.3764  0.6096
  488MPD2    H3 7315   0.952   1.356  16.209 -0.0500  0.0373 -0.8806
  488MPD2     N 7316   0.962   1.518  16.639 -0.2608 -0.0139  0.3124
  488MPD2    H5 7317   0.999   1.596  16.692 -0.6684  0.9752 -0.8616
  488MPD2    N1 7318   1.226   1.726  16.297  0.7141  0.4922 -0.2367
  488MPD2    H7 7319   1.245   1.795  16.369 -0.8809 -1.3752  1.9291
  489TMC3    C1 7320   0.860   1.464  16.839 -0.6916  0.4879 -0.3552
  489TMC3    C2 7321   0.964   1.548  16.876  0.9384 -0.2032 -0.2385
  489TMC3    C3 7322   0.940   1.636  16.978  0.0761 -0.6472  0.2803
  489TMC3    C4 7323   0.735   1.469  16.898  0.0674 -0.0023 -0.1285
  489TMC3    C5 7324   0.715   1.558  17.001 -0.7896  0.6125 -0.4651
  489TMC3    C6 7325   0.820   1.640  17.047 -0.8998  0.1984  0.3876
  489TMC3     C 7326   0.868   1.432  16.700  0.2528 -0.4618 -0.1235
  489TMC3     O 7327   0.793   1.344  16.655  0.0510  0.0386  0.3094
  489TMC3     H 7328   1.069   1.531  16.855  1.0771  2.0406 -1.3736
  489TMC3    H1 7329   0.655   1.405  16.861  0.3469 -1.3183  1.5618
  489TMC3    H2 7330   0.807   1.710  17.129 -1.5184 -0.0412  0.4926
  489TMC3    C7 7331   0.598   1.547  17.093  0.5160  0.6772  0.5511
  489TMC3    C8 7332   1.023   1.753  16.972 -0.1072 -0.4257  0.4146
  489TMC3    O1 7333   0.606   1.594  17.204 -0.4654  0.4214 -0.5131
  489TMC3    O2 7334   1.121   1.750  16.897 -0.1504  0.3715 -0.0490
  490MPD2     C 7335   1.880   0.993  17.149  0.2063 -0.2351  0.2160
  490MPD2    C1 7336   1.788   1.029  17.244 -0.3317  0.3812  0.7331
  490MPD2    C2 7337   1.804   1.155  17.306  0.1921 -0.2832  0.1696
  490MPD2    C3 7338   1.896   1.245  17.266  0.1821  0.1481  0.0086
  490MPD2    C4 7339   1.972   1.211  17.159 -0.3846  0.5838 -0.0708
  490MPD2    C5 7340   1.972   1.082  17.110 -0.1892  0.7728  0.1762
  490MPD2     H 7341   1.734   1.185  17.383 -0.6249  1.6933 -1.3373
  490MPD2    H1 7342   2.055   1.277  17.136  0.0917 -0.3478 -1.0175
  490MPD2    H2 7343   1.895   0.896  17.104 -1.2087 -1.6056  2.7299
  490MPD2    H3 7344   2.045   1.045  17.038  1.1030  2.2887  0.6977
  490MPD2     N 7345   1.905   1.377  17.306 -0.1213  0.1502  0.3904
  490MPD2    H5 7346   1.974   1.436  17.263  0.1602 -0.6470 -0.2528
  490MPD2    N1 7347   1.680   0.953  17.286 -0.4288  0.0978  0.0032
  490MPD2    H7 7348   1.621   0.996  17.357 -0.3515  3.1671 -1.8118
  491TMC3    C1 7349   1.536   0.754  17.296 -0.1821  0.3250  0.0606
  491TMC3    C2 7350   1.426   0.819  17.350 -0.9672  0.1197  0.2434
  491TMC3    C3 7351   1.314   0.749  17.375 -0.2788 -0.3047 -0.5950
  491TMC3    C4 7352   1.534   0.624  17.246 -0.2013 -0.3330  0.3235
  491TMC3    C5 7353   1.418   0.557  17.274 -0.2786 -0.4928  0.9745
  491TMC3    C6 7354   1.313   0.614  17.334 -0.3762 -0.4539  0.2825
  491TMC3     C 7355   1.660   0.821  17.250 -0.2258 -0.6386  0.1978
  491TMC3     O 7356   1.740   0.758  17.183  0.1862 -0.3220 -0.5495
  491TMC3     H 7357   1.432   0.922  17.385  1.7574  0.0878 -0.1490
  491TMC3    H1 7358   1.605   0.582  17.176 -1.1595 -0.4998 -0.5473
  491TMC3    H2 7359   1.228   0.550  17.355 -1.2420  0.9952  1.2252
  491TMC3    C7 7360   1.389   0.449  17.189 -0.0292  0.6533  0.2224
  491TMC3    C8 7361   1.195   0.826  17.403  0.6085 -0.0318  0.3257
  491TMC3    O1 7362   1.272   0.437  17.155  0.3055 -0.0249  0.0939
  491TMC3    O2 7363   1.210   0.936  17.462 -0.0310 -0.4872  0.2382
  492MPD2     C 7364   2.184   1.243  10.870  0.3934  0.0915 -0.3999
  492MPD2    C1 7365   2.059   1.229  10.889 -0.3124  0.3437 -0.2968
  492MPD2    C2 7366   2.018   1.142  10.988  0.1022  0.3272 -0.1914
  492MPD2    C3 7367   2.107   1.080  11.080 -0.7789  0.0179 -0.2866
  492MPD2    C4 7368   2.240   1.093  11.050 -0.5356 -0.1665 -0.4374
  492MPD2    C5 7369   2.278   1.183  10.946 -0.3219  0.4743 -0.4099
  492MPD2     H 7370   1.912   1.130  11.005 -0.0704 -0.0216 -1.4664
  492MPD2    H1 7371   2.318   1.030  11.092 -1.4008  0.2858  1.8397
  492MPD2    H2 7372   2.213   1.306  10.787  0.5108 -0.9026 -1.1164
  492MPD2    H3 7373   2.385   1.185  10.928 -0.1912  0.7790  0.3930
  492MPD2     N 7374   2.067   0.989  11.178  0.0141 -0.5388 -0.9420
  492MPD2    H5 7375   2.139   0.958  11.241  0.5294 -0.6257 -1.5704
  492MPD2    N1 7376   1.967   1.300  10.812 -0.2466 -0.0101 -0.5436
  492MPD2    H7 7377   2.002   1.361  10.739  2.9324 -0.0447  0.9149
  493TMC3    C1 7378   1.753   1.390  10.728 -0.1370  0.0475 -0.2234
  493TMC3    C2 7379   1.809   1.409  10.600 -0.1919 -0.7304 -0.3562
  493TMC3    C3 7380   1.728   1.462  10.504 -0.1300  0.5538 -0.8179
  493TMC3    C4 7381   1.613   1.396  10.749  0.5557  0.2230  0.0113
  493TMC3    C5 7382   1.530   1.423  10.643 -0.0992 -0.3735  1.0828
  493TMC3    C6 7383   1.593   1.464  10.518 -0.2065  0.5004  0.3688
  493TMC3     C 7384   1.824   1.317  10.833  0.1291 -0.3818 -0.4464
  493TMC3     O 7385   1.759   1.284  10.932 -0.6588  1.1411  0.5384
  493TMC3     H 7386   1.914   1.391  10.582  0.7433  0.4908  3.8744
  493TMC3    H1 7387   1.570   1.382  10.847 -0.2194 -0.8970 -0.4906
  493TMC3    H2 7388   1.533   1.495  10.433  0.0072  2.9074  1.0713
  493TMC3    C7 7389   1.390   1.370  10.642 -0.7817  0.0824 -0.6347
  493TMC3    C8 7390   1.788   1.512  10.378 -0.4989 -0.3921 -0.1534
  493TMC3    O1 7391   1.330   1.386  10.534  0.3919  0.4394 -0.1963
  493TMC3    O2 7392   1.717   1.505  10.278  0.0627  0.6305 -0.6041
  494TMC3    C1 7393   2.334   3.108   0.438 -0.2594  0.0010 -0.6024
  494TMC3    C2 7394   2.382   2.981   0.455 -0.0595  0.6245 -0.3079
  494TMC3    C3 7395   2.359   2.893   0.352 -0.6968  0.2657  0.6486
  494TMC3    C4 7396   2.280   3.158   0.321  0.7109  0.5415  0.4746
  494TMC3    C5 7397   2.275   3.071   0.212  0.4330 -0.0958 -0.6896
  494TMC3    C6 7398   2.314   2.938   0.229 -0.5462 -0.2990 -0.2077
  494TMC3     C 7399   2.317   3.187   0.560  0.6330  0.4795  0.5239
  494TMC3     O 7400   2.213   3.247   0.582 -0.7697 -0.1645  0.2992
  494TMC3     H 7401   2.432   2.939   0.541 -0.7316  0.1357 -0.1548
  494TMC3    H1 7402   2.248   3.262   0.317  2.2662  0.9625 -0.7204
  494TMC3    H2 7403   2.303   2.871   0.145  1.8889 -1.3496  0.3168
  494TMC3    C7 7404   2.286   3.116   0.077 -0.5047  0.2757  0.2176
  494TMC3    C8 7405   2.357   2.755   0.397 -0.2406 -0.8917 -0.1463
  494TMC3    O1 7406   2.374   3.056   0.016 -0.5813  0.0039  0.1280
  494TMC3    O2 7407   2.436   2.724   0.483 -0.5498 -0.3119 -0.3713
  495TMC3    C1 7408   1.513   0.126  14.815  0.1392  0.1364 -0.5067
  495TMC3    C2 7409   1.444   0.166  14.705  0.7372 -0.1697  0.5670
  495TMC3    C3 7410   1.324   0.228  14.729  0.1854  0.0221  1.4176
  495TMC3    C4 7411   1.456   0.122  14.936 -0.0899  0.1010  0.5527
  495TMC3    C5 7412   1.342   0.186  14.956  0.2163 -0.5879 -0.5511
  495TMC3    C6 7413   1.273   0.251  14.857  0.6537 -0.4600 -0.1180
  495TMC3     C 7414   1.606   0.019  14.776 -0.6640 -0.3086  0.6430
  495TMC3     O 7415   1.680   0.055  14.686  0.1700 -0.6754  0.2967
  495TMC3     H 7416   1.487   0.145  14.608 -2.9299 -0.9940 -0.8644
  495TMC3    H1 7417   1.513   0.089  15.023  0.1487  0.0826  0.3896
  495TMC3    H2 7418   1.170   0.284  14.861  0.0974 -2.3148  0.4500
  495TMC3    C7 7419   1.286   0.180  15.086  0.0246  0.6359 -0.1472
  495TMC3    C8 7420   1.228   0.195  14.620 -0.0223  0.6989 -0.6734
  495TMC3    O1 7421   1.361   0.156  15.179  0.3821  0.1097  0.4655
  495TMC3    O2 7422   1.118   0.245  14.614 -0.3844  0.1544  0.7272
  496MPD2     C 7423   3.332   0.579  15.639  0.3003  0.1570  0.5692
  496MPD2    C1 7424   3.306   0.448  15.612  0.2903  0.3391 -0.0024
  496MPD2    C2 7425   3.187   0.397  15.660 -0.4527 -0.0650  0.6132
  496MPD2    C3 7426   3.093   0.479  15.724 -0.1017  0.2456 -0.3295
  496MPD2    C4 7427   3.128   0.609  15.751  0.0624 -0.6237  0.0894
  496MPD2    C5 7428   3.246   0.664  15.700  0.5613  0.4631  0.1666
  496MPD2     H 7429   3.171   0.290  15.657  1.7502 -0.3292 -1.4954
  496MPD2    H1 7430   3.063   0.681  15.800  2.0527  1.0473  0.3009
  496MPD2    H2 7431   3.432   0.617  15.618  0.8472 -1.1551  0.8162
  496MPD2    H3 7432   3.285   0.763  15.723 -1.6046  1.4819 -0.4620
  496MPD2     N 7433   2.968   0.427  15.761 -0.1064 -0.5570  0.6034
  496MPD2    H5 7434   2.914   0.472  15.834  0.5785  0.7991  0.2904
  496MPD2    N1 7435   3.408   0.376  15.552 -0.4034 -0.6919 -0.1159
  496MPD2    H7 7436   3.494   0.428  15.537  0.5743 -2.5581 -0.9941
  497TMC3    C1 7437   2.815   0.264  15.817 -0.0964 -0.4790 -0.3954
  497TMC3    C2 7438   2.729   0.165  15.776  0.7080 -0.1668 -0.4293
  497TMC3    C3 7439   2.630   0.127  15.867  0.3919 -0.4356 -0.6305
  497TMC3    C4 7440   2.810   0.307  15.950 -0.1905 -0.6235 -0.3200
  497TMC3    C5 7441   2.720   0.254  16.037  0.1487  0.1438  0.0989
  497TMC3    C6 7442   2.623   0.164  15.999 -0.0373  0.3962  0.0709
  497TMC3     C 7443   2.916   0.308  15.722 -0.0386  0.2929 -0.1660
  497TMC3     O 7444   2.948   0.227  15.634  0.3148 -0.0664 -0.2636
  497TMC3     H 7445   2.737   0.150  15.669 -3.4245 -1.0293 -0.6094
  497TMC3    H1 7446   2.891   0.364  15.995 -0.3123 -0.8041  0.1241
  497TMC3    H2 7447   2.556   0.120  16.072  0.3358 -0.4544 -0.1077
  497TMC3    C7 7448   2.728   0.266  16.182 -0.3868 -0.0974 -0.3278
  497TMC3    C8 7449   2.515   0.061  15.811 -0.0796 -0.9006 -0.1308
  497TMC3    O1 7450   2.617   0.273  16.230 -0.6843 -0.1205  0.1060
  497TMC3    O2 7451   2.405   0.088  15.854 -0.0857 -0.4121 -0.2587
  498MPD2     C 7452   4.105   1.503   8.998  0.5839 -0.1262 -0.1019
  498MPD2    C1 7453   4.189   1.435   9.081  0.4061  0.9233  0.1770
  498MPD2    C2 7454   4.150   1.309   9.108 -0.8666  0.3383 -0.4895
  498MPD2    C3 7455   4.047   1.240   9.052  0.4116  0.1262 -0.4458
  498MPD2    C4 7456   3.959   1.315   8.973  0.0521  0.1426 -0.2430
  498MPD2    C5 7457   3.989   1.443   8.938  0.1338  0.7061 -0.0743
  498MPD2     H 7458   4.209   1.250   9.178  0.1292  1.8586 -0.0455
  498MPD2    H1 7459   3.865   1.271   8.942  0.5831 -1.6375  0.6775
  498MPD2    H2 7460   4.123   1.608   8.978  0.5936 -0.1064  0.0148
  498MPD2    H3 7461   3.915   1.497   8.880  0.9415  1.3378 -0.5270
  498MPD2     N 7462   4.029   1.111   9.102 -0.0294 -0.1287 -0.5069
  498MPD2    H5 7463   4.088   1.073   9.175 -0.1827 -1.3733 -1.0340
  498MPD2    N1 7464   4.285   1.507   9.168 -0.2526  0.1672  0.5916
  498MPD2    H7 7465   4.334   1.451   9.238 -0.9913 -0.4692  0.6022
  499TMC3    C1 7466   4.432   1.671   9.266  0.1853  0.9943  0.0842
  499TMC3    C2 7467   4.447   1.587   9.376  0.1882 -0.4609  0.5783
  499TMC3    C3 7468   4.562   1.592   9.455  0.4257  0.0758  0.2849
  499TMC3    C4 7469   4.535   1.753   9.226 -0.2731 -0.0036 -0.1338
  499TMC3    C5 7470   4.647   1.760   9.309 -0.2316  0.0590  0.4309
  499TMC3    C6 7471   4.660   1.681   9.424  0.6547  0.9705 -0.1593
  499TMC3     C 7472   4.332   1.636   9.160 -0.2158 -0.0057  0.8860
  499TMC3     O 7473   4.301   1.725   9.081  0.1025  0.1665 -0.1836
  499TMC3     H 7474   4.364   1.526   9.409 -0.2733 -1.0496 -1.7004
  499TMC3    H1 7475   4.532   1.819   9.140  0.2712 -0.0781 -0.2108
  499TMC3    H2 7476   0.012   1.684   9.487 -2.0075  2.6599  3.5458
  499TMC3    C7 7477   0.017   1.852   9.268 -0.7218  0.3928  0.3884
  499TMC3    C8 7478   4.568   1.526   9.583 -0.2815  0.1725  0.0059
  499TMC3    O1 7479   4.724   1.944   9.191  0.2349  0.5553 -0.1537
  499TMC3    O2 7480   4.621   1.582   9.676  0.1458  0.1958 -0.0420
  500MPD2     C 7481   1.094   2.115  10.624 -0.3044 -0.7447  0.8510
  500MPD2    C1 7482   1.138   2.188  10.519 -0.5700  0.3117 -0.7558
  500MPD2    C2 7483   1.043   2.260  10.442 -0.2631 -0.4352  0.2155
  500MPD2    C3 7484   0.908   2.240  10.458 -0.2250 -0.2193  0.2795
  500MPD2    C4 7485   0.863   2.162  10.566  0.0773  0.2915 -0.1182
  500MPD2    C5 7486   0.956   2.103  10.644  0.2925  0.1827  0.2533
  500MPD2     H 7487   1.083   2.324  10.364 -0.7015 -1.9023 -1.2191
  500MPD2    H1 7488   0.761   2.139  10.595  1.0859 -1.2943  2.1725
  500MPD2    H2 7489   1.165   2.057  10.682  1.3989  1.7734  1.3234
  500MPD2    H3 7490   0.926   2.042  10.729  0.3368  0.9462  0.8175
  500MPD2     N 7491   0.812   2.308  10.387 -0.3678  0.6001  0.5020
  500MPD2    H5 7492   0.716   2.296  10.417 -1.2033  2.8387 -1.2475
  500MPD2    N1 7493   1.271   2.209  10.477 -0.0580 -0.1447 -0.0213
  500MPD2    H7 7494   1.299   2.284  10.414  2.1514  0.1250  1.2641
  501TMC3    C1 7495   1.505   2.202  10.503  0.0448 -0.3441  0.1213
  501TMC3    C2 7496   1.515   2.337  10.503 -0.3605 -1.0377 -0.8146
  501TMC3    C3 7497   1.637   2.388  10.546 -1.1315 -0.2619  0.6060
  501TMC3    C4 7498   1.598   2.113  10.544  0.4641 -0.6680 -0.2018
  501TMC3    C5 7499   1.710   2.163  10.599 -0.2724  0.1004  0.5370
  501TMC3    C6 7500   1.733   2.299  10.598 -0.2785  0.3922 -0.6186
  501TMC3     C 7501   1.378   2.148  10.538  0.0665  0.3588  0.0936
  501TMC3     O 7502   1.382   2.043  10.596  0.0544  0.0730  0.7272
  501TMC3     H 7503   1.435   2.401  10.469  0.5197 -0.0605 -1.0576
  501TMC3    H1 7504   1.590   2.005  10.541 -1.2983 -0.5808  0.7544
  501TMC3    H2 7505   1.825   2.352  10.620  0.3912 -0.2732 -1.8335
  501TMC3    C7 7506   1.777   2.079  10.696 -0.0880 -0.1618  0.5668
  501TMC3    C8 7507   1.662   2.533  10.564 -0.1473 -0.1221  0.1739
  501TMC3    O1 7508   1.756   1.960  10.684 -0.5413  0.1011  0.8022
  501TMC3    O2 7509   1.727   2.562  10.665  0.1569  0.5118  0.7936
  502TMC3    C1 7510   0.493   0.955  14.688 -0.5678  0.4617  0.3369
  502TMC3    C2 7511   0.465   1.077  14.653 -0.5402  0.5480 -0.3379
  502TMC3    C3 7512   0.335   1.135  14.688  0.2308  0.0589 -0.3216
  502TMC3    C4 7513   0.388   0.876  14.744  0.3101  0.4270 -0.5303
  502TMC3    C5 7514   0.268   0.930  14.774  0.4705 -0.1195  0.5760
  502TMC3    C6 7515   0.240   1.060  14.751  0.4434  0.3561 -0.6261
  502TMC3     C 7516   0.626   0.932  14.726 -0.3678 -0.2943 -0.3144
  502TMC3     O 7517   0.715   0.966  14.647 -0.0814  1.0523 -0.4958
  502TMC3     H 7518   0.550   1.143  14.646 -0.8606  1.3586  3.5519
  502TMC3    H1 7519   0.398   0.773  14.775  1.3655  1.0887  1.3409
  502TMC3    H2 7520   0.156   1.110  14.799 -0.4105 -1.4968 -0.1970
  502TMC3    C7 7521   0.178   0.858  14.867  0.4641  0.5157  0.7857
  502TMC3    C8 7522   0.334   1.278  14.707  0.0592 -0.3494  0.0258
  502TMC3    O1 7523   0.221   0.751  14.918  0.2335 -0.4235 -0.2321
  502TMC3    O2 7524   0.442   1.331  14.680  0.3448  0.8221  0.1057
  503MPD2     C 7525   2.544   1.765  16.972  0.5043  0.1617  0.1378
  503MPD2    C1 7526   2.501   1.812  17.100  0.6813 -0.3948  0.6214
  503MPD2    C2 7527   2.492   1.722  17.202 -0.0319  0.2116 -0.0995
  503MPD2    C3 7528   2.540   1.593  17.192  0.2038  0.2807  0.2593
  503MPD2    C4 7529   2.591   1.548  17.068  0.3273 -0.5386 -0.6639
  503MPD2    C5 7530   2.589   1.632  16.962 -0.2543 -0.0345 -0.0584
  503MPD2     H 7531   2.454   1.756  17.298 -2.3041  0.4500 -1.0634
  503MPD2    H1 7532   2.632   1.448  17.061  1.7336 -0.0811  0.8916
  503MPD2    H2 7533   2.549   1.831  16.886 -0.5557  0.3155  0.1824
  503MPD2    H3 7534   2.624   1.608  16.863  0.0487 -0.5319  0.1674
  503MPD2     N 7535   2.541   1.514  17.306  0.0645 -0.0973 -0.0606
  503MPD2    H5 7536   2.464   1.523  17.371  0.9641  0.5738  0.9049
  503MPD2    N1 7537   2.444   1.937  17.123 -0.2456  0.5035 -0.3528
  503MPD2    H7 7538   2.429   1.970  17.218  2.3260  2.1120 -0.5010
  504TMC3    C1 7539   2.600   1.352  17.457 -0.2049 -0.4894  0.1072
  504TMC3    C2 7540   2.568   1.439  17.554 -0.4630  0.2818  1.1722
  504TMC3    C3 7541   2.612   1.411  17.674  0.0937 -0.0628 -0.2800
  504TMC3    C4 7542   2.697   1.254  17.472 -0.1505 -0.4601  0.0755
  504TMC3    C5 7543   2.754   1.236  17.595 -0.1135 -0.1345 -0.0107
  504TMC3    C6 7544   2.699   1.308  17.695 -0.4658  0.3816  0.5006
  504TMC3     C 7545   2.628   1.412  17.327  0.0445  0.0595 -0.4328
  504TMC3     O 7546   2.723   1.382  17.257  0.2559 -0.0080  0.5096
  504TMC3     H 7547   2.492   1.516  17.544  1.5676  2.2206  0.6250
  504TMC3    H1 7548   2.736   1.203  17.385 -0.9193 -2.4085  0.8830
  504TMC3    H2 7549   2.742   1.279   0.046  1.6629  4.2439  0.7199
  504TMC3    C7 7550   2.895   1.246  17.593 -0.0227  0.1912  0.6687
  504TMC3    C8 7551   2.588   1.494   0.044 -0.2660 -1.0176 -0.2614
  504TMC3    O1 7552   2.951   1.241  17.700 -0.2643  0.1925  0.3758
  504TMC3    O2 7553   2.554   1.607   0.008  0.2780 -0.1612 -0.1917
  505MPD2     C 7554   3.380   0.872  10.449  0.2168 -0.0229  0.2592
  505MPD2    C1 7555   3.436   0.800  10.346 -0.0265 -0.0805 -0.0167
  505MPD2    C2 7556   3.571   0.826  10.320  0.3499  0.1839  0.2735
  505MPD2    C3 7557   3.651   0.903  10.402  0.4134 -0.8216 -0.6573
  505MPD2    C4 7558   3.592   0.948  10.521  0.0220  0.0778  0.4642
  505MPD2    C5 7559   3.458   0.940  10.542  0.2757  0.7449 -0.1697
  505MPD2     H 7560   3.624   0.763  10.250  0.7781  0.4612  0.3506
  505MPD2    H1 7561   3.644   0.996  10.604  1.8101  0.5824 -0.9466
  505MPD2    H2 7562   3.274   0.861  10.471  0.0505  1.4789  0.1604
  505MPD2    H3 7563   3.406   0.983  10.627 -1.4977 -0.4963 -0.6449
  505MPD2     N 7564   3.791   0.908  10.381 -0.2772 -0.0324  0.4947
  505MPD2    H5 7565   3.850   0.932  10.460 -0.1400 -2.4535  1.1098
  505MPD2    N1 7566   3.352   0.715  10.274  0.4576 -0.0498 -0.1277
  505MPD2    H7 7567   3.255   0.700  10.300  0.5120 -0.2164 -0.0167
  506TMC3    C1 7568   3.304   0.554  10.126  0.9753  0.1694 -0.3775
  506TMC3    C2 7569   3.298   0.529   9.994 -0.1998 -0.6358  0.7122
  506TMC3    C3 7570   3.292   0.397   9.960 -0.0394  0.3015  0.2607
  506TMC3    C4 7571   3.285   0.457  10.222  0.2698 -0.2630  0.0169
  506TMC3    C5 7572   3.287   0.325  10.181  0.1806 -0.8603 -0.0591
  506TMC3    C6 7573   3.293   0.290  10.051  0.1021  0.3107 -0.8054
  506TMC3     C 7574   3.398   0.659  10.162  0.1082 -0.0752  0.5218
  506TMC3     O 7575   3.480   0.699  10.077  0.0203 -0.3904  0.6915
  506TMC3     H 7576   3.318   0.610   9.925  0.8194  1.0724  3.0054
  506TMC3    H1 7577   3.282   0.482  10.327  0.1098  0.9403 -0.2784
  506TMC3    H2 7578   3.305   0.187  10.019  0.6719 -0.0898  0.7017
  506TMC3    C7 7579   3.375   0.249  10.267  0.0375 -0.1700  0.2453
  506TMC3    C8 7580   3.287   0.362   9.817  0.0071 -0.2809  0.5939
  506TMC3    O1 7581   3.313   0.196  10.357 -0.5500 -0.2915  0.8496
  506TMC3    O2 7582   3.217   0.276   9.769 -0.3547  0.0574 -0.2551
  507TMC3    C1 7583   3.934   1.477  13.973 -0.2655  0.0328 -0.0758
  507TMC3    C2 7584   3.796   1.484  13.971 -0.7711 -0.1649 -0.5232
  507TMC3    C3 7585   3.735   1.578  14.044  0.3079 -0.3777  0.0875
  507TMC3    C4 7586   4.021   1.561  14.038  0.0861  0.1949 -0.1361
  507TMC3    C5 7587   3.960   1.663  14.105  0.3908  0.1010 -0.0390
  507TMC3    C6 7588   3.818   1.671  14.104 -0.7562  0.0735  0.2539
  507TMC3     C 7589   3.988   1.347  13.939 -0.3497  0.1096 -0.2537
  507TMC3     O 7590   3.942   1.296  13.835  0.2613  0.5836  0.0996
  507TMC3     H 7591   3.740   1.405  13.922 -0.8271  0.2179 -1.0701
  507TMC3    H1 7592   4.128   1.547  14.040 -0.1062 -1.5354 -1.2135
  507TMC3    H2 7593   3.764   1.758  14.140 -1.0761 -0.3844  0.8775
  507TMC3    C7 7594   3.993   1.698  14.242 -0.2433 -0.1440  0.1011
  507TMC3    C8 7595   3.651   1.514  14.138  0.6506  0.0061  0.5124
  507TMC3    O1 7596   3.904   1.714  14.325  0.2983 -0.3476 -0.1253
  507TMC3    O2 7597   3.603   1.409  14.106 -0.4151 -0.6055  0.3087
  508MPD2     C 7598   4.587   3.442  15.943 -0.3539 -0.5983  0.0689
  508MPD2    C1 7599   4.685   3.491  16.028  0.5922 -0.1333  0.6365
  508MPD2    C2 7600   4.714   3.624  16.027 -0.1448  0.0881 -0.3798
  508MPD2    C3 7601   4.645   3.714  15.953 -0.2627 -0.5262 -0.1744
  508MPD2    C4 7602   4.563   3.673  15.854  0.6013  1.1141  0.5223
  508MPD2    C5 7603   4.535   3.535  15.854 -0.0284  0.1140 -0.1309
  508MPD2     H 7604   0.056   3.669  16.087 -2.1350  2.0517  0.7728
  508MPD2    H1 7605   4.507   3.743  15.793  0.9101 -1.4525 -2.7103
  508MPD2    H2 7606   4.567   3.335  15.941  1.5290 -1.0046  2.7378
  508MPD2    H3 7607   4.465   3.498  15.780 -0.9342  0.9235  0.3095
  508MPD2     N 7608   4.684   3.847  15.962 -0.7106 -0.2457 -0.9217
  508MPD2    H5 7609   0.006   3.875  16.040 -0.8345 -0.9662 -0.5715
  508MPD2    N1 7610   0.000   3.398  16.121 -0.4732  0.2227 -0.3108
  508MPD2    H7 7611   4.685   3.311  16.130 -0.3630  0.3255  1.3080
  509TMC3    C1 7612   4.646   4.294  15.862 -0.4137 -0.2002  0.4052
  509TMC3    C2 7613   4.717   4.333  15.967 -0.5250 -0.5069 -1.2260
  509TMC3    C3 7614   0.037   4.236  16.044  0.2158  0.5600 -0.0915
  509TMC3    C4 7615   4.650   4.165  15.816  0.0045 -0.1299 -0.4059
  509TMC3    C5 7616   4.701   4.073  15.898 -1.1355  0.5648  0.1344
  509TMC3    C6 7617   0.019   4.100  16.019 -0.0810 -0.0473 -0.1606
  509TMC3     C 7618   4.601   4.402  15.776  0.4708 -0.1799  0.1157
  509TMC3     O 7619   4.593   4.373  15.658  0.2691  0.0678  0.0260
  509TMC3     H 7620   4.722   4.439  15.990 -0.3099 -1.1355  1.6487
  509TMC3    H1 7621   4.582   4.140  15.735 -1.0508 -1.5246  0.8994
  509TMC3    H2 7622   0.062   4.028  16.087  0.7935  0.0769 -0.5835
  509TMC3    C7 7623   4.655   3.941  15.864  0.2953  0.0776 -0.6364
  509TMC3    C8 7624   0.134   4.280  16.144 -0.0092  0.3548  0.5662
  509TMC3    O1 7625   4.623   3.920  15.746  0.2434  0.6901 -0.4507
  509TMC3    O2 7626   0.169   4.193  16.225  0.1472  0.1495  1.0427
  510MPD2     C 7627   2.801   0.645  14.828 -0.2740  0.0305  0.3699
  510MPD2    C1 7628   2.823   0.509  14.809 -0.4216 -0.0466  0.0613
  510MPD2    C2 7629   2.931   0.465  14.733  0.8843  0.2007 -0.4124
  510MPD2    C3 7630   3.014   0.556  14.672 -0.4123 -0.2057 -0.1804
  510MPD2    C4 7631   2.990   0.690  14.685 -0.4658  0.0360 -0.4865
  510MPD2    C5 7632   2.886   0.734  14.760 -0.0363  0.5019  0.0810
  510MPD2     H 7633   2.942   0.358  14.718 -0.5018 -0.1911  1.3700
  510MPD2    H1 7634   3.050   0.765  14.635 -1.6223  0.0041 -1.9364
  510MPD2    H2 7635   2.718   0.682  14.888  1.5240  1.3128  2.0761
  510MPD2    H3 7636   2.869   0.840  14.751  1.9537  0.7717 -0.4020
  510MPD2     N 7637   3.131   0.509  14.603 -0.1861  0.1489  0.8886
  510MPD2    H5 7638   3.134   0.407  14.600  0.7304  0.1669  1.1540
  510MPD2    N1 7639   2.742   0.421  14.888  0.4394 -0.0594 -0.4231
  510MPD2    H7 7640   2.663   0.451  14.944  0.9257  1.0799 -0.3466
  511TMC3    C1 7641   2.624   0.217  14.945  0.0688  0.7862  0.5412
  511TMC3    C2 7642   2.550   0.296  15.031  0.1484  0.1634 -0.3595
  511TMC3    C3 7643   2.433   0.248  15.081 -0.6190  0.0680  0.3405
  511TMC3    C4 7644   2.578   0.092  14.911 -0.0616  0.2784 -0.1699
  511TMC3    C5 7645   2.456   0.052  14.965  0.2619  0.0968  0.3394
  511TMC3    C6 7646   2.376   0.128  15.042 -0.0961 -0.1167 -0.6778
  511TMC3     C 7647   2.730   0.283  14.866  0.2436 -0.0593  0.2186
  511TMC3     O 7648   2.794   0.223  14.780  0.2815  0.2630 -0.1396
  511TMC3     H 7649   2.587   0.390  15.070 -0.4262 -0.6034  2.0394
  511TMC3    H1 7650   2.625   0.036  14.831  0.0463  1.6068 -1.0475
  511TMC3    H2 7651   2.271   0.106  15.058 -0.1535  0.7113  0.0625
  511TMC3    C7 7652   2.390   4.671  14.918  0.5156  0.1593  0.4424
  511TMC3    C8 7653   2.376   0.316  15.196 -0.0189 -0.4488 -0.0466
  511TMC3    O1 7654   2.429   4.607  14.823  0.2361 -0.4941  0.5787
  511TMC3    O2 7655   2.406   0.433  15.197 -0.4240 -0.4540  0.2530
  512TMC3    C1 7656   1.076   4.666  13.787 -0.5605 -0.7470  0.4381
  512TMC3    C2 7657   1.199   4.635  13.828 -0.2096 -0.4409  0.1975
  512TMC3    C3 7658   1.255   4.527  13.775 -0.0119 -0.1737 -0.1891
  512TMC3    C4 7659   1.009   4.584  13.693 -0.0385 -0.0435 -0.2212
  512TMC3    C5 7660   1.069   4.473  13.652 -0.3416 -0.8391  0.4831
  512TMC3    C6 7661   1.197   4.442  13.686  0.1848 -0.2449 -0.0988
  512TMC3     C 7662   1.039   0.069  13.807  0.2902 -1.0002 -0.8442
  512TMC3     O 7663   1.128   0.153  13.807 -0.0154  0.2079  0.8065
  512TMC3     H 7664   1.248   4.704  13.896  0.2166  0.2443 -0.8134
  512TMC3    H1 7665   0.911   4.610  13.655  0.1535  1.0940  0.0631
  512TMC3    H2 7666   1.255   4.366  13.636  0.1616 -0.4863  0.2408
  512TMC3    C7 7667   0.993   4.393  13.563 -0.6880 -0.6621 -0.3789
  512TMC3    C8 7668   1.393   4.503  13.809 -0.0766 -0.2075 -0.3917
  512TMC3    O1 7669   0.875   4.428  13.540  0.6323 -0.0003 -0.3369
  512TMC3    O2 7670   1.423   4.385  13.795  0.0397  0.6205  0.3230
  513MPD2     C 7671   2.954   4.573  13.051  0.0035  0.6871  0.5611
  513MPD2    C1 7672   3.011   4.452  13.081  0.6591  0.1482  0.3292
  513MPD2    C2 7673   3.034   4.428  13.218 -0.3444 -0.0425 -0.0359
  513MPD2    C3 7674   2.994   4.524  13.314  0.2951 -0.5465 -0.0145
  513MPD2    C4 7675   2.923   4.630  13.278  0.1669 -0.1488  0.3633
  513MPD2    C5 7676   2.902   4.658  13.144 -0.4845  0.4082 -0.1040
  513MPD2     H 7677   3.090   4.342  13.252 -0.1440 -0.5368 -1.6054
  513MPD2    H1 7678   2.871   4.690  13.352 -0.6347  1.2542 -1.3590
  513MPD2    H2 7679   2.942   4.603  12.947 -1.2864  0.4845  0.6441
  513MPD2    H3 7680   2.849   0.012  13.114 -2.1686 -0.5101  0.0808
  513MPD2     N 7681   3.028   4.487  13.445 -0.1866 -0.3082 -0.1338
  513MPD2    H5 7682   3.075   4.399  13.461 -1.3684 -1.0488 -0.7214
  513MPD2    N1 7683   3.063   4.365  12.980 -0.0005  0.4438 -0.9095
  513MPD2    H7 7684   3.100   4.279  13.018 -0.7627  1.4441  2.0999
  514TMC3    C1 7685   3.136   4.281  12.765 -0.5003 -0.0870 -0.3862
  514TMC3    C2 7686   3.229   4.313  12.673 -0.6105 -0.2375  0.6658
  514TMC3    C3 7687   3.340   4.236  12.677  0.3883 -0.8747 -0.3287
  514TMC3    C4 7688   3.151   4.172  12.844  0.0488 -0.4015 -0.2270
  514TMC3    C5 7689   3.270   4.111  12.852  0.0004 -0.0797 -0.1367
  514TMC3    C6 7690   3.373   4.142  12.771 -0.4733  1.1981 -0.4046
  514TMC3     C 7691   3.072   4.385  12.841 -0.3513 -0.0998  0.3726
  514TMC3     O 7692   3.063   4.492  12.781  0.1467  0.4818  0.1812
  514TMC3     H 7693   3.238   4.414  12.634  0.4545 -0.6962 -0.2713
  514TMC3    H1 7694   3.075   4.147  12.917  1.8777 -1.2349  1.3972
  514TMC3    H2 7695   3.453   4.074  12.744  0.2277  0.6590  3.0220
  514TMC3    C7 7696   3.316   4.096  12.989  0.6634 -0.0570 -0.1858
  514TMC3    C8 7697   3.465   4.288  12.621 -0.1013  0.5982 -0.0310
  514TMC3    O1 7698   3.234   4.100  13.074 -0.1038  0.1270 -0.3527
  514TMC3    O2 7699   3.572   4.246  12.664  0.3687  0.3622  0.0643
  515MPD2     C 7700   1.528   0.876  13.978 -0.0227  0.4774  0.0376
  515MPD2    C1 7701   1.464   0.939  14.073 -0.1112  0.6425 -0.5493
  515MPD2    C2 7702   1.536   1.011  14.168 -0.6318  0.1111  0.3696
  515MPD2    C3 7703   1.674   1.012  14.169  0.4909 -0.5383  0.2300
  515MPD2    C4 7704   1.743   0.947  14.070  0.5206 -0.4706 -0.2087
  515MPD2    C5 7705   1.669   0.868  13.984  0.5493 -0.0524  0.0156
  515MPD2     H 7706   1.478   1.056  14.248 -4.0795 -0.9835 -1.4825
  515MPD2    H1 7707   1.851   0.939  14.068  0.8177  3.6875 -1.6630
  515MPD2    H2 7708   1.485   0.821  13.895  1.2087 -0.4293 -0.0179
  515MPD2    H3 7709   1.725   0.805  13.916 -2.9837  0.4579 -3.3608
  515MPD2     N 7710   1.747   1.082  14.271 -0.9076  0.0149  0.2890
  515MPD2    H5 7711   1.842   1.053  14.293 -0.7852  0.4546  0.3429
  515MPD2    N1 7712   1.324   0.946  14.074 -0.2507 -0.2495 -0.1856
  515MPD2    H7 7713   1.284   1.005  14.147 -1.8750 -1.7926  0.1726
  516TMC3    C1 7714   1.103   0.903  14.044 -0.0715 -0.3543  0.2508
  516TMC3    C2 7715   1.039   1.016  14.005 -0.3273 -0.0671 -0.0481
  516TMC3    C3 7716   0.906   1.030  14.033 -0.2444 -0.4835  0.1319
  516TMC3    C4 7717   1.047   0.812  14.129 -0.4512  0.5399 -0.5987
  516TMC3    C5 7718   0.911   0.825  14.148  0.0029  0.5406  0.1324
  516TMC3    C6 7719   0.836   0.925  14.094  0.1609  0.0866 -0.0622
  516TMC3     C 7720   1.239   0.868  14.005 -0.1050 -0.4059 -0.3488
  516TMC3     O 7721   1.252   0.763  13.942 -0.1393 -0.1031 -0.0687
  516TMC3     H 7722   1.108   1.084  13.957  0.8568 -2.3763 -1.6058
  516TMC3    H1 7723   1.087   0.717  14.162  0.2258  1.4507  1.2019
  516TMC3    H2 7724   0.734   0.945  14.125  1.4292 -1.0429  4.9896
  516TMC3    C7 7725   0.858   0.755  14.265  0.2252  1.0074 -0.3411
  516TMC3    C8 7726   0.828   1.152  14.017  0.5795  0.1026  0.1071
  516TMC3    O1 7727   0.948   0.713  14.336  0.0208 -0.5927 -0.0668
  516TMC3    O2 7728   0.720   1.169  14.071 -0.2045 -0.1401  0.5655
  517MPD2     C 7729   0.981   3.299  17.523  0.2230  0.8766 -0.5017
  517MPD2    C1 7730   1.091   3.286  17.603  0.0360 -0.6854 -0.7141
  517MPD2    C2 7731   1.144   3.392  17.662  0.0446 -0.1940  0.3213
  517MPD2    C3 7732   1.079   3.512  17.666 -0.0865 -0.2442  0.4434
  517MPD2    C4 7733   0.965   3.531  17.582  0.3172  0.5293  0.2953
  517MPD2    C5 7734   0.915   3.422  17.520  0.3464  0.3566 -0.1591
  517MPD2     H 7735   1.243   3.382  17.703  0.0247 -1.8049 -0.0205
  517MPD2    H1 7736   0.911   3.624  17.577 -0.7882 -0.0283  1.8341
  517MPD2    H2 7737   0.941   3.219  17.462  0.9767 -0.0689  0.2524
  517MPD2    H3 7738   0.832   3.432  17.450 -0.3099  1.0691  0.7100
  517MPD2     N 7739   1.124   3.614   0.010 -0.7074 -0.1590 -0.0213
  517MPD2    H5 7740   1.077   3.703  17.740 -2.4393 -0.9270  0.8666
  517MPD2    N1 7741   1.178   3.178  17.590 -1.0532  0.0504  0.4841
  517MPD2    H7 7742   1.271   3.187  17.631 -0.8795  1.2854 -0.1862
  518TMC3    C1 7743   1.253   2.959  17.552 -0.1835 -0.2455  0.5844
  518TMC3    C2 7744   1.219   2.828  17.577 -0.8048  0.7106  0.2244
  518TMC3    C3 7745   1.323   2.740  17.599  0.0316  0.6716 -0.1261
  518TMC3    C4 7746   1.383   3.002  17.527  0.7167 -0.1183 -0.1787
  518TMC3    C5 7747   1.482   2.905  17.539  0.1840 -0.4923 -1.1555
  518TMC3    C6 7748   1.454   2.775  17.572  0.5472  0.1536 -0.1203
  518TMC3     C 7749   1.141   3.049  17.557  0.2219  0.1003 -0.2477
  518TMC3     O 7750   1.031   2.997  17.540 -0.4218  0.4144 -0.0819
  518TMC3     H 7751   1.117   2.792  17.583 -1.0156  1.1775 -0.6709
  518TMC3    H1 7752   1.408   3.105  17.504  0.4082 -0.1442 -0.6222
  518TMC3    H2 7753   1.533   2.712  17.610 -0.1469 -0.7026 -0.0934
  518TMC3    C7 7754   1.595   2.920  17.450  0.1294 -0.0668  0.3705
  518TMC3    C8 7755   1.301   2.608  17.631  0.0026  0.6034  0.1149
  518TMC3    O1 7756   1.639   3.033  17.425  0.1270 -0.4621  0.2027
  518TMC3    O2 7757   1.392   2.525  17.607  0.2487 -0.1091 -0.2483
  519MPD2     C 7758   3.169   1.809  13.972  0.6532 -0.8140  0.5087
  519MPD2    C1 7759   3.070   1.712  13.951  0.5416 -0.0452  0.7401
  519MPD2    C2 7760   3.104   1.593  13.891  0.0486  0.5966  0.2245
  519MPD2    C3 7761   3.242   1.573  13.859 -0.5030  0.2883 -0.6815
  519MPD2    C4 7762   3.335   1.670  13.880 -0.0131 -0.8365  0.4531
  519MPD2    C5 7763   3.300   1.786  13.939  0.0259 -0.8826  0.2482
  519MPD2     H 7764   3.033   1.511  13.884 -1.8220  2.3315 -1.0703
  519MPD2    H1 7765   3.440   1.643  13.874  0.5862  1.1209  2.1391
  519MPD2    H2 7766   3.144   1.905  14.016  1.6659  0.0228 -0.7170
  519MPD2    H3 7767   3.377   1.854  13.971 -2.1237  1.8432 -0.3850
  519MPD2     N 7768   3.285   1.451  13.799 -0.0098  0.6621  0.2523
  519MPD2    H5 7769   3.211   1.383  13.781  0.8562 -1.1164  3.3639
  519MPD2    N1 7770   2.939   1.742  14.001 -0.5173  0.1397  0.3979
  519MPD2    H7 7771   2.915   1.836  14.032 -2.0906  0.3690 -1.4972
  520TMC3    C1 7772   3.416   1.276  13.719 -0.2707 -0.2484 -0.2864
  520TMC3    C2 7773   3.307   1.221  13.660  0.4480 -0.1544 -0.3283
  520TMC3    C3 7774   3.307   1.081  13.655 -0.0026 -0.3538  0.5952
  520TMC3    C4 7775   3.510   1.211  13.790  0.1265 -0.4433  0.7994
  520TMC3    C5 7776   3.509   1.075  13.779 -0.3076 -0.2087 -0.1559
  520TMC3    C6 7777   3.418   1.010  13.700 -0.3227  0.6993  0.0149
  520TMC3     C 7778   3.410   1.417  13.748  0.1292 -0.0785 -0.8888
  520TMC3     O 7779   3.509   1.485  13.735  0.4684  0.2133 -0.4237
  520TMC3     H 7780   3.231   1.282  13.613  0.0879 -0.8452 -0.6509
  520TMC3    H1 7781   3.600   1.261  13.825  1.4034 -2.0090 -0.2234
  520TMC3    H2 7782   3.419   0.902  13.698  1.6750  0.7024  1.2375
  520TMC3    C7 7783   3.622   0.999  13.829  0.0875 -0.1318 -0.0261
  520TMC3    C8 7784   3.206   1.012  13.574  0.6408  0.0694  0.0542
  520TMC3    O1 7785   3.665   1.017  13.941  0.3663 -0.2632  0.8513
  520TMC3    O2 7786   3.229   0.912  13.511  0.5140  0.2954  0.3822
  521MPD2     C 7787   3.489   3.305  17.462 -0.0948 -0.4026  0.0371
  521MPD2    C1 7788   3.535   3.405  17.384 -0.2144 -0.5151  0.6273
  521MPD2    C2 7789   3.656   3.397  17.322 -0.3534 -0.5009  0.2060
  521MPD2    C3 7790   3.729   3.283  17.340  0.6182 -0.4739  0.2179
  521MPD2    C4 7791   3.672   3.177  17.403 -0.2874  0.2098  0.6189
  521MPD2    C5 7792   3.550   3.183  17.460 -0.8150  0.2313 -0.2119
  521MPD2     H 7793   3.686   3.484  17.264  1.8884 -0.8757  0.7890
  521MPD2    H1 7794   3.723   3.082  17.395  0.5384  0.7803 -0.9010
  521MPD2    H2 7795   3.396   3.314  17.516  1.4244  1.0629  2.3941
  521MPD2    H3 7796   3.510   3.102  17.519  0.4395 -0.6803 -0.6369
  521MPD2     N 7797   3.852   3.286  17.275 -0.5864 -0.3963  0.0524
  521MPD2    H5 7798   3.881   3.364  17.218  1.6477 -1.9415 -0.9240
  521MPD2    N1 7799   3.444   3.519  17.376 -0.5762  0.1265  0.0976
  521MPD2    H7 7800   3.360   3.516  17.432 -0.7872  1.2285 -0.1644
  522TMC3    C1 7801   4.067   3.213  17.200 -0.3426 -0.2339 -0.2553
  522TMC3    C2 7802   4.121   3.107  17.142 -0.2179  0.5221 -0.2493
  522TMC3    C3 7803   4.234   3.125  17.069 -0.0436  0.7775 -0.1556
  522TMC3    C4 7804   4.106   3.343  17.175  0.4643  0.1865 -0.0851
  522TMC3    C5 7805   4.217   3.357  17.095  0.9460 -0.7569  0.1190
  522TMC3    C6 7806   4.280   3.253  17.039  0.7285 -0.6441 -0.1334
  522TMC3     C 7807   3.944   3.181  17.275 -0.3609 -0.1877 -0.0584
  522TMC3     O 7808   3.935   3.064  17.310  0.2400  0.7102 -0.7188
  522TMC3     H 7809   4.071   3.011  17.145  0.0089  0.4010 -0.3055
  522TMC3    H1 7810   4.078   3.424  17.241 -0.9619 -0.9176  0.6629
  522TMC3    H2 7811   4.377   3.276  16.996 -0.3298  0.1149 -2.1151
  522TMC3    C7 7812   4.291   3.484  17.093 -0.5446  0.4302  0.1252
  522TMC3    C8 7813   4.297   3.005  17.021  0.2743 -0.7408  0.2321
  522TMC3    O1 7814   4.411   3.477  17.060 -0.3241  0.4510 -0.0235
  522TMC3    O2 7815   4.295   2.904  17.090  0.3768 -0.3130 -0.3727
  523MPD2     C 7816   1.414   4.176  10.492  0.5036  0.1682 -0.4336
  523MPD2    C1 7817   1.355   4.068  10.421  0.2065 -0.1588 -0.9060
  523MPD2    C2 7818   1.248   4.092  10.333 -0.3335  0.9737 -0.0921
  523MPD2    C3 7819   1.207   4.226  10.307 -0.9116  0.4577  0.2998
  523MPD2    C4 7820   1.284   4.327  10.365 -0.2866 -0.3555 -0.9054
  523MPD2    C5 7821   1.386   4.300  10.450 -0.1427  0.3814  0.3530
  523MPD2     H 7822   1.188   4.007  10.300  0.5830  0.6785 -0.9883
  523MPD2    H1 7823   1.274   4.434  10.348 -0.7422 -0.1411  0.7497
  523MPD2    H2 7824   1.487   4.154  10.568  0.7773 -0.7096 -0.9568
  523MPD2    H3 7825   1.442   4.385  10.487  2.3174 -1.2428  0.3494
  523MPD2     N 7826   1.082   4.249  10.235  0.2142 -0.0019  0.0410
  523MPD2    H5 7827   1.026   4.167  10.212  1.9205 -0.3225 -2.9764
  523MPD2    N1 7828   1.407   3.938  10.458  0.0661  0.5044 -0.1279
  523MPD2    H7 7829   1.488   3.936  10.519 -0.9975  1.4808  1.3098
  524TMC3    C1 7830   0.918   4.364  10.122 -0.0132  0.2255 -0.2389
  524TMC3    C2 7831   0.867   4.235  10.099  0.4097  0.1617  0.7657
  524TMC3    C3 7832   0.725   4.220  10.109  0.1547  0.4668  0.2188
  524TMC3    C4 7833   0.839   4.473  10.144 -0.6288  0.2688  0.4469
  524TMC3    C5 7834   0.703   4.451  10.152  0.0014  0.1102  0.9799
  524TMC3    C6 7835   0.646   4.327  10.148  0.2040  0.0895 -0.7899
  524TMC3     C 7836   1.046   4.368  10.193  0.3416  0.3147  0.8888
  524TMC3     O 7837   1.106   4.478  10.189 -0.1459  0.5289 -0.4388
  524TMC3     H 7838   0.929   4.156  10.058 -0.6489  0.1460 -0.7991
  524TMC3    H1 7839   0.883   4.568  10.172  1.5026 -0.3725 -0.6491
  524TMC3    H2 7840   0.538   4.319  10.144  0.1056  0.6343  0.9007
  524TMC3    C7 7841   0.611   4.557  10.131 -0.5940  0.9089  0.5138
  524TMC3    C8 7842   0.659   4.118  10.026 -0.2571 -0.1137  0.3828
  524TMC3    O1 7843   0.499   4.542  10.179 -0.3321 -0.2280  0.5410
  524TMC3    O2 7844   0.543   4.152   9.996  0.1857 -0.4623 -0.1387
  525MPD2     C 7845   0.052   0.622  14.579  0.1859 -0.7218  0.2177
  525MPD2    C1 7846   4.680   0.679  14.642  0.3041  0.2800 -0.5543
  525MPD2    C2 7847   4.651   0.807  14.599  0.0524  0.0424  0.0416
  525MPD2    C3 7848   4.726   0.878  14.508 -0.4843 -0.1750 -0.1393
  525MPD2    C4 7849   0.107   0.823  14.455 -0.0018  0.2978  0.0830
  525MPD2    C5 7850   0.130   0.694  14.492 -0.5986 -0.1035  0.0439
  525MPD2     H 7851   4.565   0.852  14.647  0.2725 -1.1433  1.5399
  525MPD2    H1 7852   0.170   0.868  14.380 -1.3049  1.3414 -0.3853
  525MPD2    H2 7853   0.083   0.524  14.614  1.1228  0.5826  3.0273
  525MPD2    H3 7854   0.212   0.639  14.448  0.0924  0.4857  0.5981
  525MPD2     N 7855   4.692   1.011  14.463 -0.3326  0.7563  0.1612
  525MPD2    H5 7856   0.013   1.047  14.388 -1.9079  1.3648 -0.7455
  525MPD2    N1 7857   4.612   0.613  14.746  0.0907 -0.3327  0.1127
  525MPD2    H7 7858   4.641   0.518  14.767  0.1973  0.0514  1.6621
  526TMC3    C1 7859   4.512   0.589  14.952 -0.2909  0.0708  0.3373
  526TMC3    C2 7860   4.404   0.604  15.034  0.0310 -0.2499  0.1276
  526TMC3    C3 7861   4.408   0.546  15.153  0.5463  0.2341  0.0090
  526TMC3    C4 7862   4.616   0.514  14.995 -0.0760 -0.1191  0.0002
  526TMC3    C5 7863   4.624   0.475  15.127  0.3543 -0.4923 -0.4132
  526TMC3    C6 7864   4.514   0.484  15.206  0.1330 -0.2628 -0.4774
  526TMC3     C 7865   4.521   0.667  14.833 -0.2409 -0.1574 -0.4002
  526TMC3     O 7866   4.447   0.763  14.822  0.0247  0.3359  0.1403
  526TMC3     H 7867   4.315   0.655  14.999  0.3010 -0.4027 -0.7752
  526TMC3    H1 7868   4.711   0.505  14.943 -0.5794  1.7784 -1.2439
  526TMC3    H2 7869   4.512   0.440  15.305  1.1100  0.2447 -0.2247
  526TMC3    C7 7870   0.002   0.404  15.190 -0.2333 -0.0256 -0.8205
  526TMC3    C8 7871   4.317   0.587  15.257  0.0392  0.2412 -0.8632
  526TMC3    O1 7872   4.733   0.390  15.309 -0.0387 -0.2883 -0.1515
  526TMC3    O2 7873   4.348   0.559  15.374  0.1878  0.3621  0.6758
  527MPD2     C 7874   1.802   3.873   1.411 -0.0018 -0.2872 -0.5721
  527MPD2    C1 7875   1.790   3.855   1.271  0.5690 -0.1656  0.6931
  527MPD2    C2 7876   1.900   3.817   1.200 -0.1780 -0.1959  1.0188
  527MPD2    C3 7877   2.020   3.786   1.264 -0.1794 -0.9826  0.7596
  527MPD2    C4 7878   2.021   3.795   1.402  0.0239  0.3071 -0.1048
  527MPD2    C5 7879   1.913   3.833   1.477  0.5288 -0.5500 -0.4949
  527MPD2     H 7880   1.886   3.794   1.095 -0.2045  3.1354  0.3058
  527MPD2    H1 7881   2.094   3.743   1.463  1.6956  2.6157 -0.1190
  527MPD2    H2 7882   1.718   3.899   1.474  1.3354  1.5699  0.4363
  527MPD2    H3 7883   1.919   3.828   1.585 -0.7690  1.7301 -0.3127
  527MPD2     N 7884   2.129   3.743   1.194 -0.3739 -0.3628  0.3923
  527MPD2    H5 7885   2.106   3.726   1.097  0.7128 -3.0167  0.5971
  527MPD2    N1 7886   1.664   3.876   1.205  0.1354 -0.8378  0.1572
  527MPD2    H7 7887   1.663   3.862   1.104  0.0847  1.2745 -0.1421
  528TMC3    C1 7888   1.431   3.880   1.178 -0.8270  0.3179 -0.0243
  528TMC3    C2 7889   1.447   3.938   1.054 -0.1823 -0.1022  0.4621
  528TMC3    C3 7890   1.336   3.931   0.977  0.3388 -0.2270 -0.2786
  528TMC3    C4 7891   1.334   3.795   1.201  0.2789  0.2271  0.3046
  528TMC3    C5 7892   1.237   3.776   1.109  0.2027  0.5456  0.8796
  528TMC3    C6 7893   1.232   3.843   0.996 -0.3144  0.0531  0.0323
  528TMC3     C 7894   1.547   3.870   1.268 -0.5126 -0.9700 -0.6545
  528TMC3     O 7895   1.519   3.855   1.386  0.4096  0.2715 -0.5135
  528TMC3     H 7896   1.532   4.004   1.041 -0.1497  0.2666  2.6429
  528TMC3    H1 7897   1.343   3.741   1.294 -0.8909  1.5175  1.1558
  528TMC3    H2 7898   1.154   3.823   0.923  0.3047  0.4817 -0.7540
  528TMC3    C7 7899   1.111   3.705   1.143 -0.4615  0.3757  0.2363
  528TMC3    C8 7900   1.342   4.012   0.856 -0.0049 -1.0123  0.8505
  528TMC3    O1 7901   1.016   3.725   1.068  0.7473 -0.3946 -0.5223
  528TMC3    O2 7902   1.449   4.072   0.842  0.0473  0.3032 -0.0512
  529MPD2     C 7903   3.979   2.207   1.553  0.2980 -0.2489 -0.3159
  529MPD2    C1 7904   4.053   2.104   1.510 -0.6647  0.0266 -0.0854
  529MPD2    C2 7905   4.033   2.061   1.380  0.1593 -0.2153  0.4250
  529MPD2    C3 7906   3.943   2.129   1.300 -0.3439 -0.3029  0.4199
  529MPD2    C4 7907   3.870   2.236   1.352  0.6152 -0.3775  0.3439
  529MPD2    C5 7908   3.890   2.274   1.479 -0.1623 -0.9430  0.1291
  529MPD2     H 7909   4.089   1.976   1.344  1.5892  1.6490 -1.7887
  529MPD2    H1 7910   3.798   2.285   1.288  0.4534 -0.2509  0.6200
  529MPD2    H2 7911   3.994   2.243   1.654  0.0759  1.6309 -0.9539
  529MPD2    H3 7912   3.834   2.358   1.517  1.8924 -0.7991  2.7930
  529MPD2     N 7913   3.922   2.101   1.161 -0.2278 -0.2127  0.4543
  529MPD2    H5 7914   3.873   2.174   1.110  1.7316  0.8222  0.0830
  529MPD2    N1 7915   4.156   2.044   1.587 -0.1279  0.0389  0.4798
  529MPD2    H7 7916   4.195   1.961   1.543  2.1341  0.5183  1.6254
  530TMC3    C1 7917   4.318   2.021   1.768  0.7744 -0.0940 -0.0026
  530TMC3    C2 7918   4.385   2.076   1.877  0.1623 -0.6676 -0.4631
  530TMC3    C3 7919   4.505   2.034   1.913 -0.4335 -0.0078  0.5879
  530TMC3    C4 7920   4.368   1.911   1.702 -0.3451  0.3467  0.2572
  530TMC3    C5 7921   4.490   1.860   1.754 -0.5169 -0.0792 -0.1964
  530TMC3    C6 7922   4.559   1.922   1.855 -0.3791  0.7601  0.6138
  530TMC3     C 7923   4.213   2.098   1.704  0.3341 -0.0643 -0.8156
  530TMC3     O 7924   4.182   2.203   1.758  0.4962  0.8464 -0.4216
  530TMC3     H 7925   4.347   2.162   1.931  0.1188  0.1712 -1.8103
  530TMC3    H1 7926   4.326   1.858   1.617 -0.4256  0.1692  0.4082
  530TMC3    H2 7927   4.650   1.877   1.893 -0.4139 -0.2372 -0.5052
  530TMC3    C7 7928   4.545   1.734   1.705 -0.5936 -0.3182  0.3590
  530TMC3    C8 7929   4.587   2.126   1.993  0.1606  0.3976 -0.6038
  530TMC3    O1 7930   4.664   1.716   1.718  0.0311 -0.0605  0.2215
  530TMC3    O2 7931   4.531   2.209   2.064  0.1881 -0.6244 -0.6292
  531MPD2     C 7932   3.661   4.278  13.325  0.1224 -0.1630  0.2583
  531MPD2    C1 7933   3.522   4.279  13.335 -0.1774 -0.1077 -0.3940
  531MPD2    C2 7934   3.452   4.219  13.229  0.4598  0.1040 -0.4668
  531MPD2    C3 7935   3.519   4.165  13.119  0.2295  0.6401  0.8055
  531MPD2    C4 7936   3.656   4.175  13.107 -0.3071 -1.3640  0.6502
  531MPD2    C5 7937   3.726   4.229  13.210  0.1754  0.7625 -0.3267
  531MPD2     H 7938   3.343   4.223  13.232  0.5291  1.2719  0.8053
  531MPD2    H1 7939   3.705   4.117  13.030 -0.3006 -0.2964 -0.1478
  531MPD2    H2 7940   3.722   4.323  13.402 -0.8510 -0.8830  1.4469
  531MPD2    H3 7941   3.834   4.234  13.210  0.1050  2.1229 -1.3228
  531MPD2     N 7942   3.449   4.121  13.006 -0.3262  0.0297 -0.0182
  531MPD2    H5 7943   3.509   4.129  12.924  1.7611 -3.0427  1.1998
  531MPD2    N1 7944   3.469   4.327  13.457 -0.2708 -0.3990  0.5593
  531MPD2    H7 7945   3.534   4.358  13.529  0.9022  0.4273 -0.8659
  532TMC3    C1 7946   3.289   4.365  13.623 -0.6035  0.0762 -0.0082
  532TMC3    C2 7947   3.159   4.388  13.630 -0.0224  0.0957  0.4798
  532TMC3    C3 7948   3.114   4.516  13.657 -0.4071  0.6413 -0.1943
  532TMC3    C4 7949   3.377   4.449  13.685  0.7172 -0.6911 -0.2032
  532TMC3    C5 7950   3.322   4.558  13.744 -0.0445  0.0521 -0.1496
  532TMC3    C6 7951   3.192   4.606  13.723 -0.6258 -0.1558  0.5677
  532TMC3     C 7952   3.337   4.319  13.494 -0.1457 -0.0736  0.0663
  532TMC3     O 7953   3.244   4.284  13.428  0.5359 -0.2621 -0.4533
  532TMC3     H 7954   3.091   4.311  13.593  1.1213 -1.0219  0.7086
  532TMC3    H1 7955   3.485   4.446  13.675  0.6195  1.0653 -1.7387
  532TMC3    H2 7956   3.149   4.700  13.758 -2.4091 -0.6743 -0.2542
  532TMC3    C7 7957   3.423   4.650  13.799  0.1029 -0.7586 -0.1157
  532TMC3    C8 7958   3.031   4.571  13.552  0.0845  0.2482 -0.2146
  532TMC3    O1 7959   3.422   0.021  13.748 -0.0940  0.2871  0.0985
  532TMC3    O2 7960   2.987   4.686  13.562  0.0286  0.8050  0.3735
  533TMC3    C1 7961   4.607   1.226  14.459 -0.3473  0.4745 -0.2002
  533TMC3    C2 7962   4.734   1.278  14.438 -0.1619 -0.2294  0.4871
  533TMC3    C3 7963   0.002   1.415  14.434 -0.6021  0.2469 -0.7810
  533TMC3    C4 7964   4.494   1.306  14.451  0.3732 -0.2916  1.2045
  533TMC3    C5 7965   4.501   1.440  14.456  0.4926  0.1965 -0.2814
  533TMC3    C6 7966   4.626   1.489  14.459  0.0460 -0.0556  0.4715
  533TMC3     C 7967   4.596   1.094  14.516 -0.3362  0.2791 -0.1559
  533TMC3     O 7968   4.510   1.070  14.599  0.1287 -0.8571 -0.2691
  533TMC3     H 7969   0.089   1.222  14.448 -0.8009 -1.2556  0.5823
  533TMC3    H1 7970   4.395   1.266  14.471 -0.4188  0.9383 -0.2745
  533TMC3    H2 7971   4.626   1.597  14.466  0.8374 -0.0732  0.7164
  533TMC3    C7 7972   4.409   1.500  14.552  0.2024  0.6336  0.2736
  533TMC3    C8 7973   0.119   1.486  14.424  0.2330 -0.0965 -0.4037
  533TMC3    O1 7974   4.291   1.460  14.567  0.0727 -0.6496  0.3940
  533TMC3    O2 7975   0.111   1.609  14.454  0.1249 -0.4654 -0.2172
  534MPD2     C 7976   2.639   2.340   1.508 -0.1958 -0.7183 -0.0605
  534MPD2    C1 7977   2.552   2.433   1.552  0.0406 -0.7376 -0.2154
  534MPD2    C2 7978   2.414   2.410   1.541 -0.6287  0.2741 -0.5350
  534MPD2    C3 7979   2.367   2.303   1.469  0.2291 -0.2182 -0.1021
  534MPD2    C4 7980   2.454   2.216   1.418 -0.6643 -0.0921  0.5888
  534MPD2    C5 7981   2.589   2.230   1.448  0.5249 -0.1953  0.0164
  534MPD2     H 7982   2.344   2.490   1.564  1.3488  1.3326  1.9652
  534MPD2    H1 7983   2.419   2.133   1.359  1.8623 -0.3227 -0.6089
  534MPD2    H2 7984   2.747   2.352   1.517 -0.2046 -0.0265 -0.9160
  534MPD2    H3 7985   2.661   2.164   1.402  1.2571  0.2005  0.5995
  534MPD2     N 7986   2.233   2.270   1.446 -0.0085 -0.0143  0.2101
  534MPD2    H5 7987   2.201   2.195   1.386 -0.9042 -1.1786  2.1531
  534MPD2    N1 7988   2.588   2.542   1.627  0.0237 -0.2841 -0.1545
  534MPD2    H7 7989   2.519   2.614   1.649  1.7367  1.0864  0.6648
  535TMC3    C1 7990   1.997   2.327   1.412 -1.0760  0.3599  0.2644
  535TMC3    C2 7991   1.889   2.384   1.470 -0.2165 -0.1843  0.0453
  535TMC3    C3 7992   1.776   2.398   1.401  0.5273 -0.2204  0.1547
  535TMC3    C4 7993   1.994   2.289   1.276  0.1934  0.2265  0.7842
  535TMC3    C5 7994   1.869   2.290   1.217 -0.1014 -0.5056  0.3419
  535TMC3    C6 7995   1.759   2.343   1.274  0.3373  0.0080  0.0514
  535TMC3     C 7996   2.123   2.341   1.490  0.0130 -0.0068 -0.1071
  535TMC3     O 7997   2.126   2.420   1.584 -0.6640  0.2110  0.6715
  535TMC3     H 7998   1.903   2.411   1.574  1.2018  0.3902 -0.2856
  535TMC3    H1 7999   2.082   2.241   1.235 -0.7297  0.9357 -2.0220
  535TMC3    H2 8000   1.669   2.370   1.221  0.7719  3.6127  1.1627
  535TMC3    C7 8001   1.862   2.304   1.071 -0.0366  0.2696 -0.3451
  535TMC3    C8 8002   1.672   2.482   1.460  0.0517 -0.5868  0.1563
  535TMC3    O1 8003   1.763   2.270   1.010 -0.0312 -0.0977 -0.1172
  535TMC3    O2 8004   1.559   2.449   1.433  0.7431  0.8363 -0.0842
  536MPD2     C 8005   1.235   0.713  16.212 -0.6868  0.1157  0.5083
  536MPD2    C1 8006   1.121   0.637  16.214  0.5689  0.1123  0.0382
  536MPD2    C2 8007   1.035   0.644  16.105 -0.2555 -0.0604 -0.2775
  536MPD2    C3 8008   1.055   0.745  16.007 -0.0466  0.0029 -0.0458
  536MPD2    C4 8009   1.164   0.822  16.015 -0.1993 -0.5935  0.0459
  536MPD2    C5 8010   1.250   0.807  16.114  0.2233  0.3333 -0.2866
  536MPD2     H 8011   0.953   0.575  16.087 -0.2827  0.2359 -1.3146
  536MPD2    H1 8012   1.181   0.893  15.935  0.0743 -0.6485  0.0548
  536MPD2    H2 8013   1.315   0.689  16.282  1.3090  1.1758 -1.4265
  536MPD2    H3 8014   1.346   0.858  16.116  0.3811  0.0115  0.4545
  536MPD2     N 8015   0.955   0.756  15.906  0.0124  0.4554  0.6183
  536MPD2    H5 8016   0.875   0.695  15.916 -1.1442  2.0189  0.8009
  536MPD2    N1 8017   1.111   0.532  16.316 -0.0142  0.6335  0.6986
  536MPD2    H7 8018   1.181   0.529  16.389 -0.0921  0.3847  0.7609
  537TMC3    C1 8019   1.009   0.361  16.444  0.1536  0.2423  0.2597
  537TMC3    C2 8020   1.110   0.368  16.531 -0.2406 -0.4584 -0.2701
  537TMC3    C3 8021   1.140   0.257  16.607  0.4424  0.4533  0.0163
  537TMC3    C4 8022   0.917   0.261  16.454  0.4010 -0.0772  0.5090
  537TMC3    C5 8023   0.931   0.158  16.540  0.0797  0.1534 -0.2128
  537TMC3    C6 8024   1.044   0.154  16.616  0.0428  0.0848  0.4751
  537TMC3     C 8025   0.998   0.454  16.331  0.1142  0.2627 -0.0150
  537TMC3     O 8026   0.884   0.466  16.281 -0.2656  0.3244 -0.4588
  537TMC3     H 8027   1.165   0.461  16.537 -1.2787  0.1994 -0.8781
  537TMC3    H1 8028   0.823   0.271  16.403 -0.3297 -2.6940  1.3477
  537TMC3    H2 8029   1.055   0.068  16.680 -0.6942  0.5478  1.2218
  537TMC3    C7 8030   0.807   0.090  16.579  0.5445 -0.5394  0.0273
  537TMC3    C8 8031   1.226   0.285  16.720 -0.6256 -0.1013 -0.0774
  537TMC3    O1 8032   0.734   0.072  16.484  0.0002  0.0518  0.1274
  537TMC3    O2 8033   1.206   0.395  16.774 -0.3262  0.3173  0.4274
  538TMC3    C1 8034   2.600   3.601  11.046  0.9438  0.0520  0.2381
  538TMC3    C2 8035   2.703   3.621  10.957 -0.0575  0.3958  0.2963
  538TMC3    C3 8036   2.720   3.733  10.883 -0.0999 -0.8310 -0.1571
  538TMC3    C4 8037   2.504   3.695  11.051 -0.0062 -0.7459  0.3684
  538TMC3    C5 8038   2.521   3.814  10.980  0.2476 -0.2732 -0.4304
  538TMC3    C6 8039   2.630   3.836  10.898 -0.2187 -0.3584  0.0772
  538TMC3     C 8040   2.609   3.493  11.143 -0.0391  0.4363  0.3550
  538TMC3     O 8041   2.690   3.406  11.116  0.2688 -0.7467  0.4745
  538TMC3     H 8042   2.776   3.541  10.947 -0.9129 -0.5280  1.3750
  538TMC3    H1 8043   2.417   3.681  11.114  0.3390  0.9491  1.2308
  538TMC3    H2 8044   2.634   3.929  10.844 -0.1046  1.0462  2.5184
  538TMC3    C7 8045   2.399   3.895  10.968  0.0627  0.2434  0.4094
  538TMC3    C8 8046   2.852   3.750  10.819 -0.6804  0.4779  0.0323
  538TMC3    O1 8047   2.297   3.831  10.977 -0.1601 -0.4178 -0.1061
  538TMC3    O2 8048   2.941   3.672  10.849 -0.3329 -0.1332 -0.1804
  539MPD2     C 8049   1.374   2.952  12.228 -0.6464 -0.3784  1.1411
  539MPD2    C1 8050   1.475   2.984  12.138  0.3377 -0.3565 -0.4112
  539MPD2    C2 8051   1.493   3.112  12.098  0.3378 -0.1691 -0.6959
  539MPD2    C3 8052   1.410   3.213  12.138 -0.8416  0.5467  0.3071
  539MPD2    C4 8053   1.299   3.180  12.208 -0.1093 -0.3606 -0.2568
  539MPD2    C5 8054   1.281   3.053  12.265  0.0490 -0.2406  0.3707
  539MPD2     H 8055   1.576   3.130  12.030  0.7005 -1.2999 -0.5493
  539MPD2    H1 8056   1.224   3.253  12.237  1.7973  1.6314 -0.2748
  539MPD2    H2 8057   1.372   2.848  12.260  0.2715  0.1806  2.9899
  539MPD2    H3 8058   1.199   3.034  12.335 -1.0968 -1.7450 -1.3839
  539MPD2     N 8059   1.426   3.351  12.098  0.7050  0.1058 -0.0811
  539MPD2    H5 8060   1.350   3.415  12.120  0.3904  0.1213 -1.1813
  539MPD2    N1 8061   1.561   2.886  12.084 -0.2178 -0.3551  0.2648
  539MPD2    H7 8062   1.636   2.919  12.025  0.0218 -2.2310 -0.4839
  540TMC3    C1 8063   1.533   3.542  11.999 -0.6225  0.0376 -0.0842
  540TMC3    C2 8064   1.575   3.581  11.874  0.5216  0.0412 -0.4916
  540TMC3    C3 8065   1.529   3.703  11.834 -0.0070  0.2883  0.2470
  540TMC3    C4 8066   1.458   3.627  12.077 -0.4697  0.7517 -0.6970
  540TMC3    C5 8067   1.429   3.750  12.035 -0.4828 -0.0281  0.0213
  540TMC3    C6 8068   1.453   3.783  11.908  0.0702 -0.2923  0.0477
  540TMC3     C 8069   1.537   3.401  12.035  0.5404  0.7291  0.0647
  540TMC3     O 8070   1.638   3.335  11.996  0.2696 -0.0158 -0.3616
  540TMC3     H 8071   1.646   3.521  11.818 -2.4252 -0.3467 -3.7860
  540TMC3    H1 8072   1.421   3.598  12.174  3.6193 -0.8581  0.4030
  540TMC3    H2 8073   1.424   3.875  11.860 -3.2959  0.3509  3.2960
  540TMC3    C7 8074   1.305   3.813  12.084  0.0015  0.1147  0.4513
  540TMC3    C8 8075   1.580   3.750  11.703 -0.0631  0.1429 -0.2611
  540TMC3    O1 8076   1.223   3.859  12.006  0.1578  0.3768 -0.2784
  540TMC3    O2 8077   1.576   3.871  11.677  0.6689  0.4681 -0.0805
  541MPD2     C 8078   4.405   0.041  13.256  0.9312 -0.1096 -0.0369
  541MPD2    C1 8079   4.499   4.694  13.208  0.2191  0.7139  0.4681
  541MPD2    C2 8080   4.584   4.735  13.100  0.0049  0.2787 -0.1362
  541MPD2    C3 8081   4.568   0.128  13.049 -0.5618  0.5808 -0.7367
  541MPD2    C4 8082   4.473   0.209  13.105 -0.3351 -0.2582 -0.6088
  541MPD2    C5 8083   4.399   0.168  13.213  0.1362 -0.2626  0.2260
  541MPD2     H 8084   4.653   4.664  13.055  1.0201  0.1069  1.6858
  541MPD2    H1 8085   4.449   0.309  13.069  1.5446  0.7317  0.8735
  541MPD2    H2 8086   4.330   0.006  13.326  2.2054  1.6313  2.1793
  541MPD2    H3 8087   4.330   0.242  13.252 -0.4262 -1.4282  1.4593
  541MPD2     N 8088   4.645   0.174  12.936  0.4516  0.0653 -0.4687
  541MPD2    H5 8089   4.646   0.272  12.909 -1.0483  0.0573 -0.5939
  541MPD2    N1 8090   4.508   4.558  13.255  0.2934 -0.1896  0.0310
  541MPD2    H7 8091   4.575   4.507  13.199  0.4746 -1.0498  1.0281
  542TMC3    C1 8092   0.037   0.167  12.742 -0.6524 -0.0455  0.7459
  542TMC3    C2 8093   0.071   0.093  12.631 -0.5093 -0.4544  0.8873
  542TMC3    C3 8094   0.075   0.163  12.515 -0.7000 -0.2975  0.3031
  542TMC3    C4 8095   0.012   0.302  12.731  0.9446  0.0430  0.5342
  542TMC3    C5 8096   0.000   0.361  12.610 -0.8966 -0.6438 -0.0074
  542TMC3    C6 8097   0.038   0.292  12.499  0.2424 -0.2581  0.6561
  542TMC3     C 8098   4.710   0.094  12.851  1.1519 -0.0713 -0.1030
  542TMC3     O 8099   4.722   4.709  12.844 -0.1922 -0.1067  0.1334
  542TMC3     H 8100   0.092   4.723  12.630 -0.4712 -0.4484  1.0049
  542TMC3    H1 8101   4.725   0.362  12.819  1.6516 -0.8202  1.3050
  542TMC3    H2 8102   0.061   0.333  12.402  0.2211  0.4828  0.9599
  542TMC3    C7 8103   4.657   0.484  12.604 -0.6329  0.2299 -0.4896
  542TMC3    C8 8104   0.151   0.105  12.404  0.2218  0.1778  0.0816
  542TMC3    O1 8105   4.615   0.526  12.711 -0.8645  0.5078 -0.3545
  542TMC3    O2 8106   0.124   0.130  12.289 -0.4476 -0.0398  0.0424
  543TMC3    C1 8107   4.205   1.255  17.115  0.2631 -0.6996  0.0174
  543TMC3    C2 8108   4.089   1.184  17.133  0.0338 -0.0424  0.0781
  543TMC3    C3 8109   4.053   1.163  17.263 -0.3786  0.5369  0.0790
  543TMC3    C4 8110   4.283   1.318  17.209 -0.2217 -0.0347  0.2044
  543TMC3    C5 8111   4.239   1.295  17.335 -0.1515 -0.0781 -0.2727
  543TMC3    C6 8112   4.130   1.214  17.364  0.2889 -0.0087  0.6694
  543TMC3     C 8113   4.260   1.240  16.982  0.4113 -0.0449 -0.3457
  543TMC3     O 8114   4.375   1.205  16.977 -0.5200  0.2037 -0.1621
  543TMC3     H 8115   4.049   1.131  17.047 -3.4906  1.2773  0.8888
  543TMC3    H1 8116   4.378   1.360  17.179 -0.8963  1.4819  0.2126
  543TMC3    H2 8117   4.113   1.184  17.467 -1.4192  0.5485  0.5534
  543TMC3    C7 8118   4.324   1.336  17.445  0.3018 -0.5688 -0.1129
  543TMC3    C8 8119   3.982   1.045  17.296  0.1293 -0.1320 -0.9058
  543TMC3    O1 8120   4.318   1.281  17.552 -1.1978  0.8007 -0.4904
  543TMC3    O2 8121   4.006   0.990  17.400  0.5755  0.5799  0.8950
  544MPD2     C 8122   3.578   0.720  17.236  0.0846 -0.7740  0.3185
  544MPD2    C1 8123   3.653   0.750  17.347 -0.4633 -0.2821 -0.2121
  544MPD2    C2 8124   3.758   0.847  17.349 -0.0475  0.5160 -0.6146
  544MPD2    C3 8125   3.787   0.914  17.228 -0.3980  0.1483 -0.3652
  544MPD2    C4 8126   3.703   0.881  17.123  0.2781  0.2115  0.5261
  544MPD2    C5 8127   3.606   0.784  17.123  0.4080  0.4852  0.1759
  544MPD2     H 8128   3.820   0.875  17.433 -0.3023  3.3087 -1.3754
  544MPD2    H1 8129   3.706   0.943  17.034  2.0202  0.3581  0.6841
  544MPD2    H2 8130   3.500   0.645  17.242 -1.4089  0.6968 -0.8913
  544MPD2    H3 8131   3.545   0.765  17.036  3.5499  4.4184 -2.8833
  544MPD2     N 8132   3.886   1.008  17.208  0.1795  0.7345  0.5597
  544MPD2    H5 8133   3.871   1.066  17.126  3.1467  1.0456  0.2269
  544MPD2    N1 8134   3.628   0.671  17.467 -0.0139 -0.3617  0.1366
  544MPD2    H7 8135   3.544   0.615  17.462  0.0385 -0.3940 -0.4066
  545TMC3    C1 8136   3.672   0.553  17.680 -0.2698  0.4318  0.2738
  545TMC3    C2 8137   3.579   0.458  17.641  0.4436  0.5756 -0.4222
  545TMC3    C3 8138   3.575   0.341  17.713  0.0234 -0.6167 -0.0157
  545TMC3    C4 8139   3.761   0.531   0.044 -0.0874  0.0725  0.3696
  545TMC3    C5 8140   3.753   0.418   0.109 -0.0231  0.0312  0.3844
  545TMC3    C6 8141   3.664   0.319   0.071 -0.4264  0.3056  0.1568
  545TMC3     C 8142   3.706   0.659  17.585  0.8330 -0.1907  0.4377
  545TMC3     O 8143   3.809   0.723  17.612  0.6837 -0.1155  0.2859
  545TMC3     H 8144   3.519   0.473  17.552  0.6411  0.3723 -0.5894
  545TMC3    H1 8145   3.810   0.619   0.083  0.9887 -0.5142  0.3422
  545TMC3    H2 8146   3.660   0.226   0.125  0.6858 -1.9596 -3.6578
  545TMC3    C7 8147   3.825   0.416   0.230 -0.2115  0.2120  0.2262
  545TMC3    C8 8148   3.518   0.222  17.648 -0.5503 -0.0513  0.3042
  545TMC3    O1 8149   3.874   0.520   0.276 -0.1857  0.8330 -0.4471
  545TMC3    O2 8150   3.506   0.240  17.527  0.6727  0.0167  0.1777
  546MPD2     C 8151   1.053   1.201  16.988 -0.0343  0.3753  0.9345
  546MPD2    C1 8152   0.981   1.256  17.091 -0.3628  0.7645  0.5562
  546MPD2    C2 8153   1.041   1.363  17.147  0.2873  0.7388  0.0831
  546MPD2    C3 8154   1.164   1.420  17.108  0.2579 -0.5210 -0.1696
  546MPD2    C4 8155   1.232   1.357  17.009 -0.4773 -0.1341  0.1937
  546MPD2    C5 8156   1.174   1.244  16.949  0.4856  0.2159  0.4007
  546MPD2     H 8157   0.980   1.420  17.216  0.3695  0.1745  0.6234
  546MPD2    H1 8158   1.334   1.368  16.973 -0.2214 -0.0348  0.9522
  546MPD2    H2 8159   1.014   1.116  16.932  0.2478  0.8038  0.0836
  546MPD2    H3 8160   1.228   1.204  16.865  1.6702  0.5083  1.0267
  546MPD2     N 8161   1.217   1.536  17.168  0.3129  0.5497 -0.3792
  546MPD2    H5 8162   1.306   1.571  17.134  1.5130 -1.5066  0.6260
  546MPD2    N1 8163   0.855   1.207  17.120 -0.0717  0.2342  0.7524
  546MPD2    H7 8164   0.814   1.134  17.061 -1.2274  2.3107 -1.0009
  547TMC3    C1 8165   0.663   1.166  17.237 -0.4357  0.0026  0.6449
  547TMC3    C2 8166   0.602   1.123  17.122  0.5540  0.9977  0.6191
  547TMC3    C3 8167   0.464   1.095  17.144 -0.0971  0.8189 -0.2535
  547TMC3    C4 8168   0.599   1.179  17.357  0.2781  0.0025  0.2443
  547TMC3    C5 8169   0.472   1.147  17.371 -0.0084  0.0144 -0.2740
  547TMC3    C6 8170   0.397   1.107  17.263  0.3876  0.3385  0.1262
  547TMC3     C 8171   0.782   1.244  17.229  0.1359 -1.2203 -0.0288
  547TMC3     O 8172   0.810   1.324  17.318  0.4441  0.1941 -0.1277
  547TMC3     H 8173   0.639   1.127  17.021 -0.7785 -0.3187  0.0840
  547TMC3    H1 8174   0.656   1.217  17.441  1.8670 -2.4032  0.2459
  547TMC3    H2 8175   0.289   1.093  17.262  0.8056 -2.9525  0.5088
  547TMC3    C7 8176   0.411   1.202  17.489  0.7670 -0.0877 -0.1622
  547TMC3    C8 8177   0.394   1.026  17.038  0.5759  0.7151  1.0344
  547TMC3    O1 8178   0.464   1.303  17.537 -0.1845  0.3971 -0.5925
  547TMC3    O2 8179   0.270   1.029  17.030 -0.1306  0.0732 -0.2028
  548MPD2     C 8180   0.813   1.838  12.572  0.2758 -0.1224 -0.1426
  548MPD2    C1 8181   0.763   1.746  12.667 -0.5974  0.1436  0.0358
  548MPD2    C2 8182   0.819   1.627  12.678 -0.4223  0.2162  0.1791
  548MPD2    C3 8183   0.920   1.590  12.594  0.2510  0.7565 -0.2463
  548MPD2    C4 8184   0.968   1.685  12.500  0.5994 -0.0426  0.5961
  548MPD2    C5 8185   0.909   1.805  12.483  0.3099 -0.6371  0.4933
  548MPD2     H 8186   0.796   1.561  12.761  0.0664 -1.9241 -1.3736
  548MPD2    H1 8187   1.048   1.670  12.429  0.3302 -0.3937  0.3637
  548MPD2    H2 8188   0.770   1.937  12.566  0.1470 -0.0483  1.9739
  548MPD2    H3 8189   0.939   1.879  12.410  2.3535 -1.7231  0.2317
  548MPD2     N 8190   0.970   1.460  12.600  0.1725 -0.6968  0.1697
  548MPD2    H5 8191   0.932   1.397  12.670  0.5997 -0.6165  0.4711
  548MPD2    N1 8192   0.643   1.781  12.740  0.2514 -0.2167 -0.2016
  548MPD2    H7 8193   0.600   1.871  12.724  2.3541  1.1076  1.5507
  549TMC3    C1 8194   0.459   1.749  12.892  0.0591 -0.2961 -0.4736
  549TMC3    C2 8195   0.413   1.871  12.845  0.1044  0.3460  0.4920
  549TMC3    C3 8196   0.278   1.891  12.849 -0.0901  0.0912  0.1663
  549TMC3    C4 8197   0.376   1.658  12.961 -0.0702  0.4615 -0.0185
  549TMC3    C5 8198   0.242   1.687  12.959  0.9203  0.6204 -0.2402
  549TMC3    C6 8199   0.196   1.802  12.908  0.4431  0.1907  0.6716
  549TMC3     C 8200   0.580   1.700  12.830 -0.8537 -1.1743  0.6190
  549TMC3     O 8201   0.590   1.580  12.859  0.0298 -0.1773 -1.0816
  549TMC3     H 8202   0.480   1.953  12.823 -1.0726  1.6136  1.5822
  549TMC3    H1 8203   0.419   1.575  13.015 -0.7690 -0.1737 -0.4369
  549TMC3    H2 8204   0.088   1.816  12.902  0.7047  2.3512  0.9670
  549TMC3    C7 8205   0.151   1.589  13.012  0.1472  0.8299 -0.3405
  549TMC3    C8 8206   0.231   1.984  12.745  0.1142 -0.2073  0.1196
  549TMC3    O1 8207   0.053   1.646  13.047 -0.0246  0.0279  0.1346
  549TMC3    O2 8208   0.125   1.959  12.685  0.9301  0.3203 -0.0046
  550TMC3    C1 8209   4.380   4.423  12.152  0.2904  1.0436 -1.0233
  550TMC3    C2 8210   4.416   4.522  12.235  0.2491 -0.2460  0.4064
  550TMC3    C3 8211   4.470   4.638  12.193  0.2716  0.0605 -0.3351
  550TMC3    C4 8212   4.397   4.430  12.023  0.1517  0.0527 -0.2505
  550TMC3    C5 8213   4.421   4.553  11.972  0.1650  0.2767 -0.7485
  550TMC3    C6 8214   4.457   4.658  12.057 -0.8387 -0.7720 -0.3875
  550TMC3     C 8215   4.247   4.375  12.185 -0.3970  0.1378 -0.8834
  550TMC3     O 8216   4.227   4.363  12.307 -0.1379 -0.1716 -0.5946
  550TMC3     H 8217   4.394   4.503  12.340 -0.7621  2.1746  0.6335
  550TMC3    H1 8218   4.368   4.344  11.964  0.3021 -0.8171  0.9361
  550TMC3    H2 8219   4.488   0.021  12.027  1.9310 -0.5867  3.0340
  550TMC3    C7 8220   4.336   4.585  11.866  0.6868  0.9207 -0.4467
  550TMC3    C8 8221   4.438   0.026  12.266 -0.3506 -0.9597  0.0438
  550TMC3    O1 8222   4.242   4.508  11.848 -0.5532  0.6116  0.0145
  550TMC3    O2 8223   4.403   0.123  12.196  0.2823  0.0686 -0.0432
  551TMC3    C1 8224   1.803   2.162  13.440  0.7614 -0.2940  0.3829
  551TMC3    C2 8225   1.913   2.147  13.353  0.2292 -0.2572 -0.1738
  551TMC3    C3 8226   2.043   2.159  13.403 -0.2305 -0.4208 -0.4844
  551TMC3    C4 8227   1.821   2.213  13.564 -0.0772 -0.2916 -0.5541
  551TMC3    C5 8228   1.949   2.227  13.604 -0.8262  0.0941  0.6062
  551TMC3    C6 8229   2.060   2.210  13.526 -0.3219  0.8701 -0.0363
  551TMC3     C 8230   1.672   2.128  13.397  0.2174 -0.5638 -0.0614
  551TMC3     O 8231   1.670   2.026  13.330 -0.0973  0.9480 -0.4222
  551TMC3     H 8232   1.894   2.121  13.249 -0.7157  0.6309 -0.2202
  551TMC3    H1 8233   1.743   2.213  13.639  0.8755  0.7468  0.4532
  551TMC3    H2 8234   2.159   2.234  13.561 -0.1653 -1.8004  1.3723
  551TMC3    C7 8235   1.983   2.298  13.726  0.6921  0.1476 -0.1759
  551TMC3    C8 8236   2.135   2.205  13.297  0.1837  0.3361 -0.3278
  551TMC3    O1 8237   2.093   2.262  13.768  0.5641  0.2460  0.0410
  551TMC3    O2 8238   2.115   2.161  13.183  0.2829 -0.4966  0.6110
  552MPD2     C 8239   3.702   4.613  14.549  0.2683 -0.1141 -0.1461
  552MPD2    C1 8240   3.689   4.478  14.541 -0.0492  0.7733 -0.1147
  552MPD2    C2 8241   3.776   4.404  14.611 -1.1482 -0.0654 -0.9367
  552MPD2    C3 8242   3.880   4.457  14.687 -0.1589  0.3424  0.0218
  552MPD2    C4 8243   3.897   4.593  14.697 -0.2555  0.0329  0.1065
  552MPD2    C5 8244   3.803   4.672  14.628  0.2796 -0.0395  0.1180
  552MPD2     H 8245   3.758   4.297  14.608 -1.7122 -0.0599  2.8044
  552MPD2    H1 8246   3.966   4.633  14.771  2.4373 -1.7336 -1.4336
  552MPD2    H2 8247   3.617   4.672  14.516  0.0908  0.4626  1.3233
  552MPD2    H3 8248   3.812   0.043  14.641 -0.0574  0.0715 -0.5621
  552MPD2     N 8249   3.958   4.365  14.750 -0.3647 -0.0301  0.0213
  552MPD2    H5 8250   3.928   4.268  14.751  0.5956 -0.3446 -1.0827
  552MPD2    N1 8251   3.584   4.416  14.474 -0.3620 -0.0560  0.1674
  552MPD2    H7 8252   3.581   4.314  14.479  0.6148 -0.1689 -1.6784
  553TMC3    C1 8253   3.382   4.399  14.342 -0.6794 -0.0635  0.5229
  553TMC3    C2 8254   3.348   4.415  14.213 -0.2451 -0.2410  0.2314
  553TMC3    C3 8255   3.275   4.312  14.158  0.1289  0.3270 -0.2600
  553TMC3    C4 8256   3.365   4.283  14.415 -0.1041 -0.8910  0.2628
  553TMC3    C5 8257   3.310   4.180  14.354  0.0691  0.6469  0.0513
  553TMC3    C6 8258   3.254   4.199  14.233  0.6143 -0.5436 -0.3000
  553TMC3     C 8259   3.497   4.477  14.385  0.3178  0.7740  0.1733
  553TMC3     O 8260   3.503   4.588  14.338  0.7014  0.2431  0.0212
  553TMC3     H 8261   3.360   4.509  14.161  1.5938  0.3791  1.7770
  553TMC3    H1 8262   3.406   4.270  14.515 -1.0554  2.4578  1.1144
  553TMC3    H2 8263   3.214   4.107  14.191  0.4592 -0.3443 -0.5868
  553TMC3    C7 8264   3.398   4.070  14.350 -0.2125  0.0236  0.5233
  553TMC3    C8 8265   3.336   4.275  14.030  0.0263 -0.8532  0.0837
  553TMC3    O1 8266   3.515   4.094  14.370 -0.0542  0.6002  0.0844
  553TMC3    O2 8267   3.433   4.346  13.997  0.1860 -0.0994  0.0747
  554TMC3    C1 8268   0.842   3.758  11.814 -0.5214  0.2303  0.4073
  554TMC3    C2 8269   0.791   3.673  11.715 -0.6408  0.0033  0.3995
  554TMC3    C3 8270   0.859   3.667  11.599 -0.0892 -0.1527  0.2132
  554TMC3    C4 8271   0.964   3.829  11.801  0.2301  0.1123  0.3066
  554TMC3    C5 8272   1.024   3.819  11.677 -0.3153 -0.4014 -0.4895
  554TMC3    C6 8273   0.973   3.737  11.577  0.5608 -0.4227 -0.0371
  554TMC3     C 8274   0.817   3.702  11.949 -0.0142  0.3768 -0.5103
  554TMC3     O 8275   0.829   3.773  12.049 -0.6256  0.4363  0.0993
  554TMC3     H 8276   0.697   3.620  11.727  0.4140 -2.1805 -0.8728
  554TMC3    H1 8277   1.025   3.865  11.883  3.1380 -2.6651 -0.6343
  554TMC3    H2 8278   1.021   3.735  11.479  0.1398  0.1422 -0.2569
  554TMC3    C7 8279   1.161   3.872  11.663 -0.6489  0.1785 -0.4574
  554TMC3    C8 8280   0.809   3.607  11.475  0.0319  0.5287  0.3386
  554TMC3    O1 8281   1.237   3.811  11.584 -0.5985  0.1019  0.1599
  554TMC3    O2 8282   0.857   3.649  11.367 -0.6833  0.2592  0.2451
  555TMC3    C1 8283   0.200   2.978  15.580  0.2535 -0.3199  0.2403
  555TMC3    C2 8284   0.255   2.956  15.703  1.2961  0.1623  0.3432
  555TMC3    C3 8285   0.298   2.826  15.728 -0.4108  0.5397 -0.1765
  555TMC3    C4 8286   0.187   2.879  15.488  0.9408  0.8595  0.0758
  555TMC3    C5 8287   0.239   2.758  15.507  1.0609  0.1939 -0.4116
  555TMC3    C6 8288   0.289   2.725  15.632 -0.4682  0.2400 -0.5534
  555TMC3     C 8289   0.221   3.106  15.525  0.1049  0.8166 -1.3974
  555TMC3     O 8290   0.314   3.171  15.570  0.2550  0.2155  0.0326
  555TMC3     H 8291   0.273   3.044  15.765  0.6557 -0.8935  2.0138
  555TMC3    H1 8292   0.139   2.901  15.393  0.5177  0.0539  0.1012
  555TMC3    H2 8293   0.318   2.625  15.661 -2.7032 -0.7518 -1.7285
  555TMC3    C7 8294   0.184   2.641  15.439  0.2320  0.4319 -0.6683
  555TMC3    C8 8295   0.346   2.778  15.857 -1.1478  0.7362  0.1105
  555TMC3    O1 8296   0.137   2.557  15.508  0.8191 -0.3827 -0.1523
  555TMC3    O2 8297   0.380   2.661  15.865 -0.1912  0.1384  0.2823
  556MPD2     C 8298   2.941   0.307  10.281 -0.1405 -0.0373 -0.1555
  556MPD2    C1 8299   2.908   0.210  10.373 -0.7281 -0.1097  0.4292
  556MPD2    C2 8300   2.906   0.077  10.325 -1.1163  0.1300 -0.9243
  556MPD2    C3 8301   2.934   0.042  10.200  0.5376 -0.6538 -0.0848
  556MPD2    C4 8302   2.954   0.145  10.106  0.1866  0.5530 -0.2612
  556MPD2    C5 8303   2.952   0.275  10.148 -1.2142 -0.0025 -0.1363
  556MPD2     H 8304   2.872   0.002  10.395  1.1814 -1.3118 -1.3510
  556MPD2    H1 8305   2.955   0.113  10.003  0.4160  1.8378 -0.6589
  556MPD2    H2 8306   2.944   0.410  10.313 -1.0519  0.0059 -0.2160
  556MPD2    H3 8307   2.981   0.350  10.076  0.7747 -0.8286 -0.2029
  556MPD2     N 8308   2.946   4.639  10.170 -0.0868 -0.5144 -0.1566
  556MPD2    H5 8309   2.907   4.578  10.241 -1.5975 -1.0001 -1.4093
  556MPD2    N1 8310   2.876   0.238  10.516 -0.0566 -0.3928  0.1780
  556MPD2    H7 8311   2.886   0.156  10.575  0.6003  0.8166  1.7686
  557TMC3    C1 8312   2.999   4.442  10.061  0.0897  0.0040 -0.3958
  557TMC3    C2 8313   3.040   4.366   9.957  0.1657 -0.0127 -0.2187
  557TMC3    C3 8314   3.059   4.232   9.965 -0.2333  0.5424  1.0569
  557TMC3    C4 8315   2.955   4.379  10.177 -0.0966 -0.4465  0.1979
  557TMC3    C5 8316   2.961   4.244  10.178  0.0372  0.8253 -0.2211
  557TMC3    C6 8317   3.007   4.166  10.072 -0.4372 -0.1077 -0.4253
  557TMC3     C 8318   2.996   4.589  10.053  0.0548  0.0383  0.2345
  557TMC3     O 8319   3.043   4.640   9.956 -0.3868 -0.7029 -0.8548
  557TMC3     H 8320   3.072   4.417   9.867 -1.0082  0.3338 -0.4329
  557TMC3    H1 8321   2.921   4.421  10.271 -1.2834 -1.8548  0.3919
  557TMC3    H2 8322   3.018   4.059  10.086  0.6765 -0.0320 -0.7584
  557TMC3    C7 8323   2.933   4.180  10.303 -0.0414 -0.3114  0.1746
  557TMC3    C8 8324   3.121   4.163   9.855  0.0864  0.3431  0.6598
  557TMC3    O1 8325   2.840   4.221  10.371 -0.9504 -0.5516 -0.2080
  557TMC3    O2 8326   3.166   4.238   9.769  0.0768 -0.1173 -0.0958
  558TMC3    C1 8327   0.718   2.436  10.216  0.5051 -0.2030  0.0607
  558TMC3    C2 8328   0.596   2.372  10.235 -1.0533 -0.1268 -0.0019
  558TMC3    C3 8329   0.497   2.408  10.146  0.0931  0.0147 -0.5558
  558TMC3    C4 8330   0.737   2.513  10.109  0.2403 -0.6043  0.2638
  558TMC3    C5 8331   0.637   2.531  10.018  0.2281 -0.2912 -0.5675
  558TMC3    C6 8332   0.511   2.487  10.035 -0.4057  0.8893 -0.1305
  558TMC3     C 8333   0.843   2.386  10.273  0.0866 -0.3626 -0.3224
  558TMC3     O 8334   0.947   2.407  10.214 -0.0475  0.4027  0.2426
  558TMC3     H 8335   0.580   2.285  10.298  0.0036  0.6010  1.2709
  558TMC3    H1 8336   0.832   2.564  10.099 -1.0545  1.9557  0.9905
  558TMC3    H2 8337   0.430   2.503   9.965 -0.0693  0.0518 -0.7180
  558TMC3    C7 8338   0.655   2.648   9.932 -0.0767  0.3659 -0.2146
  558TMC3    C8 8339   0.381   2.325  10.156 -0.4061 -0.3047 -0.3421
  558TMC3    O1 8340   0.732   2.738   9.962  0.2539 -0.1877  0.5699
  558TMC3    O2 8341   0.311   2.314  10.059  0.3367  0.6156 -0.1718
  559MPD2     C 8342   0.659   2.977  10.631 -0.5010 -0.3054 -0.0021
  559MPD2    C1 8343   0.565   2.926  10.709  0.0640 -0.1678  0.2661
  559MPD2    C2 8344   0.604   2.874  10.833 -0.2131  0.1436 -0.5668
  559MPD2    C3 8345   0.728   2.885  10.890 -0.7703 -0.2977 -0.6164
  559MPD2    C4 8346   0.818   2.940  10.805  0.2268 -0.9149  1.0045
  559MPD2    C5 8347   0.783   2.989  10.679  0.4733 -0.5433  0.2740
  559MPD2     H 8348   0.529   2.820  10.890  0.3964  1.1162  1.1457
  559MPD2    H1 8349   0.919   2.962  10.837  0.4003 -0.0996 -0.0980
  559MPD2    H2 8350   0.627   3.004  10.531 -1.5809  1.4174  0.7981
  559MPD2    H3 8351   0.861   3.030  10.615  0.3091 -0.8244 -0.1088
  559MPD2     N 8352   0.753   2.820  11.015 -0.6668  0.2590 -0.3613
  559MPD2    H5 8353   0.680   2.783  11.075 -0.7658  0.4846 -0.3402
  559MPD2    N1 8354   0.430   2.926  10.656 -0.5412  0.1426  0.3546
  559MPD2    H7 8355   0.406   2.963  10.565  0.8065  1.0560  0.3734
  560TMC3    C1 8356   0.894   2.707  11.168  0.8369 -0.3940  1.0762
  560TMC3    C2 8357   0.823   2.589  11.153  0.4043 -0.2288  0.0993
  560TMC3    C3 8358   0.817   2.506  11.258 -0.3843  0.6380  0.4046
  560TMC3    C4 8359   0.976   2.730  11.270  0.5838 -0.3530 -1.1467
  560TMC3    C5 8360   0.979   2.642  11.370  0.0552  0.6097 -0.4917
  560TMC3    C6 8361   0.898   2.529  11.369  0.3958 -0.2810 -0.2717
  560TMC3     C 8362   0.880   2.811  11.062 -0.3692 -0.3233 -0.2868
  560TMC3     O 8363   0.983   2.880  11.043 -0.4031 -0.1226 -0.1810
  560TMC3     H 8364   0.749   2.578  11.075  0.4707 -1.8894  0.2796
  560TMC3    H1 8365   1.014   2.832  11.270 -1.3847  0.3501  2.5688
  560TMC3    H2 8366   0.916   2.451  11.441 -1.0596 -0.9465 -0.6220
  560TMC3    C7 8367   1.065   2.666  11.488 -0.9182  0.6091 -0.0282
  560TMC3    C8 8368   0.705   2.419  11.263  0.1046  1.1202  0.6361
  560TMC3    O1 8369   1.084   2.577  11.571  0.0355 -0.3062  0.0339
  560TMC3    O2 8370   0.647   2.407  11.158 -0.0450  0.2417 -0.4511
  561TMC3    C1 8371   3.417   2.285  11.143 -0.0830 -0.1854  0.6535
  561TMC3    C2 8372   3.363   2.199  11.230 -0.5294 -0.2827  0.5316
  561TMC3    C3 8373   3.303   2.245  11.352 -0.6104 -0.1885  0.4003
  561TMC3    C4 8374   3.411   2.417  11.157  0.3966 -0.5984 -0.1669
  561TMC3    C5 8375   3.356   2.463  11.271  0.3452 -0.6772  0.2887
  561TMC3    C6 8376   3.302   2.383  11.366  0.2317  0.6848 -0.0892
  561TMC3     C 8377   3.521   2.228  11.063  0.5350 -0.2023  0.4318
  561TMC3     O 8378   3.510   2.108  11.041  0.3553 -0.7418 -0.1741
  561TMC3     H 8379   3.372   2.091  11.219 -0.9775 -0.0766 -1.9272
  561TMC3    H1 8380   3.455   2.486  11.085  0.2753 -0.6760 -0.3149
  561TMC3    H2 8381   3.256   2.426  11.454  1.8515  2.1292  0.0508
  561TMC3    C7 8382   3.376   2.601  11.316  0.2269 -0.2886  0.0212
  561TMC3    C8 8383   3.258   2.149  11.454 -0.1406 -0.0339 -0.4909
  561TMC3    O1 8384   3.372   2.617  11.434  0.5161  0.2740 -0.6139
  561TMC3    O2 8385   3.242   2.042  11.403 -0.8400  0.0008 -0.1938
  562TMC3    C1 8386   4.308   2.681  16.513  0.2187 -0.1121  0.9230
  562TMC3    C2 8387   4.295   2.818  16.512 -0.3996 -0.4027 -0.6264
  562TMC3    C3 8388   4.306   2.882  16.393  0.5513 -0.1788 -0.6453
  562TMC3    C4 8389   4.337   2.600  16.408  0.1783  0.1360 -0.5758
  562TMC3    C5 8390   4.367   2.674  16.297 -0.3530 -0.1646  1.0480
  562TMC3    C6 8391   4.355   2.809  16.285  0.3486  0.4647  0.3447
  562TMC3     C 8392   4.235   2.614  16.613  0.5123 -0.2298  0.4110
  562TMC3     O 8393   4.240   2.491  16.610  0.5593  0.1686 -0.0053
  562TMC3     H 8394   4.308   2.878  16.602  0.8622  0.1874 -1.1981
  562TMC3    H1 8395   4.358   2.494  16.414 -0.6698  0.0048  0.0336
  562TMC3    H2 8396   4.375   2.852  16.188  1.1909  1.9097  1.1500
  562TMC3    C7 8397   4.397   2.613  16.169  0.1908 -0.5895  0.5942
  562TMC3    C8 8398   4.273   3.021  16.383 -0.2497  0.2226  0.0111
  562TMC3    O1 8399   4.348   2.659  16.068  0.3554 -0.5155  0.0477
  562TMC3    O2 8400   4.230   3.072  16.487  0.0697 -0.1237  0.4640
  563MPD2     C 8401   2.444   4.460  15.950 -0.6682 -0.2609  0.3702
  563MPD2    C1 8402   2.410   4.527  16.062 -0.6067 -0.0807 -0.1251
  563MPD2    C2 8403   2.502   4.530  16.168  0.1905 -0.0589 -0.0256
  563MPD2    C3 8404   2.630   4.486  16.151  0.2356 -0.0529 -0.1160
  563MPD2    C4 8405   2.661   4.416  16.039 -0.0212 -0.0906 -0.2901
  563MPD2    C5 8406   2.578   4.417  15.934 -0.3862  0.9760 -0.2603
  563MPD2     H 8407   2.475   4.581  16.259  0.0995 -0.2029  0.0270
  563MPD2    H1 8408   2.761   4.374  16.029  0.2407  0.5654 -0.4013
  563MPD2    H2 8409   2.374   4.455  15.868 -0.8725 -1.1030  0.5891
  563MPD2    H3 8410   2.622   4.375  15.844 -1.0634  0.1059 -0.1850
  563MPD2     N 8411   2.718   4.504  16.263  0.0062 -0.2394  0.1036
  563MPD2    H5 8412   2.678   4.560  16.338  1.5327  1.2661 -0.1937
  563MPD2    N1 8413   2.270   4.558  16.082  0.4743 -0.3876  0.2687
  563MPD2    H7 8414   2.200   4.507  16.028  1.5179 -1.7778  0.2373
  564TMC3    C1 8415   2.107   4.601  16.248 -0.2533  0.0372  0.0980
  564TMC3    C2 8416   2.004   4.538  16.188 -0.6519  0.2621  0.6138
  564TMC3    C3 8417   1.928   4.456  16.263 -0.0263 -0.5669 -0.1041
  564TMC3    C4 8418   2.125   4.597  16.388  0.1937 -0.4440  0.2676
  564TMC3    C5 8419   2.052   4.510  16.452  0.3613  0.3298 -0.1310
  564TMC3    C6 8420   1.944   4.444  16.400 -0.1602  0.7150  0.2720
  564TMC3     C 8421   2.227   4.638  16.181  0.0267 -0.4735 -0.5822
  564TMC3     O 8422   2.299   4.725  16.237 -0.1805  0.1839  0.6892
  564TMC3     H 8423   1.997   4.534  16.080  0.6928  1.3556  0.4823
  564TMC3    H1 8424   2.217   4.625  16.437 -0.6751  0.3041  1.4696
  564TMC3    H2 8425   1.872   4.397  16.466 -0.3949  0.7354  0.0279
  564TMC3    C7 8426   2.129   4.422  16.542  0.6408  0.2779  0.1369
  564TMC3    C8 8427   1.841   4.359  16.214 -0.4718  0.7957  0.6481
  564TMC3    O1 8428   2.222   4.472  16.601 -0.2808 -0.0159 -0.0088
  564TMC3    O2 8429   1.832   4.256  16.276  0.2250  0.0560 -0.1886
  565TMC3    C1 8430   2.751   1.568  10.337  0.3599 -0.2931 -0.3819
  565TMC3    C2 8431   2.864   1.501  10.291  0.2613  0.6290 -0.1516
  565TMC3    C3 8432   2.885   1.368  10.322 -0.1707  0.2998 -0.9087
  565TMC3    C4 8433   2.658   1.502  10.418 -0.0175 -0.8263  0.2816
  565TMC3    C5 8434   2.682   1.368  10.438 -0.1801 -0.5129  0.3986
  565TMC3    C6 8435   2.789   1.299  10.389 -0.0159 -0.7597 -0.1659
  565TMC3     C 8436   2.753   1.707  10.320 -0.4939  0.8356 -0.6387
  565TMC3     O 8437   2.676   1.764  10.393  0.2038  0.2891  1.0624
  565TMC3     H 8438   2.945   1.543  10.232  1.0770 -1.2204 -0.3437
  565TMC3    H1 8439   2.571   1.561  10.446  0.1749  0.4635 -1.8371
  565TMC3    H2 8440   2.829   1.218  10.448  0.6215 -0.9473 -0.8577
  565TMC3    C7 8441   2.571   1.275  10.471  0.1572 -0.5977  0.1031
  565TMC3    C8 8442   2.992   1.298  10.265  0.1462 -0.2778 -0.2500
  565TMC3    O1 8443   2.597   1.159  10.492 -0.0921 -0.1917  0.3377
  565TMC3    O2 8444   3.092   1.360  10.259 -0.0039 -0.0184 -0.2093
  566MPD2     C 8445   4.098   2.521  14.648 -0.2271 -0.1433 -0.5014
  566MPD2    C1 8446   4.052   2.611  14.553  0.1721 -0.5007  0.2196
  566MPD2    C2 8447   3.946   2.575  14.475 -0.2165 -0.6407  0.7089
  566MPD2    C3 8448   3.894   2.442  14.479 -0.7421 -0.2197  0.6057
  566MPD2    C4 8449   3.937   2.356  14.585 -0.2977  0.4819  0.0921
  566MPD2    C5 8450   4.042   2.392  14.665 -0.4452  0.2523  0.1106
  566MPD2     H 8451   3.896   2.639  14.403  0.9476 -1.0710 -0.4725
  566MPD2    H1 8452   3.881   2.268  14.615  1.8281 -0.5273  1.0900
  566MPD2    H2 8453   4.173   2.548  14.721 -1.1907  1.8149 -0.2487
  566MPD2    H3 8454   4.077   2.327  14.745  2.7706 -0.9130 -2.2740
  566MPD2     N 8455   3.785   2.388  14.401 -0.3490  0.4107  0.0534
  566MPD2    H5 8456   3.749   2.298  14.431 -0.7496  0.1421 -1.2384
  566MPD2    N1 8457   4.117   2.736  14.544 -0.2761  0.2630 -0.5928
  566MPD2    H7 8458   4.200   2.739  14.603 -0.5074 -1.3230 -0.1828
  567TMC3    C1 8459   4.177   2.949  14.459 -0.3904  0.1839 -0.6840
  567TMC3    C2 8460   4.183   3.009  14.340  0.7150 -0.4334 -0.6230
  567TMC3    C3 8461   4.274   3.116  14.334  0.0449 -0.8024 -0.3480
  567TMC3    C4 8462   4.264   2.967  14.566 -0.0337 -0.2625 -0.9671
  567TMC3    C5 8463   4.360   3.059  14.550  0.0319 -0.1502 -0.3876
  567TMC3    C6 8464   4.365   3.136  14.435 -0.0718 -0.5558  0.3838
  567TMC3     C 8465   4.097   2.828  14.450  0.1002  0.9621  0.5907
  567TMC3     O 8466   4.019   2.822  14.356  0.3628 -0.1888 -0.3653
  567TMC3     H 8467   4.123   2.977  14.256  0.3886 -0.2015 -0.4787
  567TMC3    H1 8468   4.235   2.931  14.664  1.5626  1.6849  0.2270
  567TMC3    H2 8469   4.442   3.212  14.425  0.0211 -0.8713 -1.1848
  567TMC3    C7 8470   4.444   3.093  14.665  0.1408 -0.1241  1.0516
  567TMC3    C8 8471   4.293   3.171  14.191 -0.1029 -0.9440  0.3084
  567TMC3    O1 8472   4.482   3.209  14.680 -0.6246 -0.0213 -0.0111
  567TMC3    O2 8473   4.236   3.109  14.104  0.4159  0.0106  0.4050
  568MPD2     C 8474   2.096   3.205  15.967  0.5488  0.4058 -0.2845
  568MPD2    C1 8475   2.032   3.234  16.087 -0.0724 -0.4103 -0.5022
  568MPD2    C2 8476   1.904   3.282  16.074 -0.3967  0.3639  0.2722
  568MPD2    C3 8477   1.850   3.320  15.953  0.2523  0.2692  0.0015
  568MPD2    C4 8478   1.923   3.313  15.832 -0.0892  0.5397  0.5785
  568MPD2    C5 8479   2.043   3.248  15.844  0.3398 -0.0453  0.5798
  568MPD2     H 8480   1.846   3.298  16.164  0.2929  1.3759  0.5456
  568MPD2    H1 8481   1.881   3.349  15.739  0.3340  0.2436  0.2705
  568MPD2    H2 8482   2.190   3.152  15.973  0.7314  0.7293 -0.2766
  568MPD2    H3 8483   2.082   3.217  15.748  0.1477  1.9149 -0.1300
  568MPD2     N 8484   1.721   3.378  15.950  0.7849  0.0794  0.5158
  568MPD2    H5 8485   1.671   3.390  16.037 -3.4477  0.7134 -2.0208
  568MPD2    N1 8486   2.094   3.183  16.202 -0.1163  0.7097  0.1645
  568MPD2    H7 8487   2.187   3.141  16.200 -0.2351  0.4604 -0.3066
  569TMC3    C1 8488   1.555   3.521  15.887 -0.5690 -0.2516 -0.3593
  569TMC3    C2 8489   1.511   3.498  16.013  1.1170  0.5427  0.5657
  569TMC3    C3 8490   1.462   3.602  16.082 -0.5010  0.1287 -0.9258
  569TMC3    C4 8491   1.547   3.644  15.829 -0.3016  0.0814  0.4105
  569TMC3    C5 8492   1.503   3.750  15.907 -0.2245 -0.6596 -0.3738
  569TMC3    C6 8493   1.458   3.730  16.032 -0.4688 -0.5171  0.1777
  569TMC3     C 8494   1.666   3.443  15.844 -0.1168  0.4365 -0.3275
  569TMC3     O 8495   1.703   3.461  15.728  0.2757  0.0885  0.1120
  569TMC3     H 8496   1.515   3.395  16.047  1.6855  0.4224  0.1221
  569TMC3    H1 8497   1.592   3.660  15.732 -0.4396 -2.1642 -0.0159
  569TMC3    H2 8498   1.414   3.809  16.092 -0.2878 -0.3607  0.1009
  569TMC3    C7 8499   1.511   3.886  15.862 -0.3024 -0.2032 -0.2090
  569TMC3    C8 8500   1.448   3.584  16.227  0.3804  0.4622 -1.0490
  569TMC3    O1 8501   1.466   3.916  15.754  0.5166  0.3550  0.2297
  569TMC3    O2 8502   1.413   3.472  16.266 -0.5178  0.7465  0.1869
  570TMC3    C1 8503   1.359   1.856  16.145 -0.5940  0.0441 -0.2959
  570TMC3    C2 8504   1.449   1.846  16.047 -0.0338  0.1725  1.0391
  570TMC3    C3 8505   1.536   1.949  16.023  0.0641 -0.4650 -1.1041
  570TMC3    C4 8506   1.360   1.965  16.235  1.1711  0.5270 -0.0796
  570TMC3    C5 8507   1.428   2.074  16.189  0.0932  0.2610  0.5098
  570TMC3    C6 8508   1.523   2.066  16.094  0.3639  0.1069 -0.3462
  570TMC3     C 8509   1.276   1.740  16.165 -0.0032 -0.3031  0.2800
  570TMC3     O 8510   1.258   1.667  16.066 -1.0995 -0.4782 -0.1640
  570TMC3     H 8511   1.451   1.755  15.988  0.1760  0.2163  0.9797
  570TMC3    H1 8512   1.277   1.961  16.305 -0.5191  1.8475 -2.0091
  570TMC3    H2 8513   1.601   2.140  16.089  0.2326  0.3855  1.5619
  570TMC3    C7 8514   1.408   2.197  16.261  0.5829  0.8555 -0.4896
  570TMC3    C8 8515   1.636   1.939  15.917 -0.2284 -0.6057  0.1593
  570TMC3    O1 8516   1.378   2.192  16.378  0.0228  0.4769  0.2689
  570TMC3    O2 8517   1.699   2.042  15.890  0.3564 -0.5324 -0.0475
  571MPD2     C 8518   3.453   4.016   0.592  0.3483  0.1828 -0.1368
  571MPD2    C1 8519   3.414   4.143   0.562  0.5093  0.0152  0.2163
  571MPD2    C2 8520   3.488   4.249   0.617  0.2320  0.3498 -0.0252
  571MPD2    C3 8521   3.599   4.225   0.704 -0.2054  0.7963 -0.3495
  571MPD2    C4 8522   3.636   4.094   0.717 -0.0179  0.1227  0.5940
  571MPD2    C5 8523   3.564   3.996   0.665 -0.0525 -0.0383  0.1224
  571MPD2     H 8524   3.458   4.351   0.593  0.0043  1.1874  3.7881
  571MPD2    H1 8525   3.721   4.076   0.782 -0.3217  0.4005  1.0660
  571MPD2    H2 8526   3.400   3.926   0.564  1.1608  0.2833 -2.0537
  571MPD2    H3 8527   3.572   3.894   0.698 -2.0299  0.5110  2.2878
  571MPD2     N 8528   3.676   4.327   0.770 -0.3496  0.4329 -0.7891
  571MPD2    H5 8529   3.775   4.309   0.784 -0.9960 -1.6465  0.9855
  571MPD2    N1 8530   3.297   4.159   0.489 -0.3091 -0.3660  0.0533
  571MPD2    H7 8531   3.242   4.077   0.467  1.4405 -1.3844 -0.5824
  572TMC3    C1 8532   3.714   4.538   0.858  1.4184 -0.3929 -0.1587
  572TMC3    C2 8533   3.843   4.497   0.877  0.6367  0.2356 -0.3933
  572TMC3    C3 8534   3.937   4.594   0.895  0.0484  0.1305  0.4867
  572TMC3    C4 8535   3.681   4.667   0.857 -0.2908  0.4255  0.1161
  572TMC3    C5 8536   3.781   0.018   0.885 -0.1241  0.5060  0.3751
  572TMC3    C6 8537   3.913   4.730   0.896  0.0284 -0.1061 -0.3759
  572TMC3     C 8538   3.622   4.447   0.800  0.0908  0.7013 -0.1902
  572TMC3     O 8539   3.508   4.486   0.795 -0.3989  0.4884  0.0632
  572TMC3     H 8540   3.866   4.401   0.921 -0.1270  0.4195  0.3965
  572TMC3    H1 8541   3.580   4.703   0.842 -0.6493 -0.9212 -0.6561
  572TMC3    H2 8542   3.983   0.074   0.915  0.3292 -1.4565  4.2319
  572TMC3    C7 8543   3.754   0.155   0.851 -0.1931 -0.0700 -0.7485
  572TMC3    C8 8544   4.081   4.564   0.923  0.0223  0.2578  0.9408
  572TMC3    O1 8545   3.683   0.161   0.754  0.0771 -0.1434 -0.7753
  572TMC3    O2 8546   4.147   4.663   0.952 -0.0644  0.0733 -0.1169
  573MPD2     C 8547   0.133   4.613   1.195 -0.8881  0.0456  0.1772
  573MPD2    C1 8548   0.064   4.717   1.139 -0.0629  0.3838 -0.4964
  573MPD2    C2 8549   4.715   4.683   1.035  0.6631  0.1664 -0.0115
  573MPD2    C3 8550   4.719   4.560   0.963  0.4447  0.0233 -0.9599
  573MPD2    C4 8551   0.067   4.466   1.025  0.3196  1.0714 -0.3763
  573MPD2    C5 8552   0.134   4.492   1.143  0.1952 -0.3225  0.2390
  573MPD2     H 8553   4.656   0.030   0.997 -1.2603 -1.5100 -0.6824
  573MPD2    H1 8554   0.060   4.364   0.990 -0.0885  1.8685 -2.7038
  573MPD2    H2 8555   0.208   4.628   1.271 -1.2619 -2.7707  1.0972
  573MPD2    H3 8556   0.187   4.407   1.186  1.9391  0.8044  0.3025
  573MPD2     N 8557   4.644   4.525   0.846  0.4334 -0.0719 -0.4608
  573MPD2    H5 8558   4.657   4.431   0.810  0.2985 -0.1406 -0.3304
  573MPD2    N1 8559   0.078   0.109   1.207 -0.2668 -0.3916  0.6572
  573MPD2    H7 8560   0.148   0.118   1.280 -0.2344  0.1805  0.5561
  574TMC3    C1 8561   4.459   4.534   0.696 -0.0228 -0.0710 -0.3332
  574TMC3    C2 8562   4.383   4.615   0.621 -0.6130 -0.2018 -0.7451
  574TMC3    C3 8563   4.275   4.562   0.551 -0.7521  0.1574  1.0720
  574TMC3    C4 8564   4.431   4.399   0.706 -0.6747 -0.0395  0.3004
  574TMC3    C5 8565   4.326   4.352   0.633  0.2763  0.4533 -0.1126
  574TMC3    C6 8566   4.249   4.428   0.553  1.0815  0.0726  0.0668
  574TMC3     C 8567   4.544   4.602   0.787  0.0816  0.7120 -0.0304
  574TMC3     O 8568   4.531   4.720   0.809 -0.2118 -0.3074  0.4702
  574TMC3     H 8569   4.411   4.717   0.597 -0.6608 -0.0067  0.0263
  574TMC3    H1 8570   4.472   4.340   0.787 -0.2457  0.3243  0.3410
  574TMC3    H2 8571   4.167   4.388   0.494  1.5338  0.7500 -1.0276
  574TMC3    C7 8572   4.278   4.216   0.651 -0.3513 -0.2436  0.2255
  574TMC3    C8 8573   4.182   4.648   0.481  0.6527 -0.1458  0.1053
  574TMC3    O1 8574   4.162   4.187   0.625 -0.0799 -0.1937  0.0393
  574TMC3    O2 8575   4.085   4.599   0.424  0.2283 -0.4439 -0.0567
  575TMC3    C1 8576   3.772   1.151   9.933 -0.3158  0.1122 -0.5054
  575TMC3    C2 8577   3.867   1.201  10.013 -0.8311 -0.3180 -0.5274
  575TMC3    C3 8578   3.841   1.203  10.149 -0.1561  0.8422 -0.1946
  575TMC3    C4 8579   3.645   1.125   9.981 -0.1887 -0.2439  0.6433
  575TMC3    C5 8580   3.623   1.132  10.117 -0.3534  0.0805 -0.6950
  575TMC3    C6 8581   3.718   1.178  10.201  0.9781  0.3918  0.5592
  575TMC3     C 8582   3.790   1.140   9.789  0.3443 -0.1663  0.1275
  575TMC3     O 8583   3.868   1.219   9.732  0.1509  0.2148  0.0641
  575TMC3     H 8584   3.963   1.229   9.970 -1.6946 -1.0985 -2.9743
  575TMC3    H1 8585   3.563   1.083   9.923 -1.5333  2.0400  0.9103
  575TMC3    H2 8586   3.700   1.168  10.307  0.6853 -3.7324  0.1194
  575TMC3    C7 8587   3.492   1.113  10.170 -0.3070  0.7417 -0.2541
  575TMC3    C8 8588   3.905   1.312  10.220 -0.0214 -0.4873 -0.3642
  575TMC3    O1 8589   3.453   1.180  10.264  0.1812 -0.0471 -0.0775
  575TMC3    O2 8590   3.911   1.303  10.341  0.7207  0.2563  0.2375
  576MPD2     C 8591   2.256   2.137  12.462 -0.0348  0.0825 -0.6628
  576MPD2    C1 8592   2.277   2.272  12.451  0.4165 -0.2536  0.8218
  576MPD2    C2 8593   2.205   2.361  12.530  0.0206 -0.0365 -0.4190
  576MPD2    C3 8594   2.120   2.311  12.630  0.0904  0.2951  0.3859
  576MPD2    C4 8595   2.090   2.173  12.641 -0.5854 -0.7951  0.2985
  576MPD2    C5 8596   2.155   2.093  12.550  0.4029  0.1032  0.9256
  576MPD2     H 8597   2.216   2.469  12.521 -0.6742  0.0912  0.2525
  576MPD2    H1 8598   2.013   2.136  12.708  0.6863 -1.6314  1.3026
  576MPD2    H2 8599   2.320   2.061  12.418  0.6429  0.3690 -0.1830
  576MPD2    H3 8600   2.139   1.985  12.551  0.8556  0.0201 -0.0204
  576MPD2     N 8601   2.079   2.407  12.728  0.0586  0.1859 -0.0546
  576MPD2    H5 8602   2.110   2.504  12.721  1.4356 -0.1169  2.0410
  576MPD2    N1 8603   2.394   2.326  12.378  0.2016  0.3437  0.3547
  576MPD2    H7 8604   2.404   2.426  12.369  1.4883  0.1976  0.2165
  577TMC3    C1 8605   2.590   2.318  12.245 -0.1232  0.5932 -0.5017
  577TMC3    C2 8606   2.716   2.264  12.229 -0.6401  0.6389 -0.0136
  577TMC3    C3 8607   2.787   2.292  12.113  0.6165 -0.2588 -0.6392
  577TMC3    C4 8608   2.533   2.391  12.146 -0.3551  0.7234  0.2837
  577TMC3    C5 8609   2.614   2.427  12.037 -0.0009 -0.7828  0.3775
  577TMC3    C6 8610   2.737   2.378  12.023 -0.8094 -0.0032 -0.1307
  577TMC3     C 8611   2.496   2.247  12.326 -0.5886 -0.5125 -0.1046
  577TMC3     O 8612   2.520   2.128  12.348  0.2555 -0.3127  0.2996
  577TMC3     H 8613   2.749   2.191  12.302  0.7156  1.2504 -0.0014
  577TMC3    H1 8614   2.429   2.418  12.148 -0.7432 -0.7977  0.4285
  577TMC3    H2 8615   2.799   2.407  11.939 -1.2761  2.4440  0.3704
  577TMC3    C7 8616   2.575   2.510  11.923 -0.2821  0.0558 -0.3916
  577TMC3    C8 8617   2.883   2.195  12.069  0.1973 -0.9243  0.4086
  577TMC3    O1 8618   2.650   2.516  11.827 -0.2089 -0.2547  0.1928
  577TMC3    O2 8619   2.893   2.089  12.133  0.3301 -0.7317 -0.1660
  578MPD2     C 8620   0.256   3.093   1.734 -0.1660  0.2742  0.8883
  578MPD2    C1 8621   0.264   2.984   1.645  0.3260  0.4291 -0.0111
  578MPD2    C2 8622   0.385   2.939   1.615  0.2304 -0.4079  0.0726
  578MPD2    C3 8623   0.501   2.999   1.671  0.1081  0.8146 -1.0907
  578MPD2    C4 8624   0.490   3.095   1.768 -0.4088  0.5450  0.6272
  578MPD2    C5 8625   0.365   3.147   1.792 -0.2266  0.5477 -0.5813
  578MPD2     H 8626   0.398   2.865   1.536  0.2595  0.5771 -0.8475
  578MPD2    H1 8627   0.567   3.138   1.831  3.6903 -2.3638 -2.4389
  578MPD2    H2 8628   0.158   3.132   1.758 -1.8131 -3.1299 -0.3968
  578MPD2    H3 8629   0.353   3.215   1.876  0.6401  0.5223 -0.4400
  578MPD2     N 8630   0.627   2.950   1.634 -0.3227 -0.2394 -0.1063
  578MPD2    H5 8631   0.629   2.873   1.567 -1.1579 -0.7771  0.4937
  578MPD2    N1 8632   0.140   2.947   1.589  0.1698 -0.5225 -0.4517
  578MPD2    H7 8633   0.071   3.020   1.597 -1.2446 -1.9266  0.1909
  579TMC3    C1 8634   0.858   2.896   1.642  0.3643 -0.0958 -1.2326
  579TMC3    C2 8635   0.990   2.932   1.656  0.3976 -0.1592 -0.2896
  579TMC3    C3 8636   1.087   2.838   1.673  0.2217  0.2596 -0.8015
  579TMC3    C4 8637   0.827   2.762   1.641  0.1116 -0.4292  0.3037
  579TMC3    C5 8638   0.932   2.673   1.639 -0.3587  0.2662 -0.0772
  579TMC3    C6 8639   1.061   2.707   1.666 -0.1548  0.7250  0.2321
  579TMC3     C 8640   0.750   2.988   1.680 -0.5710 -0.2791 -0.0117
  579TMC3     O 8641   0.788   3.074   1.760 -0.7089 -0.0153 -0.0042
  579TMC3     H 8642   1.015   3.036   1.672 -1.2176  0.1857  0.0045
  579TMC3    H1 8643   0.725   2.728   1.644 -0.2200  0.6412  1.0175
  579TMC3    H2 8644   1.141   2.635   1.679 -1.2862 -0.1784  2.1094
  579TMC3    C7 8645   0.910   2.536   1.606  0.0188  0.4087  0.0857
  579TMC3    C8 8646   1.217   2.886   1.691  0.2890  0.0663  0.1406
  579TMC3    O1 8647   1.007   2.470   1.568  0.3523 -0.8579  0.0471
  579TMC3    O2 8648   1.224   3.004   1.730  0.3230 -0.5106  0.1881
  580TMC3    C1 8649   0.802   1.500  12.256  1.0174 -0.6873  0.2964
  580TMC3    C2 8650   0.908   1.499  12.178  0.4170  0.1124  0.0111
  580TMC3    C3 8651   0.965   1.376  12.158 -0.0671 -0.2109  0.0847
  580TMC3    C4 8652   0.741   1.389  12.304 -0.4391  0.1625  0.2626
  580TMC3    C5 8653   0.784   1.265  12.263 -0.1799 -0.3908 -0.3819
  580TMC3    C6 8654   0.901   1.257  12.196  0.0807  0.4176  0.0538
  580TMC3     C 8655   0.706   1.607  12.232 -0.5592 -0.5016 -0.1032
  580TMC3     O 8656   0.709   1.668  12.130  0.0733  0.0780 -0.2189
  580TMC3     H 8657   0.938   1.591  12.130 -1.4115  1.0931  0.7568
  580TMC3    H1 8658   0.645   1.393  12.355  0.3186  0.2173  1.6961
  580TMC3    H2 8659   0.950   1.165  12.164 -1.7486 -0.6603  0.3511
  580TMC3    C7 8660   0.705   1.149  12.289  0.1515  0.3463  0.9353
  580TMC3    C8 8661   1.054   1.367  12.045 -0.2963 -0.6151 -0.5542
  580TMC3    O1 8662   0.612   1.164  12.367  0.0732 -0.1555 -0.2451
  580TMC3    O2 8663   1.043   1.258  11.988 -0.1987 -0.9785 -0.7368
  581MPD2     C 8664   3.300   1.500  15.074  0.3882  0.0479 -0.6138
  581MPD2    C1 8665   3.269   1.371  15.109 -0.6365 -0.7495 -0.4917
  581MPD2    C2 8666   3.144   1.327  15.056 -0.1774  0.0523  0.1586
  581MPD2    C3 8667   3.063   1.406  14.978  0.7152 -0.5177 -0.1072
  581MPD2    C4 8668   3.104   1.538  14.948 -0.2972 -0.0614  0.3336
  581MPD2    C5 8669   3.221   1.583  14.999  0.8798  0.5948  0.8202
  581MPD2     H 8670   3.109   1.233  15.097 -0.3845  1.7765  3.8968
  581MPD2    H1 8671   3.044   1.610  14.894  1.3431 -0.1866 -1.6711
  581MPD2    H2 8672   3.390   1.546  15.114 -0.8169  1.3132  0.6583
  581MPD2    H3 8673   3.259   1.683  14.983  1.8855  0.0082 -0.4107
  581MPD2     N 8674   2.931   1.359  14.940 -0.4216 -0.0539  0.2734
  581MPD2    H5 8675   2.861   1.422  14.901  0.4324 -0.5593 -2.0467
  581MPD2    N1 8676   3.345   1.291  15.197  0.2228 -0.2654  0.5086
  581MPD2    H7 8677   3.416   1.342  15.249 -0.2564  0.9540 -0.0336
  582TMC3    C1 8678   3.438   1.098  15.308  0.2003  0.1056 -0.6611
  582TMC3    C2 8679   3.430   1.127  15.446  0.0628  0.4560  0.1014
  582TMC3    C3 8680   3.475   1.029  15.531  0.1492 -0.9448 -0.7272
  582TMC3    C4 8681   3.483   0.974  15.268  0.0126 -0.5094  0.2158
  582TMC3    C5 8682   3.506   0.874  15.358 -0.7182 -0.6900  0.7538
  582TMC3    C6 8683   3.522   0.905  15.492 -0.1565  0.1878  0.5185
  582TMC3     C 8684   3.331   1.157  15.218  0.6929  0.0203  0.5074
  582TMC3     O 8685   3.261   1.071  15.162  0.4543  0.5551 -0.8405
  582TMC3     H 8686   3.379   1.220  15.469  0.9515  0.7024  1.0867
  582TMC3    H1 8687   3.479   0.954  15.161  1.9191 -2.9629  0.6224
  582TMC3    H2 8688   3.541   0.823  15.560 -2.9973 -0.2634  0.7638
  582TMC3    C7 8689   3.451   0.747  15.324 -0.2057  0.1875  0.1288
  582TMC3    C8 8690   3.429   1.034  15.660 -1.0337 -0.0461  0.0961
  582TMC3    O1 8691   3.484   0.641  15.382 -0.0206 -0.3334 -1.0784
  582TMC3    O2 8692   3.337   1.116  15.684  0.2084  0.2198 -0.0621
  583MPD2     C 8693   2.931   2.516  16.763  0.3007 -0.2303  0.2728
  583MPD2    C1 8694   2.929   2.634  16.687 -0.2436 -0.5616 -0.1290
  583MPD2    C2 8695   2.867   2.749  16.743 -0.2933 -0.1154 -0.9554
  583MPD2    C3 8696   2.820   2.750  16.877 -0.4595  0.1071  0.5424
  583MPD2    C4 8697   2.828   2.631  16.945 -0.2542 -0.0332  0.0217
  583MPD2    C5 8698   2.885   2.521  16.889 -0.7027  0.6498 -0.5939
  583MPD2     H 8699   2.854   2.841  16.687  1.4903  0.9522  0.3514
  583MPD2    H1 8700   2.779   2.620  17.041 -1.1281 -0.5269 -0.4732
  583MPD2    H2 8701   2.972   2.424  16.723 -1.3754 -0.5132 -0.8184
  583MPD2    H3 8702   2.868   2.427  16.941  0.2136  2.1183  2.3663
  583MPD2     N 8703   2.755   2.870  16.916 -0.1309 -0.8977 -0.2120
  583MPD2    H5 8704   2.753   2.947  16.849  0.8570 -0.5927  0.1098
  583MPD2    N1 8705   2.972   2.646  16.551  0.5541 -0.6191  0.2782
  583MPD2    H7 8706   2.959   2.739  16.512 -1.8164 -0.7831  0.6842
  584TMC3    C1 8707   2.678   3.039  17.071 -0.8495 -0.3359  0.4800
  584TMC3    C2 8708   2.679   3.133  16.971  0.1638  0.0102 -0.0427
  584TMC3    C3 8709   2.621   3.254  16.996  0.0669  0.6773 -0.0059
  584TMC3    C4 8710   2.635   3.066  17.195 -0.2302  0.0751  0.0133
  584TMC3    C5 8711   2.582   3.192  17.218 -0.0678 -0.0669 -0.3462
  584TMC3    C6 8712   2.563   3.284  17.116 -0.2896 -0.6705  0.2065
  584TMC3     C 8713   2.728   2.901  17.047 -0.5298 -0.2501 -0.0730
  584TMC3     O 8714   2.744   2.834  17.149 -0.2595 -0.7207  0.0972
  584TMC3     H 8715   2.713   3.119  16.870  1.5197  0.3982  0.3628
  584TMC3    H1 8716   2.649   2.996  17.277  0.3303 -0.3102 -0.4105
  584TMC3    H2 8717   2.495   3.368  17.112  1.1965  0.4724 -0.8852
  584TMC3    C7 8718   2.497   3.195  17.330  0.4364  0.3549  0.3150
  584TMC3    C8 8719   2.661   3.360  16.905 -0.3446 -0.8498 -0.7662
  584TMC3    O1 8720   2.473   3.089  17.388 -0.1767  0.1690 -0.1874
  584TMC3    O2 8721   2.663   3.336  16.787  0.1076 -0.1856  0.0238
  585MPD2     C 8722   1.550   1.970   0.331  0.0422 -0.1056  0.2441
  585MPD2    C1 8723   1.614   2.042   0.234  0.2211  0.1320  0.1351
  585MPD2    C2 8724   1.672   1.977   0.128 -0.5526 -0.1613  0.3851
  585MPD2    C3 8725   1.674   1.838   0.121 -0.2549  0.0103  0.0558
  585MPD2    C4 8726   1.617   1.769   0.225 -0.6309  0.8251  0.3658
  585MPD2    C5 8727   1.558   1.833   0.325 -0.1388  0.4302  0.1058
  585MPD2     H 8728   1.730   2.037   0.059 -2.3362  0.4517 -0.5971
  585MPD2    H1 8729   1.630   1.663   0.243  0.8234  1.2601  1.9088
  585MPD2    H2 8730   1.510   2.015   0.422  0.7402 -1.5668  1.2722
  585MPD2    H3 8731   1.538   1.784   0.420 -0.5425  1.2035  0.4186
  585MPD2     N 8732   1.742   1.767   0.020  0.6358 -0.2359 -0.2178
  585MPD2    H5 8733   1.728   1.666   0.019 -0.3421 -0.1048  0.0923
  585MPD2    N1 8734   1.618   2.182   0.256 -0.3419  0.0439  0.0169
  585MPD2    H7 8735   1.568   2.226   0.332 -0.2325 -1.3384  0.8895
  586TMC3    C1 8736   1.921   1.719  17.613  0.7983 -0.3998  0.0686
  586TMC3    C2 8737   2.045   1.755  17.573 -0.5564  0.5208  0.6021
  586TMC3    C3 8738   2.101   1.686  17.469 -0.4785 -0.0588  0.0510
  586TMC3    C4 8739   1.857   1.618  17.550  0.1408  0.2028  0.1835
  586TMC3    C5 8740   1.912   1.550  17.455 -0.2323 -0.1346  0.1516
  586TMC3    C6 8741   2.034   1.588  17.397 -0.7831 -0.0126  0.1008
  586TMC3     C 8742   1.849   1.821  17.689  0.3967  1.3199 -0.5949
  586TMC3     O 8743   1.902   1.930  17.705  0.3344 -0.6490  0.0304
  586TMC3     H 8744   2.105   1.837  17.610  0.7245  0.8449 -2.1564
  586TMC3    H1 8745   1.757   1.594  17.585 -0.0273  2.8245  1.5201
  586TMC3    H2 8746   2.092   1.538  17.320 -0.4355  1.5208 -0.6348
  586TMC3    C7 8747   1.839   1.433  17.412 -0.6565  0.1530 -1.3564
  586TMC3    C8 8748   2.243   1.668  17.494  0.0258  0.5617  0.5005
  586TMC3    O1 8749   1.752   1.393  17.488 -0.5560 -0.1094  0.4423
  586TMC3    O2 8750   2.284   1.594  17.405  0.1652 -0.8853  0.1246
  587TMC3    C1 8751   4.380   0.488  17.015 -0.0795  0.0292  0.1213
  587TMC3    C2 8752   4.311   0.580  16.938 -0.5253  0.4056 -1.3978
  587TMC3    C3 8753   4.380   0.688  16.897 -0.5331 -0.3348  0.3912
  587TMC3    C4 8754   4.512   0.498  17.050  0.0356  0.0072  0.0723
  587TMC3    C5 8755   4.578   0.604  16.990  1.0912 -0.4058 -0.5522
  587TMC3    C6 8756   4.515   0.694  16.906  0.5127  0.6708 -0.1691
  587TMC3     C 8757   4.306   0.380  17.066 -0.2974  0.0309 -0.4412
  587TMC3     O 8758   4.340   0.335  17.174  0.1448  0.0446  0.4402
  587TMC3     H 8759   4.204   0.566  16.932 -0.4948  0.0763 -1.1786
  587TMC3    H1 8760   4.568   0.422  17.103 -2.1600 -0.0645  2.2777
  587TMC3    H2 8761   4.571   0.774  16.860  1.6438 -0.2427 -0.3891
  587TMC3    C7 8762   4.722   0.593  16.984 -0.0603  0.0390  0.0959
  587TMC3    C8 8763   4.329   0.780  16.791  0.1309  0.5223 -0.8582
  587TMC3    O1 8764   0.041   0.651  16.889  0.3123  0.0786 -0.3940
  587TMC3    O2 8765   4.407   0.845  16.722 -0.1445  0.0851 -0.3293
  588TMC3    C1 8766   2.153   3.366  10.175  0.3306  0.3913 -0.7864
  588TMC3    C2 8767   2.166   3.237  10.129  0.0383  0.1270 -0.4466
  588TMC3    C3 8768   2.298   3.188  10.120  0.0123 -0.0230 -0.5134
  588TMC3    C4 8769   2.261   3.449  10.202  0.5925 -0.4656 -0.4794
  588TMC3    C5 8770   2.384   3.394  10.187  1.1441 -0.0172  0.4408
  588TMC3    C6 8771   2.407   3.265  10.138 -0.2478  0.1927 -0.8614
  588TMC3     C 8772   2.023   3.426  10.185  0.0587 -0.0342  0.7181
  588TMC3     O 8773   1.942   3.386  10.102 -0.2274  0.2939 -0.1356
  588TMC3     H 8774   2.074   3.181  10.131 -0.4489  0.8588 -2.3111
  588TMC3    H1 8775   2.256   3.548  10.248  0.9923 -1.4402  1.6649
  588TMC3    H2 8776   2.511   3.238  10.144 -0.7274 -1.1624  1.6901
  588TMC3    C7 8777   2.507   3.464  10.223 -0.0911  0.0081  0.0081
  588TMC3    C8 8778   2.307   3.049  10.153 -0.4194 -0.2939  0.3367
  588TMC3    O1 8779   2.602   3.465  10.151  0.0097  0.0443  0.4599
  588TMC3    O2 8780   2.389   3.015  10.236  0.2252  0.0992 -0.3315
  589TMC3    C1 8781   0.644   0.575   0.795 -0.0591  0.0762  0.4917
  589TMC3    C2 8782   0.711   0.490   0.879 -0.6330  0.1087 -0.3778
  589TMC3    C3 8783   0.714   0.355   0.854  1.0812  0.4452 -0.9220
  589TMC3    C4 8784   0.572   0.523   0.694  0.4218 -0.4531  0.1618
  589TMC3    C5 8785   0.579   0.389   0.673 -1.7427 -0.1411 -0.2310
  589TMC3    C6 8786   0.650   0.299   0.755 -1.0380 -0.4675 -0.1655
  589TMC3     C 8787   0.616   0.710   0.835  0.1184 -0.3979  0.3924
  589TMC3     O 8788   0.515   0.760   0.789  0.7290 -0.2356 -0.0289
  589TMC3     H 8789   0.776   0.526   0.959 -1.4311 -0.5219  0.5591
  589TMC3    H1 8790   0.527   0.589   0.621  0.7427  0.0462  0.4203
  589TMC3    H2 8791   0.653   0.192   0.738  0.1035 -0.3075 -0.9718
  589TMC3    C7 8792   0.484   0.333   0.576  0.2969  0.5902  0.0322
  589TMC3    C8 8793   0.809   0.274   0.939  1.0357 -0.3219  0.0095
  589TMC3    O1 8794   0.504   0.215   0.562  0.3699  0.2885 -0.2005
  589TMC3    O2 8795   0.899   0.331   0.994 -0.3105 -0.2334 -0.6460
  590MPD2     C 8796   0.662   3.109  16.685 -0.3058 -0.6219 -0.8355
  590MPD2    C1 8797   0.594   3.218  16.634  0.8052 -0.3483 -0.1905
  590MPD2    C2 8798   0.667   3.331  16.595 -0.1171  1.3226  1.2932
  590MPD2    C3 8799   0.804   3.343  16.592  0.2653  0.3733  0.6604
  590MPD2    C4 8800   0.868   3.232  16.643 -0.5303 -0.1477  0.1298
  590MPD2    C5 8801   0.798   3.118  16.683  0.0409  0.9028 -0.3261
  590MPD2     H 8802   0.612   3.407  16.542 -0.8241  0.2326  0.4701
  590MPD2    H1 8803   0.973   3.211  16.632  0.1210  3.0116  0.2945
  590MPD2    H2 8804   0.619   3.016  16.720  0.7183 -0.6887  0.2303
  590MPD2    H3 8805   0.856   3.027  16.698 -0.3328  0.8339  0.7330
  590MPD2     N 8806   0.851   3.464  16.535 -0.3613 -0.0255 -0.5135
  590MPD2    H5 8807   0.779   3.523  16.495 -2.3218 -1.5319  0.8332
  590MPD2    N1 8808   0.454   3.201  16.603  0.0234 -0.1779  1.1978
  590MPD2    H7 8809   0.419   3.109  16.625 -2.5341  1.2999  3.2680
  591TMC3    C1 8810   0.990   3.573  16.385 -0.0389  0.6896 -0.3747
  591TMC3    C2 8811   1.070   3.540  16.282  0.3319  0.5649  0.9940
  591TMC3    C3 8812   1.061   3.615  16.161  0.7058  0.4049 -0.4196
  591TMC3    C4 8813   0.910   3.684  16.384 -0.0836 -0.4140  0.4214
  591TMC3    C5 8814   0.911   3.760  16.270 -0.0568  0.7027 -0.6727
  591TMC3    C6 8815   0.984   3.723  16.153 -0.0696  0.1363 -0.2612
  591TMC3     C 8816   0.981   3.474  16.490 -0.1855 -0.4025  0.1198
  591TMC3     O 8817   1.073   3.395  16.505 -0.9777  0.1928 -0.5043
  591TMC3     H 8818   1.131   3.451  16.291 -0.8850 -0.6990 -2.8679
  591TMC3    H1 8819   0.846   3.697  16.471 -1.8023 -1.8426 -0.6442
  591TMC3    H2 8820   0.978   3.790  16.068  2.8595  0.5668 -0.1251
  591TMC3    C7 8821   0.826   3.875  16.267 -0.0078  0.6132  0.9022
  591TMC3    C8 8822   1.134   3.561  16.048  0.0598 -0.1416 -0.2103
  591TMC3    O1 8823   0.737   3.880  16.346 -0.0863  0.1709  0.4911
  591TMC3    O2 8824   1.204   3.460  16.067 -0.6195 -0.2714  0.0751
  592MPD2     C 8825   1.038   0.629  11.653  0.0859  0.0210  0.7391
  592MPD2    C1 8826   1.084   0.650  11.784  0.2055 -0.2970 -0.0206
  592MPD2    C2 8827   1.030   0.577  11.891 -0.6533  0.1632 -0.0647
  592MPD2    C3 8828   0.929   0.484  11.870 -0.4128 -0.9021 -0.1818
  592MPD2    C4 8829   0.892   0.464  11.741 -0.2162  0.1008 -0.2158
  592MPD2    C5 8830   0.949   0.531  11.639 -0.2356  0.5148 -0.3033
  592MPD2     H 8831   1.058   0.592  11.995 -2.9663 -2.1409  0.8840
  592MPD2    H1 8832   0.812   0.395  11.713 -1.7991  2.0685 -0.5195
  592MPD2    H2 8833   1.070   0.677  11.561 -0.6327 -1.2771 -0.1918
  592MPD2    H3 8834   0.933   0.514  11.534 -1.1806 -2.8426  0.3700
  592MPD2     N 8835   0.876   0.421  11.989 -0.1792 -0.3463 -0.3374
  592MPD2    H5 8836   0.904   0.461  12.078  1.6686 -1.6914 -0.3185
  592MPD2    N1 8837   1.176   0.755  11.800  0.1507  0.4380  0.2620
  592MPD2    H7 8838   1.183   0.814  11.718  1.0449 -0.5773 -0.4033
  593TMC3    C1 8839   1.294   0.926  11.909 -0.2292  0.3570 -0.1972
  593TMC3    C2 8840   1.318   0.990  12.024 -0.2973 -0.3461 -0.6400
  593TMC3    C3 8841   1.404   1.096  12.024  0.2583  0.4940 -0.0075
  593TMC3    C4 8842   1.355   0.948  11.790  1.2265 -0.3714  0.0679
  593TMC3    C5 8843   1.422   1.069  11.788 -0.2752 -0.0151 -0.4403
  593TMC3    C6 8844   1.438   1.144  11.899 -0.7781 -0.1562  0.5082
  593TMC3     C 8845   1.217   0.805  11.921  0.1559 -0.6738  0.1918
  593TMC3     O 8846   1.178   0.781  12.036  0.5718 -0.4605 -0.1171
  593TMC3     H 8847   1.269   0.967  12.118  0.7843 -0.2899 -0.0614
  593TMC3    H1 8848   1.354   0.881  11.706 -0.3163  0.1006 -0.2853
  593TMC3    H2 8849   1.464   1.249  11.889 -1.2834 -0.0116  0.6849
  593TMC3    C7 8850   1.484   1.121  11.667  0.1458 -0.2296  0.7790
  593TMC3    C8 8851   1.410   1.178  12.140 -0.6588  0.5818 -0.5623
  593TMC3    O1 8852   1.587   1.178  11.687  0.3830  0.1793  0.2989
  593TMC3    O2 8853   1.314   1.177  12.214  0.0860 -0.1615  0.0436
  594MPD2     C 8854   4.599   4.347  14.329  0.4114  0.6257  0.1568
  594MPD2    C1 8855   4.623   4.327  14.461 -0.2155  0.0568  0.1534
  594MPD2    C2 8856   0.017   4.356  14.502 -0.0147 -0.4524  0.1774
  594MPD2    C3 8857   0.114   4.404  14.418  0.1214 -0.2465  0.0033
  594MPD2    C4 8858   0.079   4.445  14.288 -0.4039 -0.3916  0.0617
  594MPD2    C5 8859   4.695   4.403  14.240  0.0319  0.6771 -0.4425
  594MPD2     H 8860   0.051   4.327  14.601  4.8703  1.8410 -0.8483
  594MPD2    H1 8861   0.161   4.469  14.223 -1.3635 -0.6737 -1.2570
  594MPD2    H2 8862   4.505   4.317  14.286  0.7226 -0.7312  0.4036
  594MPD2    H3 8863   4.676   4.405  14.134 -0.4976 -3.3918 -0.4232
  594MPD2     N 8864   0.241   4.420  14.478  0.1627 -0.2432  0.3473
  594MPD2    H5 8865   0.234   4.409  14.579  1.8587 -0.0957  0.4751
  594MPD2    N1 8866   4.510   4.274  14.534  0.8028 -0.1750 -0.3745
  594MPD2    H7 8867   4.420   4.258  14.489 -0.1573  1.7732  0.8483
  595TMC3    C1 8868   0.624   4.647  14.618  0.5693 -0.1162  0.5790
  595TMC3    C2 8869   0.551   4.588  14.519  0.0951  0.2923  0.3652
  595TMC3    C3 8870   0.425   4.548  14.544  0.5046 -0.1095  0.7570
  595TMC3    C4 8871   0.559   4.697  14.724 -0.1597 -0.3399  0.5225
  595TMC3    C5 8872   0.432   4.663  14.741 -0.1537 -0.6604  0.1597
  595TMC3    C6 8873   0.362   4.580  14.660 -0.3101  0.4113  0.0332
  595TMC3     C 8874   0.766   4.684  14.615  0.5769 -1.2029 -1.0689
  595TMC3     O 8875   0.794   0.053  14.672  0.4602 -0.1388  0.2430
  595TMC3     H 8876   0.598   4.558  14.425  0.3353  2.0567 -0.0825
  595TMC3    H1 8877   0.609   0.004  14.810  2.1132 -0.8912 -0.5263
  595TMC3    H2 8878   0.254   4.579  14.669 -0.1849  1.9291  1.7298
  595TMC3    C7 8879   0.351   0.006  14.828  0.5129  0.1128 -0.8449
  595TMC3    C8 8880   0.350   4.494  14.433  1.0351  0.2148  0.4041
  595TMC3    O1 8881   0.234   0.021  14.802  1.0657 -0.4116  0.1861
  595TMC3    O2 8882   0.383   4.525  14.321 -0.5291 -0.4849  0.3991
  596MPD2     C 8883   3.677   2.433  16.922  0.4085 -0.6627  0.0994
  596MPD2    C1 8884   3.695   2.556  16.865 -0.4754 -0.4740  0.2059
  596MPD2    C2 8885   3.763   2.563  16.748 -0.2610 -0.5308 -0.6510
  596MPD2    C3 8886   3.811   2.451  16.687  0.4383 -0.4213  0.1270
  596MPD2    C4 8887   3.786   2.327  16.744  0.7796  0.0845 -0.5073
  596MPD2    C5 8888   3.723   2.320  16.872  0.2783  0.4205  0.2915
  596MPD2     H 8889   3.778   2.663  16.709 -0.2016 -0.0042  0.7336
  596MPD2    H1 8890   3.822   2.236  16.696 -1.8932 -1.5032  0.4584
  596MPD2    H2 8891   3.607   2.426  17.004 -2.4534 -0.8983 -2.3824
  596MPD2    H3 8892   3.700   2.222  16.910  0.2927 -0.0641 -0.9430
  596MPD2     N 8893   3.870   2.453  16.561  0.5415  0.2346 -0.3505
  596MPD2    H5 8894   3.907   2.363  16.532 -1.2677 -1.2151  1.9099
  596MPD2    N1 8895   3.646   2.677  16.918 -0.2752  0.4532  0.2353
  596MPD2    H7 8896   3.662   2.764  16.868 -0.9538  0.4381 -0.0102
  597TMC3    C1 8897   3.584   2.822  17.083 -0.2603 -0.4563  0.2959
  597TMC3    C2 8898   3.668   2.912  17.027  0.6414 -0.6381  0.3472
  597TMC3    C3 8899   3.628   3.039  17.026 -0.0695 -0.3371  0.5022
  597TMC3    C4 8900   3.474   2.865  17.140 -0.0273 -0.6381  0.6933
  597TMC3    C5 8901   3.432   2.996  17.134  0.0874  0.1730  0.5980
  597TMC3    C6 8902   3.511   3.086  17.076 -0.5959  0.1505  0.1021
  597TMC3     C 8903   3.586   2.687  17.043  0.2862 -0.0537 -0.5808
  597TMC3     O 8904   3.520   2.604  17.106  0.0570 -0.1760 -0.2212
  597TMC3     H 8905   3.768   2.881  16.997  1.2537 -0.4262  2.1431
  597TMC3    H1 8906   3.408   2.789  17.177 -1.8039 -0.9452 -3.0930
  597TMC3    H2 8907   3.496   3.190  17.104  1.1244  0.6502 -0.8165
  597TMC3    C7 8908   3.311   3.035  17.212 -0.6149 -0.1994  0.2209
  597TMC3    C8 8909   3.715   3.130  16.955 -0.6417  0.0865  0.2648
  597TMC3    O1 8910   3.263   2.948  17.287 -0.4698 -0.2637  0.5348
  597TMC3    O2 8911   3.817   3.086  16.908 -0.0112  0.2472 -0.1437
  598TMC3    C1 8912   1.918   4.167  15.633  0.4411  0.0862 -0.1794
  598TMC3    C2 8913   1.814   4.079  15.649 -0.1305  1.1400 -0.1193
  598TMC3    C3 8914   1.748   4.048  15.530  0.2157  0.5637  0.9938
  598TMC3    C4 8915   1.962   4.214  15.512 -0.2859 -0.4581 -1.2300
  598TMC3    C5 8916   1.899   4.171  15.401  0.8152  0.5135 -0.4867
  598TMC3    C6 8917   1.795   4.086  15.407  0.1375 -0.3973  0.2816
  598TMC3     C 8918   2.010   4.204  15.746 -0.1186  0.0089 -0.4894
  598TMC3     O 8919   2.085   4.301  15.738 -0.1579  0.3905  0.4042
  598TMC3     H 8920   1.786   4.023  15.738  0.5667  2.4969  0.9415
  598TMC3    H1 8921   2.054   4.272  15.516  0.1753 -1.4105  2.9307
  598TMC3    H2 8922   1.746   4.045  15.320  0.0532 -2.0066  1.0755
  598TMC3    C7 8923   1.965   4.182  15.270 -0.5409  0.1925 -0.2673
  598TMC3    C8 8924   1.695   3.912  15.525 -0.5735  0.7860 -0.0228
  598TMC3    O1 8925   1.936   4.093  15.192 -0.1663  0.4488 -1.1280
  598TMC3    O2 8926   1.749   3.831  15.601  0.3075 -0.3674 -0.1593
  599MPD2     C 8927   1.824   1.192  15.400  0.9372  0.3060  0.0911
  599MPD2    C1 8928   1.910   1.221  15.502 -0.1740  0.4520  0.2961
  599MPD2    C2 8929   1.852   1.250  15.627 -0.1262 -0.3698  0.4393
  599MPD2    C3 8930   1.718   1.279  15.640 -0.1092  0.1925  1.0845
  599MPD2    C4 8931   1.637   1.255  15.537  0.5805  0.0598 -0.3753
  599MPD2    C5 8932   1.689   1.216  15.418 -0.8431 -0.4813  0.9179
  599MPD2     H 8933   1.912   1.264  15.716  0.9904 -0.9815 -0.2171
  599MPD2    H1 8934   1.531   1.278  15.547  0.4726 -1.3389  1.7134
  599MPD2    H2 8935   1.861   1.195  15.298 -1.1281  2.4053 -0.5742
  599MPD2    H3 8936   1.623   1.221  15.332  1.1665  2.4689 -0.4445
  599MPD2     N 8937   1.661   1.335  15.759  0.1825 -0.1956  0.0704
  599MPD2    H5 8938   1.560   1.332  15.765  0.2216 -0.1569  0.7042
  599MPD2    N1 8939   2.050   1.179  15.485 -0.4152 -0.2232  0.8901
  599MPD2    H7 8940   2.079   1.139  15.397  0.9624  0.3798  1.0729
  600TMC3    C1 8941   1.661   1.424  15.981 -0.7585 -0.5382  0.6241
  600TMC3    C2 8942   1.552   1.347  16.018 -0.5356  0.1312 -0.2456
  600TMC3    C3 8943   1.487   1.391  16.130  0.0880 -0.3964 -0.6391
  600TMC3    C4 8944   1.705   1.538  16.053  0.1097 -0.4693 -0.2203
  600TMC3    C5 8945   1.630   1.570  16.157  0.1166 -0.3836  0.0551
  600TMC3    C6 8946   1.517   1.509  16.197  1.3053 -0.5370  0.3197
  600TMC3     C 8947   1.732   1.394  15.858  0.4195 -0.3792 -0.5407
  600TMC3     O 8948   1.839   1.452  15.837 -0.4963  0.5165 -0.1254
  600TMC3     H 8949   1.537   1.250  15.972  0.9259 -0.0102 -0.4193
  600TMC3    H1 8950   1.797   1.589  16.028 -0.1803  0.2378  0.1536
  600TMC3    H2 8951   1.451   1.549  16.274  1.3816  1.6523 -0.7708
  600TMC3    C7 8952   1.661   1.692  16.234 -0.3886  0.5576  0.4627
  600TMC3    C8 8953   1.381   1.311  16.193 -0.2114  0.2720  0.4036
  600TMC3    O1 8954   1.580   1.716  16.325  0.9202 -0.3244 -0.0085
  600TMC3    O2 8955   1.383   1.306  16.312 -0.2810  0.4981  0.0482
  601MPD2     C 8956   3.840   0.668   0.856 -0.2288  0.7245 -0.3036
  601MPD2    C1 8957   3.760   0.586   0.770  0.6730 -0.4690 -0.5467
  601MPD2    C2 8958   3.759   0.449   0.788 -0.3023 -0.1407 -0.2218
  601MPD2    C3 8959   3.826   0.394   0.890  0.7365  0.0239 -0.0041
  601MPD2    C4 8960   3.893   0.472   0.975 -0.1945  0.5637 -0.7629
  601MPD2    C5 8961   3.896   0.607   0.966 -0.1915 -0.4582  0.3734
  601MPD2     H 8962   3.706   0.386   0.717 -1.2366  0.5116 -0.1077
  601MPD2    H1 8963   3.947   0.418   1.052 -0.6981  0.0210 -0.7933
  601MPD2    H2 8964   3.855   0.774   0.840  1.7615  0.9805  3.2898
  601MPD2    H3 8965   3.955   0.662   1.038 -1.0345 -0.1459  0.8244
  601MPD2     N 8966   3.821   0.254   0.920 -0.2133 -0.4054  0.1268
  601MPD2    H5 8967   3.879   0.226   0.998 -2.1636 -2.7417  0.7563
  601MPD2    N1 8968   3.702   0.634   0.644 -0.3453 -0.0206  0.3579
  601MPD2    H7 8969   3.619   0.586   0.611  0.0024  0.4360 -1.1634
  602TMC3    C1 8970   3.676   0.759   0.446 -0.1248  0.5267  0.7167
  602TMC3    C2 8971   3.717   0.872   0.375  0.1003 -0.3732  0.1191
  602TMC3    C3 8972   3.678   0.881   0.243 -0.4320  0.3117  0.5420
  602TMC3    C4 8973   3.596   0.657   0.393 -0.7161 -0.3460  0.3123
  602TMC3    C5 8974   3.549   0.690   0.274  0.1480  0.3310  0.0324
  602TMC3    C6 8975   3.599   0.784   0.189  0.1289  0.4410 -0.0214
  602TMC3     C 8976   3.737   0.747   0.577 -0.1271 -0.1015 -0.0955
  602TMC3     O 8977   3.817   0.836   0.612 -0.2921 -0.2418 -0.0264
  602TMC3     H 8978   3.788   0.944   0.413  1.0836 -0.8910 -0.7365
  602TMC3    H1 8979   3.548   0.580   0.452 -2.3200  3.0817  3.4710
  602TMC3    H2 8980   3.563   0.785   0.086 -0.0455  2.2360  0.0627
  602TMC3    C7 8981   3.439   0.596   0.226 -0.4279  0.3468 -0.3479
  602TMC3    C8 8982   3.699   1.002   0.172 -0.3221  0.0936 -0.0864
  602TMC3    O1 8983   3.434   0.482   0.270 -0.2787  0.3762 -0.0739
  602TMC3    O2 8984   3.794   1.071   0.202  0.2892 -0.4319 -0.2409
  603TMC3    C1 8985   1.367   0.774  10.913 -0.1159 -0.3217  0.0975
  603TMC3    C2 8986   1.451   0.724  11.011 -0.2928  0.2062  0.3151
  603TMC3    C3 8987   1.575   0.766  11.025 -0.6848 -0.3098 -0.0171
  603TMC3    C4 8988   1.414   0.852  10.818 -0.4400  0.0389  0.4155
  603TMC3    C5 8989   1.544   0.900  10.837  0.8158  0.4563  0.0614
  603TMC3    C6 8990   1.622   0.862  10.936  0.2988 -0.0570  0.4574
  603TMC3     C 8991   1.217   0.772  10.930  0.0701 -0.0183  0.1933
  603TMC3     O 8992   1.165   0.778  11.044  0.8944 -0.1005  0.2554
  603TMC3     H 8993   1.414   0.644  11.075 -1.6571 -0.5918 -1.4797
  603TMC3    H1 8994   1.345   0.897  10.747  0.3728  1.1854  0.3587
  603TMC3    H2 8995   1.699   0.933  10.965 -0.2865  0.0870  1.6860
  603TMC3    C7 8996   1.607   0.993  10.742  0.0197 -0.7064  0.8018
  603TMC3    C8 8997   1.672   0.666  11.073  0.0937  0.2331 -0.0061
  603TMC3    O1 8998   1.731   1.002  10.759 -0.7114  0.7523  0.4190
  603TMC3    O2 8999   1.632   0.582  11.146 -0.1030  0.5017 -0.4002
  604MPD2     C 9000   3.256   4.078  16.511 -0.4926  0.1246  0.5204
  604MPD2    C1 9001   3.135   4.017  16.517  0.1392  0.7045 -0.2776
  604MPD2    C2 9002   3.100   3.921  16.418 -0.2501  0.1937 -0.9839
  604MPD2    C3 9003   3.190   3.884  16.320  0.2774 -0.0516 -0.3552
  604MPD2    C4 9004   3.314   3.942  16.329 -0.7897 -0.0795 -0.7501
  604MPD2    C5 9005   3.352   4.040  16.420  0.0447  0.1000 -0.6138
  604MPD2     H 9006   3.006   3.868  16.415  1.2842 -2.4386 -2.5278
  604MPD2    H1 9007   3.388   3.915  16.255  1.8113  1.3360  1.3439
  604MPD2    H2 9008   3.275   4.158  16.581  0.3653  0.3876 -0.0147
  604MPD2    H3 9009   3.452   4.082  16.411  0.4179 -0.0593  2.7623
  604MPD2     N 9010   3.143   3.792  16.219 -0.0385 -0.5948  0.1461
  604MPD2    H5 9011   3.043   3.775  16.215  0.1278 -1.8599  1.5080
  604MPD2    N1 9012   3.042   4.054  16.615 -0.0318 -0.1218  0.6860
  604MPD2    H7 9013   3.077   4.109  16.693  2.0187 -1.2923  0.5945
  605TMC3    C1 9014   2.845   4.056  16.749 -0.0715 -0.3949  1.2281
  605TMC3    C2 9015   2.915   4.105  16.855  0.5737 -0.7610 -0.0945
  605TMC3    C3 9016   2.858   4.197  16.937  0.0514  0.0603 -0.1592
  605TMC3    C4 9017   2.718   4.084  16.728 -0.2699 -0.3910  0.3723
  605TMC3    C5 9018   2.668   4.181  16.809 -0.0228 -0.4885 -0.5641
  605TMC3    C6 9019   2.730   4.239  16.916 -0.5545 -0.1353 -0.1887
  605TMC3     C 9020   2.912   4.012  16.624  0.1535  0.3679  0.5540
  605TMC3     O 9021   2.843   3.959  16.541  0.0740 -0.2330 -0.3418
  605TMC3     H 9022   3.009   4.054  16.878  0.1287 -1.4549  0.1983
  605TMC3    H1 9023   2.675   4.045  16.637 -2.0861  2.2247  0.1201
  605TMC3    H2 9024   2.683   4.309  16.983 -0.4715 -0.5127  0.2593
  605TMC3    C7 9025   2.529   4.204  16.805  0.5612  0.2983  0.2890
  605TMC3    C8 9026   2.917   4.215  17.067  0.2442 -0.1315  0.5122
  605TMC3    O1 9027   2.480   4.312  16.824  0.1012  0.1292 -0.1011
  605TMC3    O2 9028   2.850   4.253  17.164  0.4884 -0.0753 -0.1818
  606TMC3    C1 9029   3.493   2.750   0.115 -0.5344 -0.2878  0.0846
  606TMC3    C2 9030   3.494   2.699   0.243 -0.2360 -0.3584  0.0724
  606TMC3    C3 9031   3.450   2.573   0.263 -0.2131 -0.4213  0.3538
  606TMC3    C4 9032   3.449   2.671   0.009  0.8053  0.0458 -0.3462
  606TMC3    C5 9033   3.416   2.540   0.029 -0.4853 -0.2907 -0.0808
  606TMC3    C6 9034   3.413   2.484   0.160 -0.5973 -0.0005 -0.3351
  606TMC3     C 9035   3.540   2.884   0.083  0.7062 -0.0912 -0.2227
  606TMC3     O 9036   3.502   2.917  17.714 -0.4615 -0.2673 -0.6462
  606TMC3     H 9037   3.532   2.762   0.321 -1.5150 -1.7415  1.8272
  606TMC3    H1 9038   3.461   2.704  17.650  1.2020  0.5062 -0.1523
  606TMC3    H2 9039   3.411   2.378   0.182 -0.7760  0.0622 -0.0344
  606TMC3    C7 9040   3.413   2.457  17.655  0.5420 -0.4618 -0.2760
  606TMC3    C8 9041   3.494   2.519   0.380 -0.1055 -0.5003 -0.6556
  606TMC3    O1 9042   3.463   2.491  17.547  0.6090  0.2681  0.2968
  606TMC3    O2 9043   3.563   2.417   0.366 -0.2319 -0.3818  0.3087
  607MPD2     C 9044   1.478   0.611  11.726 -0.4295  0.8681 -0.2327
  607MPD2    C1 9045   1.599   0.668  11.764  0.5280 -1.3076  0.3005
  607MPD2    C2 9046   1.646   0.660  11.894  0.0237  0.2958 -0.0218
  607MPD2    C3 9047   1.584   0.563  11.970  0.3083 -0.3359  0.4083
  607MPD2    C4 9048   1.459   0.507  11.936 -0.1824 -0.0345  0.7057
  607MPD2    C5 9049   1.410   0.532  11.808 -0.3979  1.0461 -0.0196
  607MPD2     H 9050   1.742   0.707  11.913 -0.5958  1.1346  0.9768
  607MPD2    H1 9051   1.399   0.435  11.990  1.4145 -0.4737  1.8828
  607MPD2    H2 9052   1.446   0.619  11.623  2.3973 -1.6911 -1.3380
  607MPD2    H3 9053   1.328   0.476  11.765 -1.0822  0.8614  1.5031
  607MPD2     N 9054   1.649   0.534  12.090  0.6693 -0.3513  0.3039
  607MPD2    H5 9055   1.736   0.585  12.101  1.0301 -1.2382  1.5292
  607MPD2    N1 9056   1.693   0.734  11.670 -0.3130  0.1833 -0.1253
  607MPD2    H7 9057   1.779   0.765  11.714  0.6890 -1.1045 -1.1703
  608TMC3    C1 9058   1.783   0.750  11.456  0.5057  0.0609 -0.4463
  608TMC3    C2 9059   1.882   0.665  11.498  0.1686 -1.0728 -0.4156
  608TMC3    C3 9060   2.008   0.686  11.446 -0.1011 -0.2563  0.3711
  608TMC3    C4 9061   1.802   0.850  11.371 -0.6139  0.0274 -0.2880
  608TMC3    C5 9062   1.931   0.869  11.327 -0.6887 -0.8401 -0.5957
  608TMC3    C6 9063   2.041   0.786  11.357 -0.7006 -0.2939  0.1100
  608TMC3     C 9064   1.662   0.740  11.534  0.3093  0.2719  0.4687
  608TMC3     O 9065   1.563   0.776  11.471 -0.2719 -0.1086  0.0164
  608TMC3     H 9066   1.854   0.593  11.574 -1.7376  1.3363  1.1721
  608TMC3    H1 9067   1.717   0.900  11.326  0.4996  1.1264 -1.1673
  608TMC3    H2 9068   2.146   0.794  11.330 -0.5609 -0.9609  0.4429
  608TMC3    C7 9069   1.943   0.961  11.217 -0.2261  0.2096 -0.2822
  608TMC3    C8 9070   2.106   0.622  11.521  0.2213 -0.2023  0.3594
  608TMC3    O1 9071   1.838   0.997  11.166  0.2332 -0.2273 -0.4339
  608TMC3    O2 9072   2.201   0.573  11.459 -0.0042 -0.4298 -0.2627
  609TMC3    C1 9073   4.323   0.300   9.356 -0.0198 -1.0386 -0.1343
  609TMC3    C2 9074   4.240   0.335   9.253 -0.4896 -0.9768  0.6044
  609TMC3    C3 9075   4.276   0.300   9.125  0.5333 -0.0018  0.4873
  609TMC3    C4 9076   4.432   0.224   9.331 -0.4477 -0.4588  0.4051
  609TMC3    C5 9077   4.458   0.184   9.206  0.3837 -0.3805 -0.2245
  609TMC3    C6 9078   4.389   0.231   9.100  0.4233  0.4802  0.9065
  609TMC3     C 9079   4.285   0.305   9.495 -0.2070  0.8911 -0.2571
  609TMC3     O 9080   4.166   0.286   9.515  0.2373  0.3000  0.0535
  609TMC3     H 9081   4.149   0.387   9.282 -0.8355 -1.2139 -0.0286
  609TMC3    H1 9082   4.480   0.190   9.421 -1.0762 -2.7398 -0.1312
  609TMC3    H2 9083   4.416   0.200   8.999 -1.5230  1.4071  0.1007
  609TMC3    C7 9084   4.544   0.065   9.188  0.8125 -0.0119  0.1333
  609TMC3    C8 9085   4.256   0.400   9.023  0.2961 -0.0499 -0.0692
  609TMC3    O1 9086   4.581   0.025   9.296  0.2911 -0.4343  0.3894
  609TMC3    O2 9087   4.328   0.404   8.921 -0.8386 -0.1179  0.2751
  610TMC3    C1 9088   2.026   0.502  12.791  0.4165  0.4324  0.0718
  610TMC3    C2 9089   2.064   0.578  12.682  0.1434  0.7179 -0.7620
  610TMC3    C3 9090   2.196   0.584  12.655 -0.1193 -1.0074  0.3241
  610TMC3    C4 9091   2.118   0.446  12.875 -0.5834 -0.2750  0.2033
  610TMC3    C5 9092   2.251   0.471  12.845 -0.4570  1.1745 -0.5989
  610TMC3    C6 9093   2.292   0.530  12.728 -0.5683 -0.4608 -0.4267
  610TMC3     C 9094   1.902   0.430  12.792 -0.3912  0.0475  0.4266
  610TMC3     O 9095   1.893   0.325  12.855  0.5112 -0.3208  0.4066
  610TMC3     H 9096   1.994   0.621  12.612  0.0750 -1.1426 -1.8300
  610TMC3    H1 9097   2.090   0.390  12.963  2.3521  0.1826  1.4504
  610TMC3    H2 9098   2.393   0.523  12.689  0.1890 -1.5889  1.6855
  610TMC3    C7 9099   2.349   0.391  12.914 -0.5743  0.5147  0.1909
  610TMC3    C8 9100   2.234   0.658  12.531  0.3894 -0.4057 -0.1727
  610TMC3    O1 9101   2.448   0.355  12.848  0.0809  0.2656  0.8709
  610TMC3    O2 9102   2.151   0.647  12.443  0.0011 -0.7582 -0.3515
  611MPD2     C 9103   0.502   0.743   9.972 -0.1449  0.1240 -0.2716
  611MPD2    C1 9104   0.620   0.693  10.027  0.7052  0.2473  1.1168
  611MPD2    C2 9105   0.738   0.766  10.004  0.1315 -0.4380 -0.2882
  611MPD2    C3 9106   0.741   0.879   9.925  0.5125 -0.6363 -0.0051
  611MPD2    C4 9107   0.628   0.922   9.865  0.0773 -0.0965  0.1009
  611MPD2    C5 9108   0.506   0.858   9.893 -0.1133  0.5951 -0.1572
  611MPD2     H 9109   0.828   0.728  10.051 -0.2599 -0.5235  0.3980
  611MPD2    H1 9110   0.629   1.008   9.799 -0.2826 -2.3916 -2.8330
  611MPD2    H2 9111   0.407   0.694   9.993  1.2399 -2.0705  0.8335
  611MPD2    H3 9112   0.413   0.895   9.853 -0.5399 -1.8152 -1.3790
  611MPD2     N 9113   0.858   0.965   9.916 -0.1761 -0.1768 -0.4522
  611MPD2    H5 9114   0.841   1.033   9.843 -0.2432 -0.9136 -1.1203
  611MPD2    N1 9115   0.617   0.575  10.106  0.5427  0.1484  0.2963
  611MPD2    H7 9116   0.525   0.536  10.123  0.4537  0.0705 -0.3716
  612TMC3    C1 9117   1.076   1.051   9.933 -0.3590  0.3022  0.1574
  612TMC3    C2 9118   1.183   1.080  10.021  0.1863 -0.3810 -0.2710
  612TMC3    C3 9119   1.289   1.149   9.972  0.1154 -0.0344  0.1471
  612TMC3    C4 9120   1.071   1.112   9.811  0.3901  0.5427 -0.2634
  612TMC3    C5 9121   1.179   1.190   9.772  0.0205  0.9258  0.4257
  612TMC3    C6 9122   1.290   1.209   9.851  0.0501 -0.1934  0.7290
  612TMC3     C 9123   0.976   0.952   9.972 -0.1107  0.4805 -0.0371
  612TMC3     O 9124   1.004   0.874  10.062 -0.2284 -0.5319 -0.3985
  612TMC3     H 9125   1.179   1.037  10.121  0.7110  1.7271  0.6641
  612TMC3    H1 9126   0.992   1.093   9.740 -0.1574  1.2465  0.1667
  612TMC3    H2 9127   1.379   1.254   9.808 -1.5830  2.5286  0.2158
  612TMC3    C7 9128   1.160   1.280   9.655  0.4336 -0.3989  1.2544
  612TMC3    C8 9129   1.408   1.163  10.051  0.5179 -0.4900  0.0496
  612TMC3    O1 9130   1.064   1.250   9.586 -0.4400  0.2372  0.0753
  612TMC3    O2 9131   1.501   1.216   9.996  0.3651 -0.0447 -0.4234
  613MPD2     C 9132   0.257   2.101  16.719 -0.0544 -0.4900  0.3487
  613MPD2    C1 9133   0.367   2.076  16.637  0.0047 -0.4381  0.1453
  613MPD2    C2 9134   0.366   1.986  16.529  0.7057  0.1926  0.0927
  613MPD2    C3 9135   0.247   1.918  16.510  0.3268  0.0634  0.5746
  613MPD2    C4 9136   0.137   1.929  16.607  0.6492  0.8422  0.7567
  613MPD2    C5 9137   0.145   2.025  16.699 -0.0308 -0.0538 -0.0313
  613MPD2     H 9138   0.452   1.977  16.463  0.8474 -2.0604  0.5811
  613MPD2    H1 9139   0.040   1.882  16.596  1.7253 -1.3129  0.4623
  613MPD2    H2 9140   0.262   2.173  16.800  0.8537  1.0027 -1.0334
  613MPD2    H3 9141   0.064   2.034  16.770  3.1226 -0.0184  3.5247
  613MPD2     N 9142   0.229   1.857  16.389  0.3787  0.0542 -0.3600
  613MPD2    H5 9143   0.304   1.865  16.321  1.2644 -1.9788  0.3492
  613MPD2    N1 9144   0.491   2.149  16.652 -0.2399 -0.2539  0.3082
  613MPD2    H7 9145   0.560   2.131  16.579 -0.4620 -1.3019  0.3512
  614TMC3    C1 9146   0.622   2.340  16.676 -0.5429  0.5950  0.3395
  614TMC3    C2 9147   0.704   2.276  16.584 -0.1719  1.2408 -0.1060
  614TMC3    C3 9148   0.725   2.330  16.467  0.4844  0.1498 -0.4750
  614TMC3    C4 9149   0.593   2.470  16.657 -0.4574 -0.7315 -0.4821
  614TMC3    C5 9150   0.629   2.533  16.536 -0.4045 -0.4391 -0.5189
  614TMC3    C6 9151   0.688   2.456  16.440  0.6301  0.0235 -0.4234
  614TMC3     C 9152   0.515   2.263  16.726 -0.1456  0.0912 -0.4607
  614TMC3     O 9153   0.449   2.308  16.814 -0.3648  0.1634  0.2374
  614TMC3     H 9154   0.750   2.181  16.608 -0.1851  0.4857 -3.1302
  614TMC3    H1 9155   0.534   2.530  16.726  0.2054 -0.0122 -0.5429
  614TMC3    H2 9156   0.719   2.515  16.354  1.3650  0.6208  0.2609
  614TMC3    C7 9157   0.549   2.647  16.490  0.2271 -0.3467 -0.2137
  614TMC3    C8 9158   0.669   2.233  16.372 -0.2964  0.2983  0.1797
  614TMC3    O1 9159   0.502   2.715  16.583 -0.3844  0.1203  0.0208
  614TMC3    O2 9160   0.643   2.123  16.417  0.2005 -0.3832  0.2060
  615MPD2     C 9161   4.512   3.814  16.337 -0.3960 -0.3453 -0.4496
  615MPD2    C1 9162   4.491   3.946  16.311 -0.6814 -0.0851  0.1142
  615MPD2    C2 9163   4.427   3.985  16.191  0.6770  0.1032  0.7717
  615MPD2    C3 9164   4.385   3.891  16.095 -0.0937 -0.5468 -0.0369
  615MPD2    C4 9165   4.404   3.756  16.125 -0.0520 -0.5807  0.5182
  615MPD2    C5 9166   4.458   3.723  16.251 -0.2549  0.3233  0.2020
  615MPD2     H 9167   4.405   4.089  16.170  2.5863  0.7779  2.1063
  615MPD2    H1 9168   4.373   3.680  16.054 -1.8978  1.4732 -0.8655
  615MPD2    H2 9169   4.574   3.778  16.417 -2.2277  0.6517  1.4259
  615MPD2    H3 9170   4.467   3.618  16.278 -0.5723  0.6405  1.5533
  615MPD2     N 9171   4.334   3.941  15.974 -0.3374 -0.1566 -0.0971
  615MPD2    H5 9172   4.342   4.040  15.952 -0.1118 -0.2709 -0.5225
  615MPD2    N1 9173   4.530   4.057  16.392  0.0702 -1.1932 -0.8920
  615MPD2    H7 9174   4.512   4.150  16.357  0.1541 -0.6708  0.4648
  616TMC3    C1 9175   4.641   4.174  16.563 -0.1590  0.0882 -0.6517
  616TMC3    C2 9176   0.003   4.178  16.656  0.1912  0.7975 -0.7984
  616TMC3    C3 9177   0.097   4.269  16.638 -0.3811  0.3489  0.7448
  616TMC3    C4 9178   4.622   4.274  16.473 -0.8021  0.8224  0.0232
  616TMC3    C5 9179   4.707   4.380  16.479 -0.4159  0.4272 -0.3555
  616TMC3    C6 9180   0.091   4.375  16.547  0.2132  0.0873  1.5725
  616TMC3     C 9181   4.596   4.044  16.518  1.0831  0.2644  0.3470
  616TMC3     O 9182   4.617   3.942  16.586  0.5314  0.6803 -0.3823
  616TMC3     H 9183   0.003   4.105  16.736 -1.4087  2.5321  0.7934
  616TMC3    H1 9184   4.528   4.285  16.422 -1.4363  5.0708  2.1384
  616TMC3    H2 9185   0.167   4.452  16.549  0.6742 -0.3167 -0.0651
  616TMC3    C7 9186   4.689   4.488  16.380  0.0290 -0.2166 -0.2752
  616TMC3    C8 9187   0.215   4.242  16.721  0.2664  1.1926  0.0832
  616TMC3    O1 9188   4.621   4.455  16.283 -0.3222  0.1020  0.1258
  616TMC3    O2 9189   0.195   4.192  16.829 -0.2771 -0.3194 -0.1594
  617MPD2     C 9190   2.651   2.367  13.643  0.1693 -0.2930 -0.4389
  617MPD2    C1 9191   2.685   2.272  13.732 -0.9052  0.9218 -0.3031
  617MPD2    C2 9192   2.577   2.214  13.797  0.1867  0.0269  0.2014
  617MPD2    C3 9193   2.446   2.244  13.776 -0.8097 -0.0400  0.4806
  617MPD2    C4 9194   2.414   2.327  13.668  0.3040 -1.0496  0.1116
  617MPD2    C5 9195   2.518   2.391  13.601 -0.4990 -0.0486  0.7387
  617MPD2     H 9196   2.598   2.145  13.878 -1.6747 -0.0143  0.6403
  617MPD2    H1 9197   2.316   2.358  13.632  0.0774  0.1779  1.8052
  617MPD2    H2 9198   2.728   2.408  13.578 -2.4885  1.9198 -2.2410
  617MPD2    H3 9199   2.506   2.460  13.518 -0.5152  2.7313  3.0543
  617MPD2     N 9200   2.345   2.195  13.860  0.1280 -0.4883  0.3109
  617MPD2    H5 9201   2.253   2.219  13.824  0.5234  0.0367 -0.3578
  617MPD2    N1 9202   2.820   2.223  13.732 -0.0422  0.1511  0.2640
  617MPD2    H7 9203   2.886   2.274  13.674 -0.0402  1.2793  1.2546
  618TMC3    C1 9204   2.989   2.057  13.748 -0.1892 -0.5274 -0.0591
  618TMC3    C2 9205   3.016   1.942  13.671 -0.0638  0.1018 -0.2112
  618TMC3    C3 9206   3.139   1.917  13.624  0.1080 -0.3658 -0.6366
  618TMC3    C4 9207   3.087   2.152  13.759  0.3497 -0.1623 -0.6776
  618TMC3    C5 9208   3.212   2.127  13.700 -0.1855 -0.0556 -0.1027
  618TMC3    C6 9209   3.243   2.006  13.648 -0.3429 -0.3644 -0.3264
  618TMC3     C 9210   2.854   2.098  13.776  0.2736  0.3855  0.0704
  618TMC3     O 9211   2.772   2.004  13.800  0.3115  0.9791 -0.1563
  618TMC3     H 9212   2.933   1.879  13.642  1.1015 -0.8663 -1.4441
  618TMC3    H1 9213   3.081   2.239  13.823  0.4041 -2.1234  1.9787
  618TMC3    H2 9214   3.345   1.992  13.616  0.0118 -0.3902  0.8197
  618TMC3    C7 9215   3.322   2.202  13.762  0.2179  0.5045 -0.1597
  618TMC3    C8 9216   3.150   1.805  13.535  0.2086  0.1362 -0.7659
  618TMC3    O1 9217   3.361   2.138  13.858 -0.1840 -0.8606  0.8923
  618TMC3    O2 9218   3.060   1.724  13.527  0.1752 -0.2399  0.5155
  619MPD2     C 9219   4.009   3.574  13.903 -0.0325 -0.0258 -0.1106
  619MPD2    C1 9220   3.896   3.641  13.872 -0.5839  0.5445  0.1719
  619MPD2    C2 9221   3.780   3.578  13.887 -0.0344  0.1163  0.3827
  619MPD2    C3 9222   3.768   3.443  13.918  0.5297 -0.4426 -0.3791
  619MPD2    C4 9223   3.884   3.374  13.955  0.2647  0.5705  1.0402
  619MPD2    C5 9224   3.998   3.441  13.945  0.7790  0.2125  0.1487
  619MPD2     H 9225   3.697   3.645  13.869  0.6218  1.2639  1.6103
  619MPD2    H1 9226   3.879   3.270  13.984 -0.6410  0.6917  1.3353
  619MPD2    H2 9227   4.106   3.622  13.892 -0.2859  0.1248 -1.6144
  619MPD2    H3 9228   4.093   3.397  13.973 -1.1981 -2.7435  2.2303
  619MPD2     N 9229   3.637   3.381  13.931  0.1321 -0.3172 -0.2930
  619MPD2    H5 9230   3.641   3.292  13.980  0.8414  0.2050  0.5879
  619MPD2    N1 9231   3.885   3.780  13.827  0.4148  0.3400  0.1006
  619MPD2    H7 9232   3.795   3.822  13.803 -1.3825 -3.9700 -0.6130
  620TMC3    C1 9233   3.955   3.998  13.796  0.0022  0.9358 -0.3451
  620TMC3    C2 9234   3.848   4.017  13.706 -0.2404 -0.1779 -0.2335
  620TMC3    C3 9235   3.824   4.141  13.660 -0.3924  0.0498  0.3720
  620TMC3    C4 9236   4.019   4.110  13.847 -0.7537  0.3878  0.4446
  620TMC3    C5 9237   3.995   4.232  13.792  0.3596  0.0906  0.0087
  620TMC3    C6 9238   3.896   4.247  13.702 -0.3198 -0.2452  0.0738
  620TMC3     C 9239   3.994   3.866  13.833  0.4492 -0.3005  0.0337
  620TMC3     O 9240   4.103   3.853  13.884 -0.3558  0.2217  0.4191
  620TMC3     H 9241   3.793   3.930  13.671  0.4881 -0.7788  0.1135
  620TMC3    H1 9242   4.094   4.110  13.924  0.7543 -1.0460 -1.0393
  620TMC3    H2 9243   3.888   4.344  13.654  0.5462  0.2393  0.9137
  620TMC3    C7 9244   3.977   4.322  13.900  0.2785  0.3754  0.2146
  620TMC3    C8 9245   3.688   4.188  13.657 -1.0601  0.2918 -0.6909
  620TMC3    O1 9246   3.899   4.294  13.996  0.5095  0.4190  0.8826
  620TMC3    O2 9247   3.659   4.301  13.690  0.3971 -0.3435  0.8051
  621MPD2     C 9248   3.771   4.315  10.078  0.4531 -0.2853  0.3627
  621MPD2    C1 9249   3.870   4.219  10.079 -0.4379  0.1335  0.0163
  621MPD2    C2 9250   3.980   4.238   9.995 -0.7510 -0.0802 -0.6975
  621MPD2    C3 9251   3.986   4.349   9.912 -0.5359 -0.1027 -0.0066
  621MPD2    C4 9252   3.885   4.447   9.918  0.0607 -0.4803 -0.5286
  621MPD2    C5 9253   3.777   4.427  10.001 -0.1721 -0.3571 -0.1282
  621MPD2     H 9254   4.056   4.162   9.980  0.9483  1.2474  1.1604
  621MPD2    H1 9255   3.883   4.534   9.854  1.1134 -1.5713 -2.0440
  621MPD2    H2 9256   3.694   4.321  10.154  0.9295  0.4030  0.8000
  621MPD2    H3 9257   3.698   4.500  10.013 -1.4680 -1.5444 -1.4571
  621MPD2     N 9258   4.095   4.355   9.821  0.8858 -0.7385 -0.0992
  621MPD2    H5 9259   4.165   4.282   9.826  0.3390 -1.2190  0.5547
  621MPD2    N1 9260   3.874   4.109  10.172 -0.3314  0.3376  0.0484
  621MPD2    H7 9261   3.947   4.038  10.163  1.4314  2.3507 -1.5809
  622TMC3    C1 9262   3.794   3.951  10.343  0.5531 -0.4869 -0.3273
  622TMC3    C2 9263   3.712   3.935  10.451  0.1304 -0.2696  0.6800
  622TMC3    C3 9264   3.670   3.809  10.490 -0.7927  0.2810  0.2208
  622TMC3    C4 9265   3.825   3.842  10.268 -0.2773 -0.2958  0.2461
  622TMC3    C5 9266   3.793   3.716  10.311  0.5304 -0.0909 -0.1390
  622TMC3    C6 9267   3.721   3.699  10.423 -0.0427 -0.3627  0.0832
  622TMC3     C 9268   3.789   4.083  10.279 -0.0168 -0.6075  0.2716
  622TMC3     O 9269   3.694   4.154  10.317 -0.1064 -0.4312  0.0446
  622TMC3     H 9270   3.697   4.021  10.515  1.2354  0.3799  0.0604
  622TMC3    H1 9271   3.887   3.854  10.179  1.2157 -2.1735  1.0239
  622TMC3    H2 9272   3.687   3.597  10.437 -1.1885 -0.0842 -0.7042
  622TMC3    C7 9273   3.852   3.599  10.244 -0.0608  0.5279 -0.5946
  622TMC3    C8 9274   3.572   3.781  10.596  0.2316  0.4805  0.4851
  622TMC3    O1 9275   3.818   3.484  10.269  0.5388  0.1331 -0.1865
  622TMC3    O2 9276   3.567   3.668  10.644 -0.1893 -0.3546 -0.0210
  623MPD2     C 9277   3.487   4.466  16.390 -0.0895  0.2290  0.0671
  623MPD2    C1 9278   3.420   4.452  16.508  0.3035  0.0334  0.1973
  623MPD2    C2 9279   3.490   4.423  16.617  0.5580 -0.1574 -0.9847
  623MPD2    C3 9280   3.622   4.419  16.620 -0.5398  0.3551 -0.0145
  623MPD2    C4 9281   3.693   4.455  16.511 -0.5011 -0.1740 -0.2626
  623MPD2    C5 9282   3.624   4.464  16.392  0.6260  0.3138  0.6478
  623MPD2     H 9283   3.440   4.409  16.712  0.5515 -0.3025 -1.0089
  623MPD2    H1 9284   3.801   4.460  16.516 -0.4788 -0.5342 -0.3382
  623MPD2    H2 9285   3.443   4.474  16.291  2.1244 -1.4922 -1.0458
  623MPD2    H3 9286   3.670   4.477  16.294 -0.6550 -0.9274 -0.0988
  623MPD2     N 9287   3.680   4.398  16.747  0.2171 -0.2651  0.5463
  623MPD2    H5 9288   3.614   4.389  16.823 -1.1850  1.6533 -0.4359
  623MPD2    N1 9289   3.281   4.477  16.505 -0.0870  0.2024  0.6147
  623MPD2    H7 9290   3.237   4.495  16.416  1.7592  0.2443 -0.2794
  624TMC3    C1 9291   3.871   4.141  17.050  0.0445  0.6277 -0.4778
  624TMC3    C2 9292   3.767   4.177  17.134  0.3218 -0.7135 -0.8448
  624TMC3    C3 9293   3.699   4.293  17.104 -0.2657  0.0164 -0.7407
  624TMC3    C4 9294   3.905   4.223  16.943 -0.0024 -0.5114  0.7785
  624TMC3    C5 9295   3.835   4.331  16.911 -0.0033 -0.3572  0.5923
  624TMC3    C6 9296   3.736   4.371  16.998  0.5656  0.6826 -0.1157
  624TMC3     C 9297   3.960   4.040  17.097 -0.2289 -0.2746  0.1140
  624TMC3     O 9298   3.919   3.961  17.186  0.6645 -0.2778  0.0839
  624TMC3     H 9299   3.731   4.100  17.202 -0.5147  0.4458  0.0062
  624TMC3    H1 9300   3.969   4.181  16.866  0.6857  0.6449  0.7208
  624TMC3    H2 9301   3.672   4.455  16.973  0.1351 -0.3310 -2.4614
  624TMC3    C7 9302   3.808   4.358  16.766  0.2769 -0.6827  1.0639
  624TMC3    C8 9303   3.554   4.280  17.097  0.1142  0.2321  0.4155
  624TMC3    O1 9304   3.907   4.345  16.696 -0.0045 -0.0242 -0.7077
  624TMC3    O2 9305   3.498   4.301  16.990 -0.4960  0.3249 -0.2635
  625MPD2     C 9306   3.275   1.066   1.047 -0.0247  0.1994 -0.3221
  625MPD2    C1 9307   3.213   1.193   1.059  0.6710  0.9407 -0.1482
  625MPD2    C2 9308   3.279   1.301   1.112  0.0915 -0.0375  0.2948
  625MPD2    C3 9309   3.405   1.290   1.160  0.6768 -0.1908 -0.2221
  625MPD2    C4 9310   3.474   1.169   1.137 -0.9753 -0.1823 -0.6292
  625MPD2    C5 9311   3.409   1.069   1.072  0.1442  0.4648  0.7832
  625MPD2     H 9312   3.234   1.399   1.109  0.5556  0.1979  1.1865
  625MPD2    H1 9313   3.581   1.157   1.147 -0.6148  1.9298 -1.8806
  625MPD2    H2 9314   3.213   0.982   1.018  0.1876  0.3869 -1.3358
  625MPD2    H3 9315   3.465   0.979   1.048  1.5097  1.2198  1.1070
  625MPD2     N 9316   3.482   1.397   1.212 -0.3062  0.2590  0.0912
  625MPD2    H5 9317   3.448   1.491   1.196  0.1214  0.2476 -0.8716
  625MPD2    N1 9318   3.070   1.207   1.031  0.0227  0.1506  0.3676
  625MPD2    H7 9319   3.026   1.292   1.066 -1.7807 -0.3436 -0.7414
  626TMC3    C1 9320   2.856   1.172   0.939  0.1750 -1.0295  0.1198
  626TMC3    C2 9321   2.808   1.177   0.819 -0.2625  0.1721 -0.9646
  626TMC3    C3 9322   2.691   1.238   0.795 -0.3528  0.1249 -0.6107
  626TMC3    C4 9323   2.792   1.230   1.046 -0.1307  0.3728 -0.6044
  626TMC3    C5 9324   2.674   1.295   1.024 -1.3571 -0.2712  0.6582
  626TMC3    C6 9325   2.618   1.300   0.897 -0.4961  0.1519 -0.1842
  626TMC3     C 9326   3.001   1.134   0.941 -0.1759  0.4638  0.2744
  626TMC3     O 9327   3.045   1.045   0.871 -0.2603 -0.2832  0.1061
  626TMC3     H 9328   2.868   1.135   0.739 -0.2603 -1.8658  0.1206
  626TMC3    H1 9329   2.826   1.217   1.148 -2.3430  0.7816  0.2080
  626TMC3    H2 9330   2.512   1.313   0.879 -0.8540  1.1312  2.6797
  626TMC3    C7 9331   2.590   1.319   1.137 -0.0815 -0.1125 -0.0688
  626TMC3    C8 9332   2.672   1.283   0.659  0.5948  0.0212  0.2157
  626TMC3    O1 9333   2.607   1.259   1.242  0.0682  0.1865  0.0987
  626TMC3    O2 9334   2.720   1.213   0.574 -0.1869 -0.1531 -0.4967
  627MPD2     C 9335   2.415   1.064  14.335  0.6685  0.6352 -0.0253
  627MPD2    C1 9336   2.445   1.015  14.459  0.6634  0.3357  0.5165
  627MPD2    C2 9337   2.423   0.875  14.490  0.5867 -0.5820  0.3877
  627MPD2    C3 9338   2.358   0.796  14.394 -0.4343  0.4793  0.1440
  627MPD2    C4 9339   2.320   0.856  14.277  0.2644  0.7486 -0.9726
  627MPD2    C5 9340   2.345   0.989  14.247 -0.2526 -0.4904 -1.1434
  627MPD2     H 9341   2.442   0.834  14.588  1.7948  1.7223  1.1165
  627MPD2    H1 9342   2.276   0.800  14.195 -2.3272  1.2849  0.0529
  627MPD2    H2 9343   2.436   1.169  14.318  1.6796  0.2685 -1.0148
  627MPD2    H3 9344   2.301   1.029  14.156  2.6058  0.8693 -1.9103
  627MPD2     N 9345   2.308   0.678  14.441 -0.0301  0.4952  0.1505
  627MPD2    H5 9346   2.327   0.651  14.537 -1.6497 -0.7120  0.1165
  627MPD2    N1 9347   2.518   1.089  14.545  0.1912  0.0238  0.0256
  627MPD2    H7 9348   2.510   1.190  14.536 -2.0863 -0.3810 -2.3741
  628TMC3    C1 9349   2.615   1.155  14.740  0.1881  0.5006 -0.0301
  628TMC3    C2 9350   2.715   1.129  14.826 -0.1818 -0.2666  0.1131
  628TMC3    C3 9351   2.745   1.232  14.915 -0.2795  0.7221 -0.2641
  628TMC3    C4 9352   2.546   1.272  14.731  0.6773 -0.1740  0.0485
  628TMC3    C5 9353   2.572   1.371  14.821 -0.2348 -0.5308  0.1201
  628TMC3    C6 9354   2.661   1.345  14.925  0.5099  0.1573 -0.1610
  628TMC3     C 9355   2.579   1.039  14.658  0.0028  0.4972 -0.1758
  628TMC3     O 9356   2.640   0.935  14.665 -0.4305  0.0956 -0.1792
  628TMC3     H 9357   2.781   1.046  14.801 -1.3720 -0.7835 -1.3417
  628TMC3    H1 9358   2.473   1.296  14.654  1.6949 -1.0981 -1.1943
  628TMC3    H2 9359   2.696   1.427  14.987 -2.6674  2.4317 -1.3169
  628TMC3    C7 9360   2.512   1.501  14.834  0.3769  0.6582 -0.4258
  628TMC3    C8 9361   2.880   1.230  14.956  0.6007 -0.2065 -0.0554
  628TMC3    O1 9362   2.504   1.551  14.946 -0.1403 -0.0401 -0.3756
  628TMC3    O2 9363   2.923   1.124  15.002 -0.5107  0.0118  0.5579
  629MPD2     C 9364   0.732   4.264  16.790  1.2138 -0.3238 -0.7716
  629MPD2    C1 9365   0.704   4.288  16.653  0.4680 -0.2749 -0.2861
  629MPD2    C2 9366   0.568   4.303  16.611 -0.6992  0.1745  0.2537
  629MPD2    C3 9367   0.462   4.273  16.699  0.3678 -0.3721 -0.3044
  629MPD2    C4 9368   0.498   4.254  16.836 -0.6115  0.2373 -0.0674
  629MPD2    C5 9369   0.631   4.251  16.877  0.0701 -0.2335  0.2332
  629MPD2     H 9370   0.547   4.319  16.506 -1.8094 -2.2783  0.0903
  629MPD2    H1 9371   0.422   4.239  16.911 -0.4265 -0.4796 -0.0182
  629MPD2    H2 9372   0.835   4.246  16.819  0.7735 -2.1621 -0.3017
  629MPD2    H3 9373   0.651   4.246  16.984 -0.1738 -0.7119  0.2560
  629MPD2     N 9374   0.330   4.268  16.648  0.5261  0.7397 -0.4523
  629MPD2    H5 9375   0.326   4.282  16.548  2.4295 -1.1078 -0.7873
  629MPD2    N1 9376   0.816   4.311  16.568  0.2557  0.0068 -0.1893
  629MPD2    H7 9377   0.908   4.298  16.608 -1.0175  0.0185  2.7118
  630TMC3    C1 9378   0.939   4.356  16.381  0.1280  0.6158 -0.2701
  630TMC3    C2 9379   0.973   4.479  16.344 -0.0943 -0.3010  0.3813
  630TMC3    C3 9380   1.100   4.525  16.378  0.4247  0.4108  0.1822
  630TMC3    C4 9381   1.030   4.276  16.450 -0.6225  0.1574 -0.5730
  630TMC3    C5 9382   1.151   4.326  16.488  0.0353  0.1003 -0.1675
  630TMC3    C6 9383   1.187   4.455  16.449 -0.3278 -0.2621 -0.3792
  630TMC3     C 9384   0.810   4.350  16.441 -0.6149  0.7318 -0.1075
  630TMC3     O 9385   0.717   4.410  16.387 -0.2518  0.1643 -0.2364
  630TMC3     H 9386   0.897   4.538  16.294  0.1202 -0.7914 -0.5363
  630TMC3    H1 9387   0.988   4.182  16.484 -0.3522  0.2292 -0.0397
  630TMC3    H2 9388   1.279   4.505  16.477  0.2107 -2.3563  1.5386
  630TMC3    C7 9389   1.162   4.304  16.629  0.5252 -0.3210 -0.3809
  630TMC3    C8 9390   1.139   4.652  16.317  0.2245 -0.6767  0.9122
  630TMC3    O1 9391   1.077   4.239  16.687  0.5576 -0.1432  0.5676
  630TMC3    O2 9392   1.252   4.684  16.325  0.3263 -0.4463  0.3328
  631MPD2     C 9393   3.513   4.351  15.540  0.2850 -0.4937 -1.1053
  631MPD2    C1 9394   3.628   4.417  15.500 -0.0761 -0.3640 -0.1950
  631MPD2    C2 9395   3.748   4.348  15.500 -0.2521 -0.0740 -0.3790
  631MPD2    C3 9396   3.753   4.209  15.534  0.2686  0.0213  0.0320
  631MPD2    C4 9397   3.639   4.138  15.566  0.7168 -0.7364  0.3914
  631MPD2    C5 9398   3.520   4.211  15.566  0.4336 -0.1482  0.3445
  631MPD2     H 9399   3.837   4.409  15.496 -0.7991  0.8995  2.0891
  631MPD2    H1 9400   3.631   4.039  15.609  1.7030 -2.0145 -2.3615
  631MPD2    H2 9401   3.410   4.387  15.536  0.0984 -0.6557  2.2257
  631MPD2    H3 9402   3.428   4.160  15.594  1.9504 -3.2278 -0.2784
  631MPD2     N 9403   3.881   4.151  15.550 -0.2030 -0.4358 -0.6270
  631MPD2    H5 9404   3.960   4.212  15.536  1.4096 -1.6060  3.2245
  631MPD2    N1 9405   3.613   4.556  15.471  0.6510  0.4042 -0.2251
  631MPD2    H7 9406   3.519   4.594  15.476  0.8569  0.4806  3.0622
  632TMC3    C1 9407   3.678   0.030  15.407 -0.7618  0.4957 -0.0271
  632TMC3    C2 9408   3.568   0.076  15.474 -0.4992  0.1679 -0.0595
  632TMC3    C3 9409   3.526   0.202  15.455  0.6081 -0.3896  0.6233
  632TMC3    C4 9410   3.736   0.109  15.313 -0.2175 -0.1557  0.6356
  632TMC3    C5 9411   3.689   0.236  15.290  0.4617  0.0829 -0.0302
  632TMC3    C6 9412   3.580   0.282  15.361 -0.4943  0.2284 -0.1550
  632TMC3     C 9413   3.711   4.626  15.411  0.0118 -0.5379 -0.5589
  632TMC3     O 9414   3.809   4.585  15.353 -0.3033  0.0177  0.1644
  632TMC3     H 9415   3.522   0.018  15.554 -0.8374  0.1025 -0.3019
  632TMC3    H1 9416   3.806   0.060  15.246 -0.5787  0.4065 -0.1519
  632TMC3    H2 9417   3.546   0.384  15.348  2.8856  1.4903  0.8833
  632TMC3    C7 9418   3.739   0.303  15.170  0.4994  0.0435  0.0840
  632TMC3    C8 9419   3.408   0.243  15.525 -0.1540  0.3805  0.4283
  632TMC3    O1 9420   3.665   0.369  15.097  0.1167  0.8659  0.1507
  632TMC3    O2 9421   3.315   0.162  15.529  0.1057 -0.1063  0.1331
  633MPD2     C 9422   3.085   2.487  17.466  0.1654  0.2537 -0.4922
  633MPD2    C1 9423   3.066   2.415  17.356 -0.1442  0.3770  0.3291
  633MPD2    C2 9424   3.005   2.295  17.372 -0.3519  0.8050 -0.3806
  633MPD2    C3 9425   2.952   2.244  17.494  0.6911  0.5760 -0.5203
  633MPD2    C4 9426   2.980   2.324  17.607  0.2263 -0.0249 -0.8422
  633MPD2    C5 9427   3.045   2.441  17.593 -0.0155 -0.5905 -0.6588
  633MPD2     H 9428   2.989   2.234  17.283  1.6686 -1.7549  1.0264
  633MPD2    H1 9429   2.943   2.289  17.703 -1.6199 -0.2315 -1.6291
  633MPD2    H2 9430   3.123   2.588  17.452 -0.7416  0.4572 -1.5723
  633MPD2    H3 9431   3.048   2.515  17.672 -0.6606 -1.7739  0.4632
  633MPD2     N 9432   2.886   2.122  17.514  0.1193  0.6532 -0.2119
  633MPD2    H5 9433   2.870   2.097  17.611 -1.1540  2.4713  0.0610
  633MPD2    N1 9434   3.122   2.438  17.227  0.1839  0.6717 -0.6857
  633MPD2    H7 9435   3.107   2.367  17.156 -1.4154  0.6034 -0.2764
  634TMC3    C1 9436   3.224   2.553  17.054  0.1006 -0.1114  0.1768
  634TMC3    C2 9437   3.263   2.439  16.990 -0.3087  0.3196 -0.1526
  634TMC3    C3 9438   3.280   2.445  16.856 -0.0881 -0.1027  0.8522
  634TMC3    C4 9439   3.185   2.661  16.984 -0.5226 -1.1661  0.1925
  634TMC3    C5 9440   3.227   2.667  16.855  0.2487 -0.4110 -0.4064
  634TMC3    C6 9441   3.261   2.555  16.786  0.2150 -0.4988 -0.6247
  634TMC3     C 9442   3.194   2.549  17.190 -0.6833  0.1657  0.7367
  634TMC3     O 9443   3.231   2.643  17.258 -0.2085  0.0946  0.1012
  634TMC3     H 9444   3.296   2.357  17.053  2.2461  1.2094 -0.3201
  634TMC3    H1 9445   3.167   2.753  17.039  1.7313 -0.4489 -0.2497
  634TMC3    H2 9446   3.286   2.559  16.680 -0.8977  0.7916 -0.8359
  634TMC3    C7 9447   3.227   2.793  16.777 -0.3507 -0.4543 -0.4990
  634TMC3    C8 9448   3.325   2.327  16.792 -0.3843 -0.3707 -0.6111
  634TMC3    O1 9449   3.312   2.799  16.685 -0.3149  0.2209  0.2036
  634TMC3    O2 9450   3.283   2.224  16.839 -0.0381  0.2003  0.5837
  635TMC3    C1 9451   3.136   4.258   0.356 -0.1560  0.0650 -0.1125
  635TMC3    C2 9452   3.106   4.370   0.291  0.6167  0.1825  0.2691
  635TMC3    C3 9453   2.982   4.418   0.307 -1.2228 -1.0298  0.3626
  635TMC3    C4 9454   3.056   4.181   0.434 -0.5510  0.7395 -0.2793
  635TMC3    C5 9455   2.920   4.212   0.428 -0.9793  0.1533 -0.2217
  635TMC3    C6 9456   2.888   4.337   0.372 -0.0516  0.2262 -0.9080
  635TMC3     C 9457   3.269   4.265   0.413 -0.7293  0.6545  0.4577
  635TMC3     O 9458   3.332   4.363   0.399  0.7738 -0.1825 -0.0262
  635TMC3     H 9459   3.182   4.434   0.249 -1.0548  2.0882  0.1087
  635TMC3    H1 9460   3.082   4.078   0.456 -0.2257  1.4938  2.8052
  635TMC3    H2 9461   2.786   4.371   0.354 -0.3972 -1.1433 -1.5878
  635TMC3    C7 9462   2.822   4.135   0.503 -0.5323  0.5315 -0.8011
  635TMC3    C8 9463   2.940   4.548   0.260  0.0121 -0.4720  0.2531
  635TMC3    O1 9464   2.869   4.041   0.568  0.2240  1.2321 -0.2464
  635TMC3    O2 9465   3.016   4.610   0.182 -0.0875  0.3513 -0.4681
  636MPD2     C 9466   4.490   2.441  15.940  1.0671 -0.7894 -0.3982
  636MPD2    C1 9467   4.516   2.413  16.072  0.1574  0.3111  0.4824
  636MPD2    C2 9468   4.594   2.300  16.100 -0.4159 -0.1996 -0.2514
  636MPD2    C3 9469   4.639   2.210  16.003 -0.4017 -0.0093 -0.9378
  636MPD2    C4 9470   4.608   2.239  15.874 -0.1564  0.5969  0.6512
  636MPD2    C5 9471   4.540   2.352  15.849  0.5109  0.6892  0.0103
  636MPD2     H 9472   4.622   2.284  16.204  2.2332  2.6794 -0.5344
  636MPD2    H1 9473   4.643   2.175  15.794  1.8675  0.3114  1.7687
  636MPD2    H2 9474   4.448   2.536  15.908  0.4722 -0.8862  0.0994
  636MPD2    H3 9475   4.527   2.370  15.742  0.1350  4.2305  0.6316
  636MPD2     N 9476   4.696   2.089  16.038 -0.6343  0.0452  0.2195
  636MPD2    H5 9477   4.708   2.071  16.137  0.4779 -0.4338  0.0062
  636MPD2    N1 9478   4.477   2.499  16.182  0.0949 -0.2893  0.3517
  636MPD2    H7 9479   4.521   2.481  16.271  0.5841  1.3378  0.4391
  637TMC3    C1 9480   0.079   1.898  16.010 -0.3072 -0.6428  0.3083
  637TMC3    C2 9481   0.030   1.858  16.129 -0.0222 -0.8487 -0.3626
  637TMC3    C3 9482   0.107   1.774  16.205 -0.8417 -0.3349  0.2910
  637TMC3    C4 9483   0.206   1.876  15.967 -0.2564  0.8068  0.5143
  637TMC3    C5 9484   0.284   1.808  16.054 -0.0059 -0.4018 -0.0571
  637TMC3    C6 9485   0.240   1.754  16.166  0.4063  0.1657 -0.4279
  637TMC3     C 9486   0.015   2.007  15.949  1.0949  0.3418  0.1355
  637TMC3     O 9487   0.046   2.021  15.831  0.6607 -0.2939 -0.3554
  637TMC3     H 9488   4.670   1.890  16.167 -0.2612 -0.4686 -1.2828
  637TMC3    H1 9489   0.236   1.928  15.877 -0.6191  0.3645  0.1378
  637TMC3    H2 9490   0.299   1.693  16.233 -0.3566  1.7318  1.6711
  637TMC3    C7 9491   0.414   1.863  16.084 -0.4065  0.4226  1.4340
  637TMC3    C8 9492   0.108   1.808  16.343 -0.0832  0.3913  0.4633
  637TMC3    O1 9493   0.435   1.877  16.203  0.3062 -0.1346  0.2626
  637TMC3    O2 9494   0.002   1.791  16.400  0.2989 -0.0294  0.0204
  638MPD2     C 9495   4.530   1.675  14.859  0.3907  0.4098  0.0030
  638MPD2    C1 9496   4.453   1.586  14.786  0.5151  0.5764 -0.1481
  638MPD2    C2 9497   4.352   1.511  14.847 -0.2177  0.5920 -0.3263
  638MPD2    C3 9498   4.336   1.522  14.981 -0.0255 -0.2144 -0.0493
  638MPD2    C4 9499   4.410   1.619  15.052  0.4079 -0.0801  0.4932
  638MPD2    C5 9500   4.510   1.692  14.995  0.0447  0.0917 -0.6003
  638MPD2     H 9501   4.305   1.438  14.783 -2.3162  0.9583  0.7771
  638MPD2    H1 9502   4.391   1.625  15.158  1.6649 -1.5967  0.8041
  638MPD2    H2 9503   4.608   1.732  14.811  1.0511  0.8301  1.5803
  638MPD2    H3 9504   4.576   1.758  15.051 -0.1705  0.5734 -0.9127
  638MPD2     N 9505   4.253   1.439  15.053 -0.0504 -0.7593  0.4678
  638MPD2    H5 9506   4.260   1.432  15.154 -2.9969  2.0190  0.8823
  638MPD2    N1 9507   4.488   1.568  14.648  0.4653 -0.1416 -0.1971
  638MPD2    H7 9508   4.583   1.584  14.618  0.7873 -0.0814  0.8444
  639TMC3    C1 9509   4.089   1.261  15.091 -1.1670 -0.3119  0.1329
  639TMC3    C2 9510   3.999   1.191  15.012  0.6900 -0.0798  0.4271
  639TMC3    C3 9511   3.981   1.060  15.044 -0.3796  0.4107  0.8102
  639TMC3    C4 9512   4.179   1.197  15.168  0.5785  0.4158 -0.6900
  639TMC3    C5 9513   4.162   1.069  15.198 -0.9540  0.5927  0.1334
  639TMC3    C6 9514   4.064   1.002  15.134 -1.1583  0.1513 -0.0995
  639TMC3     C 9515   4.151   1.360  14.998  0.1220  0.2274  0.7279
  639TMC3     O 9516   4.116   1.359  14.880  0.3986 -0.3718  0.6777
  639TMC3     H 9517   3.929   1.245  14.948  1.4112 -0.7207 -0.9176
  639TMC3    H1 9518   4.265   1.250  15.206  0.7129  0.9742 -1.7668
  639TMC3    H2 9519   4.054   0.896  15.149  0.3131  0.2468  1.5127
  639TMC3    C7 9520   4.286   0.996  15.230 -0.4267 -1.0332  0.6929
  639TMC3    C8 9521   3.959   0.973  14.930  0.2350 -0.1493  0.2859
  639TMC3    O1 9522   4.297   0.936  15.333  0.1543  0.0940  0.5091
  639TMC3    O2 9523   4.041   0.884  14.907  0.8171 -0.8455 -0.1771
  640MPD2     C 9524   0.234   0.581   9.692 -0.0990  0.6373  0.8627
  640MPD2    C1 9525   0.266   0.610   9.556 -0.1435  0.3643  0.0269
  640MPD2    C2 9526   0.227   0.727   9.503  0.5835  0.4998  0.2588
  640MPD2    C3 9527   0.159   0.828   9.573  0.0623 -0.4520  0.0131
  640MPD2    C4 9528   0.131   0.796   9.709 -0.1670  0.6897  0.1009
  640MPD2    C5 9529   0.169   0.677   9.766 -0.6373  0.3968 -0.4690
  640MPD2     H 9530   0.260   0.751   9.402  0.6023  0.4117  0.2441
  640MPD2    H1 9531   0.079   0.864   9.775 -0.0796  1.2997 -0.4534
  640MPD2    H2 9532   0.257   0.491   9.747  0.4721  0.9999  1.2225
  640MPD2    H3 9533   0.145   0.668   9.871  0.3275  0.0816 -0.2767
  640MPD2     N 9534   0.142   0.966   9.533 -0.0295  0.4519 -0.3636
  640MPD2    H5 9535   0.105   1.031   9.601 -0.3969  0.0521 -0.1826
  640MPD2    N1 9536   0.354   0.521   9.490  0.1274 -0.4310  0.6559
  640MPD2    H7 9537   0.374   0.431   9.534 -4.2167 -1.5023  0.3853
  641TMC3    C1 9538   0.524   0.442   9.347  0.1586 -0.1448 -0.3411
  641TMC3    C2 9539   0.495   0.325   9.419  0.2283  1.2313  0.2408
  641TMC3    C3 9540   0.597   0.240   9.442  0.1518 -0.8804 -0.2842
  641TMC3    C4 9541   0.652   0.466   9.309 -0.3059  0.2141  0.0046
  641TMC3    C5 9542   0.752   0.384   9.342 -0.3447  0.2121  0.7108
  641TMC3    C6 9543   0.731   0.267   9.407  0.3052  0.8604 -0.4221
  641TMC3     C 9544   0.429   0.547   9.375  0.3551 -0.1365  0.3354
  641TMC3     O 9545   0.458   0.654   9.328  0.1744 -0.2793  0.2199
  641TMC3     H 9546   0.390   0.302   9.404  0.5837 -1.2539  1.5647
  641TMC3    H1 9547   0.683   0.562   9.271  1.5509 -0.2632  0.3151
  641TMC3    H2 9548   0.806   0.190   9.421  0.0644  0.6027 -0.5435
  641TMC3    C7 9549   0.889   0.429   9.321  0.5549  0.0718  0.1777
  641TMC3    C8 9550   0.559   0.104   9.488 -0.0251  0.0388  0.2072
  641TMC3    O1 9551   0.898   0.507   9.234  0.0553  0.2035  0.5315
  641TMC3    O2 9552   0.443   0.065   9.462  0.1043  0.0260 -0.3731
  642TMC3    C1 9553   1.118   1.293  12.572  0.2029 -0.3267 -0.2007
  642TMC3    C2 9554   1.251   1.272  12.608 -0.2123 -0.4938 -0.2919
  642TMC3    C3 9555   1.277   1.155  12.678  0.1293 -0.6428 -0.1662
  642TMC3    C4 9556   1.025   1.193  12.592 -0.7475  0.0543 -0.3898
  642TMC3    C5 9557   1.059   1.077  12.664  1.3417  0.0324 -0.0311
  642TMC3    C6 9558   1.188   1.058  12.706  0.2573  0.6163 -0.7718
  642TMC3     C 9559   1.076   1.420  12.528  0.0294 -0.2592 -0.2383
  642TMC3     O 9560   1.165   1.478  12.461  0.0063  0.0312  0.1690
  642TMC3     H 9561   1.327   1.346  12.583  2.2204 -3.3428 -1.3393
  642TMC3    H1 9562   0.921   1.196  12.560 -0.4960  2.4132 -1.0022
  642TMC3    H2 9563   1.229   0.964  12.741  0.6010  1.5549  1.3192
  642TMC3    C7 9564   0.977   0.954  12.643  1.1092 -0.1687 -0.3146
  642TMC3    C8 9565   1.416   1.135  12.717 -0.7587 -0.4488  0.5088
  642TMC3    O1 9566   0.890   0.960  12.559 -0.2404  0.2995 -0.0763
  642TMC3    O2 9567   1.439   1.052  12.800  0.4225 -0.5461 -0.1803
  643TMC3    C1 9568   0.136   1.687   0.467  0.7704  0.5802  0.2127
  643TMC3    C2 9569   0.077   1.791   0.400  0.3767  0.3508 -0.0954
  643TMC3    C3 9570   0.103   1.803   0.270  0.4460  0.2997 -0.1637
  643TMC3    C4 9571   0.208   1.591   0.396  0.0749  0.0844  0.3916
  643TMC3    C5 9572   0.229   1.603   0.263 -0.5974  0.0379  0.4391
  643TMC3    C6 9573   0.179   1.711   0.201 -0.0887 -0.3949 -0.5050
  643TMC3     C 9574   0.119   1.680   0.607  0.2855  0.2748 -0.2107
  643TMC3     O 9575   0.056   1.771   0.662  0.2712  0.4933  0.0316
  643TMC3     H 9576   0.005   1.863   0.438  0.7319  1.0165 -0.6849
  643TMC3    H1 9577   0.244   1.496   0.436  1.2310  0.1337 -0.5091
  643TMC3    H2 9578   0.195   1.721   0.094  0.8946 -0.2368 -0.3434
  643TMC3    C7 9579   0.255   1.491   0.175 -0.3118 -0.2953 -0.3341
  643TMC3    C8 9580   0.040   1.913   0.197  0.4356 -0.5199  0.2812
  643TMC3    O1 9581   0.341   1.518   0.095  0.1762  0.1926 -0.0251
  643TMC3    O2 9582   4.685   1.980   0.250 -0.2924  0.0229 -0.3133
  644MPD2     C 9583   0.493   1.007   9.318  0.0115  0.2886  0.2694
  644MPD2    C1 9584   0.578   0.987   9.426  0.4360  0.0437 -1.0206
  644MPD2    C2 9585   0.631   1.097   9.493 -0.0733  0.5762  1.0568
  644MPD2    C3 9586   0.601   1.222   9.450  0.8497  0.2219 -0.5246
  644MPD2    C4 9587   0.532   1.233   9.331  0.6301  0.2041 -0.5044
  644MPD2    C5 9588   0.475   1.128   9.265  0.6261  0.6254  0.1944
  644MPD2     H 9589   0.681   1.096   9.589  3.7873 -4.1758 -0.9841
  644MPD2    H1 9590   0.490   1.327   9.298  1.0838 -1.0378 -4.6007
  644MPD2    H2 9591   0.452   0.924   9.261 -0.6758 -0.8185  2.3685
  644MPD2    H3 9592   0.402   1.143   9.187  1.3419 -2.6768 -1.1047
  644MPD2     N 9593   0.660   1.330   9.521 -0.4078 -0.0867 -0.4600
  644MPD2    H5 9594   0.706   1.303   9.608 -0.5267 -1.3242 -0.7815
  644MPD2    N1 9595   0.619   0.855   9.461 -0.5360  0.2349  0.4258
  644MPD2    H7 9596   0.572   0.773   9.425 -0.0775 -0.2480  0.9186
  645TMC3    C1 9597   0.741   1.551   9.567  0.2177 -0.1166 -0.7473
  645TMC3    C2 9598   0.830   1.496   9.655 -0.2286  0.4896  0.7369
  645TMC3    C3 9599   0.905   1.579   9.728  0.4902 -0.0581  0.1597
  645TMC3    C4 9600   0.725   1.683   9.555  0.4462 -0.2335  0.1555
  645TMC3    C5 9601   0.805   1.762   9.632 -0.0343  0.4339  0.4573
  645TMC3    C6 9602   0.892   1.719   9.726  0.6009 -0.6809  0.4593
  645TMC3     C 9603   0.650   1.468   9.493 -0.0650 -0.3879  0.2309
  645TMC3     O 9604   0.594   1.516   9.393 -0.1878  0.2331  0.2580
  645TMC3     H 9605   0.835   1.389   9.671  0.4403  0.4522  0.2695
  645TMC3    H1 9606   0.650   1.727   9.490  0.1078  0.1377  0.7999
  645TMC3    H2 9607   0.939   1.788   9.795  0.2876  0.4440 -0.4492
  645TMC3    C7 9608   0.801   1.901   9.604  0.6589  0.2448 -0.3913
  645TMC3    C8 9609   0.974   1.514   9.839 -0.5477  0.1487  0.2466
  645TMC3    O1 9610   0.771   1.926   9.489  0.9486  0.5902 -0.1669
  645TMC3    O2 9611   0.940   1.403   9.881 -0.4269  0.5438  0.1370
  646MPD2     C 9612   0.061   0.219  14.599  0.0458 -0.1490  0.6229
  646MPD2    C1 9613   4.683   0.227  14.683 -1.0305 -0.4278 -0.1406
  646MPD2    C2 9614   4.575   0.302  14.639 -0.2169 -0.1565  0.0976
  646MPD2    C3 9615   4.581   0.362  14.516 -0.1155 -0.1737 -0.7310
  646MPD2    C4 9616   4.694   0.355  14.434  0.0350  0.0554 -0.2244
  646MPD2    C5 9617   0.062   0.276  14.477  0.5993  0.0848 -0.0659
  646MPD2     H 9618   4.476   0.315  14.683  0.2965  1.1744  0.8460
  646MPD2    H1 9619   4.703   0.393  14.333  1.2927  3.1467  1.0537
  646MPD2    H2 9620   0.145   0.162  14.638 -0.3816 -0.3262  1.2915
  646MPD2    H3 9621   0.142   0.257  14.406  1.1544 -1.3318  0.9257
  646MPD2     N 9622   4.463   0.428  14.479 -0.1471  0.5964 -0.1964
  646MPD2    H5 9623   4.388   0.412  14.546 -0.2622 -1.4330 -0.8077
  646MPD2    N1 9624   4.681   0.152  14.802  0.6176 -0.0760 -0.0507
  646MPD2    H7 9625   0.031   0.105  14.827  1.1530  1.4646  1.0103
  647TMC3    C1 9626   4.606   0.078  15.019  0.5072  0.4753 -0.5679
  647TMC3    C2 9627   4.543   0.126  15.132 -0.2655  0.1968 -0.2521
  647TMC3    C3 9628   4.587   0.080  15.257  0.0165  0.1625  0.1965
  647TMC3    C4 9629   4.705   4.723  15.025 -0.1648 -0.2311 -0.0535
  647TMC3    C5 9630   0.002   4.671  15.149 -0.3547 -0.2550  0.2078
  647TMC3    C6 9631   4.683   4.721  15.267  0.0343 -0.1915  0.0026
  647TMC3     C 9632   4.577   0.154  14.894  0.7662 -0.5011  0.5282
  647TMC3     O 9633   4.488   0.237  14.900 -0.9189  0.2791  0.3783
  647TMC3     H 9634   4.456   0.190  15.124  0.7747  1.7998  1.3846
  647TMC3    H1 9635   0.035   4.692  14.945 -1.8356  2.0568 -2.3276
  647TMC3    H2 9636   4.735   4.687  15.356 -0.6861 -0.4066  0.3435
  647TMC3    C7 9637   0.117   4.587  15.168 -0.4129  0.4912  0.6581
  647TMC3    C8 9638   4.513   0.121  15.376  0.3275  0.1073  0.1354
  647TMC3    O1 9639   0.176   4.605  15.272 -0.5202 -0.3465  0.7214
  647TMC3    O2 9640   4.402   0.172  15.361  1.2280 -0.2853 -0.3507
  648TMC3    C1 9641   3.918   2.525  16.348  0.3378  0.2944  0.1091
  648TMC3    C2 9642   4.027   2.441  16.347 -0.3960  0.8435 -0.2594
  648TMC3    C3 9643   4.053   2.395  16.219 -0.1440 -0.4533 -0.5811
  648TMC3    C4 9644   3.850   2.581  16.245 -0.1512 -0.1845 -0.2806
  648TMC3    C5 9645   3.887   2.535  16.121  0.1288  0.0856  0.3150
  648TMC3    C6 9646   3.977   2.430  16.109  0.8325  0.0233 -0.7898
  648TMC3     C 9647   3.868   2.562  16.477 -0.5155  0.4696 -0.3144
  648TMC3     O 9648   3.823   2.674  16.493  0.4475 -0.2834 -0.3522
  648TMC3     H 9649   4.082   2.410  16.435 -0.7986  0.2460 -0.2136
  648TMC3    H1 9650   3.748   2.617  16.257 -0.3979 -1.0175  0.1174
  648TMC3    H2 9651   3.996   2.390  16.010  1.9804 -1.6299  0.1098
  648TMC3    C7 9652   3.799   2.557  16.005 -1.0181 -0.0729 -0.3454
  648TMC3    C8 9653   4.158   2.294  16.196  0.4591 -0.2396 -0.0465
  648TMC3    O1 9654   3.765   2.460  15.942  0.3268 -0.2456 -0.1905
  648TMC3    O2 9655   4.194   2.234  16.295 -0.3502 -0.0950  0.0458
  649TMC3    C1 9656   3.040   3.707  13.183 -1.0527 -0.1278 -0.9032
  649TMC3    C2 9657   3.171   3.716  13.235 -0.7210 -0.0567 -0.2779
  649TMC3    C3 9658   3.190   3.662  13.355 -0.4050 -0.9985 -0.3554
  649TMC3    C4 9659   2.936   3.641  13.246 -0.1337  0.4353 -0.7867
  649TMC3    C5 9660   2.962   3.597  13.368 -0.4827 -0.3147  0.1405
  649TMC3    C6 9661   3.084   3.607  13.428  0.0423  0.5098 -0.8208
  649TMC3     C 9662   3.006   3.746  13.043  0.5880  0.0327  0.2350
  649TMC3     O 9663   2.890   3.773  13.014  0.3269  0.0781  0.0998
  649TMC3     H 9664   3.250   3.763  13.177 -0.5840 -1.4712 -1.2473
  649TMC3    H1 9665   2.840   3.618  13.203 -0.6019  0.0901  0.4511
  649TMC3    H2 9666   3.093   3.580  13.533  0.8773 -0.4190 -1.1286
  649TMC3    C7 9667   2.845   3.545  13.439 -0.0428  0.4573 -0.6940
  649TMC3    C8 9668   3.325   3.649  13.421  0.6774  0.3459  0.0931
  649TMC3    O1 9669   2.737   3.596  13.417  0.1743  0.3107 -0.5465
  649TMC3    O2 9670   3.328   3.570  13.516  0.4580  0.2093  0.2665
  650TMC3    C1 9671   0.280   0.583  12.896 -0.2383 -0.1586 -0.2595
  650TMC3    C2 9672   0.253   0.709  12.940 -0.4215  0.1891  0.2946
  650TMC3    C3 9673   0.286   0.811  12.858  0.0326  0.2448 -0.1852
  650TMC3    C4 9674   0.331   0.556  12.774 -0.2553 -0.3344  0.9476
  650TMC3    C5 9675   0.366   0.663  12.695 -0.1718 -0.3358 -0.3202
  650TMC3    C6 9676   0.342   0.789  12.738 -0.0608 -0.2735  0.2197
  650TMC3     C 9677   0.228   0.470  12.972  0.8908 -0.1290  0.0048
  650TMC3     O 9678   0.120   0.498  13.027  0.1081 -0.2953 -0.9132
  650TMC3     H 9679   0.219   0.718  13.042 -1.8363  1.1776 -0.2587
  650TMC3    H1 9680   0.339   0.454  12.739 -1.5999 -0.0469 -0.1986
  650TMC3    H2 9681   0.368   0.870  12.671  0.8720 -0.5421  0.2551
  650TMC3    C7 9682   0.429   0.639  12.567  0.1658  0.4052  0.0948
  650TMC3    C8 9683   0.268   0.949  12.888  0.2030  0.5771  0.0364
  650TMC3    O1 9684   0.412   0.526  12.524  0.6767  0.4023 -0.1522
  650TMC3    O2 9685   0.339   1.032  12.829  0.0425 -0.4541  0.1615
  651MPD2     C 9686   4.072   2.709  10.626 -0.6716  0.0990 -0.2594
  651MPD2    C1 9687   4.105   2.842  10.628  0.3921  0.3119 -0.0089
  651MPD2    C2 9688   4.235   2.885  10.636  0.1043  0.2147  0.0147
  651MPD2    C3 9689   4.339   2.799  10.650  0.2939 -0.1493 -0.1776
  651MPD2    C4 9690   4.301   2.659  10.649 -1.0617 -0.0993  0.1081
  651MPD2    C5 9691   4.170   2.624  10.638  0.1051 -0.2393  0.5504
  651MPD2     H 9692   4.253   2.992  10.628  3.4956 -0.4792 -1.4998
  651MPD2    H1 9693   4.373   2.580  10.670 -1.9031 -0.8442  0.2149
  651MPD2    H2 9694   3.972   2.668  10.616  0.4865 -3.1423  1.5339
  651MPD2    H3 9695   4.145   2.519  10.633 -1.8157  0.1523  2.1862
  651MPD2     N 9696   4.473   2.851  10.667 -0.4091  0.9867 -0.4901
  651MPD2    H5 9697   4.480   2.951  10.653  1.6755  0.9827  0.6631
  651MPD2    N1 9698   4.008   2.944  10.626 -0.1607  0.3425  0.4262
  651MPD2    H7 9699   4.041   3.040  10.628  1.6485 -0.2474 -1.0332
  652TMC3    C1 9700   0.200   2.858  10.636  0.0811  0.2788  0.3327
  652TMC3    C2 9701   0.088   2.807  10.700 -0.5307 -0.6430 -0.3105
  652TMC3    C3 9702   4.705   2.824  10.636 -0.4035 -0.2276  0.4916
  652TMC3    C4 9703   0.201   2.903  10.508 -0.0909  0.2402 -0.1336
  652TMC3    C5 9704   0.075   2.898  10.445  0.1019  0.1442 -0.1093
  652TMC3    C6 9705   4.693   2.878  10.509  0.1106 -1.3395 -0.4479
  652TMC3     C 9706   0.326   2.857  10.715 -0.3280 -0.0641  0.8243
  652TMC3     O 9707   0.313   2.810  10.829 -0.1426  0.2618 -0.7999
  652TMC3     H 9708   0.099   2.779  10.804  0.2001  0.4767 -0.0867
  652TMC3    H1 9709   0.296   2.894  10.457 -0.5958  0.8909 -1.1825
  652TMC3    H2 9710   4.602   2.878  10.451  0.7668  2.9983 -1.4800
  652TMC3    C7 9711   0.063   2.937  10.307  0.6173  0.0550 -0.1303
  652TMC3    C8 9712   4.583   2.771  10.693 -0.4448 -0.1941  0.4704
  652TMC3    O1 9713   4.701   2.907  10.244 -0.2163 -0.3483  0.0298
  652TMC3    O2 9714   4.588   2.659  10.743 -0.0389 -0.0463  0.7538
  653MPD2     C 9715   2.734   2.560   0.086  0.0761 -0.2242 -0.0911
  653MPD2    C1 9716   2.708   2.658  17.733 -0.8406  0.4992  0.5981
  653MPD2    C2 9717   2.648   2.617  17.615 -0.2287 -0.4635 -0.2093
  653MPD2    C3 9718   2.634   2.487  17.581  1.0072  0.2697 -0.7536
  653MPD2    C4 9719   2.677   2.390  17.670  0.1755  0.3760  0.4518
  653MPD2    C5 9720   2.726   2.431   0.044  0.0573 -0.4360  0.4678
  653MPD2     H 9721   2.613   2.697  17.550 -1.3135 -0.5772  0.2353
  653MPD2    H1 9722   2.667   2.284  17.650 -0.3369  0.8462 -1.8410
  653MPD2    H2 9723   2.788   2.591   0.175  1.6732  0.6914 -1.3896
  653MPD2    H3 9724   2.773   2.355   0.106 -0.8612 -2.7357 -1.6760
  653MPD2     N 9725   2.573   2.450  17.460  0.1205 -0.1979  0.4331
  653MPD2    H5 9726   2.549   2.516  17.387  2.3492  0.4674  0.3195
  653MPD2    N1 9727   2.724   2.794   0.008 -0.4641  0.1759 -0.1626
  653MPD2    H7 9728   2.690   2.855  17.679  0.7140  0.3323 -0.5889
  654TMC3    C1 9729   2.532   2.315  17.268 -0.4913  0.0178  0.0610
  654TMC3    C2 9730   2.509   2.428  17.198  0.0477  0.4364 -0.2041
  654TMC3    C3 9731   2.452   2.398  17.080  0.0442 -0.1634 -0.4050
  654TMC3    C4 9732   2.505   2.184  17.212 -0.4411 -0.2660  0.1084
  654TMC3    C5 9733   2.434   2.167  17.100 -0.0554 -0.7083  0.4113
  654TMC3    C6 9734   2.406   2.278  17.032  0.0180 -0.0133  0.2864
  654TMC3     C 9735   2.558   2.323  17.412 -0.0990 -0.5732  0.0121
  654TMC3     O 9736   2.553   2.216  17.471  0.0729 -0.1994 -0.1288
  654TMC3     H 9737   2.556   2.521  17.229 -1.6378  0.5288  2.0991
  654TMC3    H1 9738   2.525   2.105  17.283 -1.1853 -1.0975 -0.6154
  654TMC3    H2 9739   2.353   2.284  16.938  1.0050  1.1245 -0.2011
  654TMC3    C7 9740   2.431   2.045  17.032  0.4840  1.1203  0.7949
  654TMC3    C8 9741   2.451   2.503  16.987 -0.3674  0.2107  0.0488
  654TMC3    O1 9742   2.449   2.051  16.912 -0.9015  0.6148  0.0780
  654TMC3    O2 9743   2.379   2.600  17.021  0.0040 -0.1433  1.3054
  655MPD2     C 9744   4.537   2.873  15.802 -0.3941 -0.2793  0.4935
  655MPD2    C1 9745   4.420   2.810  15.761 -0.3342 -0.1497  0.0808
  655MPD2    C2 9746   4.422   2.694  15.677  0.0796 -0.0605  0.0718
  655MPD2    C3 9747   4.550   2.643  15.641 -0.1464 -0.4576  0.5762
  655MPD2    C4 9748   4.664   2.705  15.693  0.0812 -0.3266 -0.4900
  655MPD2    C5 9749   4.659   2.815  15.769  0.7480 -0.2985 -0.0579
  655MPD2     H 9750   4.324   2.658  15.647 -0.0169  0.7272 -0.5822
  655MPD2    H1 9751   0.029   2.675  15.673 -0.1566 -1.5189  0.0972
  655MPD2    H2 9752   4.541   2.961  15.865  1.8090  0.2010 -0.2791
  655MPD2    H3 9753   0.006   2.876  15.802  0.8781  0.2353 -1.4091
  655MPD2     N 9754   4.576   2.532  15.553 -0.0514  0.0603  0.2338
  655MPD2    H5 9755   4.668   2.516  15.513  0.2365  1.1733  0.4534
  655MPD2    N1 9756   4.290   2.848  15.800  0.1071  0.0010  0.2926
  655MPD2    H7 9757   4.210   2.797  15.765 -0.2893  1.1712 -0.5190
  656TMC3    C1 9758   4.124   2.962  15.922  0.3065 -0.7793  0.0683
  656TMC3    C2 9759   4.073   2.952  16.042  0.3135 -0.2292 -0.3786
  656TMC3    C3 9760   3.979   3.037  16.076  0.2989  0.0597 -0.7457
  656TMC3    C4 9761   4.079   3.049  15.832 -0.0675 -0.6214 -0.6640
  656TMC3    C5 9762   3.977   3.133  15.861 -0.4025  0.4267  0.4911
  656TMC3    C6 9763   3.926   3.125  15.994  1.0974 -0.5133  0.4792
  656TMC3     C 9764   4.264   2.921  15.915 -0.4677  0.4476  0.8079
  656TMC3     O 9765   4.334   2.976  16.003 -0.5953 -0.0636  0.9088
  656TMC3     H 9766   4.119   2.883  16.112  0.6494 -1.1296 -1.5023
  656TMC3    H1 9767   4.129   3.073  15.739 -0.9024  0.6517 -0.7897
  656TMC3    H2 9768   3.845   3.188  16.029  1.1702  0.5318 -1.2538
  656TMC3    C7 9769   3.923   3.221  15.755  1.1031 -1.0106  0.4321
  656TMC3    C8 9770   3.898   2.984  16.187  0.1009  1.0474 -0.2447
  656TMC3    O1 9771   3.984   3.229  15.646  0.2718  0.1404  0.1973
  656TMC3    O2 9772   3.897   2.858  16.202  0.2115  0.0057 -0.1487
  657TMC3    C1 9773   3.448   1.644  15.475 -0.1227 -0.2511 -0.4162
  657TMC3    C2 9774   3.488   1.689  15.599 -0.4793 -0.5420  0.7322
  657TMC3    C3 9775   3.409   1.784  15.648  0.1745 -0.2775  0.7135
  657TMC3    C4 9776   3.327   1.684  15.418  0.1014 -0.0999 -0.1835
  657TMC3    C5 9777   3.237   1.755  15.484  0.2447  0.5094 -0.3131
  657TMC3    C6 9778   3.279   1.813  15.599  0.4946 -0.1285 -0.5259
  657TMC3     C 9779   3.541   1.542  15.411  0.1769  0.4205 -0.2159
  657TMC3     O 9780   3.494   1.450  15.350 -0.2765  0.1523 -0.6376
  657TMC3     H 9781   3.567   1.643  15.656 -0.5057 -0.5736  0.7438
  657TMC3    H1 9782   3.303   1.655  15.316  1.1066 -1.2616 -0.0838
  657TMC3    H2 9783   3.215   1.885  15.649 -0.9707 -1.4208 -0.5378
  657TMC3    C7 9784   3.127   1.818  15.421  0.0618 -0.0959  0.3404
  657TMC3    C8 9785   3.459   1.846  15.774  0.2984 -0.4529 -1.3514
  657TMC3    O1 9786   3.094   1.929  15.457  0.3859 -0.0421  0.1328
  657TMC3    O2 9787   3.571   1.809  15.814  0.0264  0.4597  0.4703
  658MPD2     C 9788   4.682   2.921  15.084  0.7699  0.2138 -0.7280
  658MPD2    C1 9789   4.600   2.816  15.040 -0.2410  0.6349 -0.0902
  658MPD2    C2 9790   4.537   2.849  14.923 -0.2781 -0.3254 -0.1269
  658MPD2    C3 9791   4.525   2.975  14.866  0.0544  0.1758 -0.1902
  658MPD2    C4 9792   4.595   3.081  14.924 -0.5967 -0.1241  0.1807
  658MPD2    C5 9793   4.668   3.052  15.033  0.1387  1.2668  0.6727
  658MPD2     H 9794   4.472   2.778  14.873  1.2302 -2.0655  0.4302
  658MPD2    H1 9795   4.596   3.186  14.897  1.8879 -0.1652  0.1130
  658MPD2    H2 9796   0.014   2.910  15.167  2.5081 -0.1549 -2.2000
  658MPD2    H3 9797   4.723   3.134  15.078  2.0930  1.6664 -2.4574
  658MPD2     N 9798   4.459   2.982  14.742  0.2684 -0.2500 -0.3749
  658MPD2    H5 9799   4.424   2.895  14.703 -0.2152 -0.4171  0.4412
  658MPD2    N1 9800   4.604   2.688  15.104  0.2822  0.2793  0.5757
  658MPD2    H7 9801   4.644   2.690  15.197  0.5346  1.2827  0.4533
  659TMC3    C1 9802   4.503   2.476  15.144  0.2828  0.0149  0.2683
  659TMC3    C2 9803   4.554   2.485  15.277  0.1444 -0.4212  0.5618
  659TMC3    C3 9804   4.492   2.412  15.370 -0.4849  0.3590  0.0943
  659TMC3    C4 9805   4.406   2.382  15.110  0.2279  0.4476  0.3213
  659TMC3    C5 9806   4.351   2.307  15.212  0.6711 -0.2520  0.0396
  659TMC3    C6 9807   4.393   2.321  15.341  0.4595 -0.2824  0.6494
  659TMC3     C 9808   4.534   2.579  15.052 -0.4120  0.1397  0.3803
  659TMC3     O 9809   4.497   2.561  14.935  0.4335 -0.5319  0.1121
  659TMC3     H 9810   4.624   2.561  15.310 -0.5081  0.3372  0.2061
  659TMC3    H1 9811   4.371   2.386  15.007  3.1638 -1.3301 -0.7487
  659TMC3    H2 9812   4.354   2.259  15.421 -0.0202 -0.9128 -0.0828
  659TMC3    C7 9813   4.209   2.280  15.207 -0.2230  0.1106  0.2948
  659TMC3    C8 9814   4.473   2.463  15.503 -0.1542 -1.1335 -0.8138
  659TMC3    O1 9815   4.143   2.257  15.307 -0.5043 -0.0644  0.1005
  659TMC3    O2 9816   4.366   2.429  15.553  0.8577 -0.0603 -0.3579
  660MPD2     C 9817   2.612   1.535  12.780 -0.1795 -0.7569 -0.4430
  660MPD2    C1 9818   2.497   1.488  12.723  0.4576  0.4540  0.3474
  660MPD2    C2 9819   2.419   1.395  12.792 -0.4985  0.5519  0.0824
  660MPD2    C3 9820   2.454   1.362  12.924 -0.9320  0.4258 -0.4293
  660MPD2    C4 9821   2.574   1.403  12.977  0.0576 -0.3978  0.3815
  660MPD2    C5 9822   2.649   1.498  12.915 -0.2906  0.7633  0.0707
  660MPD2     H 9823   2.328   1.356  12.749  1.0487 -0.3138 -2.3725
  660MPD2    H1 9824   2.613   1.381  13.076  2.2725  3.4667  0.3510
  660MPD2    H2 9825   2.661   1.621  12.735 -0.0766 -1.6770 -2.0988
  660MPD2    H3 9826   2.733   1.547  12.963  0.2180 -0.4847  0.4498
  660MPD2     N 9827   2.367   1.290  13.007 -0.0617 -0.1913  0.3744
  660MPD2    H5 9828   2.409   1.265  13.095  1.2514  0.7930  0.0196
  660MPD2    N1 9829   2.448   1.545  12.602 -0.0149 -0.4607  0.6484
  660MPD2    H7 9830   2.515   1.607  12.558  0.1535 -0.6502  0.6328
  661TMC3    C1 9831   2.278   1.598  12.442  0.0812  0.2813  0.5805
  661TMC3    C2 9832   2.339   1.712  12.389 -0.2034  0.2787 -0.0050
  661TMC3    C3 9833   2.260   1.812  12.320 -0.4477 -0.1689 -0.0866
  661TMC3    C4 9834   2.142   1.584  12.428 -0.9179  0.4661 -0.8123
  661TMC3    C5 9835   2.074   1.674  12.355  0.2555  0.2382  0.1647
  661TMC3    C6 9836   2.127   1.796  12.313 -0.4987 -1.3687 -0.5540
  661TMC3     C 9837   2.339   1.503  12.529 -0.5988 -0.4088  0.1023
  661TMC3     O 9838   2.266   1.403  12.541 -0.1102  0.1886  0.4745
  661TMC3     H 9839   2.447   1.713  12.392 -0.1417 -1.9642 -1.4856
  661TMC3    H1 9840   2.090   1.491  12.445 -0.0997  0.1000 -0.3235
  661TMC3    H2 9841   2.060   1.858  12.255  0.9247  0.1866 -0.5317
  661TMC3    C7 9842   1.927   1.662  12.356 -0.3396  0.3443 -0.1188
  661TMC3    C8 9843   2.332   1.892  12.217 -0.0797  0.2406 -0.0573
  661TMC3    O1 9844   1.860   1.764  12.376  0.2826  0.2056 -0.2036
  661TMC3    O2 9845   2.443   1.856  12.187  0.3314  0.2305 -0.4178
  662MPD2     C 9846   2.206   1.265   0.041 -0.0277  0.1791  0.0720
  662MPD2    C1 9847   2.204   1.264  17.648 -0.2060 -0.0616  0.0205
  662MPD2    C2 9848   2.217   1.390  17.595 -0.5122 -0.4379 -0.2370
  662MPD2    C3 9849   2.238   1.508  17.672  0.0846  0.3079  0.8050
  662MPD2    C4 9850   2.253   1.490   0.057  0.4624  0.3827 -0.2904
  662MPD2    C5 9851   2.232   1.371   0.121 -0.4519  0.5127 -0.4792
  662MPD2     H 9852   2.204   1.403  17.488  2.9463 -0.6914 -0.6577
  662MPD2    H1 9853   2.276   1.570   0.126  2.4009  0.3260 -0.8461
  662MPD2    H2 9854   2.181   1.171   0.089 -1.1774 -0.1373 -1.1701
  662MPD2    H3 9855   2.242   1.363   0.228 -1.3337 -2.4453 -0.6390
  662MPD2     N 9856   2.252   1.637  17.628  0.4097  0.4296  0.5007
  662MPD2    H5 9857   2.249   1.716  17.692  0.0901  1.1802 -0.4439
  662MPD2    N1 9858   2.174   1.149  17.576  0.2760 -0.6839 -0.3277
  662MPD2    H7 9859   2.150   1.072  17.637  2.9337 -1.9605 -0.8841
  663TMC3    C1 9860   2.159   0.998  17.400  0.2309 -0.2778 -0.3415
  663TMC3    C2 9861   2.045   0.946  17.455 -0.1537  1.1639 -0.1310
  663TMC3    C3 9862   2.011   0.820  17.415 -1.0493 -0.2455 -0.4005
  663TMC3    C4 9863   2.253   0.920  17.343  0.1354 -0.1846 -0.3689
  663TMC3    C5 9864   2.225   0.796  17.320  0.2484 -0.0701  0.2711
  663TMC3    C6 9865   2.097   0.744  17.341  0.3662  0.2624  0.1652
  663TMC3     C 9866   2.196   1.131  17.441 -0.7718 -1.2396  0.5150
  663TMC3     O 9867   2.264   1.202  17.369 -0.7318 -0.6774 -0.6839
  663TMC3     H 9868   1.968   1.013  17.491 -0.0693  1.5050 -0.5825
  663TMC3    H1 9869   2.346   0.964  17.309  0.5777 -0.8931 -0.0895
  663TMC3    H2 9870   2.083   0.641  17.310  3.2289 -0.1466  0.2037
  663TMC3    C7 9871   2.341   0.707  17.304  0.3044  0.8119  0.2222
  663TMC3    C8 9872   1.937   0.735  17.512 -0.5381  0.0443  0.1594
  663TMC3    O1 9873   2.448   0.755  17.263 -0.2251  0.3430 -0.9012
  663TMC3    O2 9874   1.976   0.621  17.504  0.1159  0.2164 -0.4281
  664MPD2     C 9875   0.338   3.995  17.358 -0.3449 -0.2027  0.1944
  664MPD2    C1 9876   0.341   4.128  17.393 -0.0539  0.4925 -0.4186
  664MPD2    C2 9877   0.235   4.181  17.472  0.0987 -0.1481 -0.6036
  664MPD2    C3 9878   0.131   4.098  17.514 -0.2089 -0.8738  0.1300
  664MPD2    C4 9879   0.135   3.967  17.484  0.1020  0.0507  0.2948
  664MPD2    C5 9880   0.234   3.917  17.410 -0.5292 -0.0425  0.2157
  664MPD2     H 9881   0.240   4.283  17.509  2.8594 -0.9695  1.2814
  664MPD2    H1 9882   0.054   3.898  17.503  1.1687 -0.6016  2.4531
  664MPD2    H2 9883   0.415   3.943  17.301 -0.6498  0.6088 -0.9634
  664MPD2    H3 9884   0.240   3.816  17.372 -0.7420 -0.4828  1.3411
  664MPD2     N 9885   0.038   4.140  17.608 -0.6382  0.4320  0.5330
  664MPD2    H5 9886   4.723   4.068  17.657  1.5979 -0.6775  1.2191
  664MPD2    N1 9887   0.443   4.217  17.350  0.2992 -0.5274  0.6054
  664MPD2    H7 9888   0.462   4.304  17.399 -0.8578  0.8667 -1.4048
  665TMC3    C1 9889   4.704   4.293   0.029  0.1683  0.6312  0.2176
  665TMC3    C2 9890   0.009   4.200   0.119 -0.2617 -0.9983 -0.1174
  665TMC3    C3 9891   4.718   4.228   0.248 -0.1609  0.4719  0.1230
  665TMC3    C4 9892   4.635   4.411   0.052 -0.0118 -0.1450  0.0745
  665TMC3    C5 9893   4.611   4.431   0.181  0.4753 -0.1937  0.2281
  665TMC3    C6 9894   4.656   4.347   0.279  0.5812  0.0505  0.2238
  665TMC3     C 9895   0.021   4.273  17.639 -0.1364 -0.0555  0.2652
  665TMC3     O 9896   0.026   4.370  17.566  0.3175  0.3041  0.4257
  665TMC3     H 9897   0.067   4.110   0.098 -0.3772 -0.9759 -0.5353
  665TMC3    H1 9898   4.591   4.471  17.718 -0.3044  0.1238  0.4413
  665TMC3    H2 9899   4.649   4.365   0.386 -0.8901  0.6795  0.0166
  665TMC3    C7 9900   4.574   4.566   0.227 -0.6033  0.3576  0.0417
  665TMC3    C8 9901   0.017   4.137   0.350  0.5105  0.3913 -0.2570
  665TMC3    O1 9902   4.503   4.639   0.157 -0.3931 -0.1794  0.2738
  665TMC3    O2 9903   4.676   4.126   0.448  0.5086  0.3980  0.1098
  666TMC3    C1 9904   4.240   4.443   9.643  0.3347  0.0173  0.0630
  666TMC3    C2 9905   4.335   4.339   9.654  0.0208 -0.0507 -0.7915
  666TMC3    C3 9906   4.457   4.361   9.600  0.0005 -0.3001  0.5409
  666TMC3    C4 9907   4.269   4.552   9.568 -0.4502 -0.4783  0.6237
  666TMC3    C5 9908   4.399   4.580   9.536 -0.1576  0.4151 -0.0666
  666TMC3    C6 9909   4.486   4.475   9.528 -0.4906  0.4915  0.3896
  666TMC3     C 9910   4.105   4.444   9.712 -0.5978 -0.6359 -0.5232
  666TMC3     O 9911   4.033   4.536   9.682  0.2399 -0.3924 -0.1680
  666TMC3     H 9912   4.313   4.260   9.724  1.5415  1.4443  1.4016
  666TMC3    H1 9913   4.204   4.640   9.573 -0.7089 -0.5455 -1.4243
  666TMC3    H2 9914   4.588   4.487   9.494 -0.1989 -1.0668  0.6914
  666TMC3    C7 9915   4.449   4.693   9.608  0.2533 -0.1206  0.2895
  666TMC3    C8 9916   4.566   4.312   9.675 -0.2960  0.2465 -0.0112
  666TMC3    O1 9917   4.390   0.000   9.707 -0.1034 -0.5332  0.5048
  666TMC3    O2 9918   4.550   4.201   9.724  0.1165  0.2612 -0.9306
  667MPD2     C 9919   1.752   3.972  14.548 -0.2570  0.3805  0.6197
  667MPD2    C1 9920   1.686   4.028  14.657 -0.0600  0.0541 -0.5003
  667MPD2    C2 9921   1.586   3.956  14.711  0.0249 -0.4443  0.0999
  667MPD2    C3 9922   1.559   3.826  14.665 -0.1750 -0.4129  0.0708
  667MPD2    C4 9923   1.631   3.778  14.562  0.5641 -0.1077 -0.1036
  667MPD2    C5 9924   1.717   3.853  14.491 -0.4437  0.1504  0.8924
  667MPD2     H 9925   1.534   4.001  14.795 -1.0079 -0.8154 -0.3377
  667MPD2    H1 9926   1.606   3.677  14.530 -1.5393  0.6509 -0.8387
  667MPD2    H2 9927   1.827   4.021  14.485  1.2133 -1.2257  1.1285
  667MPD2    H3 9928   1.766   3.825  14.398 -1.3740 -1.8915  1.0175
  667MPD2     N 9929   1.462   3.742  14.728 -0.2629 -0.1459 -0.0842
  667MPD2    H5 9930   1.464   3.643  14.705  0.8745 -0.2291  0.3803
  667MPD2    N1 9931   1.727   4.152  14.713  0.2276  0.9882  0.1621
  667MPD2    H7 9932   1.655   4.187  14.776 -0.7248  0.0196 -0.3743
  668TMC3    C1 9933   1.864   4.338  14.769 -0.4880  0.0358  0.4778
  668TMC3    C2 9934   1.937   4.446  14.715 -0.9472  0.0101  0.8458
  668TMC3    C3 9935   1.952   4.558  14.794  0.5698 -0.9217 -0.8542
  668TMC3    C4 9936   1.814   4.337  14.896  0.9726  0.3080  0.3063
  668TMC3    C5 9937   1.812   4.462  14.959  0.0359  0.0300  0.1170
  668TMC3    C6 9938   1.884   4.570  14.912 -0.6668  0.2680 -0.4888
  668TMC3     C 9939   1.840   4.228  14.680 -0.1378 -0.6744 -0.2054
  668TMC3     O 9940   1.908   4.231  14.580  0.3281 -0.8919 -0.4678
  668TMC3     H 9941   1.972   4.443  14.612  1.4165 -0.9220  1.6544
  668TMC3    H1 9942   1.783   4.245  14.945 -0.2571 -0.2471 -1.5231
  668TMC3    H2 9943   1.881   4.663  14.969  0.7495 -0.4718  0.8079
  668TMC3    C7 9944   1.767   4.470  15.096 -0.4443  0.4142  0.1056
  668TMC3    C8 9945   2.035   4.669  14.760 -0.0599  0.0906  0.0144
  668TMC3    O1 9946   1.817   4.559  15.168  0.0480 -0.0319  0.1742
  668TMC3    O2 9947   2.038   0.027  14.834 -0.2903  0.3009  0.9917
  669TMC3    C1 9948   4.289   4.140  14.933 -0.6045  0.1478 -0.1546
  669TMC3    C2 9949   4.178   4.207  14.903  0.3563 -0.2020 -1.0027
  669TMC3    C3 9950   4.171   4.272  14.785  0.2134 -0.5835  0.7264
  669TMC3    C4 9951   4.407   4.151  14.863 -0.0152  0.0745 -0.7241
  669TMC3    C5 9952   4.394   4.222  14.741  0.2159  0.3940 -0.6078
  669TMC3    C6 9953   4.278   4.285  14.703  0.3773  0.3417  0.2121
  669TMC3     C 9954   4.277   4.029  15.027  0.2760 -0.3743  0.2719
  669TMC3     O 9955   4.170   4.015  15.084  0.3777  0.0222 -0.4243
  669TMC3     H 9956   4.089   4.211  14.965  1.1255  0.4905  0.0395
  669TMC3    H1 9957   4.502   4.100  14.873 -2.0527 -3.7032 -0.5096
  669TMC3    H2 9958   4.275   4.348  14.615 -0.2173 -0.8661 -0.6437
  669TMC3    C7 9959   4.520   4.248  14.673 -0.1947 -0.4596  0.1342
  669TMC3    C8 9960   4.089   4.390  14.777  0.0120 -0.7048 -0.3009
  669TMC3    O1 9961   4.619   4.243  14.741 -0.0404  0.1837 -0.0592
  669TMC3    O2 9962   4.147   4.497  14.769 -0.1600 -0.0619 -0.0630
  670MPD2     C 9963   2.385   1.955  13.395  0.1107 -0.4100 -0.7119
  670MPD2    C1 9964   2.501   2.003  13.444  0.3038 -0.1065  0.0013
  670MPD2    C2 9965   2.540   1.966  13.569  0.1984  0.0795  1.0469
  670MPD2    C3 9966   2.452   1.903  13.654 -0.5642  0.5802  0.0607
  670MPD2    C4 9967   2.331   1.855  13.604 -0.2023 -0.0605  0.3656
  670MPD2    C5 9968   2.294   1.885  13.473 -0.2524  0.2063  0.0105
  670MPD2     H 9969   2.634   1.993  13.616  2.1030 -0.9299 -2.2173
  670MPD2    H1 9970   2.256   1.801  13.662 -1.9166  2.9863  0.9989
  670MPD2    H2 9971   2.346   1.985  13.298  0.4432 -0.6465 -0.9184
  670MPD2    H3 9972   2.193   1.855  13.446 -0.2088 -1.6554  1.8636
  670MPD2     N 9973   2.496   1.888  13.780 -0.4849 -0.5280 -0.1371
  670MPD2    H5 9974   2.580   1.938  13.808 -0.5700  0.8241 -2.3447
  670MPD2    N1 9975   2.586   2.098  13.388 -0.3750 -0.1937 -0.3260
  670MPD2    H7 9976   2.663   2.122  13.450  0.3699 -0.8661 -0.9930
  671TMC3    C1 9977   2.509   1.787  14.001  0.1841 -0.0662  0.5652
  671TMC3    C2 9978   2.645   1.788  13.986 -0.8975 -0.4792 -0.8588
  671TMC3    C3 9979   2.713   1.692  14.064  0.3350 -0.4573  0.1012
  671TMC3    C4 9980   2.442   1.710  14.094  0.4783  0.0550 -0.2084
  671TMC3    C5 9981   2.511   1.612  14.172 -0.0968 -0.2224 -0.5173
  671TMC3    C6 9982   2.647   1.602  14.144  0.2457 -0.1755  0.7433
  671TMC3     C 9983   2.425   1.820  13.879  0.3365 -0.5265 -0.4017
  671TMC3     O 9984   2.316   1.763  13.869  0.4189 -0.4172 -0.0414
  671TMC3     H 9985   2.699   1.821  13.898  0.4353 -0.9590 -0.2205
  671TMC3    H1 9986   2.336   1.726  14.109  0.6558  2.0230 -0.9895
  671TMC3    H2 9987   2.703   1.522  14.189  2.4844  0.1817 -1.3963
  671TMC3    C7 9988   2.447   1.483  14.178 -0.4434 -0.1622 -1.1339
  671TMC3    C8 9989   2.841   1.644  14.022 -0.4587  0.2507  0.2416
  671TMC3    O1 9990   2.510   1.378  14.188  0.2115 -0.3705  0.3910
  671TMC3    O2 9991   2.851   1.518  14.010  0.2895  0.2871 -0.5360
  672MPD2     C 9992   2.335   2.490   1.194  0.3391 -0.0436 -0.4096
  672MPD2    C1 9993   2.457   2.444   1.163 -0.2559  0.2108 -0.1647
  672MPD2    C2 9994   2.573   2.512   1.202  0.3471 -1.0545  0.9025
  672MPD2    C3 9995   2.564   2.630   1.271  0.8938  0.2152  0.9441
  672MPD2    C4 9996   2.437   2.674   1.316 -0.3154  0.5400  0.6273
  672MPD2    C5 9997   2.330   2.598   1.274 -0.2578  0.0414 -0.6102
  672MPD2     H 9998   2.663   2.459   1.175 -0.1731 -0.1487 -2.6398
  672MPD2    H1 9999   2.425   2.766   1.373  0.9877  0.4545  1.0408
  672MPD2    H210000   2.243   2.437   1.171  0.7154 -0.6258 -0.5666
  672MPD2    H310001   2.233   2.633   1.310  0.8325  0.1006  2.2585
  672MPD2     N10002   2.683   2.713   1.285  0.3935 -0.5725  0.1481
  672MPD2    H510003   2.677   2.804   1.330  0.2981  0.2929 -1.5897
  672MPD2    N110004   2.480   2.329   1.073  0.1713 -1.5992 -0.0516
  672MPD2    H710005   2.578   2.320   1.048  0.5956 -2.0240  1.7256
  673TMC3    C110006   2.433   2.151   0.928 -0.0799  0.1320  0.4446
  673TMC3    C210007   2.562   2.110   0.918 -0.7808 -0.0596  0.2472
  673TMC3    C310008   2.602   2.042   0.808  0.6623  0.2305  0.1600
  673TMC3    C410009   2.346   2.138   0.822  0.2480 -0.1469  0.4710
  673TMC3    C510010   2.395   2.086   0.710 -0.2244  0.1595 -0.6186
  673TMC3    C610011   2.519   2.028   0.699 -0.2668 -0.3314  0.2889
  673TMC3     C10012   2.382   2.238   1.028  0.1306 -0.3929  0.2002
  673TMC3     O10013   2.263   2.233   1.050 -0.5595  0.2946  0.2344
  673TMC3     H10014   2.644   2.140   0.983  0.2534  1.4720 -1.7533
  673TMC3    H110015   2.240   2.157   0.825 -0.1952 -2.4216 -0.3115
  673TMC3    H210016   2.546   1.972   0.610 -1.0237 -1.4769  0.7862
  673TMC3    C710017   2.324   2.133   0.591 -0.2731 -0.0970  0.1972
  673TMC3    C810018   2.720   1.954   0.803 -0.3680 -0.5634 -0.1289
  673TMC3    O110019   2.311   2.057   0.494 -0.2071 -0.2082  0.5606
  673TMC3    O210020   2.772   1.936   0.692 -0.0693 -0.1644 -0.5563
  674MPD2     C10021   2.256   2.649  17.631 -0.8758 -0.0066  0.4571
  674MPD2    C110022   2.219   2.525  17.671 -0.2600  0.0813  0.5533
  674MPD2    C210023   2.087   2.503  17.709  0.0333  0.2755  0.0805
  674MPD2    C310024   2.002   2.605  17.712 -0.4412  0.6715 -0.8664
  674MPD2    C410025   2.035   2.730  17.670  0.0934 -0.5607  0.0654
  674MPD2    C510026   2.164   2.748  17.636 -0.1126  0.5599 -0.1688
  674MPD2     H10027   2.055   2.416   0.022 -1.6880  0.4001 -0.6866
  674MPD2    H110028   1.969   2.816  17.673 -0.5302 -1.0298 -0.3677
  674MPD2    H210029   2.361   2.673  17.612 -0.4687 -2.1279  0.0519
  674MPD2    H310030   2.197   2.850  17.625 -0.6039  0.7716  0.3770
  674MPD2     N10031   1.870   2.582   0.021 -0.3748  0.7592 -0.7535
  674MPD2    H510032   1.838   2.487   0.038 -1.4021  1.0453 -1.0925
  674MPD2    N110033   2.321   2.421  17.684  0.2892  0.7344  0.5622
  674MPD2    H710034   2.420   2.441  17.671  0.9038 -3.7247 -1.4600
  675TMC3    C110035   2.371   2.201   0.028  0.1244  0.0274 -0.7597
  675TMC3    C210036   2.323   2.073   0.034  0.3594  0.4158 -0.6032
  675TMC3    C310037   2.357   1.992   0.142  0.7532  0.3349  0.2244
  675TMC3    C410038   2.439   2.264   0.128  0.4483 -0.5242  0.5395
  675TMC3    C510039   2.474   2.172   0.230  0.0352 -0.3425 -0.3561
  675TMC3    C610040   2.443   2.039   0.241  0.2374 -0.3870 -0.0430
  675TMC3     C10041   2.280   2.292  17.705  0.3757  0.0819 -0.0291
  675TMC3     O10042   2.173   2.242  17.672 -0.4343  0.0373 -0.0199
  675TMC3     H10043   2.234   2.044  17.724  0.3259 -1.1713  0.2854
  675TMC3    H110044   2.475   2.366   0.127  1.2197 -0.8028 -0.2247
  675TMC3    H210045   2.481   1.968   0.314  0.3192  0.1054  0.3886
  675TMC3    C710046   2.583   2.202   0.322 -0.2057 -0.7854  0.3643
  675TMC3    C810047   2.273   1.882   0.167 -0.4188 -0.7020 -0.2689
  675TMC3    O110048   2.658   2.111   0.350  0.0340  0.3857  0.2426
  675TMC3    O210049   2.239   1.826   0.065 -0.0880 -0.5416  0.2851
  676MPD2     C10050   0.741   0.549  11.291 -0.5259  0.4210  0.8767
  676MPD2    C110051   0.634   0.480  11.336  0.2147 -0.1633 -0.8398
  676MPD2    C210052   0.635   0.342  11.315 -0.1523 -0.4124 -0.1779
  676MPD2    C310053   0.733   0.281  11.234 -0.1446 -0.6247 -0.5572
  676MPD2    C410054   0.826   0.359  11.176 -0.6712  0.9227 -0.4482
  676MPD2    C510055   0.830   0.490  11.205 -0.3267 -0.4397 -0.2099
  676MPD2     H10056   0.550   0.283  11.348 -0.7408  0.6784  0.2335
  676MPD2    H110057   0.901   0.318  11.109  0.8074  0.4573  1.4875
  676MPD2    H210058   0.761   0.651  11.322  0.0963  0.7555 -0.6351
  676MPD2    H310059   0.913   0.553  11.174 -0.1004 -1.3626 -1.4610
  676MPD2     N10060   0.746   0.147  11.195  0.0311  0.5051  0.1446
  676MPD2    H510061   0.816   0.134  11.123  0.2032  2.6086 -0.0868
  676MPD2    N110062   0.534   0.550  11.409  0.2522 -0.1552 -0.1879
  676MPD2    H710063   0.558   0.645  11.436  1.7556 -0.4480 -0.5440
  677TMC3    C110064   0.336   0.613  11.504 -0.2279 -0.3231  0.5714
  677TMC3    C210065   0.257   0.562  11.603 -0.2892  0.8387 -0.4733
  677TMC3    C310066   0.208   0.656  11.687  0.3154  0.6450 -0.3988
  677TMC3    C410067   0.364   0.749  11.482 -0.3832  0.5122  0.1248
  677TMC3    C510068   0.307   0.837  11.575 -0.0502  0.6223 -0.2131
  677TMC3    C610069   0.229   0.796  11.680 -0.4232 -0.5484 -0.4749
  677TMC3     C10070   0.408   0.518  11.431 -0.1777 -0.4541  0.0116
  677TMC3     O10071   0.339   0.420  11.405  0.4308 -0.2892 -0.0107
  677TMC3     H10072   0.250   0.454  11.613 -0.5621  0.9349  0.3998
  677TMC3    H110073   0.426   0.780  11.399  2.2939  1.2497  2.3982
  677TMC3    H210074   0.190   0.865  11.753 -0.7499 -2.0017  0.7245
  677TMC3    C710075   0.328   0.978  11.569  0.7124  0.3323  0.2335
  677TMC3    C810076   0.154   0.601  11.809  0.5325  0.2177 -1.1840
  677TMC3    O110077   0.237   1.050  11.612 -0.2677 -0.0148  0.2983
  677TMC3    O210078   0.139   0.482  11.816  0.1123 -0.2282 -0.5597
  678MPD2     C10079   1.002   4.557   1.106  0.2461  0.9451  0.4945
  678MPD2    C110080   1.041   4.686   1.116 -0.1073  0.0595 -0.0707
  678MPD2    C210081   0.970   0.055   1.066  0.1699  0.1289  1.0612
  678MPD2    C310082   0.850   0.040   1.003 -0.0403 -0.2825 -0.3655
  678MPD2    C410083   0.803   4.647   1.003 -0.0442  0.1637 -0.2365
  678MPD2    C510084   0.876   4.547   1.057  0.2203  0.0807  0.6853
  678MPD2     H10085   1.027   0.148   1.061 -3.0857  2.1032  0.5461
  678MPD2    H110086   0.707   4.614   0.963 -0.7459  1.8404  0.0533
  678MPD2    H210087   1.048   4.468   1.149 -0.5512 -0.4435 -1.5117
  678MPD2    H310088   0.836   4.447   1.057 -0.5303  0.3736 -0.7887
  678MPD2     N10089   0.769   0.145   0.944  0.0551 -0.4590  0.0745
  678MPD2    H510090   0.683   0.120   0.896 -0.3695  1.5222 -0.1962
  678MPD2    N110091   1.170   4.719   1.158 -0.3708 -0.3119  0.3943
  678MPD2    H710092   1.190   0.081   1.175 -1.8544 -0.0297  0.4823
  679TMC3    C110093   1.608   4.664   1.106 -0.2150  0.0003 -0.0912
  679TMC3    C210094   1.503   4.621   1.183  0.6741 -0.0563 -0.0730
  679TMC3    C310095   1.395   4.707   1.198  0.3667 -0.5257  0.3019
  679TMC3    C410096   1.608   0.041   1.030  0.5308 -0.2345  0.1136
  679TMC3    C510097   1.490   0.110   1.034  0.0190 -0.2091  0.3378
  679TMC3    C610098   1.390   0.085   1.119  0.2965 -0.0932  0.6170
  679TMC3     C10099   1.736   4.600   1.110  0.6831 -0.3710 -0.3496
  679TMC3     O10100   1.825   4.662   1.054  0.3687  0.0130  0.0854
  679TMC3     H10101   1.505   4.532   1.244  0.5242  0.5678  0.8457
  679TMC3    H110102   1.678   0.044   0.947 -0.6318 -1.8995 -0.9197
  679TMC3    H210103   1.321   0.166   1.136  0.0894 -0.1532  0.0213
  679TMC3    C710104   1.474   0.222   0.940  0.8201 -0.7316 -0.0942
  679TMC3    C810105   1.273   4.632   1.201  0.1266  0.5097 -0.3000
  679TMC3    O110106   1.573   0.294   0.925 -0.2019  0.4842  0.4856
  679TMC3    O210107   1.280   4.510   1.207  0.2753  0.6243 -0.3985
  680MPD2     C10108   2.106   3.984  13.543  0.2525  0.2824 -0.5257
  680MPD2    C110109   2.184   3.936  13.644  0.5484  0.6856  0.4747
  680MPD2    C210110   2.278   4.014  13.706 -0.3647 -0.9498  0.4705
  680MPD2    C310111   2.291   4.149  13.679  0.6074 -0.2255  0.7687
  680MPD2    C410112   2.207   4.199  13.581  0.0188  0.0546 -0.3698
  680MPD2    C510113   2.118   4.117  13.514  0.2599  0.4219 -0.0083
  680MPD2     H10114   2.344   3.972  13.782  0.4391 -0.9773 -0.2356
  680MPD2    H110115   2.222   4.303  13.554 -0.1082  0.1547 -0.0580
  680MPD2    H210116   2.028   3.924  13.497 -0.9420  0.5434  1.1566
  680MPD2    H310117   2.055   4.158  13.435 -1.7656 -1.5216  0.6014
  680MPD2     N10118   2.372   4.241  13.750  0.3133 -0.2355  0.5389
  680MPD2    H510119   2.396   4.330  13.708 -1.5515  0.4385  0.9218
  680MPD2    N110120   2.174   3.804  13.688  0.0221  0.3623  0.0118
  680MPD2    H710121   2.260   3.767  13.729  0.5114  1.6769  0.1999
  681TMC3    C110122   2.071   3.604  13.745  0.1010 -0.1131  0.1613
  681TMC3    C210123   1.974   3.581  13.839 -0.1456 -0.6694  0.5143
  681TMC3    C310124   1.995   3.476  13.922 -0.3413  0.4584  0.4607
  681TMC3    C410125   2.193   3.551  13.749 -0.0446  0.4629 -0.3130
  681TMC3    C510126   2.214   3.454  13.843 -0.2360 -0.4074 -0.1061
  681TMC3    C610127   2.116   3.418  13.934 -0.3013 -0.6175  0.7744
  681TMC3     C10128   2.053   3.734  13.683  0.4627  0.2496 -0.5474
  681TMC3     O10129   1.944   3.777  13.663 -1.1434  0.0003 -0.0320
  681TMC3     H10130   1.878   3.630  13.847 -0.7116 -1.6847 -0.1997
  681TMC3    H110131   2.268   3.585  13.678  0.9690  0.5017  0.7729
  681TMC3    H210132   2.142   3.343  14.009 -1.9596 -0.9725  0.9809
  681TMC3    C710133   2.347   3.401  13.861  0.2162  0.1101 -0.6642
  681TMC3    C810134   1.922   3.474  14.046 -0.0092  0.6515  0.7438
  681TMC3    O110135   2.361   3.331  13.959  0.4874 -0.2977 -0.6744
  681TMC3    O210136   1.803   3.496  14.029  0.3922  0.0373 -0.0839
  682MPD2     C10137   4.391   0.818  10.440 -0.1908 -0.2744  0.2560
  682MPD2    C110138   4.346   0.690  10.467  0.1279  0.2181  0.7250
  682MPD2    C210139   4.236   0.677  10.553  0.4737  0.1977  0.6140
  682MPD2    C310140   4.181   0.786  10.623  0.2665  0.7190 -0.1571
  682MPD2    C410141   4.246   0.909  10.614 -0.3971 -0.1666 -0.5237
  682MPD2    C510142   4.339   0.924  10.516 -0.1749  0.5325  1.2164
  682MPD2     H10143   4.192   0.580  10.569  3.9587 -1.5722 -0.6165
  682MPD2    H110144   4.203   0.995  10.664 -0.8275 -1.0524  0.6363
  682MPD2    H210145   4.471   0.840  10.370  1.6552 -1.8795  1.8882
  682MPD2    H310146   4.357   1.028  10.491  0.6195  0.5150  1.7409
  682MPD2     N10147   4.077   0.778  10.713 -0.3774 -0.7238 -0.3688
  682MPD2    H510148   4.051   0.852  10.777 -1.4479 -0.0888 -1.5256
  682MPD2    N110149   4.411   0.574  10.404  0.3682 -0.4616  0.2424
  682MPD2    H710150   4.375   0.481  10.424  1.1564 -0.1172  3.2242
  683TMC3    C110151   3.911   0.661  11.066  0.2122 -0.3042 -0.4010
  683TMC3    C210152   3.812   0.564  11.069 -0.5212 -0.0575 -0.1141
  683TMC3    C310153   3.761   0.532  10.945  0.5237  0.3182 -0.1783
  683TMC3    C410154   3.959   0.708  10.946 -0.0732 -0.6002  0.1048
  683TMC3    C510155   3.904   0.674  10.830  0.2735  0.2764 -0.2532
  683TMC3    C610156   3.803   0.580  10.827 -0.9635  0.4934  0.1641
  683TMC3     C10157   4.002   0.675  11.173  0.6597 -0.6957  0.1406
  683TMC3     O10158   4.047   0.789  11.195  0.1896  0.1877 -0.7519
  683TMC3     H10159   3.765   0.536  11.162 -0.6431 -2.2763 -0.8590
  683TMC3    H110160   4.057   0.755  10.954 -0.7003  1.0995 -2.5636
  683TMC3    H210161   3.757   0.552  10.733  1.6297  2.1197 -1.5956
  683TMC3    C710162   3.994   0.665  10.717  0.0784  0.7068  0.2162
  683TMC3    C810163   3.653   0.434  10.951 -0.1015  0.4619 -0.4802
  683TMC3    O110164   3.972   0.579  10.636 -0.0407  0.2095  0.0440
  683TMC3    O210165   3.585   0.413  10.854  0.0331  0.7409 -0.1617
  684MPD2     C10166   2.549   0.012  16.889  0.8589  0.6812  0.0120
  684MPD2    C110167   2.580   0.022  16.755 -0.8424  0.0029  0.5912
  684MPD2    C210168   2.526   0.126  16.684  0.4969 -0.7712 -0.4246
  684MPD2    C310169   2.458   0.230  16.737 -0.3396 -0.6807  0.4265
  684MPD2    C410170   2.422   0.213  16.866  0.5044  0.0575 -0.7287
  684MPD2    C510171   2.463   0.108  16.941  0.7397 -0.3651  0.3891
  684MPD2     H10172   2.566   0.133  16.584  2.5917 -0.0667  0.4565
  684MPD2    H110173   2.368   0.292  16.919  0.3554 -0.5242 -0.0084
  684MPD2    H210174   2.594   4.672  16.952  2.8626  1.4958 -0.4464
  684MPD2    H310175   2.447   0.117  17.047  0.0836 -1.5107  0.3904
  684MPD2     N10176   2.426   0.352  16.668 -0.4815  0.4404  0.3495
  684MPD2    H510177   2.411   0.436  16.723 -0.6464  0.1872  0.6882
  684MPD2    N110178   2.662   4.670  16.682  0.6243 -0.2420  0.1036
  684MPD2    H710179   2.658   4.684  16.582 -1.3371 -0.3874  0.1715
  685TMC3    C110180   2.843   4.544  16.641  0.6584 -0.0697  0.8781
  685TMC3    C210181   2.798   4.526  16.514 -0.2698  0.7614  0.0343
  685TMC3    C310182   2.889   4.489  16.414  0.1521 -0.6488  0.1216
  685TMC3    C410183   2.974   4.539  16.673  0.5372 -0.0257  0.2769
  685TMC3    C510184   3.061   4.500  16.575 -0.2307  0.2035  0.3413
  685TMC3    C610185   3.019   4.457  16.448 -0.0830 -0.4385  0.3004
  685TMC3     C10186   2.753   4.585  16.739  0.3824 -0.8998  0.0825
  685TMC3     O10187   2.788   4.583  16.854 -0.0692  0.3992  0.4101
  685TMC3     H10188   2.692   4.538  16.497  0.3655  1.5485 -3.3976
  685TMC3    H110189   3.009   4.580  16.767 -1.0534  0.3191  0.7176
  685TMC3    H210190   3.083   4.419  16.369  2.3005  2.7123  0.7206
  685TMC3    C710191   3.200   4.486  16.616  0.2979 -0.4308  0.1073
  685TMC3    C810192   2.844   4.464  16.275 -0.0685 -0.3522 -0.4113
  685TMC3    O110193   3.227   4.475  16.735  0.0878  0.1109  0.5162
  685TMC3    O210194   2.921   4.423  16.186  0.3287 -0.0316  0.4332
  686MPD2     C10195   4.031   4.581  15.594  0.4930 -0.9690  0.2349
  686MPD2    C110196   4.040   4.467  15.665 -0.2896 -0.2994 -0.2660
  686MPD2    C210197   4.145   4.386  15.636 -0.2706 -0.4045  0.7037
  686MPD2    C310198   4.243   4.405  15.536 -0.3385 -0.2114 -0.0827
  686MPD2    C410199   4.237   4.531  15.471  0.3360 -0.3776  0.6967
  686MPD2    C510200   4.133   4.616  15.507  0.6519 -0.0316 -0.6910
  686MPD2     H10201   4.163   4.307  15.708  2.1528 -0.0092  0.5406
  686MPD2    H110202   4.297   4.560  15.386  0.2292 -0.0678  0.7272
  686MPD2    H210203   3.940   4.640  15.594  0.4837 -0.9834  1.5437
  686MPD2    H310204   4.132   4.711  15.455  2.0382  1.8346  2.6768
  686MPD2     N10205   4.351   4.323  15.501 -0.8008  0.0085  0.1838
  686MPD2    H510206   4.418   4.372  15.442  0.0484 -2.8183 -1.1648
  686MPD2    N110207   3.938   4.434  15.759  0.0841 -0.4258  0.0323
  686MPD2    H710208   3.859   4.496  15.777 -0.1725 -0.3773 -1.2860
  687TMC3    C110209   4.278   4.101  15.590  0.3038  0.1931  0.2610
  687TMC3    C210210   4.150   4.090  15.545 -0.2130  0.2279 -0.2530
  687TMC3    C310211   4.060   4.004  15.608 -0.2732 -0.5399  0.8132
  687TMC3    C410212   4.319   4.019  15.694 -0.2215  0.3680 -0.4148
  687TMC3    C510213   4.224   3.939  15.762  0.2017 -0.1559  0.0736
  687TMC3    C610214   4.092   3.934  15.725 -0.1495 -0.3800 -0.0487
  687TMC3     C10215   4.380   4.182  15.525  0.4754  0.1368  0.2027
  687TMC3     O10216   4.485   4.130  15.490 -0.4153  0.5742  0.0413
  687TMC3     H10217   4.128   4.142  15.452  3.0701  1.0150 -0.6066
  687TMC3    H110218   4.417   4.036  15.738 -0.6560  2.5720 -0.2929
  687TMC3    H210219   4.024   3.879  15.789  0.5911 -1.0969  0.1299
  687TMC3    C710220   4.252   3.871  15.887 -0.2150 -0.4223 -0.5685
  687TMC3    C810221   3.919   4.025  15.597 -0.2929  0.3329 -0.1293
  687TMC3    O110222   4.202   3.765  15.916  0.5665  0.7882 -0.1189
  687TMC3    O210223   3.856   3.925  15.624 -0.4199  0.4715  0.8109
  688MPD2     C10224   2.934   3.357  17.320 -0.5316 -1.2272  0.6923
  688MPD2    C110225   2.954   3.231  17.367 -1.2249 -0.6085  0.2388
  688MPD2    C210226   3.061   3.159  17.315  0.1390 -0.5891 -0.8369
  688MPD2    C310227   3.150   3.222  17.228  0.3576  0.0701 -0.0752
  688MPD2    C410228   3.130   3.352  17.187  0.5393  0.2650 -0.7164
  688MPD2    C510229   3.017   3.415  17.225 -0.3525  0.2238  0.3525
  688MPD2     H10230   3.083   3.061  17.354 -0.1461  0.1443  1.1626
  688MPD2    H110231   3.211   3.398  17.132  2.4263 -0.7057  1.2562
  688MPD2    H210232   2.869   3.435  17.359  0.2795 -0.7475  1.0988
  688MPD2    H310233   3.013   3.518  17.190 -0.3676  0.2677  0.4832
  688MPD2     N10234   3.261   3.158  17.173  0.3759 -0.2954 -0.2990
  688MPD2    H510235   3.304   3.206  17.095 -0.2376 -0.2507 -0.6158
  688MPD2    N110236   2.884   3.183  17.485 -0.2999  0.1144 -0.2654
  688MPD2    H710237   2.905   3.088  17.513  0.0710  0.4784  0.7243
  689TMC3    C110238   2.771   3.193  17.700  0.2595 -1.0722  0.1284
  689TMC3    C210239   2.713   3.269   0.058  0.7583  0.4060  0.0314
  689TMC3    C310240   2.705   3.211   0.184  0.6118  0.3337 -0.3357
  689TMC3    C410241   2.794   3.067  17.719  0.3707  0.6858 -0.2135
  689TMC3    C510242   2.776   3.006   0.099 -0.1001 -0.5800 -0.1326
  689TMC3    C610243   2.748   3.084   0.208  0.0118 -0.4922  0.3080
  689TMC3     C10244   2.822   3.266  17.579  0.1703 -0.7362  0.9459
  689TMC3     O10245   2.792   3.383  17.577 -0.1761  0.3089 -0.1359
  689TMC3     H10246   2.692   3.375   0.049  1.1923  0.4282 -0.7181
  689TMC3    H110247   2.825   3.008  17.633 -0.6478 -0.3637  0.1314
  689TMC3    H210248   2.729   3.043   0.306 -1.1838  0.3958  0.4536
  689TMC3    C710249   2.771   2.858   0.115 -0.3102 -0.5970  0.7864
  689TMC3    C810250   2.648   3.289   0.299  0.3503 -0.4657  0.2048
  689TMC3    O110251   2.822   2.818   0.224 -0.0773 -0.5389  0.6868
  689TMC3    O210252   2.661   3.247   0.413 -0.3577 -0.1840  0.3600
  690MPD2     C10253   0.240   0.638  15.589  0.8881 -0.0210 -0.9510
  690MPD2    C110254   0.353   0.567  15.615 -0.8953  0.3411 -0.3864
  690MPD2    C210255   0.440   0.529  15.512 -0.6561 -0.4175 -0.4273
  690MPD2    C310256   0.426   0.581  15.386  0.0422  0.2325 -0.6029
  690MPD2    C410257   0.319   0.670  15.367 -0.8048  0.4070 -0.4862
  690MPD2    C510258   0.225   0.695  15.466  0.0780 -0.4391  0.4770
  690MPD2     H10259   0.531   0.477  15.538 -0.1310  1.4468  1.5247
  690MPD2    H110260   0.296   0.722  15.275 -4.0061 -0.3151 -0.0634
  690MPD2    H210261   0.171   0.672  15.665  1.1213 -0.2714 -0.6282
  690MPD2    H310262   0.144   0.764  15.447  0.6348  0.1181  0.1579
  690MPD2     N10263   0.508   0.554  15.278 -0.2244  0.4979 -0.2150
  690MPD2    H510264   0.488   0.599  15.189 -1.4168  2.3440  0.9805
  690MPD2    N110265   0.382   0.518  15.741 -0.2653 -0.2825 -0.4225
  690MPD2    H710266   0.458   0.451  15.749 -0.1346  0.0827  1.4454
  691TMC3    C110267   0.366   0.489  15.976  0.3020  0.3910  0.5925
  691TMC3    C210268   0.332   0.562  16.085  0.1048 -0.2023 -0.5978
  691TMC3    C310269   0.304   0.491  16.203 -0.1731 -0.9156  0.0455
  691TMC3    C410270   0.387   0.357  15.971  0.5165  0.1108  0.5875
  691TMC3    C510271   0.354   0.291  16.083  0.0342 -0.1066 -0.0093
  691TMC3    C610272   0.309   0.350  16.198  0.3293 -0.0112 -0.6269
  691TMC3     C10273   0.315   0.542  15.858  0.1769  0.0927 -0.4319
  691TMC3     O10274   0.204   0.596  15.871  0.5405  0.5058 -0.3893
  691TMC3     H10275   0.316   0.669  16.082  1.0987 -0.0212  1.2727
  691TMC3    H110276   0.415   0.309  15.878 -0.6459 -0.6270  0.6144
  691TMC3    H210277   0.281   0.292  16.284 -0.1112  1.4284  0.2042
  691TMC3    C710278   0.366   0.149  16.072 -0.7725 -0.1011 -0.0611
  691TMC3    C810279   0.194   0.544  16.275  0.4274 -0.1297  0.5987
  691TMC3    O110280   0.346   0.103  15.961 -0.1986  0.0679 -0.7100
  691TMC3    O210281   0.195   0.529  16.397 -0.5411  0.3716  0.4601
  692TMC3    C110282   2.271   1.142  15.565 -0.4253 -0.6415 -0.3722
  692TMC3    C210283   2.376   1.212  15.630 -0.7239 -0.2184  0.0994
  692TMC3    C310284   2.495   1.142  15.629  0.3233  0.3089  0.0983
  692TMC3    C410285   2.289   1.026  15.497  0.2478  0.2556 -0.6390
  692TMC3    C510286   2.410   0.963  15.502  0.3485 -0.5156 -0.3115
  692TMC3    C610287   2.510   1.020  15.575  0.2507  0.1044 -0.7518
  692TMC3     C10288   2.142   1.203  15.587 -0.0016 -0.3588  0.0313
  692TMC3     O10289   2.135   1.260  15.694  0.1002 -0.2969  0.4186
  692TMC3     H10290   2.346   1.286  15.704  0.3734  1.1659 -0.8304
  692TMC3    H110291   2.203   0.976  15.453  1.2668  0.6299 -3.0165
  692TMC3    H210292   2.605   0.969  15.582  0.9079  1.5922  1.0551
  692TMC3    C710293   2.392   0.821  15.529 -0.1453 -0.4641  0.0539
  692TMC3    C810294   2.539   1.125  15.774  0.4094  0.4253  0.1932
  692TMC3    O110295   2.353   0.747  15.439 -0.0952  0.2851 -0.4323
  692TMC3    O210296   2.561   1.006  15.793  0.5331  0.2070  0.2358
  693MPD2     C10297   2.134   4.321  11.055 -0.5935 -0.1154 -0.4357
  693MPD2    C110298   2.090   4.191  11.035  0.3815  0.3421 -0.2433
  693MPD2    C210299   2.180   4.089  11.005 -0.1371  0.0005  0.6612
  693MPD2    C310300   2.313   4.127  10.996 -0.0313 -0.1740 -0.5604
  693MPD2    C410301   2.356   4.257  11.003  0.4440 -0.9895  0.2387
  693MPD2    C510302   2.262   4.348  11.040 -0.1442 -0.1937 -0.8790
  693MPD2     H10303   2.141   3.988  11.001  2.8474 -1.1905  1.8618
  693MPD2    H110304   2.462   4.275  10.993  0.2694 -0.1053 -0.0652
  693MPD2    H210305   2.066   4.405  11.065  0.5555  0.6718  0.8176
  693MPD2    H310306   2.293   4.451  11.058  0.1864 -0.2600 -1.0774
  693MPD2     N10307   2.416   4.033  10.975 -0.3609  0.0840  0.1252
  693MPD2    H510308   2.510   4.065  10.996 -0.9026  1.2215  0.8065
  693MPD2    N110309   1.944   4.170  11.048 -0.7547 -0.3034  0.2022
  693MPD2    H710310   1.890   4.250  11.079  0.7476  0.8492 -0.1443
  694TMC3    C110311   1.733   4.060  11.030 -0.1082  0.4835 -0.1353
  694TMC3    C210312   1.653   3.953  10.996  0.0890 -0.5954  0.1534
  694TMC3    C310313   1.529   3.950  11.045 -0.0928 -0.2858  0.7203
  694TMC3    C410314   1.684   4.152  11.120 -0.2478 -0.5111  0.3846
  694TMC3    C510315   1.552   4.149  11.159 -0.6030  0.4982 -0.7425
  694TMC3    C610316   1.475   4.045  11.126  0.4506  0.2310 -0.2350
  694TMC3     C10317   1.875   4.055  11.012  0.5469 -0.0714 -0.1162
  694TMC3     O10318   1.913   3.945  10.976 -0.5344  0.3457 -0.9004
  694TMC3     H10319   1.688   3.866  10.941 -0.4802 -0.0465 -1.0659
  694TMC3    H110320   1.749   4.225  11.167  0.9962 -1.7859  0.6363
  694TMC3    H210321   1.371   4.034  11.155  0.1483 -0.5591 -1.6272
  694TMC3    C710322   1.520   4.227  11.280  0.6020  0.3023  0.7842
  694TMC3    C810323   1.430   3.876  10.965 -0.1988 -0.2808  0.2989
  694TMC3    O110324   1.562   4.343  11.292  0.1597 -0.3758 -0.3043
  694TMC3    O210325   1.420   3.754  10.980  0.2888 -0.0136  0.0250
  695MPD2     C10326   2.984   1.002  13.369 -0.4606  1.1825  0.3977
  695MPD2    C110327   2.978   1.067  13.491  0.0602 -0.1113 -0.3287
  695MPD2    C210328   2.859   1.127  13.532 -0.4531  0.2364  0.1988
  695MPD2    C310329   2.745   1.120  13.449 -0.5496  0.0756 -0.1263
  695MPD2    C410330   2.755   1.044  13.329  0.1705  0.3983 -0.2885
  695MPD2    C510331   2.877   0.991  13.288  0.2647 -0.1553  0.2674
  695MPD2     H10332   2.854   1.185  13.624 -1.1286  0.3826  0.0732
  695MPD2    H110333   2.678   1.040  13.253 -1.7303  0.4829  1.6320
  695MPD2    H210334   3.077   0.963  13.328  0.8884  3.7262  1.0343
  695MPD2    H310335   2.895   0.947  13.191 -0.1160  2.6635 -1.0580
  695MPD2     N10336   2.625   1.187  13.489  0.2020 -0.1795  0.0713
  695MPD2    H510337   2.624   1.219  13.586  0.1394  0.0484 -0.0036
  695MPD2    N110338   3.090   1.086  13.580 -0.6282  0.3320 -0.1595
  695MPD2    H710339   3.076   1.141  13.665 -0.0883 -1.1584  0.9055
  696TMC3    C110340   2.402   1.220  13.513 -0.5406 -0.5694 -0.2711
  696TMC3    C210341   2.389   1.140  13.629 -0.2568 -0.7163  0.4508
  696TMC3    C310342   2.261   1.140  13.693 -0.7454 -0.3763  0.0139
  696TMC3    C410343   2.296   1.286  13.456  0.5973 -0.6657 -0.4229
  696TMC3    C510344   2.170   1.272  13.509 -0.2911 -0.4773 -0.1717
  696TMC3    C610345   2.151   1.214  13.635 -0.1574 -0.8829  0.0347
  696TMC3     C10346   2.503   1.185  13.422 -0.1991 -0.2572 -0.9327
  696TMC3     O10347   2.477   1.172  13.301 -0.0828 -0.0121 -0.4620
  696TMC3     H10348   2.470   1.083  13.671  2.4222  1.3966 -1.8700
  696TMC3    H110349   2.312   1.340  13.363  0.6056  0.6016  0.3134
  696TMC3    H210350   2.056   1.198  13.684 -1.4057  1.1062 -1.7293
  696TMC3    C710351   2.088   1.390  13.472  0.5326  0.3102  0.0082
  696TMC3    C810352   2.273   1.144  13.841  0.1095  0.0354 -0.0998
  696TMC3    O110353   2.090   1.430  13.357  0.2265 -0.0788  0.0747
  696TMC3    O210354   2.385   1.139  13.890  0.1884 -0.8917 -0.2049
  697MPD2     C10355   2.042   2.815  15.504 -0.2516 -0.4561 -0.3215
  697MPD2    C110356   2.000   2.772  15.382 -0.2930  0.3511  0.4273
  697MPD2    C210357   1.963   2.857  15.284  0.2972 -0.6819 -0.5568
  697MPD2    C310358   1.953   2.993  15.308 -0.4406  0.3383  0.1098
  697MPD2    C410359   1.990   3.042  15.432  0.1956  0.1269 -0.3402
  697MPD2    C510360   2.031   2.951  15.532  0.0364 -0.9625 -0.4112
  697MPD2     H10361   1.920   2.819  15.192  0.1942 -0.7772 -0.4688
  697MPD2    H110362   1.994   3.149  15.452 -2.1433 -0.4144  3.0328
  697MPD2    H210363   2.083   2.754  15.584  0.1832 -0.4969 -0.5760
  697MPD2    H310364   2.062   2.983  15.631  0.7443 -0.0712 -0.9259
  697MPD2     N10365   1.911   3.073  15.204 -0.0377 -0.1620  0.0131
  697MPD2    H510366   1.884   3.028  15.117 -0.3672  0.2539 -0.0985
  697MPD2    N110367   2.003   2.632  15.351  0.0536  0.4090 -0.5217
  697MPD2    H710368   1.987   2.612  15.253  1.0177 -0.2233 -0.5516
  698TMC3    C110369   1.868   3.284  15.096 -0.1090 -0.0203  0.0480
  698TMC3    C210370   1.868   3.421  15.101 -0.2054  0.5611  0.1870
  698TMC3    C310371   1.798   3.493  15.006 -0.2106  0.1793  0.2416
  698TMC3    C410372   1.804   3.212  14.996 -0.4678 -0.6819 -0.3969
  698TMC3    C510373   1.716   3.288  14.923  0.6274 -0.1275 -0.2770
  698TMC3    C610374   1.707   3.425  14.924  0.6446 -0.0363  0.0068
  698TMC3     C10375   1.923   3.212  15.207 -0.0070 -0.6305 -0.6960
  698TMC3     O10376   1.965   3.287  15.291 -0.2021  0.1899 -0.2405
  698TMC3     H10377   1.921   3.476  15.178  1.2220  1.6955 -1.5915
  698TMC3    H110378   1.784   3.105  14.996 -2.2172 -0.3639  0.0202
  698TMC3    H210379   1.660   3.474  14.840 -0.2198 -0.9456 -0.0333
  698TMC3    C710380   1.716   3.230  14.791 -0.2529  0.2008 -0.7216
  698TMC3    C810381   1.813   3.639  14.987 -0.4169  0.1517  0.4622
  698TMC3    O110382   1.614   3.258  14.724  0.0076  0.2605  0.2075
  698TMC3    O210383   1.718   3.702  14.949  0.3510 -0.0245 -0.5024
  699TMC3    C110384   2.147   1.223  13.096 -0.6331 -0.0696  0.4091
  699TMC3    C210385   2.179   1.108  13.170 -0.6608 -0.7414 -0.1932
  699TMC3    C310386   2.077   1.062  13.248 -0.7640  0.4593 -0.6094
  699TMC3    C410387   2.025   1.274  13.090 -0.0520  0.2746  0.4119
  699TMC3    C510388   1.928   1.225  13.179 -0.4278  0.1774  0.0602
  699TMC3    C610389   1.948   1.115  13.254  0.1394  0.4804 -0.7113
  699TMC3     C10390   2.233   1.271  12.989  0.3514  0.3586 -0.2397
  699TMC3     O10391   2.162   1.306  12.896 -0.4692  0.7069  0.7995
  699TMC3     H10392   2.264   1.044  13.144 -1.4723 -1.3584 -1.3616
  699TMC3    H110393   2.011   1.365  13.033 -2.7791 -2.7646 -3.7319
  699TMC3    H210394   1.861   1.067  13.297  0.7614 -0.2522 -0.2719
  699TMC3    C710395   1.802   1.285  13.190  0.2666  0.4990  0.2927
  699TMC3    C810396   2.095   0.964  13.356 -0.4524 -0.2507  0.4341
  699TMC3    O110397   1.711   1.205  13.206  0.0286 -0.1479 -0.2585
  699TMC3    O210398   1.996   0.917  13.412 -0.2962  0.3826 -0.4812
  700TMC3    C110399   1.255   3.177  17.148  0.4077 -0.8341  0.3717
  700TMC3    C210400   1.382   3.147  17.103 -0.6687  0.0480 -0.0831
  700TMC3    C310401   1.493   3.183  17.175  0.0193 -0.2877  0.1895
  700TMC3    C410402   1.231   3.248  17.263  0.5149  0.2248 -0.3933
  700TMC3    C510403   1.347   3.295  17.331 -0.2133 -0.1110  0.7435
  700TMC3    C610404   1.478   3.264  17.289 -0.3455 -0.0889  0.1194
  700TMC3     C10405   1.164   3.230  17.052  0.4177  0.2342 -0.0777
  700TMC3     O10406   1.045   3.205  17.070 -0.5008 -0.1955 -0.6765
  700TMC3     H10407   1.389   3.085  17.014 -0.3319  1.9326 -1.3703
  700TMC3    H110408   1.129   3.278  17.285  0.3322 -0.7714  0.1310
  700TMC3    H210409   1.557   3.296  17.356  0.0770 -1.5772  0.3412
  700TMC3    C710410   1.330   3.434  17.373  0.3407 -0.0168  0.0012
  700TMC3    C810411   1.625   3.158  17.116 -0.0813  0.1770 -0.6836
  700TMC3    O110412   1.415   3.477  17.448 -0.1117  0.2983 -0.1932
  700TMC3    O210413   1.631   3.099  17.006  0.0696  0.2006 -0.0417
  701TMC3    C110414   1.383   2.003  15.604 -0.3048  0.7536  0.2641
  701TMC3    C210415   1.380   1.938  15.480 -0.0752 -0.4149  0.1893
  701TMC3    C310416   1.477   1.974  15.391 -0.7324  0.1198 -0.3157
  701TMC3    C410417   1.488   2.085  15.631  0.1073 -0.8375 -0.1405
  701TMC3    C510418   1.581   2.117  15.535  0.4448 -0.2958  0.1065
  701TMC3    C610419   1.574   2.061  15.417  0.0200 -0.5665  0.1235
  701TMC3     C10420   1.280   1.990  15.707 -0.5448 -0.3736  0.0279
  701TMC3     O10421   1.306   2.055  15.809  0.3812  0.1408 -0.0329
  701TMC3     H10422   1.302   1.864  15.462 -0.2515 -0.8529  2.7619
  701TMC3    H110423   1.484   2.153  15.715  0.8603 -1.2437  0.2234
  701TMC3    H210424   1.648   2.087  15.342 -0.7426  0.2224 -0.3643
  701TMC3    C710425   1.658   2.243  15.552  0.1405  0.1737  0.5764
  701TMC3    C810426   1.474   1.920  15.255 -0.2584 -0.0403  0.4107
  701TMC3    O110427   1.681   2.303  15.449 -0.8542 -0.1976  0.6282
  701TMC3    O210428   1.583   1.911  15.203  0.4324  0.8536 -0.2448
  702MPD2     C10429   1.085   4.542  10.689  0.0697  0.0085  0.4012
  702MPD2    C110430   0.960   4.593  10.728  0.1602 -0.2148  0.0260
  702MPD2    C210431   0.883   4.669  10.640 -0.1050 -0.3279 -0.1174
  702MPD2    C310432   0.926   4.688  10.512  0.3693 -0.1227 -0.4197
  702MPD2    C410433   1.047   4.640  10.468  1.1606  0.3771 -0.3178
  702MPD2    C510434   1.129   4.577  10.558 -0.1846 -0.2263  0.6053
  702MPD2     H10435   0.784   4.706  10.663 -0.4702 -1.9506  0.9822
  702MPD2    H110436   1.088   4.655  10.369  1.5188 -0.8212 -0.3524
  702MPD2    H210437   1.159   4.497  10.754 -0.0810  0.3016  0.7792
  702MPD2    H310438   1.231   4.550  10.535  0.0669  0.7366  0.6054
  702MPD2     N10439   0.838   0.026  10.427 -0.3362  0.0562  0.6446
  702MPD2    H510440   0.746   0.042  10.469  0.0975  2.7761  0.5197
  702MPD2    N110441   0.908   4.579  10.864  0.0917  0.3220  0.7172
  702MPD2    H710442   0.833   4.643  10.887  1.9049  3.7524 -2.8317
  703TMC3    C110443   0.752   0.172  10.274  0.5771 -0.7108  0.6449
  703TMC3    C210444   0.630   0.156  10.331 -0.2563 -0.3046 -0.4002
  703TMC3    C310445   0.543   0.257  10.337 -0.3352  0.1251  0.1562
  703TMC3    C410446   0.789   0.293  10.223  0.5678 -0.1480  0.4634
  703TMC3    C510447   0.696   0.393  10.218 -0.0392 -0.0878  0.2122
  703TMC3    C610448   0.574   0.384  10.281 -1.1843 -1.1230 -0.4126
  703TMC3     C10449   0.863   0.090  10.312 -0.2064  0.3458 -0.2133
  703TMC3     O10450   0.949   0.068  10.233 -0.7513 -0.2841 -0.0040
  703TMC3     H10451   0.604   0.054  10.359  1.5450 -0.7392 -0.3299
  703TMC3    H110452   0.893   0.300  10.192 -0.1700 -1.3314 -2.2915
  703TMC3    H210453   0.504   0.467  10.286 -1.1174 -1.1389  0.8355
  703TMC3    C710454   0.726   0.507  10.148  0.6606 -0.5267 -0.3511
  703TMC3    C810455   0.410   0.243  10.395 -0.0515  0.1041  0.1174
  703TMC3    O110456   0.840   0.517  10.115 -0.5606 -0.0063 -0.2496
  703TMC3    O210457   0.345   0.344  10.413  0.0739  0.0007  0.0164
  704TMC3    C110458   3.510   2.974  12.849  0.2449  0.3231  0.2904
  704TMC3    C210459   3.546   3.003  12.722 -0.3043 -0.0324  0.0642
  704TMC3    C310460   3.630   2.922  12.655  0.1456  0.7088  0.4546
  704TMC3    C410461   3.544   2.850  12.904 -0.0378  0.4766 -0.5145
  704TMC3    C510462   3.608   2.756  12.823  0.1497 -0.1138  0.9975
  704TMC3    C610463   3.656   2.791  12.700  0.2930  0.0915 -0.9731
  704TMC3     C10464   3.365   2.987  12.867 -0.4532 -0.9370  0.4978
  704TMC3     O10465   3.305   2.979  12.975  0.7064  0.1869  0.0635
  704TMC3     H10466   3.536   3.104  12.686  2.1396  0.5039  0.8861
  704TMC3    H110467   3.512   2.837  13.006  0.1710  3.2944 -0.0781
  704TMC3    H210468   3.677   2.719  12.622 -3.4245  0.4371 -2.3219
  704TMC3    C710469   3.578   2.620  12.841  0.3300  0.3770 -0.4408
  704TMC3    C810470   3.589   2.924  12.514  0.4191  0.6403 -0.0769
  704TMC3    O110471   3.590   2.543  12.743  0.5131  0.7782  0.5969
  704TMC3    O210472   3.480   2.965  12.481  0.4409  0.1272  0.5231
  705MPD2     C10473   2.681   1.220  16.816  0.1969  0.7864 -0.8229
  705MPD2    C110474   2.630   1.289  16.701  0.0899 -0.0027 -0.0225
  705MPD2    C210475   2.511   1.368  16.717  0.1283 -0.1036  0.2448
  705MPD2    C310476   2.437   1.351  16.831 -0.1225  0.0687  0.0833
  705MPD2    C410477   2.480   1.266  16.931  0.4164 -0.3396 -0.4539
  705MPD2    C510478   2.604   1.209  16.930 -0.5388 -0.2231  0.1884
  705MPD2     H10479   2.472   1.411  16.625 -0.1843 -0.0290  0.4115
  705MPD2    H110480   2.416   1.241  17.015  1.8512 -0.8015  0.4917
  705MPD2    H210481   2.784   1.186  16.814  0.5327  1.7253  0.0800
  705MPD2    H310482   2.642   1.138  17.003 -0.2831  0.0474  0.3164
  705MPD2     N10483   2.298   1.395  16.838  0.0960  0.2982  0.5939
  705MPD2    H510484   2.233   1.355  16.905 -0.6143  0.4396 -0.0052
  705MPD2    N110485   2.698   1.289  16.574 -0.4091  0.3910  0.0946
  705MPD2    H710486   2.696   1.369  16.511 -0.6224  0.9588  0.8241
  706TMC3    C110487   3.008   1.109  16.264 -0.5748 -0.0675 -0.6344
  706TMC3    C210488   2.979   1.206  16.172 -0.2744 -0.1190 -0.1718
  706TMC3    C310489   2.884   1.296  16.204 -0.2448  0.4882 -0.3960
  706TMC3    C410490   2.942   1.101  16.384  0.2808  0.0111 -0.0077
  706TMC3    C510491   2.851   1.192  16.411  1.1059  0.1257  0.2028
  706TMC3    C610492   2.824   1.297  16.323  0.3844  0.6549 -0.2230
  706TMC3     C10493   3.129   1.032  16.249 -0.9852  0.4417 -0.7467
  706TMC3     O10494   3.194   0.994  16.344  0.5563 -0.4111 -0.8881
  706TMC3     H10495   3.024   1.216  16.075  1.1456 -1.0261  0.4003
  706TMC3    H110496   2.982   1.035  16.460 -0.7256 -1.1551 -0.4919
  706TMC3    H210497   2.739   1.360  16.345 -0.1265  0.3059 -1.2014
  706TMC3    C710498   2.777   1.181  16.538  0.9852  0.0780  0.2020
  706TMC3    C810499   2.833   1.379  16.104 -0.1734 -0.1360  1.4177
  706TMC3    O110500   2.789   1.075  16.599  0.3750 -0.5045 -0.2137
  706TMC3    O210501   2.871   1.367  15.991 -0.2571  0.1414 -0.0516
  707TMC3    C110502   4.385   0.078   1.385 -0.6801 -0.4892 -0.0182
  707TMC3    C210503   4.482   4.723   1.398  0.0406  0.1978  0.3789
  707TMC3    C310504   4.451   4.594   1.429 -0.3828  0.0610 -0.9175
  707TMC3    C410505   4.254   0.041   1.373 -0.9574 -0.7873 -0.3159
  707TMC3    C510506   4.227   4.643   1.365 -0.0186 -0.0892  0.4796
  707TMC3    C610507   4.321   4.551   1.394  0.6501 -0.0479 -1.3222
  707TMC3     C10508   4.422   0.221   1.371 -0.0136 -0.6218 -0.2119
  707TMC3     O10509   4.537   0.251   1.402  0.7553  0.0480  0.1395
  707TMC3     H10510   4.579   0.029   1.421  0.4338  0.1762 -1.2591
  707TMC3    H110511   4.179   0.119   1.367 -0.1173 -0.1319 -2.4883
  707TMC3    H210512   4.296   4.446   1.400  0.0620  0.1239 -0.6850
  707TMC3    C710513   4.090   4.614   1.322  0.6881  0.2905 -0.6505
  707TMC3    C810514   4.558   4.502   1.435  0.6643  0.3720  0.5846
  707TMC3    O110515   4.012   4.708   1.319  0.2817  0.1811  0.8169
  707TMC3    O210516   4.532   4.385   1.405  0.2300  0.3107 -0.0994
  708MPD2     C10517   0.939   4.118  13.875  0.0095  0.6795 -0.2252
  708MPD2    C110518   0.848   4.101  13.971 -0.1309 -0.0392 -0.3310
  708MPD2    C210519   0.887   4.055  14.093 -0.6934  0.1693 -0.1552
  708MPD2    C310520   1.016   4.037  14.127  0.1616  0.8210  0.6497
  708MPD2    C410521   1.110   4.058  14.030  0.0142 -0.8953 -0.7817
  708MPD2    C510522   1.072   4.087  13.905  0.7686 -0.2839  0.0182
  708MPD2     H10523   0.819   4.033  14.174  0.2687 -0.3731  0.4906
  708MPD2    H110524   1.216   4.038  14.045 -0.0213 -0.9427 -0.5939
  708MPD2    H210525   0.918   4.160  13.778 -1.2343  4.6281  1.7360
  708MPD2    H310526   1.149   4.105  13.830  0.3134 -0.3464 -0.4654
  708MPD2     N10527   1.058   4.023  14.261  0.1140  0.0629  0.5711
  708MPD2    H510528   1.160   4.024  14.267  0.1864  0.2323 -0.5920
  708MPD2    N110529   0.715   4.135  13.947  0.2304 -0.7937 -0.5274
  708MPD2    H710530   0.686   4.162  13.854 -0.3565  0.3110 -0.0224
  709TMC3    C110531   0.503   4.217  13.993 -0.6554  0.2924  0.3518
  709TMC3    C210532   0.453   4.160  13.877  0.1295 -0.1554  0.5976
  709TMC3    C310533   0.321   4.132  13.895  0.3854 -0.5422 -0.5172
  709TMC3    C410534   0.433   4.262  14.105 -0.3958 -1.6406 -0.0511
  709TMC3    C510535   0.302   4.228  14.108  0.4114 -0.5854 -0.0836
  709TMC3    C610536   0.249   4.164  14.002  0.0182 -0.5070  0.2914
  709TMC3     C10537   0.622   4.151  14.045  0.6031 -0.5053 -0.5772
  709TMC3     O10538   0.634   4.160  14.169  0.5504  0.0565  0.8371
  709TMC3     H10539   0.516   4.112  13.803  0.7255  2.2418 -0.4285
  709TMC3    H110540   0.479   4.306  14.193  0.9068 -2.3102 -0.3976
  709TMC3    H210541   0.158   4.107  14.012 -0.0908 -0.4528 -0.3824
  709TMC3    C710542   0.267   4.159  14.240  0.0850  0.0030 -0.1342
  709TMC3    C810543   0.242   4.087  13.780  0.6421  0.9549 -0.1189
  709TMC3    O110544   0.155   4.121  14.273  0.3602  0.1768  0.2424
  709TMC3    O210545   0.122   4.108  13.778  0.6374  0.8817 -0.2401
  710TMC3    C110546   1.397   1.100   0.533  0.1868  0.0869 -0.0525
  710TMC3    C210547   1.442   1.065   0.407  0.2475  0.2432  0.8591
  710TMC3    C310548   1.496   0.942   0.390  0.9767  0.1505 -0.3166
  710TMC3    C410549   1.384   1.009   0.632  0.1510 -0.5324  1.1084
  710TMC3    C510550   1.421   0.880   0.610  0.8294 -0.3634  0.0068
  710TMC3    C610551   1.480   0.841   0.488 -0.1471 -0.4643  0.8140
  710TMC3     C10552   1.303   1.211   0.546 -0.5107  0.3016  0.4587
  710TMC3     O10553   1.240   1.242   0.440 -0.0732 -0.1979 -0.1791
  710TMC3     H10554   1.449   1.136   0.326 -1.0529  0.8936  1.3212
  710TMC3    H110555   1.345   1.034   0.730  0.6380 -1.0580  1.4353
  710TMC3    H210556   1.511   0.739   0.468 -0.8124 -0.5162  0.0456
  710TMC3    C710557   1.322   0.783   0.656  0.4256 -0.5175 -0.3147
  710TMC3    C810558   1.560   0.918   0.260 -0.8423 -0.1006  0.7564
  710TMC3    O110559   1.213   0.826   0.698  0.6788  0.5343  0.0762
  710TMC3    O210560   1.615   1.014   0.206  0.1663  0.1407 -0.2211
  711TMC3    C110561   1.795   1.230  14.436  0.0316 -0.0849 -0.1287
  711TMC3    C210562   1.758   1.333  14.521 -0.4750  0.0508 -0.5718
  711TMC3    C310563   1.856   1.402  14.588 -0.1223 -0.0274 -0.0754
  711TMC3    C410564   1.928   1.190  14.428  0.2016 -0.7078  0.1217
  711TMC3    C510565   2.023   1.264  14.498  0.3753  0.2485  1.0455
  711TMC3    C610566   1.992   1.373  14.573 -0.8538  0.0388  0.6343
  711TMC3     C10567   1.693   1.174  14.355  0.3800 -0.0279 -0.6585
  711TMC3     O10568   1.582   1.224  14.367  0.0697  0.2166  0.8664
  711TMC3     H10569   1.655   1.365  14.527 -0.4537  0.5663 -2.8455
  711TMC3    H110570   1.958   1.117  14.355 -0.1883 -0.4666 -0.2787
  711TMC3    H210571   2.072   1.424  14.627  0.6930 -1.6658 -0.0424
  711TMC3    C710572   2.123   1.177  14.558 -0.0118  0.2267 -0.0565
  711TMC3    C810573   1.814   1.438  14.720 -0.3585 -0.3655  0.2865
  711TMC3    O110574   2.218   1.230  14.612 -0.0739 -0.1438  0.6093
  711TMC3    O210575   1.697   1.413  14.748  0.2754  0.2187 -0.1730
  712MPD2     C10576   3.251   2.618  14.173 -0.3964  0.7509 -0.3830
  712MPD2    C110577   3.185   2.690  14.076  0.3953  0.2412  0.2887
  712MPD2    C210578   3.235   2.820  14.062  0.2757  0.5214  0.5460
  712MPD2    C310579   3.325   2.875  14.138 -0.1299 -0.1541 -0.4248
  712MPD2    C410580   3.397   2.798  14.231 -0.2253 -0.3378  0.7166
  712MPD2    C510581   3.354   2.661  14.248 -0.7628 -0.1292  0.5013
  712MPD2     H10582   3.205   2.872  13.972  1.5668 -0.5223 -0.4855
  712MPD2    H110583   3.487   2.834  14.280  0.8395 -2.1301  0.0658
  712MPD2    H210584   3.218   2.515  14.175  0.8643  0.3742  0.5524
  712MPD2    H310585   3.408   2.586  14.305 -1.6476 -1.6928 -0.7206
  712MPD2     N10586   3.355   3.013  14.118  0.5631  0.1073 -0.4035
  712MPD2    H510587   3.443   3.052  14.147 -0.4860  2.4672 -0.3961
  712MPD2    N110588   3.094   2.636  13.983  0.3957 -0.0615  0.4922
  712MPD2    H710589   3.052   2.703  13.920 -0.8501  0.1794  1.5837
  713TMC3    C110590   3.288   3.232  14.070 -0.0810  0.0685  0.2263
  713TMC3    C210591   3.399   3.267  13.997  0.4599  0.2940  0.3536
  713TMC3    C310592   3.406   3.396  13.948 -0.3334 -0.0499 -0.1786
  713TMC3    C410593   3.182   3.319  14.090 -0.8339 -0.1984 -0.3951
  713TMC3    C510594   3.181   3.434  14.018  0.4309 -0.4823  0.5331
  713TMC3    C610595   3.293   3.477  13.953  0.3937 -0.1164  0.2449
  713TMC3     C10596   3.252   3.098  14.076  0.4068  0.2652  0.7548
  713TMC3     O10597   3.137   3.075  14.049 -0.9307  0.4314  0.0195
  713TMC3     H10598   3.478   3.194  13.983 -0.0073 -0.2927  0.7688
  713TMC3    H110599   3.092   3.295  14.146  0.1607 -0.7175  0.9805
  713TMC3    H210600   3.288   3.571  13.900  0.2321 -0.2124  0.0881
  713TMC3    C710601   3.071   3.522  14.040 -0.6815  0.2064 -0.3056
  713TMC3    C810602   3.524   3.439  13.876  0.0700  0.2245  0.2278
  713TMC3    O110603   3.029   3.523  14.158  0.1938  0.5422 -0.5369
  713TMC3    O210604   3.507   3.526  13.792 -0.1266  0.0831  0.2356
  714MPD2     C10605   0.302   2.351   2.042  0.1349 -0.4402 -0.4723
  714MPD2    C110606   0.328   2.233   1.976 -0.2247  0.0937  0.2383
  714MPD2    C210607   0.216   2.150   1.961  0.5903 -0.1857  0.1109
  714MPD2    C310608   0.087   2.183   2.003 -0.3858  0.0516 -0.1571
  714MPD2    C410609   0.067   2.308   2.052  0.6078 -0.1412 -0.2747
  714MPD2    C510610   0.169   2.393   2.070 -0.2456  0.3318 -0.3293
  714MPD2     H10611   0.237   2.054   1.917  1.6450  0.3888 -0.6515
  714MPD2    H110612   4.704   2.342   2.079  1.0623  2.7999 -2.2797
  714MPD2    H210613   0.383   2.420   2.064  0.2993 -0.8192  0.1210
  714MPD2    H310614   0.157   2.493   2.111  1.0597  0.2600  0.2344
  714MPD2     N10615   4.716   2.100   1.966  0.3242 -0.1334 -0.1909
  714MPD2    H510616   0.014   2.029   1.903 -0.0030 -0.9822  0.5817
  714MPD2    N110617   0.462   2.205   1.932 -0.5723 -0.4035 -0.2946
  714MPD2    H710618   0.539   2.258   1.971  0.3237 -1.3128 -0.8025
  715TMC3    C110619   0.638   2.069   1.852 -0.2302 -0.4982  0.1305
  715TMC3    C210620   0.676   1.950   1.799  0.2222 -1.1405  0.1245
  715TMC3    C310621   0.803   1.913   1.771 -0.0798  0.3690 -0.6890
  715TMC3    C410622   0.730   2.168   1.851 -0.2054 -0.2380 -0.0917
  715TMC3    C510623   0.862   2.134   1.819  0.2696  0.2139 -0.5283
  715TMC3    C610624   0.900   2.008   1.782  0.2941 -0.2487  0.8747
  715TMC3     C10625   0.497   2.096   1.855 -0.5093  0.1896 -0.3795
  715TMC3     O10626   0.424   2.019   1.793 -0.1965 -0.0317 -0.0743
  715TMC3     H10627   0.609   1.868   1.776  0.2173 -1.2633  0.5768
  715TMC3    H110628   0.709   2.274   1.851 -1.0622 -0.4081 -1.5938
  715TMC3    H210629   1.000   1.996   1.741 -0.7933 -2.7180 -1.0878
  715TMC3    C710630   0.970   2.237   1.819  0.3308  1.5189  0.1605
  715TMC3    C810631   0.825   1.808   1.669 -0.1019  0.0863 -0.6344
  715TMC3    O110632   1.076   2.213   1.761  0.0564  0.3062  0.2522
  715TMC3    O210633   0.733   1.769   1.601  0.1401  0.2842  0.1763
  716MPD2     C10634   0.735   4.596   9.698 -0.8999 -0.0363 -0.0054
  716MPD2    C110635   0.643   4.644   9.612 -0.8028  0.7942  0.8434
  716MPD2    C210636   0.531   4.557   9.588  0.5873 -0.1000 -0.2139
  716MPD2    C310637   0.523   4.432   9.642 -0.0383  0.1084 -0.8894
  716MPD2    C410638   0.620   4.393   9.725 -0.4895 -0.0483  0.1583
  716MPD2    C510639   0.729   4.473   9.754  0.9511  0.0922 -0.5949
  716MPD2     H10640   0.472   4.578   9.500 -2.9676 -0.5202  2.0960
  716MPD2    H110641   0.618   4.291   9.763 -1.0440 -0.8812 -2.0688
  716MPD2    H210642   0.816   4.661   9.728 -1.5997  0.8043  0.0510
  716MPD2    H310643   0.805   4.438   9.822  0.1739 -0.3673  0.0481
  716MPD2     N10644   0.411   4.357   9.600 -0.6886 -0.1106 -1.0177
  716MPD2    H510645   0.339   4.410   9.553 -0.5081  0.8960 -0.1787
  716MPD2    N110646   0.656   0.038   9.560 -0.0487 -0.5529 -0.3346
  716MPD2    H710647   0.740   0.087   9.590 -1.9590  2.5105 -0.0349
  717TMC3    C110648   0.283   4.173   9.539 -0.2817  0.0432 -0.7656
  717TMC3    C210649   0.209   4.265   9.472 -0.3791 -0.2017 -0.5904
  717TMC3    C310650   0.172   4.245   9.343  0.1105  0.0937  0.5923
  717TMC3    C410651   0.320   4.062   9.473 -0.1820 -0.2917 -0.4137
  717TMC3    C510652   0.270   4.040   9.347 -0.9352 -1.0985  0.0893
  717TMC3    C610653   0.186   4.130   9.276  0.1844 -0.1072  0.3674
  717TMC3     C10654   0.393   4.223   9.617 -0.1934  0.2672 -0.3188
  717TMC3     O10655   0.477   4.146   9.658  0.2890  0.2470 -0.0795
  717TMC3     H10656   0.178   4.357   9.521  0.4796  0.4200 -1.2342
  717TMC3    H110657   0.381   3.994   9.531  0.3551 -1.0231 -1.8283
  717TMC3    H210658   0.152   4.114   9.175 -0.6939  0.5598  0.5573
  717TMC3    C710659   0.308   3.921   9.273 -0.5130 -0.0208 -0.0640
  717TMC3    C810660   0.085   4.343   9.289 -0.0633 -0.4757 -0.4369
  717TMC3    O110661   0.257   3.892   9.163 -0.2608  0.1070  0.3179
  717TMC3    O210662   0.024   4.419   9.362  0.2849  0.0225 -0.7761
  718MPD2     C10663   0.338   2.868  12.877 -0.1441  0.1763  0.2425
  718MPD2    C110664   0.252   2.859  12.774  0.0007  0.1604 -0.1518
  718MPD2    C210665   0.119   2.809  12.798  1.4365 -0.5765  0.4494
  718MPD2    C310666   0.081   2.753  12.918 -0.5095  0.7309  0.0671
  718MPD2    C410667   0.170   2.747  13.017 -0.3000  0.1484 -0.3409
  718MPD2    C510668   0.297   2.802  12.992  0.4888 -0.2849  0.2435
  718MPD2     H10669   0.035   2.803  12.730  2.3036  0.8605 -0.7417
  718MPD2    H110670   0.148   2.698  13.111  0.3495 -0.0996 -0.3195
  718MPD2    H210671   0.444   2.891  12.871 -0.1386  0.4351  1.4743
  718MPD2    H310672   0.373   2.793  13.069 -2.5468  1.1105  3.3883
  718MPD2     N10673   4.683   2.711  12.925 -0.1229 -0.2474 -0.4122
  718MPD2    H510674   4.619   2.727  12.848  0.3779 -1.1378 -1.0298
  718MPD2    N110675   0.289   2.905  12.643  0.2988 -0.1187 -0.2212
  718MPD2    H710676   0.379   2.952  12.639  0.2931  0.0391  1.6868
  719TMC3    C110677   0.255   2.932  12.410 -0.5752  0.5150  0.8092
  719TMC3    C210678   0.168   2.880  12.311 -0.6019  0.0065  0.3698
  719TMC3    C310679   0.090   2.964  12.233  0.2197 -0.0857 -0.8047
  719TMC3    C410680   0.245   3.068  12.432  0.6701  0.2860 -0.5150
  719TMC3    C510681   0.161   3.145  12.353  0.4002 -0.5020 -0.2412
  719TMC3    C610682   0.091   3.098  12.249 -0.7717  0.3519 -0.0166
  719TMC3     C10683   0.219   2.866  12.531  0.4449 -0.0444  0.2461
  719TMC3     O10684   0.118   2.803  12.520 -0.7195  0.1346  0.0307
  719TMC3     H10685   0.176   2.774  12.288  2.7470  0.7349 -1.9838
  719TMC3    H110686   0.292   3.114  12.518  1.6121 -2.9559  0.6731
  719TMC3    H210687   0.038   3.165  12.182 -0.1863  0.7678 -0.0765
  719TMC3    C710688   0.177   3.287  12.367  0.0085 -0.0038 -0.4393
  719TMC3    C810689   4.694   2.918  12.209 -0.0067  0.1323 -0.2363
  719TMC3    O110690   0.286   3.339  12.398 -0.7678 -0.3044 -0.1151
  719TMC3    O210691   4.626   2.976  12.126 -0.1634  0.0153 -0.2561
  720MPD2     C10692   3.256   0.313  14.063 -0.5535 -0.1253 -0.3373
  720MPD2    C110693   3.345   0.257  13.976 -0.2835  0.0004  0.3475
  720MPD2    C210694   3.461   0.202  14.022  0.7362 -0.3693  0.4760
  720MPD2    C310695   3.488   0.202  14.153 -0.5000 -0.1062  0.1159
  720MPD2    C410696   3.398   0.261  14.243  0.4658  0.1656  0.8150
  720MPD2    C510697   3.287   0.316  14.191 -0.3924  0.0680  0.2322
  720MPD2     H10698   3.531   0.166  13.947 -0.9871  0.1134 -1.3604
  720MPD2    H110699   3.402   0.263  14.351 -0.2505 -1.1022  0.8657
  720MPD2    H210700   3.163   0.366  14.046 -0.3899  1.0966  2.4779
  720MPD2    H310701   3.220   0.373  14.254 -0.4129  1.4612 -1.0437
  720MPD2     N10702   3.613   0.153  14.188 -0.3658 -0.1367 -0.8599
  720MPD2    H510703   3.685   0.146  14.117  2.7618  1.8555  2.0792
  720MPD2    N110704   3.313   0.254  13.838 -0.3725  0.2831 -0.0014
  720MPD2    H710705   3.356   0.182  13.780 -1.1638  0.3364 -0.6480
  721TMC3    C110706   3.799   0.135  14.330 -0.5935  0.1173  0.4315
  721TMC3    C210707   3.854   0.203  14.436 -0.2536 -0.8695 -0.3825
  721TMC3    C310708   3.984   0.236  14.437  0.2934 -0.1004 -0.1565
  721TMC3    C410709   3.877   0.107  14.218  0.7590  0.2397 -0.2390
  721TMC3    C510710   4.013   0.133  14.226  0.7114  0.2656  0.2294
  721TMC3    C610711   4.067   0.205  14.331 -0.0800 -0.2277 -0.0839
  721TMC3     C10712   3.657   0.145  14.315  0.3484 -0.0008  0.0846
  721TMC3     O10713   3.595   0.174  14.418 -0.0137  0.0948 -0.6299
  721TMC3     H10714   3.792   0.241  14.516 -2.7674  0.3219 -2.8857
  721TMC3    H110715   3.845   0.030  14.149  0.1042  0.2522  0.0513
  721TMC3    H210716   4.171   0.233  14.315  0.0217 -2.0599 -2.7157
  721TMC3    C710717   4.108   0.088  14.135  0.2479 -0.2243 -0.0467
  721TMC3    C810718   4.053   0.268  14.566  0.2025 -0.4847 -0.4309
  721TMC3    O110719   4.207   0.158  14.111  0.5812 -0.1550 -0.1344
  721TMC3    O210720   4.174   0.286  14.555  0.6589  0.4698  0.2661
  722MPD2     C10721   2.094   3.456  13.438 -0.0125  0.3531 -0.3219
  722MPD2    C110722   2.078   3.586  13.379 -0.2203 -0.1306  0.2069
  722MPD2    C210723   1.959   3.629  13.337 -0.4968 -0.5936 -0.1912
  722MPD2    C310724   1.845   3.555  13.343  0.0950 -0.5738 -0.4425
  722MPD2    C410725   1.857   3.424  13.397  0.5651  0.5623  0.3461
  722MPD2    C510726   1.981   3.377  13.438  0.3449 -0.8089  0.2115
  722MPD2     H10727   1.949   3.735  13.314 -0.3001 -0.3863  0.6973
  722MPD2    H110728   1.777   3.352  13.405  0.1742  0.8434 -1.0125
  722MPD2    H210729   2.191   3.428  13.477 -0.6041 -0.7478  0.3357
  722MPD2    H310730   2.007   3.278  13.472 -1.2413 -1.1414  0.4225
  722MPD2     N10731   1.718   3.604  13.292  0.2625 -0.1649 -0.5279
  722MPD2    H510732   1.718   3.701  13.260  0.0252 -0.0172 -0.0748
  722MPD2    N110733   2.190   3.672  13.371 -0.1178  1.2137  0.5334
  722MPD2    H710734   2.178   3.762  13.325 -1.7272  0.7624  0.0668
  723TMC3    C110735   1.502   3.592  13.204  0.1969  0.0501  0.0914
  723TMC3    C210736   1.415   3.517  13.124  0.0086  0.0431 -0.0561
  723TMC3    C310737   1.292   3.567  13.095  0.4091 -0.1139  0.3587
  723TMC3    C410738   1.472   3.723  13.250  0.5769  0.0859 -0.2733
  723TMC3    C510739   1.341   3.759  13.224  0.9366 -0.2206 -0.1144
  723TMC3    C610740   1.248   3.682  13.157 -0.2227 -0.1367 -0.3661
  723TMC3     C10741   1.612   3.523  13.265  0.1975  0.0535 -0.3764
  723TMC3     O10742   1.610   3.402  13.257 -0.5937  0.2740  0.3455
  723TMC3     H10743   1.442   3.417  13.093 -0.2582  0.1651 -0.6721
  723TMC3    H110744   1.533   3.776  13.322 -0.2812  0.9432 -0.1880
  723TMC3    H210745   1.144   3.708  13.139  0.7814  1.9639 -3.1025
  723TMC3    C710746   1.289   3.885  13.283  0.2993  0.0787 -0.0157
  723TMC3    C810747   1.206   3.511  12.985  0.4325 -0.2039 -0.0449
  723TMC3    O110748   1.361   3.938  13.369  0.4967 -0.3481 -0.8067
  723TMC3    O210749   1.120   3.583  12.938 -0.4940 -0.5396  0.6120
  724TMC3    C110750   2.934   1.953  10.634  0.6051 -0.4227 -0.1177
  724TMC3    C210751   2.859   2.043  10.704  0.8300  0.1381  0.2958
  724TMC3    C310752   2.898   2.169  10.690 -0.5279 -0.0081 -0.1289
  724TMC3    C410753   3.028   1.984  10.537  0.8751 -0.0667 -0.3329
  724TMC3    C510754   3.055   2.115  10.523 -0.0704 -0.7580 -0.1854
  724TMC3    C610755   2.997   2.208  10.594  0.4292  0.2823  0.4378
  724TMC3     C10756   2.918   1.810  10.650  0.1464 -0.9200  0.1052
  724TMC3     O10757   3.022   1.741  10.626 -0.2465 -0.0060 -0.1791
  724TMC3     H10758   2.813   2.008  10.796 -0.5004  0.7707 -0.1363
  724TMC3    H110759   3.066   1.901  10.480  1.3583 -1.0768  1.4648
  724TMC3    H210760   3.027   2.313  10.588  0.7859  0.1647  0.1444
  724TMC3    C710761   3.156   2.156  10.434 -0.5686  1.2024 -0.0978
  724TMC3    C810762   2.821   2.259  10.776  0.0650 -0.5295 -0.3293
  724TMC3    O110763   3.170   2.281  10.422 -0.0542  0.4748  0.3488
  724TMC3    O210764   2.716   2.224  10.832 -0.3422  0.3429  0.2005
  725TMC3    C110765   4.167   0.801  12.632 -0.2190  0.4242 -0.2196
  725TMC3    C210766   4.086   0.862  12.547  0.1391 -0.5818 -0.4148
  725TMC3    C310767   4.058   0.808  12.426 -0.3379  0.3690  0.4530
  725TMC3    C410768   4.235   0.689  12.597  0.0969  0.0331 -0.4175
  725TMC3    C510769   4.196   0.633  12.474  0.0022 -0.1081  0.8214
  725TMC3    C610770   4.112   0.687  12.386 -0.2439  0.6367 -0.4159
  725TMC3     C10771   4.220   0.884  12.737 -0.4123 -0.0651  0.5499
  725TMC3     O10772   4.202   1.004  12.733  0.1490 -0.5573 -0.2308
  725TMC3     H10773   4.036   0.950  12.587 -1.6011 -2.7294  2.1227
  725TMC3    H110774   4.309   0.649  12.664 -0.6412 -0.5409  0.0555
  725TMC3    H210775   4.087   0.634  12.295 -0.3773 -0.3635  0.2183
  725TMC3    C710776   4.243   0.498  12.455  0.0872 -0.4178 -0.1858
  725TMC3    C810777   3.953   0.872  12.344 -0.1891 -0.0868 -0.2363
  725TMC3    O110778   4.262   0.469  12.340 -0.1552  0.2862  0.1311
  725TMC3    O210779   3.866   0.940  12.400  0.8111 -0.0918  0.0683
  726MPD2     C10780   1.836   2.108  10.283 -0.3386  0.0807 -0.3389
  726MPD2    C110781   1.739   2.193  10.233 -0.1788 -0.6251  0.8101
  726MPD2    C210782   1.624   2.140  10.183  0.1751 -0.5159 -0.6619
  726MPD2    C310783   1.589   2.009  10.197  0.3438 -0.0335 -0.2953
  726MPD2    C410784   1.690   1.924  10.240  0.1623 -0.4110 -0.0889
  726MPD2    C510785   1.808   1.970  10.288 -0.0986 -0.4701  0.0382
  726MPD2     H10786   1.555   2.213  10.143 -0.7044 -0.8375  0.2563
  726MPD2    H110787   1.679   1.817  10.249 -0.3493 -0.5336 -2.1268
  726MPD2    H210788   1.935   2.139  10.312 -0.5362  0.5322 -0.1544
  726MPD2    H310789   1.880   1.893  10.311  0.6642  0.1204 -0.4039
  726MPD2     N10790   1.465   1.953  10.172  0.1046  0.2089 -0.2127
  726MPD2    H510791   1.464   1.853  10.189  0.4187  0.4638  1.3102
  726MPD2    N110792   1.762   2.333  10.219  0.1383 -0.3060  0.4494
  726MPD2    H710793   1.691   2.388  10.173  1.6546  0.9283 -0.4249
  727TMC3    C110794   1.862   2.539  10.239  0.7097 -0.6603 -0.2345
  727TMC3    C210795   1.895   2.626  10.331  0.8381  0.5737 -0.3276
  727TMC3    C310796   1.882   2.761  10.306  0.2796  0.2504 -0.3818
  727TMC3    C410797   1.816   2.573  10.114  0.7523  0.5840 -0.3016
  727TMC3    C510798   1.806   2.709  10.087  0.0917  0.7030  0.0834
  727TMC3    C610799   1.831   2.806  10.184 -0.5149 -0.0861 -0.6933
  727TMC3     C10800   1.868   2.400  10.275 -0.3979 -0.0160  0.3362
  727TMC3     O10801   1.949   2.362  10.359 -0.1046 -0.1821 -0.2036
  727TMC3     H10802   1.939   2.595  10.425  1.9760 -0.1988 -1.1094
  727TMC3    H110803   1.822   2.503  10.031 -3.0500 -0.9987  0.7274
  727TMC3    H210804   1.844   2.909  10.152  0.2018  0.2501  0.6687
  727TMC3    C710805   1.724   2.733   9.964  0.4008  0.2048 -0.1193
  727TMC3    C810806   1.927   2.853  10.418  0.1931  0.2054  0.7081
  727TMC3    O110807   1.708   2.636   9.883  0.7461  0.2289 -0.1419
  727TMC3    O210808   1.995   2.794  10.504  0.2375  0.2930  0.3521
  728TMC3    C110809   0.691   0.505  15.146 -0.2328  0.5437  0.5839
  728TMC3    C210810   0.825   0.509  15.131  0.5716  0.0565 -0.6734
  728TMC3    C310811   0.879   0.517  15.010 -0.4526  0.2872 -0.0981
  728TMC3    C410812   0.606   0.485  15.038  0.2252 -0.3499 -0.1683
  728TMC3    C510813   0.662   0.492  14.916  0.1876  0.5131  0.1615
  728TMC3    C610814   0.793   0.510  14.902 -0.2783 -0.0775 -0.5176
  728TMC3     C10815   0.639   0.507  15.280 -0.0863 -0.6143  0.7125
  728TMC3     O10816   0.715   0.484  15.371  0.2823  0.6277  0.1819
  728TMC3     H10817   0.892   0.516  15.215 -1.3342 -0.8635  0.9203
  728TMC3    H110818   0.500   0.470  15.050  0.2589 -0.0087  0.5710
  728TMC3    H210819   0.830   0.490  14.802 -0.9795  2.3714 -1.2809
  728TMC3    C710820   0.570   0.509  14.803 -0.2387 -0.0590 -0.1828
  728TMC3    C810821   1.019   0.514  14.979  0.6831 -0.2027 -0.2725
  728TMC3    O110822   0.454   0.530  14.835  0.0055 -0.5391 -0.2111
  728TMC3    O210823   1.051   0.484  14.867  0.0578 -0.3222  0.5678
  729MPD2     C10824   3.054   1.819  16.748 -0.0200 -0.3774  0.4217
  729MPD2    C110825   3.119   1.732  16.828  0.0872  0.3306  0.6288
  729MPD2    C210826   3.055   1.705  16.952 -0.4729 -0.2372  0.0131
  729MPD2    C310827   2.934   1.768  16.986 -0.4235 -0.3377 -0.8148
  729MPD2    C410828   2.876   1.859  16.901  0.3888  0.4593  0.7984
  729MPD2    C510829   2.943   1.890  16.787 -0.1691 -0.1126  0.0462
  729MPD2     H10830   3.098   1.641  17.028  2.2976  0.2321 -1.1688
  729MPD2    H110831   2.796   1.927  16.924 -0.5594 -0.9195  1.5957
  729MPD2    H210832   3.095   1.853  16.653 -1.6675  0.9087  0.1619
  729MPD2    H310833   2.908   1.970  16.724 -0.7364  0.2659  0.8400
  729MPD2     N10834   2.885   1.750  17.116  0.2823  0.1629 -0.1188
  729MPD2    H510835   2.811   1.815  17.140  0.6909  0.1945  1.0412
  729MPD2    N110836   3.249   1.693  16.797 -0.2671  0.2663  0.1889
  729MPD2    H710837   3.294   1.715  16.709  0.9911  0.0254  0.7639
  730TMC3    C110838   2.871   1.693  17.340  0.3109  0.0853  0.0809
  730TMC3    C210839   2.979   1.663  17.423  0.1381 -0.5415 -0.5956
  730TMC3    C310840   3.005   1.749  17.529 -0.5635  0.0632 -0.4993
  730TMC3    C410841   2.795   1.811  17.353 -0.5878  0.6696  0.0078
  730TMC3    C510842   2.831   1.897  17.462  0.3272 -0.5592 -0.3751
  730TMC3    C610843   2.919   1.855  17.555 -0.3934  0.1786  0.0294
  730TMC3     C10844   2.910   1.652  17.207 -0.5166  0.4516 -0.0127
  730TMC3     O10845   2.965   1.544  17.188  0.1739 -0.0334  0.0600
  730TMC3     H10846   3.051   1.584  17.404 -1.0085 -2.1446  1.8322
  730TMC3    H110847   2.705   1.846  17.304 -1.0295 -0.4148  0.0395
  730TMC3    H210848   2.939   1.918  17.641 -0.2767  0.7197 -0.3971
  730TMC3    C710849   2.856   2.027  17.414 -0.1794 -0.1654 -0.0304
  730TMC3    C810850   3.144   1.785  17.537 -0.0528  0.0304  0.0533
  730TMC3    O110851   2.839   2.047  17.291  0.2353  0.1841 -0.2836
  730TMC3    O210852   3.219   1.733  17.454 -0.7377 -0.4726  0.5543
  731MPD2     C10853   3.695   4.635  12.339 -0.3237 -0.2422 -0.2371
  731MPD2    C110854   3.598   4.584  12.264  0.9821  0.4373  1.0273
  731MPD2    C210855   3.520   4.491  12.320 -0.4484 -0.0326  0.2570
  731MPD2    C310856   3.528   4.460  12.456 -0.4345  0.4857 -0.1800
  731MPD2    C410857   3.640   4.499  12.527  0.3672  0.6409 -0.1483
  731MPD2    C510858   3.717   4.596  12.471  0.1807 -0.6127  0.8104
  731MPD2     H10859   3.444   4.444  12.258 -1.3473  1.3966  0.2680
  731MPD2    H110860   3.662   4.481  12.632  0.2286 -1.3469 -0.4656
  731MPD2    H210861   3.756   4.718  12.306 -1.0026  0.9824  1.5566
  731MPD2    H310862   3.792   4.653  12.525 -2.1628  1.5356  1.7667
  731MPD2     N10863   3.437   4.367  12.511 -0.0687 -0.2224 -0.1437
  731MPD2    H510864   3.343   4.358  12.473 -0.1089 -0.6681  0.0567
  731MPD2    N110865   3.593   4.629  12.127 -0.3409 -1.2067  0.3746
  731MPD2    H710866   3.656   4.703  12.098 -1.3683 -0.2772  0.4954
  732TMC3    C110867   3.507   4.693  11.925  0.4572 -0.5770 -0.6762
  732TMC3    C210868   3.395   4.732  11.854 -0.4585  0.6941 -0.4808
  732TMC3    C310869   3.403   0.101  11.765  0.0567 -0.3006 -0.2870
  732TMC3    C410870   3.630   0.013  11.899 -0.9453 -0.6077 -0.1897
  732TMC3    C510871   3.638   0.110  11.799  0.3321 -0.8338 -0.2620
  732TMC3    C610872   3.526   0.156  11.739 -0.0582 -0.3346  0.2085
  732TMC3     C10873   3.485   4.612  12.050 -0.0635  0.4554  0.4447
  732TMC3     O10874   3.376   4.560  12.065 -0.2072 -0.4593  0.2195
  732TMC3     H10875   3.307   4.670  11.866  1.6172 -1.8171  1.8957
  732TMC3    H110876   3.724   4.712  11.937 -1.3372  0.1806  1.5535
  732TMC3    H210877   3.532   0.239  11.670  2.3936 -0.6863  0.0204
  732TMC3    C710878   3.770   0.167  11.765 -0.0804 -0.3551 -0.2692
  732TMC3    C810879   3.303   0.115  11.665  0.1907 -0.3444 -0.7780
  732TMC3    O110880   3.765   0.272  11.699  0.0067 -0.1228 -0.6280
  732TMC3    O210881   3.341   0.189  11.575 -0.7758 -0.0139  0.3494
  733TMC3    C110882   4.276   2.591  13.061 -0.2248 -0.4784 -0.4836
  733TMC3    C210883   4.404   2.601  13.096 -0.3813 -0.3442  0.5568
  733TMC3    C310884   4.503   2.585  13.003 -0.0441 -0.4094 -0.8363
  733TMC3    C410885   4.234   2.578  12.932  0.1850  0.8384  0.1537
  733TMC3    C510886   4.329   2.549  12.837  0.4985 -0.3148  0.0183
  733TMC3    C610887   4.465   2.569  12.870  0.7146 -0.1979  0.1403
  733TMC3     C10888   4.171   2.639  13.148 -0.3001 -0.4158  0.1362
  733TMC3     O10889   4.055   2.652  13.108 -0.1194  0.6586 -0.5888
  733TMC3     H10890   4.432   2.629  13.197  3.2127 -0.2617 -0.4647
  733TMC3    H110891   4.129   2.566  12.909  0.7676 -1.5520 -1.2486
  733TMC3    H210892   4.545   2.543  12.801  1.5793  1.4432  0.5337
  733TMC3    C710893   4.288   2.583  12.694 -0.2600 -1.0226 -0.9181
  733TMC3    C810894   4.635   2.633  13.029 -0.2713 -0.3872 -0.2353
  733TMC3    O110895   4.172   2.567  12.663 -0.0301  0.2961 -0.2624
  733TMC3    O210896   4.675   2.621  13.142  0.3328  0.1699 -0.2195
  734MPD2     C10897   2.321   0.511  11.967 -0.3318  0.3957 -0.1934
  734MPD2    C110898   2.190   0.554  11.998  0.4942  0.8124  0.1223
  734MPD2    C210899   2.112   0.596  11.890 -0.0934  0.4918 -0.4252
  734MPD2    C310900   2.165   0.592  11.760  0.1154 -0.0490  0.1658
  734MPD2    C410901   2.289   0.556  11.736 -0.1425 -0.0877  0.1254
  734MPD2    C510902   2.365   0.519  11.839 -0.6775  0.3591 -0.0667
  734MPD2     H10903   2.008   0.623  11.905  0.0905  1.1470 -0.3059
  734MPD2    H110904   2.331   0.561  11.636 -1.7115 -2.0013 -0.6358
  734MPD2    H210905   2.389   0.485  12.047  0.2311 -2.3219 -1.5775
  734MPD2    H310906   2.465   0.486  11.814 -1.1180 -1.2729  0.2896
  734MPD2     N10907   2.077   0.628  11.652 -0.9596  0.0864  0.1914
  734MPD2    H510908   1.992   0.678  11.677  0.2495  1.4986  1.5185
  734MPD2    N110909   2.141   0.534  12.126 -0.2375 -0.3628 -0.4639
  734MPD2    H710910   2.204   0.486  12.189 -1.7844 -0.5590  0.9356
  735TMC3    C110911   1.952   0.476  12.262  0.1176  0.2779 -0.4218
  735TMC3    C210912   1.819   0.515  12.278  0.0479 -0.0172 -0.3759
  735TMC3    C310913   1.722   0.419  12.282  0.0630 -0.0771 -0.3955
  735TMC3    C410914   1.995   0.350  12.249 -0.0425  0.3515 -0.9267
  735TMC3    C510915   1.891   0.265  12.238 -0.0293 -0.3839 -0.5091
  735TMC3    C610916   1.762   0.290  12.262  0.4309  0.4174 -0.0907
  735TMC3     C10917   2.015   0.562  12.163  0.5014 -0.5983 -0.6464
  735TMC3     O10918   1.927   0.629  12.106  0.5992  0.3163  0.0213
  735TMC3     H10919   1.791   0.619  12.290 -0.5690  0.1367 -3.0222
  735TMC3    H110920   2.095   0.326  12.215 -0.4035  0.9743 -2.4063
  735TMC3    H210921   1.693   0.210  12.237 -0.8266  1.3829  0.2564
  735TMC3    C710922   1.922   0.164  12.139 -0.0926 -0.7480 -0.5773
  735TMC3    C810923   1.613   0.447  12.192 -0.1057  0.6480  0.4836
  735TMC3    O110924   1.980   0.202  12.037 -0.5842  0.0701  0.0278
  735TMC3    O210925   1.517   0.370  12.194  0.0654 -0.1102 -0.0710
  736MPD2     C10926   1.859   4.546  12.153  0.2867 -0.6019 -0.0404
  736MPD2    C110927   1.871   4.671  12.095 -0.2775  0.0521 -0.2270
  736MPD2    C210928   1.887   4.680  11.961 -0.3785  0.0883 -0.2380
  736MPD2    C310929   1.886   4.570  11.878  0.1994  0.2193  0.6631
  736MPD2    C410930   1.879   4.446  11.937  0.3189  0.2853 -0.1008
  736MPD2    C510931   1.865   4.438  12.078  0.8573 -0.2997  0.0683
  736MPD2     H10932   1.899   0.038  11.908  0.9305  1.5664  2.6842
  736MPD2    H110933   1.896   4.359  11.875 -0.3884 -0.2105  0.3873
  736MPD2    H210934   1.851   4.531  12.260  0.0179 -1.8251 -0.2212
  736MPD2    H310935   1.865   4.342  12.129 -1.0127 -1.5941 -2.3734
  736MPD2     N10936   1.891   4.579  11.734 -0.7509 -0.1113 -0.1883
  736MPD2    H510937   1.893   4.495  11.677 -0.7691  0.8941 -1.6588
  736MPD2    N110938   1.881   0.040  12.180  0.5512 -0.5076 -0.0555
  736MPD2    H710939   1.858   0.015  12.275  1.4622  0.4711  0.4223
  737TMC3    C110940   1.920   4.700  11.530  0.2054  0.0721  0.2944
  737TMC3    C210941   1.896   0.079  11.461  0.6292 -0.4882 -0.3783
  737TMC3    C310942   1.985   0.135  11.375  1.0704 -0.2688 -0.2061
  737TMC3    C410943   2.045   4.638  11.511  0.6394 -1.0896 -0.9793
  737TMC3    C510944   2.133   4.706  11.428 -0.5051 -1.1822 -0.5750
  737TMC3    C610945   2.106   0.077  11.349  0.4608  0.0890  0.4965
  737TMC3     C10946   1.867   4.697  11.664  0.1178  0.2547 -0.0997
  737TMC3     O10947   1.825   0.066  11.708 -0.2024  0.5128  0.3433
  737TMC3     H10948   1.802   0.131  11.477  0.2808 -0.6333 -1.9184
  737TMC3    H110949   2.073   4.545  11.559 -1.3075 -0.9258  0.4935
  737TMC3    H210950   2.175   0.113  11.273 -0.0261 -1.5477 -0.7127
  737TMC3    C710951   2.250   4.623  11.387  0.8898 -0.0836  0.1736
  737TMC3    C810952   1.935   0.248  11.299 -0.4344 -0.3663  0.4124
  737TMC3    O110953   2.256   4.505  11.418  0.3157 -0.6626  0.2998
  737TMC3    O210954   1.814   0.266  11.288 -0.3341  0.1912  0.1972
  738MPD2     C10955   1.962   3.832  14.813  0.0353 -0.1257  0.0389
  738MPD2    C110956   2.015   3.770  14.923 -0.1100  0.2653 -0.3107
  738MPD2    C210957   2.157   3.782  14.940 -0.0462  0.1151  0.6967
  738MPD2    C310958   2.235   3.871  14.869  0.0491 -0.2827  0.3310
  738MPD2    C410959   2.171   3.953  14.773  0.9980 -1.5268 -0.6588
  738MPD2    C510960   2.041   3.917  14.738 -0.1382  0.6544  0.3690
  738MPD2     H10961   2.210   3.728  15.018 -0.3029 -2.3267 -0.8136
  738MPD2    H110962   2.221   4.030  14.716 -2.2557  0.8246 -0.2805
  738MPD2    H210963   1.856   3.827  14.789  0.0669  0.8370 -0.2968
  738MPD2    H310964   1.990   3.972  14.660  2.0483  1.4871 -0.4690
  738MPD2     N10965   2.372   3.892  14.891  0.0961 -0.1893  0.2479
  738MPD2    H510966   2.413   3.964  14.832  1.9666 -0.7367  0.8852
  738MPD2    N110967   1.946   3.674  15.003  0.2478  0.0926  0.2430
  738MPD2    H710968   2.005   3.625  15.069 -2.5426 -1.1108  1.8294
  739TMC3    C110969   2.580   3.888  14.979 -0.4314 -0.3454  0.5854
  739TMC3    C210970   2.633   3.918  14.854  0.0237  0.1124 -0.4554
  739TMC3    C310971   2.757   3.967  14.854  0.0646 -0.8507 -0.2311
  739TMC3    C410972   2.640   3.919  15.100  0.1254  0.5555 -0.6823
  739TMC3    C510973   2.762   3.980  15.087  0.2526 -0.2686 -0.1380
  739TMC3    C610974   2.831   4.004  14.967  0.4348 -0.2370  0.4811
  739TMC3     C10975   2.448   3.848  14.988 -0.1568 -0.3263 -0.4266
  739TMC3     O10976   2.410   3.794  15.094 -0.0887  0.2106  0.3694
  739TMC3     H10977   2.584   3.894  14.760  1.7900 -1.8708 -0.8538
  739TMC3    H110978   2.592   3.903  15.196 -1.0794  0.0731 -1.3684
  739TMC3    H210979   2.933   4.042  14.964 -0.4748  2.1391 -0.2140
  739TMC3    C710980   2.827   4.033  15.204  0.6320  0.4166  0.0971
  739TMC3    C810981   2.784   4.039  14.730 -0.1022  0.1493  0.0303
  739TMC3    O110982   2.931   4.095  15.178  0.7561 -0.3619  0.3904
  739TMC3    O210983   2.765   3.977  14.626  0.0378 -0.2707 -0.4149
  740TMC3    C110984   3.350   0.522  14.537 -0.6828  0.6102  0.8003
  740TMC3    C210985   3.377   0.429  14.636 -0.0689  0.0131 -0.4175
  740TMC3    C310986   3.511   0.404  14.650 -0.5800 -0.0892  0.0810
  740TMC3    C410987   3.442   0.570  14.445 -0.2604  0.0315 -0.5732
  740TMC3    C510988   3.576   0.536  14.466  0.4290 -0.0986  0.2729
  740TMC3    C610989   3.613   0.462  14.572 -0.1162  0.7863  0.2709
  740TMC3     C10990   3.226   0.585  14.536  0.2663 -0.2276  0.0820
  740TMC3     O10991   3.218   0.698  14.481 -0.0986  0.4214 -0.0768
  740TMC3     H10992   3.303   0.383  14.701  2.9607 -2.9997  0.8755
  740TMC3    H110993   3.413   0.641  14.369  3.0418  1.0121 -0.9332
  740TMC3    H210994   3.714   0.429  14.592 -0.8044 -0.9855  0.8144
  740TMC3    C710995   3.666   0.504  14.354  0.0967  0.0378  0.3693
  740TMC3    C810996   3.553   0.291  14.727 -0.1923 -0.3675  0.1514
  740TMC3    O110997   3.782   0.467  14.382 -0.3320 -0.1886 -0.3224
  740TMC3    O210998   3.673   0.256  14.724 -0.2641 -0.4918 -0.2498
  741TMC3    C110999   2.529   4.514  14.453 -0.1443  0.0439  0.1009
  741TMC3    C211000   2.464   4.392  14.456  0.1248  0.3563  0.6382
  741TMC3    C311001   2.506   4.303  14.552  0.0053 -0.0814 -0.3745
  741TMC3    C411002   2.613   4.548  14.558 -0.1241  1.4724 -0.3434
  741TMC3    C511003   2.650   4.462  14.655 -0.4526 -0.1487  0.3208
  741TMC3    C611004   2.595   4.335  14.656 -0.1722 -0.4826  0.3522
  741TMC3     C11005   2.548   4.562  14.316 -0.2921  0.1067 -0.2605
  741TMC3     O11006   2.460   4.535  14.235 -0.4055  0.3669 -0.1525
  741TMC3     H11007   2.414   4.354  14.367  0.4882  1.1163  0.1089
  741TMC3    H111008   2.658   4.646  14.565  1.5992  0.7731 -1.6662
  741TMC3    H211009   2.637   4.268  14.729  0.6697  0.2076  0.5116
  741TMC3    C711010   2.737   4.508  14.750 -0.6940  0.1863  1.0293
  741TMC3    C811011   2.443   4.177  14.563 -0.0797 -0.0352  0.2082
  741TMC3    O111012   2.819   4.589  14.714 -1.0325 -0.3137  0.0218
  741TMC3    O211013   2.488   4.092  14.638  0.5251 -0.5714  0.0596
  742TMC3    C111014   2.902   2.907  15.332  0.3644 -0.0347  0.0036
  742TMC3    C211015   2.839   2.883  15.214 -0.3918  0.4802  0.4381
  742TMC3    C311016   2.907   2.880  15.098  0.5031  0.4201 -0.2983
  742TMC3    C411017   3.033   2.938  15.345  0.2544 -0.5648  0.1809
  742TMC3    C511018   3.097   2.943  15.222 -0.0044  0.3519 -0.1931
  742TMC3    C611019   3.040   2.910  15.102 -0.1330 -0.2067  0.0644
  742TMC3     C11020   2.833   2.879  15.457  0.1583 -0.1631 -0.3613
  742TMC3     O11021   2.892   2.881  15.563  0.4628  0.5567  0.7656
  742TMC3     H11022   2.736   2.851  15.217  0.0559 -0.8356  1.3992
  742TMC3    H111023   3.079   2.953  15.442  0.8026  1.7272 -0.4123
  742TMC3    H211024   3.098   2.905  15.011 -0.3720  3.2660 -0.2818
  742TMC3    C711025   3.244   2.922  15.238  0.4022  0.0686  1.2017
  742TMC3    C811026   2.836   2.872  14.977 -0.2528 -0.4916  0.4323
  742TMC3    O111027   3.302   2.852  15.152  0.7216  0.3914 -0.0487
  742TMC3    O211028   2.897   2.836  14.877  0.6054 -0.0562 -0.1234
  743MPD2     C11029   0.818   3.938   1.313 -0.3189  0.3328 -0.9775
  743MPD2    C111030   0.745   3.976   1.207  0.7085 -0.2113 -0.4836
  743MPD2    C211031   0.794   4.052   1.106 -0.1786 -0.0873 -0.3052
  743MPD2    C311032   0.929   4.083   1.100  0.5091  0.3385  0.3641
  743MPD2    C411033   1.010   4.035   1.201 -0.1541  0.2826 -0.1329
  743MPD2    C511034   0.952   3.968   1.305  0.5692  0.5440  0.8598
  743MPD2     H11035   0.733   4.101   1.031 -0.2059 -0.0894 -0.2840
  743MPD2    H111036   1.115   4.058   1.204  0.1496 -1.2174  0.7172
  743MPD2    H211037   0.774   3.899   1.404  0.6271  3.3436  0.7706
  743MPD2    H311038   1.012   3.931   1.388 -0.5120 -0.0930  1.3516
  743MPD2     N11039   0.972   4.151   0.984  0.2551 -0.2014  0.1744
  743MPD2    H511040   0.908   4.191   0.916  0.4397  3.6569  2.2171
  743MPD2    N111041   0.606   3.940   1.211  0.3138 -0.3822  0.2165
  743MPD2    H711042   0.575   3.889   1.293  2.2741 -1.9245 -0.0212
  744TMC3    C111043   0.384   3.898   1.123 -0.3564 -0.2871 -0.0817
  744TMC3    C211044   0.316   3.947   1.233 -0.3797 -0.6300 -0.1074
  744TMC3    C311045   0.183   3.990   1.209 -0.0118 -0.4389  0.2013
  744TMC3    C411046   0.322   3.864   1.009  0.7886  0.2513  0.3246
  744TMC3    C511047   0.193   3.907   0.994  0.2270 -0.2214  0.0761
  744TMC3    C611048   0.123   3.975   1.093 -0.0948 -0.2195  0.4364
  744TMC3     C11049   0.529   3.932   1.104 -0.7494  0.3069  0.0150
  744TMC3     O11050   0.542   3.980   0.994 -0.5983 -0.2706 -0.1333
  744TMC3     H11051   0.370   3.969   1.325  0.8460 -1.0326 -0.7163
  744TMC3    H111052   0.379   3.810   0.934 -1.1552  0.6304 -1.4028
  744TMC3    H211053   0.022   4.011   1.078  0.2382 -0.4607 -2.2747
  744TMC3    C711054   0.159   3.934   0.861 -0.6165 -0.6458 -0.1243
  744TMC3    C811055   0.138   4.105   1.287  0.6450 -0.2203  0.0149
  744TMC3    O111056   0.089   4.037   0.841  0.0226 -0.0464 -0.7838
  744TMC3    O211057   0.021   4.134   1.263  0.4778 -0.0746  0.3235
  745TMC3    C111058   2.924   2.498  13.908 -0.5503  0.3274 -0.1488
  745TMC3    C211059   2.827   2.537  13.998 -0.2172 -0.1087  0.4939
  745TMC3    C311060   2.718   2.611  13.964 -0.4364  0.0625  0.1189
  745TMC3    C411061   2.916   2.540  13.780  0.0460  0.6598  0.5882
  745TMC3    C511062   2.808   2.621  13.745  0.2360 -0.0440  0.2436
  745TMC3    C611063   2.705   2.656  13.840  0.3207 -0.3925 -0.1271
  745TMC3     C11064   3.052   2.503  13.973  0.0930 -0.6146 -0.5000
  745TMC3     O11065   3.081   2.401  14.039 -0.2202  0.0255  0.7260
  745TMC3     H11066   2.845   2.495  14.096  1.4415  0.2674  0.3410
  745TMC3    H111067   2.996   2.507  13.714  0.3023 -0.4658  1.4577
  745TMC3    H211068   2.620   2.712  13.803 -0.6162 -2.3490 -0.9504
  745TMC3    C711069   2.786   2.678  13.607  0.2684 -0.1715  0.2146
  745TMC3    C811070   2.678   2.711  14.059 -0.0811 -0.1850 -0.4531
  745TMC3    O111071   2.676   2.681  13.550 -0.0412 -0.4632  0.1559
  745TMC3    O211072   2.566   2.757  14.040 -0.0186  0.3015 -0.2254
  746TMC3    C111073   0.717   4.649  11.182  1.4467 -0.3163  0.0556
  746TMC3    C211074   0.834   4.637  11.113 -0.2826 -0.2152  0.1489
  746TMC3    C311075   0.869   4.512  11.076  0.2644  0.7677 -0.3452
  746TMC3    C411076   0.627   4.544  11.204 -0.5615  0.4181 -0.1417
  746TMC3    C511077   0.668   4.418  11.165  0.0094 -0.1298 -0.3042
  746TMC3    C611078   0.790   4.398  11.102 -0.0210 -0.4602 -0.0783
  746TMC3     C11079   0.677   0.040  11.243  0.3292  0.1107 -0.0873
  746TMC3     O11080   0.597   0.033  11.337  0.5171 -0.4265  0.5001
  746TMC3     H11081   0.897   4.722  11.090 -0.3762  0.0200  0.7632
  746TMC3    H111082   0.524   4.559  11.235 -0.9044 -1.1954 -0.5074
  746TMC3    H211083   0.823   4.302  11.063  0.3721  0.2628 -1.5121
  746TMC3    C711084   0.579   4.312  11.130 -0.6882 -0.9167  0.0814
  746TMC3    C811085   0.948   4.487  10.962  0.2971  0.2716 -0.6634
  746TMC3    O111086   0.605   4.238  11.037  0.2226 -0.0272 -0.5038
  746TMC3    O211087   0.997   4.376  10.940 -0.4235  0.2321  0.0283
  747TMC3    C111088   2.871   0.352  10.725  0.1964  0.6617  0.1232
  747TMC3    C211089   2.809   0.237  10.767 -0.1113 -0.1849  0.0249
  747TMC3    C311090   2.824   0.202  10.897  0.1428  0.0938 -0.0444
  747TMC3    C411091   2.954   0.427  10.798  0.2197  0.4120 -0.3625
  747TMC3    C511092   2.969   0.390  10.932 -0.4926  0.5681  0.9351
  747TMC3    C611093   2.899   0.282  10.983  0.3411  0.0642 -0.0639
  747TMC3     C11094   2.888   0.354  10.579 -0.1537  0.2062 -0.2065
  747TMC3     O11095   2.937   0.460  10.529 -0.3053 -0.9159  0.1984
  747TMC3     H11096   2.755   0.169  10.702 -0.5085 -1.1722  1.3786
  747TMC3    H111097   2.998   0.513  10.749 -2.6284  1.9414 -0.2629
  747TMC3    H211098   2.912   0.248  11.085 -2.3022  0.1294  0.2817
  747TMC3    C711099   3.059   0.445  11.022 -0.2314  0.6416 -0.6908
  747TMC3    C811100   2.788   0.067  10.944 -0.1072 -0.0637  0.0837
  747TMC3    O111101   3.068   0.408  11.138  0.1270  0.0779 -0.3749
  747TMC3    O211102   2.776   4.710  10.865 -0.0578 -0.1478  0.1930
  748MPD2     C11103   0.059   0.760   1.920 -0.0820  0.3343 -0.5285
  748MPD2    C111104   0.022   0.755   1.786 -0.2177 -0.5334  0.2425
  748MPD2    C211105   0.097   0.809   1.688 -0.4378  0.6194 -0.1390
  748MPD2    C311106   0.201   0.901   1.720  0.4924  0.4017 -0.0028
  748MPD2    C411107   0.235   0.915   1.856  0.1107 -0.1692  0.2832
  748MPD2    C511108   0.170   0.832   1.949 -0.0172 -0.2761  0.9327
  748MPD2     H11109   0.073   0.787   1.585 -0.2001 -1.0956  0.1561
  748MPD2    H111110   0.314   0.985   1.882 -0.7863  0.5872  0.9823
  748MPD2    H211111   0.004   0.709   1.998 -0.3991  0.5840 -0.5874
  748MPD2    H311112   0.203   0.837   2.052 -0.6471 -2.0525  1.2192
  748MPD2     N11113   0.257   0.968   1.607  0.0566 -0.7212  0.5453
  748MPD2    H511114   0.208   0.942   1.521  0.8663  2.0383 -0.7374
  748MPD2    N111115   4.635   0.695   1.752  0.6820 -0.3657  0.0724
  748MPD2    H711116   4.589   0.634   1.819  1.6826 -0.4055  0.7267
  749TMC3    C111117   0.323   1.156   1.483  0.0157 -0.6716  0.1443
  749TMC3    C211118   0.276   1.096   1.370 -0.1969 -0.2829  0.2441
  749TMC3    C311119   0.272   1.168   1.252 -0.8356 -0.3023  0.6021
  749TMC3    C411120   0.347   1.295   1.489  0.8816  0.1953  0.5753
  749TMC3    C511121   0.331   1.365   1.369 -0.0046  0.1651  0.0231
  749TMC3    C611122   0.299   1.302   1.252  0.8170  0.0965 -0.5166
  749TMC3     C11123   0.313   1.091   1.613 -0.5046 -0.3618 -0.2876
  749TMC3     O11124   0.368   1.147   1.704 -0.4329  0.4540 -0.1946
  749TMC3     H11125   0.258   0.990   1.365 -2.3607  0.0958  0.0520
  749TMC3    H111126   0.336   1.353   1.580  0.0598  2.2340 -0.8235
  749TMC3    H211127   0.305   1.363   1.162  0.3699 -1.1988 -1.4302
  749TMC3    C711128   0.280   1.501   1.393 -0.1898  0.4726  0.3881
  749TMC3    C811129   0.236   1.108   1.124 -0.1723 -0.3738 -0.0500
  749TMC3    O111130   0.337   1.573   1.473  0.3658  0.1979  0.4072
  749TMC3    O211131   0.208   1.188   1.035  0.5604 -0.5289  0.4212
  750MPD2     C11132   0.372   1.887  11.376 -0.3002 -0.1629  0.2293
  750MPD2    C111133   0.277   1.801  11.430  0.3712 -0.1909 -0.0101
  750MPD2    C211134   0.250   1.682  11.366  0.9095  0.2121  0.0487
  750MPD2    C311135   0.328   1.642  11.258 -0.1892 -0.2542  0.0369
  750MPD2    C411136   0.424   1.727  11.207 -0.2297  0.2838 -0.3297
  750MPD2    C511137   0.444   1.855  11.262 -0.1547  0.3140  0.2455
  750MPD2     H11138   0.172   1.620  11.409  2.2360 -2.9082 -2.0196
  750MPD2    H111139   0.477   1.691  11.119 -0.1038  1.2930 -0.6682
  750MPD2    H211140   0.395   1.976  11.434  2.0944 -0.8426  0.3255
  750MPD2    H311141   0.511   1.920  11.206 -0.3919  0.1485 -0.2309
  750MPD2     N11142   0.318   1.511  11.200 -0.0399  0.1486 -0.0048
  750MPD2    H511143   0.395   1.485  11.138 -0.0417  0.8203 -0.2839
  750MPD2    N111144   0.211   1.846  11.548  0.0143 -0.3830  0.2374
  750MPD2    H711145   0.241   1.933  11.591  1.2830 -0.7309  0.0701
  751TMC3    C111146   0.240   1.286  11.182  0.0330 -0.0222  0.5043
  751TMC3    C211147   0.164   1.185  11.225 -0.7080 -0.5250  0.4486
  751TMC3    C311148   0.205   1.056  11.218 -0.4194  0.4604  0.4531
  751TMC3    C411149   0.358   1.268  11.112  0.3335  0.8460  1.1793
  751TMC3    C511150   0.400   1.137  11.107  0.4583  0.4754 -0.2291
  751TMC3    C611151   0.328   1.033  11.167 -0.6628 -0.3960  0.1419
  751TMC3     C11152   0.225   1.415  11.240  0.2438 -0.9900  0.1557
  751TMC3     O11153   0.137   1.428  11.321 -0.8711 -0.0569  0.1111
  751TMC3     H11154   0.062   1.214  11.248  0.0382  0.5959  2.4007
  751TMC3    H111155   0.393   1.332  11.032 -1.0898 -1.4539 -1.2979
  751TMC3    H211156   0.365   0.931  11.165  1.0850  0.2479 -0.9306
  751TMC3    C711157   0.441   1.104  10.972  0.1206  0.0034 -0.4285
  751TMC3    C811158   0.110   0.949  11.192 -0.0521  0.0388 -0.9441
  751TMC3    O111159   0.528   1.166  10.915  0.7667 -0.0761  0.4794
  751TMC3    O211160   0.154   0.864  11.120 -0.6679 -0.3956 -0.3124
  752TMC3    C111161   3.774   1.432   0.073  0.0463 -0.2332 -0.2135
  752TMC3    C211162   3.845   1.408   0.187  0.4711  0.0977  0.3762
  752TMC3    C311163   3.783   1.355   0.298 -0.2149 -0.2830  0.2872
  752TMC3    C411164   3.632   1.429   0.073  0.8306  0.0823  0.5258
  752TMC3    C511165   3.578   1.372   0.188  0.4645  0.6537  0.2484
  752TMC3    C611166   3.648   1.352   0.303  0.5101  0.1919  1.1668
  752TMC3     C11167   3.858   1.460  17.709  0.0105 -0.2792  0.0803
  752TMC3     O11168   3.978   1.439  17.725 -0.0577  0.3071  0.1262
  752TMC3     H11169   3.953   1.415   0.196  0.6346 -2.1737  0.2208
  752TMC3    H111170   3.561   1.444  17.738 -0.8685 -1.9859  1.6308
  752TMC3    H211171   3.590   1.314   0.386 -0.6510 -0.9852 -0.1887
  752TMC3    C711172   3.432   1.368   0.208 -0.2237  0.0529  0.1374
  752TMC3    C811173   3.853   1.337   0.420 -0.5219 -0.2213 -0.3024
  752TMC3    O111174   3.386   1.284   0.280 -0.8119 -0.1071  0.7185
  752TMC3    O211175   3.799   1.372   0.520 -0.6435 -0.5545  0.4778
  753TMC3    C111176   0.840   2.532  13.512 -0.9323 -0.2805  0.3593
  753TMC3    C211177   0.948   2.509  13.596 -0.9126 -0.7536  0.2907
  753TMC3    C311178   1.020   2.396  13.575  0.5666  0.3431 -0.8372
  753TMC3    C411179   0.803   2.451  13.405  0.7019 -0.8737 -0.1534
  753TMC3    C511180   0.886   2.342  13.385  0.5237 -0.1590 -0.4354
  753TMC3    C611181   0.990   2.310  13.472  0.3014 -0.2854  0.1625
  753TMC3     C11182   0.789   2.667  13.520  0.3704 -0.0759 -0.4236
  753TMC3     O11183   0.861   2.756  13.559 -0.2294 -0.0899  0.2512
  753TMC3     H11184   0.965   2.563  13.688 -2.3333 -0.8324  0.6100
  753TMC3    H111185   0.719   2.461  13.337  0.7065  1.2864  0.1516
  753TMC3    H211186   1.052   2.221  13.464  1.8915  0.8441 -0.1083
  753TMC3    C711187   0.878   2.284  13.254  0.2348  0.6141 -0.0454
  753TMC3    C811188   1.138   2.376  13.653 -1.0229  0.7697 -0.9924
  753TMC3    O111189   0.870   2.364  13.164  0.3572 -0.2422  0.6096
  753TMC3    O211190   1.172   2.261  13.679  0.3947 -0.4205  0.0790
  754MPD2     C11191   0.392   1.585  13.371 -0.0520 -0.0637 -0.2242
  754MPD2    C111192   0.322   1.470  13.345  0.1823  0.1808 -0.5811
  754MPD2    C211193   0.182   1.473  13.345 -0.7763 -0.2346 -0.0575
  754MPD2    C311194   0.118   1.588  13.378  0.0158  0.6365  0.0360
  754MPD2    C411195   0.192   1.700  13.411 -0.1621  0.5455  0.2713
  754MPD2    C511196   0.331   1.699  13.407  0.3675  0.1667  0.1709
  754MPD2     H11197   0.122   1.386  13.324 -1.7405  0.2954  0.4989
  754MPD2    H111198   0.137   1.788  13.440 -1.3716 -0.0529 -0.1920
  754MPD2    H211199   0.500   1.593  13.365  0.0540 -0.7795  0.8481
  754MPD2    H311200   0.394   1.780  13.442  2.3127 -0.9213 -0.8217
  754MPD2     N11201   4.709   1.600  13.377 -0.1667  0.2450  0.0370
  754MPD2    H511202   4.662   1.690  13.375  0.3756  0.5180 -0.2764
  754MPD2    N111203   0.406   1.357  13.321 -0.0059  0.2058 -0.4496
  754MPD2    H711204   0.502   1.385  13.306  0.0261  0.8674  0.9941
  755MPD2     C11205   4.248   2.227  13.010 -0.4064  0.2891 -0.4969
  755MPD2    C111206   4.161   2.121  13.016  0.3996  0.2569 -0.1048
  755MPD2    C211207   4.203   1.997  13.054 -0.0168 -0.0809  0.0022
  755MPD2    C311208   4.336   1.984  13.095 -0.4068 -0.0022  0.3557
  755MPD2    C411209   4.418   2.096  13.101  0.1773 -0.5134 -0.8893
  755MPD2    C511210   4.384   2.212  13.037 -0.2327  0.5291  0.0915
  755MPD2     H11211   4.133   1.915  13.071  0.3841 -0.6578 -1.1285
  755MPD2    H111212   4.520   2.079  13.132  0.3318 -0.8508 -1.5756
  755MPD2    H211213   4.218   2.325  12.977  1.0543  0.3892 -1.5178
  755MPD2    H311214   4.450   2.297  13.019  0.4380 -0.4174 -1.9299
  755MPD2     N11215   4.388   1.856  13.135 -0.5839  0.2360 -0.1018
  755MPD2    H511216   4.479   1.855  13.181 -0.2353 -0.5806 -0.8101
  755MPD2    N111217   4.018   2.130  12.996 -0.0877 -0.5836  0.1149
  755MPD2    H711218   3.962   2.047  13.014 -0.6609 -0.4388 -0.9992
  756MPD2     C11219   0.676   2.839   9.709 -0.1734 -0.2011  0.3106
  756MPD2    C111220   0.610   2.722   9.703  0.7265 -0.4835  0.3271
  756MPD2    C211221   0.546   2.686   9.589 -0.5439  0.0068  0.5293
  756MPD2    C311222   0.544   2.768   9.476 -0.9253  0.2004 -0.5559
  756MPD2    C411223   0.621   2.881   9.478  0.4738  0.1188 -0.2691
  756MPD2    C511224   0.680   2.922   9.598 -0.6736  0.3248 -0.2093
  756MPD2     H11225   0.507   2.586   9.571 -0.8886  0.1197  0.6362
  756MPD2    H111226   0.635   2.946   9.393  0.6565  3.0225  1.9859
  756MPD2    H211227   0.723   2.883   9.796  1.0892  3.0849 -2.0183
  756MPD2    H311228   0.731   3.017   9.613  1.6445 -1.1589  1.2368
  756MPD2     N11229   0.496   2.706   9.363  0.8700  0.3025 -0.0502
  756MPD2    H511230   0.440   2.621   9.367  1.5945 -0.1627  0.2387
  756MPD2    N111231   0.601   2.631   9.806  0.4723 -0.5363 -1.1154
  756MPD2    H711232   0.568   2.538   9.782  1.8218 -0.4415 -3.3783
  757MPD2     C11233   0.376   1.827   9.316 -1.0688 -0.0493  0.0907
  757MPD2    C111234   0.258   1.889   9.280 -0.2820 -0.5036  0.5420
  757MPD2    C211235   0.264   2.013   9.217  0.1032  0.2145  0.5491
  757MPD2    C311236   0.390   2.070   9.191  0.5288 -0.9873 -0.5274
  757MPD2    C411237   0.503   2.010   9.244 -0.0248 -0.6661 -0.0057
  757MPD2    C511238   0.489   1.892   9.304  0.4404  0.3155  0.6009
  757MPD2     H11239   0.172   2.063   9.189  0.3058  0.3661  0.1575
  757MPD2    H111240   0.599   2.056   9.268 -0.5045  0.4683 -0.2764
  757MPD2    H211241   0.374   1.735   9.374 -1.3079  0.1641  0.4218
  757MPD2    H311242   0.584   1.858   9.345 -0.6733 -2.3428  0.9847
  757MPD2     N11243   0.393   2.196   9.130  0.5869 -0.0261 -0.3393
  757MPD2    H511244   0.309   2.231   9.086 -1.3969 -1.0940  2.5804
  757MPD2    N111245   0.140   1.814   9.315 -0.4921  0.0511 -0.2802
  757MPD2    H711246   0.158   1.725   9.361 -1.0562  0.9636  1.7314
  758MPD2     C11247   0.218   1.078  15.644  0.3419  1.2493  0.5890
  758MPD2    C111248   0.286   1.002  15.731  0.6507 -0.9311 -0.3120
  758MPD2    C211249   0.221   0.979  15.859 -0.7559 -0.1405 -0.3658
  758MPD2    C311250   0.118   1.060  15.905  0.5216  0.5450 -0.2051
  758MPD2    C411251   0.053   1.150  15.818 -0.3986  0.7666  0.2263
  758MPD2    C511252   0.108   1.157  15.690  0.7097  0.6499  0.2609
  758MPD2     H11253   0.255   0.904  15.929 -0.7242 -0.3064 -0.5579
  758MPD2    H111254   4.688   1.185  15.828 -1.2029 -1.2554 -0.8688
  758MPD2    H211255   0.237   1.097  15.539 -1.4717 -0.2251 -0.0100
  758MPD2    H311256   0.061   1.220  15.616  1.8640  2.3902  0.9985
  758MPD2     N11257   0.064   1.057  16.030  0.6433 -0.2341 -0.7138
  758MPD2    H511258   4.709   1.098  16.041  1.1086  0.3092  1.1778
  758MPD2    N111259   0.400   0.940  15.681  0.0018 -0.0164 -0.3784
  758MPD2    H711260   0.415   0.944  15.581  0.6588 -0.9106 -0.3140
  759MPD2     C11261   3.617   0.001  10.910  0.4806  0.3868 -0.2468
  759MPD2    C111262   3.579   4.653  10.809  0.2136  0.4095  0.0376
  759MPD2    C211263   3.653   4.636  10.694 -0.4154 -0.7464  0.3154
  759MPD2    C311264   3.767   4.710  10.674  0.1743  0.0333  0.9131
  759MPD2    C411265   3.817   0.044  10.782  0.2159 -0.3796 -0.0956
  759MPD2    C511266   3.741   0.065  10.896  0.3488  0.1586  0.3601
  759MPD2     H11267   3.596   4.581  10.620 -1.5949  0.7904  0.0742
  759MPD2    H111268   3.907   0.103  10.783 -0.7257  1.0624 -1.1841
  759MPD2    H211269   3.557   0.022  10.998 -2.2099 -0.9029 -1.7744
  759MPD2    H311270   3.776   0.126  10.979 -1.6414 -2.6235  3.2353
  759MPD2     N11271   3.833   4.703  10.545  0.1284 -0.2896 -0.0091
  759MPD2    H511272   3.786   4.648  10.474 -0.3516  0.3892 -0.2091
  759MPD2    N111273   3.460   4.586  10.808 -0.3923 -0.0181 -0.0423
  759MPD2    H711274   3.445   4.534  10.723 -1.2486  0.7018 -0.3280
  760MPD2     C11275   3.321   1.485  11.851  1.0439  0.2418  0.0366
  760MPD2    C111276   3.415   1.555  11.773  0.2559 -0.1301 -0.0536
  760MPD2    C211277   3.486   1.487  11.667  0.1371  0.2118 -0.3860
  760MPD2    C311278   3.462   1.355  11.649  0.2395 -0.2203 -0.0879
  760MPD2    C411279   3.366   1.290  11.725 -0.4001 -0.3199 -0.2953
  760MPD2    C511280   3.301   1.348  11.827  0.5625 -0.0000 -0.5977
  760MPD2     H11281   3.565   1.535  11.610  2.3968 -2.5383  0.3916
  760MPD2    H111282   3.344   1.184  11.728 -1.1135 -0.1646  0.1062
  760MPD2    H211283   3.266   1.515  11.940 -0.4334 -0.2289 -0.7189
  760MPD2    H311284   3.219   1.302  11.882  0.8017  1.1010  0.6891
  760MPD2     N11285   3.529   1.263  11.560 -0.2595  0.2873  0.2597
  760MPD2    H511286   3.501   1.167  11.575 -2.3931  0.8261 -0.3237
  760MPD2    N111287   3.455   1.685  11.812  0.1184 -0.1862  0.3353
  760MPD2    H711288   3.518   1.736  11.751  0.0896 -1.3957 -0.7284
  761MPD2     C11289   4.375   0.804  11.095  0.6167  0.0203 -0.0409
  761MPD2    C111290   4.496   0.747  11.064 -0.0323  0.0288  0.4308
  761MPD2    C211291   4.609   0.818  11.094  0.0430 -0.3911 -0.7164
  761MPD2    C311292   4.601   0.929  11.174 -0.3883  0.1066  0.0964
  761MPD2    C411293   4.476   0.994  11.194  0.1376 -0.2869  1.0774
  761MPD2    C511294   4.366   0.924  11.155 -0.2483 -0.0947  0.3754
  761MPD2     H11295   4.705   0.770  11.079 -0.1983 -1.3762  0.9297
  761MPD2    H111296   4.473   1.081  11.259  1.1987 -0.1676  0.9646
  761MPD2    H211297   4.279   0.763  11.066  0.1179  1.0206  0.1705
  761MPD2    H311298   4.274   0.974  11.180  0.7378  1.5854  0.6796
  761MPD2     N11299   4.719   0.986  11.224  0.1399 -0.6233 -0.1069
  761MPD2    H511300   4.708   1.064  11.288  2.0939 -1.4372  1.2321
  761MPD2    N111301   4.506   0.629  10.994  0.4286  0.4049 -0.9903
  761MPD2    H711302   4.594   0.580  11.003 -0.6319 -1.8301 -2.6963
  762MPD2     C11303   0.057   4.678  10.589 -0.4080  0.0143  0.1659
  762MPD2    C111304   0.073   0.073  10.606 -0.0552  0.9162  0.1588
  762MPD2    C211305   0.180   0.137  10.549 -0.9589  0.2902 -0.1541
  762MPD2    C311306   0.260   0.058  10.468 -0.1460  0.3234  0.6865
  762MPD2    C411307   0.239   4.660  10.450  0.7152 -0.1348  0.5197
  762MPD2    C511308   0.131   4.602  10.507 -0.1868  0.3566  0.0505
  762MPD2     H11309   0.199   0.243  10.564 -2.6590  0.7330 -1.0507
  762MPD2    H111310   0.309   4.595  10.398 -0.4793 -0.3905 -0.7719
  762MPD2    H211311   4.706   4.629  10.630  0.0543 -0.6999  0.3124
  762MPD2    H311312   0.117   4.494  10.508 -0.6061  0.4100  0.3397
  762MPD2     N11313   0.376   0.112  10.412 -0.0352  0.0700  0.1859
  762MPD2    H511314   0.445   0.039  10.392 -0.3928 -0.3234  0.4012
  762MPD2    N111315   4.718   0.141  10.688 -0.9105  0.3929 -0.1486
  762MPD2    H711316   4.636   0.087  10.714 -0.0642 -1.0962 -0.5750
  763MPD2     C11317   1.652   1.044  16.107 -0.2429  0.0137 -0.2410
  763MPD2    C111318   1.764   1.065  16.031  0.0486  0.3900  0.3600
  763MPD2    C211319   1.855   1.154  16.091  0.3051 -0.4947 -1.1535
  763MPD2    C311320   1.834   1.213  16.213  0.8147  0.2080 -0.6170
  763MPD2    C411321   1.720   1.183  16.281  0.4084 -0.6029 -0.7130
  763MPD2    C511322   1.633   1.094  16.230 -1.0554  0.0213 -0.0139
  763MPD2     H11323   1.945   1.177  16.035 -0.1213  2.4191 -0.6074
  763MPD2    H111324   1.699   1.216  16.382 -3.1435 -1.0051 -1.3354
  763MPD2    H211325   1.578   0.975  16.067  0.0502 -1.0127  0.9906
  763MPD2    H311326   1.542   1.077  16.287 -0.0278 -4.0282  0.4007
  763MPD2     N11327   1.925   1.312  16.250  0.4840  0.1479  0.4006
  763MPD2    H511328   2.012   1.322  16.197  0.7723  0.4574  0.9355
  763MPD2    N111329   1.805   1.005  15.910  0.1508  0.1092  0.1629
  763MPD2    H711330   1.904   1.006  15.889  0.1852  3.1878  0.3756
  764MPD2     C11331   4.402   1.878   0.213  0.1176  0.1677 -0.3965
  764MPD2    C111332   4.284   1.951   0.194 -0.9091 -0.1299 -0.6131
  764MPD2    C211333   4.194   1.975   0.303  0.3126  0.2791  0.1377
  764MPD2    C311334   4.232   1.930   0.427 -0.2615  0.1378 -0.2033
  764MPD2    C411335   4.358   1.871   0.452 -0.1420 -0.2474  0.2654
  764MPD2    C511336   4.441   1.846   0.342  0.0826 -0.7896  0.2865
  764MPD2     H11337   4.099   2.024   0.287  0.5291  1.3453  2.1137
  764MPD2    H111338   4.395   1.848   0.551 -3.1559 -3.0479  0.7287
  764MPD2    H211339   4.473   1.861   0.133 -1.5928 -2.6454 -1.2914
  764MPD2    H311340   4.540   1.805   0.359  0.6285 -0.9193 -3.2291
  764MPD2     N11341   4.138   1.962   0.525 -0.0744  0.0468  0.6035
  764MPD2    H511342   4.061   2.021   0.496 -0.9882 -0.9085  1.0615
  764MPD2    N111343   4.246   1.999   0.066 -0.2342 -0.1582  0.1257
  764MPD2    H711344   4.163   2.057   0.067  1.2696  2.0404 -1.7229
  765MPD2     C11345   4.467   0.753  16.277  0.4038 -0.5283  0.0848
  765MPD2    C111346   4.518   0.771  16.155  0.3257  0.0923  0.3521
  765MPD2    C211347   4.639   0.708  16.130 -0.9207  0.6936 -1.0753
  765MPD2    C311348   4.710   0.635  16.218 -0.4739  0.0503  0.5180
  765MPD2    C411349   4.657   0.626  16.342 -0.5254 -0.4314  0.3048
  765MPD2    C511350   4.539   0.686  16.369  0.1878 -0.2499 -0.1988
  765MPD2     H11351   4.691   0.712  16.035  0.8266  0.1088 -0.1563
  765MPD2    H111352   4.698   0.574  16.428 -0.3575 -1.1179 -0.1902
  765MPD2    H211353   4.368   0.787  16.306  0.1679 -3.0884  2.2692
  765MPD2    H311354   4.496   0.672  16.467  0.4855 -0.7610 -0.1418
  765MPD2     N11355   0.101   0.591  16.185 -0.3788  1.0568 -0.3334
  765MPD2    H511356   0.136   0.597  16.090  0.2735  1.2541 -0.0759
  765MPD2    N111357   4.452   0.846  16.056  0.5519  0.3987  0.0043
  765MPD2    H711358   4.366   0.894  16.083 -1.1048 -3.5492  1.6519
  766MPD2     C11359   3.888   0.795  15.395 -0.7112  0.3165 -0.1322
  766MPD2    C111360   4.008   0.781  15.463 -0.8320  0.3968 -0.4318
  766MPD2    C211361   4.107   0.712  15.404 -0.9975  0.0912  0.2440
  766MPD2    C311362   4.086   0.647  15.283  0.5713 -1.0206 -0.0635
  766MPD2    C411363   3.971   0.657  15.223 -0.4402 -0.0534 -0.3591
  766MPD2    C511364   3.870   0.728  15.276 -0.1153  0.8959  0.0820
  766MPD2     H11365   4.205   0.723  15.450 -0.7879  1.5462 -0.5355
  766MPD2    H111366   3.959   0.597  15.134  1.6581  1.4285 -1.6185
  766MPD2    H211367   3.808   0.852  15.441  0.0778  1.7776 -0.5715
  766MPD2    H311368   3.780   0.753  15.221  0.7795  1.3099 -1.1879
  766MPD2     N11369   4.191   0.604  15.200  0.0753  0.0787  0.2126
  766MPD2    H511370   4.169   0.603  15.101 -1.3238  0.3292  0.5186
  766MPD2    N111371   4.030   0.853  15.582 -0.4698  0.3026  0.1776
  766MPD2    H711372   3.965   0.927  15.609 -1.2603 -0.1832 -0.3853
  767MPD2     C11373   3.713   1.055  14.670  0.0526 -0.0994 -0.0043
  767MPD2    C111374   3.814   0.988  14.727 -1.2010 -0.0998  0.6373
  767MPD2    C211375   3.877   0.889  14.663 -0.2500 -0.0895  0.0620
  767MPD2    C311376   3.855   0.864  14.528  0.0635 -0.7966 -0.3758
  767MPD2    C411377   3.750   0.933  14.471  0.0779  0.6368  0.1782
  767MPD2    C511378   3.678   1.025  14.544  0.4936  0.3876 -0.2270
  767MPD2     H11379   3.952   0.827  14.712 -2.8738 -1.2413  2.6564
  767MPD2    H111380   3.710   0.903  14.374  1.8343  1.1969 -0.7246
  767MPD2    H211381   3.660   1.135  14.720  1.0291 -0.6822  1.9449
  767MPD2    H311382   3.591   1.069  14.497 -0.8800 -0.9144  1.1015
  767MPD2     N11383   3.919   0.764  14.455 -0.1483  0.2645 -0.0769
  767MPD2    H511384   3.897   0.768  14.356 -2.2851  1.6602  0.4572
  767MPD2    N111385   3.846   1.019  14.865 -0.5197 -0.1335 -0.1752
  767MPD2    H711386   3.796   1.095  14.909 -4.3088 -2.8897  0.2204
  768MPD2     C11387   0.620   4.295  10.530  0.5127  0.5709 -0.0494
  768MPD2    C111388   0.580   4.203  10.619 -1.2559 -0.2154 -0.4938
  768MPD2    C211389   0.665   4.149  10.713 -0.2433  0.1773 -0.2832
  768MPD2    C311390   0.793   4.197  10.731  0.1902  0.0845 -0.0998
  768MPD2    C411391   0.834   4.293  10.643  0.2560  1.1916  0.4733
  768MPD2    C511392   0.751   4.334  10.547  1.0052 -0.6747 -0.5327
  768MPD2     H11393   0.624   4.075  10.780  0.8237  1.2674  1.5592
  768MPD2    H111394   0.927   4.348  10.654 -0.5485  2.5714  0.4717
  768MPD2    H211395   0.561   4.346  10.455  0.0730  0.6971  0.3822
  768MPD2    H311396   0.788   4.411  10.481  2.4269 -0.7405  0.1855
  768MPD2     N11397   0.880   4.153  10.833  0.0746 -0.3248  0.4781
  768MPD2    H511398   0.961   4.213  10.844 -1.5636  2.2953 -1.7249
  768MPD2    N111399   0.455   4.147  10.595 -0.5264 -0.1708  0.6043
  768MPD2    H711400   0.435   4.070  10.659  0.3605 -2.0883 -1.4024
  769MPD2     C11401   1.231   1.762  14.844  0.5867  0.0199 -0.0408
  769MPD2    C111402   1.144   1.843  14.911  0.0404 -0.1796  0.9089
  769MPD2    C211403   1.180   1.903  15.030 -0.4695 -0.3966 -0.7633
  769MPD2    C311404   1.310   1.870  15.082 -0.2079  0.9253  0.6473
  769MPD2    C411405   1.392   1.783  15.016 -0.4081  0.5768  0.4130
  769MPD2    C511406   1.358   1.732  14.894  0.1844 -0.3215 -0.0077
  769MPD2     H11407   1.122   1.978  15.083  0.9877  0.6657 -0.6801
  769MPD2    H111408   1.491   1.755  15.048 -1.3941 -1.0273  2.0469
  769MPD2    H211409   1.205   1.712  14.752 -2.7510  0.9487  0.3928
  769MPD2    H311410   1.414   1.656  14.841  0.1502  0.8862 -1.7924
  769MPD2     N11411   1.346   1.916  15.208 -0.2966  0.1718 -0.3650
  769MPD2    H511412   1.281   1.967  15.267  0.5192  1.6796 -0.7540
  769MPD2    N111413   1.020   1.864  14.847  0.6144  0.4415 -0.1229
  769MPD2    H711414   1.004   1.817  14.759  1.3580  0.0177 -0.0269
  770MPD2     C11415   0.107   1.498  14.891  0.0904  0.0376  0.1941
  770MPD2    C111416   0.214   1.473  14.811  0.5525  0.3584  0.0283
  770MPD2    C211417   0.312   1.562  14.797  0.7644  0.5756 -0.0590
  770MPD2    C311418   0.321   1.679  14.868  0.4380  0.0965 -0.0863
  770MPD2    C411419   0.216   1.704  14.954  0.3189  0.2761 -0.3851
  770MPD2    C511420   0.112   1.611  14.971  0.0076 -0.3472 -0.1881
  770MPD2     H11421   0.392   1.555  14.723 -0.0940 -2.2883 -0.6925
  770MPD2    H111422   0.201   1.799  15.004 -1.2130 -1.8598  3.1745
  770MPD2    H211423   0.025   1.429  14.904 -2.2294  2.9278  1.0338
  770MPD2    H311424   0.029   1.641  15.035 -0.4872  0.9775 -1.4558
  770MPD2     N11425   0.422   1.768  14.831 -0.0413  1.0528 -0.5408
  770MPD2    H511426   0.491   1.733  14.766 -0.7446  0.1184 -0.7787
  770MPD2    N111427   0.217   1.341  14.760  0.0398 -0.2000 -0.0882
  770MPD2    H711428   0.137   1.279  14.765 -1.2167  1.5933  1.9353
  771MPD2     C11429   1.885   4.643  13.921 -0.2463  0.1561  0.4362
  771MPD2    C111430   1.805   0.014  13.943  0.0503  0.5059  0.3991
  771MPD2    C211431   1.661   4.731  13.932 -0.1791  0.7813 -0.2221
  771MPD2    C311432   1.606   4.615  13.879 -0.1487 -0.7119 -0.0885
  771MPD2    C411433   1.694   4.508  13.858  0.5537 -0.3195 -0.5813
  771MPD2    C511434   1.827   4.527  13.878  0.0696 -0.3766 -0.0418
  771MPD2     H11435   1.589   0.069  13.960  0.5299  1.4564 -0.1906
  771MPD2    H111436   1.668   4.407  13.827 -0.0903 -0.5004  0.5820
  771MPD2    H211437   1.992   4.656  13.927 -0.2656 -0.3083  1.8453
  771MPD2    H311438   1.891   4.449  13.839 -0.1564  0.8681 -2.9592
  771MPD2     N11439   1.468   4.608  13.859  0.1018  0.6087  0.4769
  771MPD2    H511440   1.424   4.698  13.870  0.1005  0.6284  0.3173
  771MPD2    N111441   1.850   0.143  13.979 -0.3141  0.6901 -0.1463
  771MPD2    H711442   1.784   0.220  13.980 -0.3506  0.6567  0.3171
  772MPD2     C11443   1.596   0.707  14.314 -0.1413 -0.0151  0.0469
  772MPD2    C111444   1.591   0.593  14.239  0.4042  0.2511 -0.4231
  772MPD2    C211445   1.469   0.529  14.230  0.1508 -0.2121  0.3012
  772MPD2    C311446   1.367   0.553  14.319  0.0460  0.2236 -0.7318
  772MPD2    C411447   1.374   0.660  14.399 -0.0184 -0.7377  0.9653
  772MPD2    C511448   1.484   0.743  14.388  0.0047  0.3126  0.4238
  772MPD2     H11449   1.464   0.447  14.159  1.2554  0.2184 -0.2770
  772MPD2    H111450   1.288   0.699  14.453  0.2207 -0.0358  0.8437
  772MPD2    H211451   1.680   0.775  14.305  0.2100 -0.7297 -1.9485
  772MPD2    H311452   1.479   0.841  14.433 -1.4848 -0.8148  2.7414
  772MPD2     N11453   1.245   0.483  14.315  0.4585  0.0634  0.2935
  772MPD2    H511454   1.178   0.513  14.385  1.0293 -1.1377  1.3536
  772MPD2    N111455   1.695   0.544  14.151  0.2347 -0.4531 -0.2730
  772MPD2    H711456   1.672   0.470  14.085 -2.4675 -0.8796  1.1267
  773MPD2     C11457   0.698   2.028  17.714  0.5312  0.6184 -0.2132
  773MPD2    C111458   0.657   1.957  17.607  0.3609  0.3379 -0.5192
  773MPD2    C211459   0.642   1.818  17.619 -0.4567  0.3145  0.0381
  773MPD2    C311460   0.672   1.755  17.735  0.0386 -0.0409  0.6788
  773MPD2    C411461   0.715   1.824   0.093  0.3668  0.4718 -1.4014
  773MPD2    C511462   0.725   1.957   0.085 -0.7865 -0.8266  0.0894
  773MPD2     H11463   0.617   1.756  17.534 -1.6170  2.1579 -0.9565
  773MPD2    H111464   0.744   1.783   0.189  0.2177  0.6645 -1.2753
  773MPD2    H211465   0.713   2.134  17.724  2.3518  0.3952 -0.5835
  773MPD2    H311466   0.746   2.015   0.174 -1.9557 -0.9175  0.4327
  773MPD2     N11467   0.657   1.612  17.739  0.3289  0.1702 -0.4398
  773MPD2    H511468   0.634   1.561  17.654  1.7146 -2.0047  0.4733
  773MPD2    N111469   0.651   2.011  17.474 -0.0503  0.2765  0.1068
  773MPD2    H711470   0.620   1.952  17.397 -0.6476 -0.6843  1.0929
  774MPD2     C11471   4.663   0.360  13.390 -0.7000  0.6194  0.0190
  774MPD2    C111472   4.697   0.402  13.517 -0.5133 -1.1059  0.4746
  774MPD2    C211473   0.003   0.530  13.542  0.4087 -0.1169 -0.2511
  774MPD2    C311474   0.016   0.617  13.436 -0.6958 -0.4977 -0.0199
  774MPD2    C411475   4.687   0.591  13.315 -0.0754  1.2611 -0.5047
  774MPD2    C511476   4.646   0.461  13.292  0.3095  0.1796 -0.3348
  774MPD2     H11477   0.047   0.557  13.636  1.9077 -0.6951 -0.7948
  774MPD2    H111478   4.670   0.665  13.237  1.9538  1.9055 -0.3351
  774MPD2    H211479   4.632   0.257  13.373  1.1366 -0.2939  2.2114
  774MPD2    H311480   4.592   0.436  13.201 -0.2114  1.5189 -0.3872
  774MPD2     N11481   0.068   0.744  13.468 -0.8949  0.1921 -0.3179
  774MPD2    H511482   0.092   0.753  13.566 -0.4740  0.1724 -0.4206
  774MPD2    N111483   4.705   0.295  13.618 -0.1328 -0.4013  0.1529
  774MPD2    H711484   4.669   0.204  13.593 -1.0194 -0.1089  0.3588
  775MPD2     C11485   1.670   1.689  15.648  0.4472 -0.4338  0.0966
  775MPD2    C111486   1.697   1.805  15.715 -0.9710 -0.7416 -0.4518
  775MPD2    C211487   1.791   1.894  15.660  0.0856 -0.5433  0.4494
  775MPD2    C311488   1.849   1.860  15.537  0.5057  0.3024  0.5146
  775MPD2    C411489   1.818   1.744  15.466  0.3539 -0.1288  0.2429
  775MPD2    C511490   1.730   1.660  15.531 -0.0344  0.4804  0.0808
  775MPD2     H11491   1.807   1.994  15.699  0.6061 -0.3766 -0.1973
  775MPD2    H111492   1.856   1.716  15.368  0.1994  0.7428 -0.0607
  775MPD2    H211493   1.612   1.611  15.696  0.0302  0.8836  1.7677
  775MPD2    H311494   1.702   1.562  15.492  0.6252  1.0159 -1.7382
  775MPD2     N11495   1.933   1.944  15.464  0.0619  0.3993  0.6086
  775MPD2    H511496   1.964   1.924  15.370  0.9338  0.5666  0.8573
  775MPD2    N111497   1.619   1.830  15.828 -0.0950  0.4267  0.9258
  775MPD2    H711498   1.554   1.753  15.836  0.5454  0.0206  2.2093
  776MPD2     C11499   4.387   2.334  11.610  0.6339 -0.1171 -0.2582
  776MPD2    C111500   4.522   2.313  11.644 -0.5380 -0.0202  0.2006
  776MPD2    C211501   4.623   2.378  11.578  0.3267 -0.4193 -0.0761
  776MPD2    C311502   4.599   2.464  11.467  0.4902 -0.9780 -0.2699
  776MPD2    C411503   4.472   2.483  11.431  0.0434  0.3382  0.2831
  776MPD2    C511504   4.372   2.423  11.502 -0.5254  0.1912 -0.5874
  776MPD2     H11505   4.724   2.350  11.605  0.0746 -0.3804  0.8720
  776MPD2    H111506   4.450   2.547  11.346  0.3113 -0.4353 -0.3691
  776MPD2    H211507   4.308   2.282  11.663  0.9531 -1.2010 -0.8565
  776MPD2    H311508   4.273   2.450  11.465 -0.6657 -0.0399 -0.3812
  776MPD2     N11509   4.697   2.508  11.378  0.4643 -0.0153  0.3897
  776MPD2    H511510   4.666   2.549  11.291 -0.1314  1.2149  1.1767
  776MPD2    N111511   4.543   2.204  11.724  0.2772  0.0282 -0.1460
  776MPD2    H711512   4.479   2.126  11.721 -0.5167  0.6162  1.2326
  777MPD2     C11513   4.638   0.221   0.564 -0.1156  0.2820  0.4753
  777MPD2    C111514   4.726   0.122   0.591 -0.7538 -0.0691 -0.3343
  777MPD2    C211515   4.717   0.002   0.522 -0.0065 -0.5013 -0.0316
  777MPD2    C311516   4.624   4.717   0.420  0.5476 -0.1443 -0.3813
  777MPD2    C411517   4.544   0.085   0.389 -0.8272  0.5260 -0.4554
  777MPD2    C511518   4.544   0.200   0.466 -0.2149  0.0778 -0.3883
  777MPD2     H11519   0.041   4.654   0.551  0.0978  0.5494  2.7606
  777MPD2    H111520   4.471   0.070   0.311 -0.7517 -0.3758 -0.3570
  777MPD2    H211521   4.643   0.317   0.616  1.2819 -0.3580  1.5123
  777MPD2    H311522   4.464   0.272   0.454  0.1620  0.5371 -0.1698
  777MPD2     N11523   4.638   4.596   0.348 -0.1475  0.0106  0.6678
  777MPD2    H511524   4.698   4.529   0.395 -0.7520  0.3184  1.8835
  777MPD2    N111525   0.089   0.140   0.690 -0.2335  0.0050  0.3226
  777MPD2    H711526   0.082   0.232   0.732 -0.9886 -0.4009  1.0737
  778MPD2     C11527   2.260   0.121  14.687  0.4686 -0.4302  0.3597
  778MPD2    C111528   2.215   0.021  14.602  0.1568  0.6904  0.6056
  778MPD2    C211529   2.260   0.023  14.472  0.4492  0.4638 -0.9130
  778MPD2    C311530   2.351   0.116  14.422  0.3111  0.0577 -0.3468
  778MPD2    C411531   2.403   0.206  14.511  0.0730  0.6593 -0.2575
  778MPD2    C511532   2.354   0.205  14.638  0.7510  0.1227  0.2023
  778MPD2     H11533   2.219   4.683  14.408  1.9115 -1.3288  0.3095
  778MPD2    H111534   2.488   0.266  14.482 -0.0080  0.5794 -0.6749
  778MPD2    H211535   2.239   0.118  14.793  1.0368 -1.5492  0.4369
  778MPD2    H311536   2.402   0.275  14.705 -1.0725  0.3038  1.3354
  778MPD2     N11537   2.391   0.105  14.286 -0.0528  0.7154 -0.7408
  778MPD2    H511538   2.355   0.031  14.227  1.8808  0.4655 -1.6318
  778MPD2    N111539   2.111   4.667  14.645 -0.2742 -0.5981 -0.5670
  778MPD2    H711540   2.086   4.594  14.579  0.7929 -1.9161  0.4824
  779MPD2     C11541   1.312   3.515  14.179  0.9744 -0.5614  0.1137
  779MPD2    C111542   1.437   3.535  14.119 -0.6891  0.0060 -0.1992
  779MPD2    C211543   1.499   3.652  14.143 -0.3228  0.2430 -0.3464
  779MPD2    C311544   1.448   3.760  14.214 -0.2104  0.3245 -0.1123
  779MPD2    C411545   1.322   3.741  14.264 -0.4528 -0.2903  0.1825
  779MPD2    C511546   1.263   3.624  14.245  1.2113  0.9705  0.1371
  779MPD2     H11547   1.589   3.661  14.083  1.2821  2.7662  2.4184
  779MPD2    H111548   1.272   3.809  14.332  1.4333  0.8855  0.3745
  779MPD2    H211549   1.248   3.429  14.161 -0.1902  0.6021 -1.3478
  779MPD2    H311550   1.173   3.613  14.304  1.8151  0.2065  0.9290
  779MPD2     N11551   1.508   3.880  14.216  0.0657  1.1765  0.1803
  779MPD2    H511552   1.605   3.889  14.187 -0.0352  2.3288  0.1747
  779MPD2    N111553   1.509   3.443  14.034 -0.5986  0.3710 -0.2254
  779MPD2    H711554   1.608   3.461  14.033 -0.0841 -2.6088 -1.4541
  780MPD2     C11555   1.406   3.535   0.915  0.2439 -0.3568  0.1057
  780MPD2    C111556   1.291   3.516   0.837  0.5694  0.3689 -0.2459
  780MPD2    C211557   1.287   3.563   0.707  0.6277 -0.1519  0.0011
  780MPD2    C311558   1.384   3.651   0.667 -0.4462  0.6882  0.6720
  780MPD2    C411559   1.491   3.688   0.748 -0.0735  0.2170  0.9785
  780MPD2    C511560   1.500   3.625   0.871  0.0994 -0.2675 -0.1201
  780MPD2     H11561   1.198   3.547   0.647  0.7974 -3.9867  0.7621
  780MPD2    H111562   1.567   3.760   0.720 -0.7458 -0.3988 -2.3568
  780MPD2    H211563   1.404   3.488   1.013 -0.7377  1.5303  1.0071
  780MPD2    H311564   1.578   3.648   0.942  0.6984 -0.3222 -0.7589
  780MPD2     N11565   1.357   3.706   0.533  0.4670 -0.4478  0.1312
  780MPD2    H511566   1.277   3.681   0.476 -0.5127 -0.3424  1.4782
  780MPD2    N111567   1.186   3.449   0.905  0.6580 -0.4432  0.1178
  780MPD2    H711568   1.203   3.418   1.000 -1.0992  0.5394  0.7705
  781MPD2     C11569   3.091   0.927  12.006 -0.3567  0.6024  0.4794
  781MPD2    C111570   3.144   0.805  12.050 -0.1822 -0.0769  0.0339
  781MPD2    C211571   3.244   0.747  11.983 -0.4493 -0.7618  0.6457
  781MPD2    C311572   3.296   0.802  11.869 -0.6636  0.3974 -0.6918
  781MPD2    C411573   3.243   0.926  11.830 -0.4236 -0.5047  0.0385
  781MPD2    C511574   3.142   0.988  11.895 -0.4044 -0.4588 -0.2052
  781MPD2     H11575   3.270   0.647  12.016  2.1438 -0.4151 -0.3427
  781MPD2    H111576   3.296   0.973  11.747  1.7608 -1.6098  0.8066
  781MPD2    H211577   3.008   0.977  12.054 -0.3166 -0.0598  1.2486
  781MPD2    H311578   3.109   1.080  11.849 -1.5158 -0.2751  0.9633
  781MPD2     N11579   3.391   0.745  11.789 -0.0488 -0.3954  0.2180
  781MPD2    H511580   3.420   0.797  11.707  0.3672 -0.7595  0.1309
  781MPD2    N111581   3.081   0.728  12.151 -0.5197 -0.5049  0.6330
  781MPD2    H711582   3.133   0.659  12.204 -1.0631 -2.3835 -1.2513
  782MPD2     C11583   0.625   1.484   9.993  0.7270 -0.1066  0.0798
  782MPD2    C111584   0.713   1.452  10.101  0.0158  0.4239 -0.1296
  782MPD2    C211585   0.794   1.554  10.150 -1.0317 -0.5174  0.5440
  782MPD2    C311586   0.788   1.686  10.094  0.5293 -0.3939 -1.0438
  782MPD2    C411587   0.703   1.718   9.995  0.1558 -0.4331  0.1432
  782MPD2    C511588   0.620   1.616   9.947  0.5034  0.2460  0.3892
  782MPD2     H11589   0.857   1.522  10.233 -0.3772  1.1805  0.6971
  782MPD2    H111590   0.699   1.816   9.950 -1.4379 -0.7954 -0.5122
  782MPD2    H211591   0.567   1.399   9.958 -0.3832 -0.0565  1.7954
  782MPD2    H311592   0.565   1.636   9.855  0.2553  1.2519  0.7627
  782MPD2     N11593   0.863   1.783  10.157  0.5572 -0.7031  0.1400
  782MPD2    H511594   0.915   1.754  10.239 -2.4720 -1.6561  1.6987
  782MPD2    N111595   0.736   1.327  10.162  0.3061 -0.7077 -0.6394
  782MPD2    H711596   0.809   1.330  10.233 -0.4151 -2.1713  0.1461
  783MPD2     C11597   0.273   0.824  10.798  0.0057 -0.3176  0.5894
  783MPD2    C111598   0.367   0.924  10.818 -0.0767 -0.3852  0.1464
  783MPD2    C211599   0.470   0.948  10.727 -0.0842 -0.4740 -0.6497
  783MPD2    C311600   0.482   0.865  10.620 -0.2145  0.2924 -0.3869
  783MPD2    C411601   0.388   0.760  10.604  0.0774 -0.0617  0.4075
  783MPD2    C511602   0.288   0.743  10.691 -0.4426  0.2372  0.1932
  783MPD2     H11603   0.543   1.026  10.743 -0.7301  0.1186 -0.6019
  783MPD2    H111604   0.401   0.687  10.525 -0.4368  1.4180 -1.0373
  783MPD2    H211605   0.198   0.792  10.869 -0.0253  2.3168  1.7426
  783MPD2    H311606   0.223   0.656  10.686 -1.0854  0.7069  0.3322
  783MPD2     N11607   0.590   0.890  10.528  0.0331  0.2094  0.7373
  783MPD2    H511608   0.637   0.976  10.552 -2.6251  2.0412 -0.5524
  783MPD2    N111609   0.356   1.004  10.933  0.2204  0.4169  0.0137
  783MPD2    H711610   0.271   0.990  10.987  0.9076  0.3062  1.0491
  784MPD2     C11611   3.111   1.674   0.986  0.4046  0.0595 -0.3004
  784MPD2    C111612   3.064   1.765   1.087 -0.5094  0.2922  0.1296
  784MPD2    C211613   2.946   1.832   1.060 -0.1015 -0.3328  0.7874
  784MPD2    C311614   2.882   1.830   0.939 -1.0205  0.2569 -0.4696
  784MPD2    C411615   2.929   1.745   0.835  0.5409 -0.3538 -0.0749
  784MPD2    C511616   3.047   1.673   0.860  0.3963  0.3969 -0.4191
  784MPD2     H11617   2.900   1.896   1.135 -0.4973 -0.7774  0.9273
  784MPD2    H111618   2.872   1.730   0.744 -0.0125  0.8501  0.0688
  784MPD2    H211619   3.204   1.620   0.997  0.8518  0.5155 -1.8256
  784MPD2    H311620   3.079   1.604   0.784  1.9311 -0.2140  0.7811
  784MPD2     N11621   2.768   1.914   0.926 -0.1071  0.1785 -0.1514
  784MPD2    H511622   2.722   1.954   1.008  1.9929 -0.4290  1.3291
  784MPD2    N111623   3.130   1.786   1.212  0.4953  0.0355 -0.3191
  784MPD2    H711624   3.090   1.865   1.262 -1.8677 -2.0706  1.1047
  785MPD2     C11625   3.801   0.354  10.528  0.3667 -0.3974  0.1520
  785MPD2    C111626   3.819   0.400  10.396 -0.1269  0.1684 -0.0152
  785MPD2    C211627   3.727   0.372  10.302  0.4120  0.3331 -0.5042
  785MPD2    C311628   3.604   0.314  10.339 -0.2293 -0.0872  0.2755
  785MPD2    C411629   3.584   0.271  10.470  0.0922 -0.0046 -0.1625
  785MPD2    C511630   3.681   0.295  10.561 -0.0740 -0.7534  0.3540
  785MPD2     H11631   3.742   0.414  10.203  1.5098 -0.7391 -0.8058
  785MPD2    H111632   3.503   0.206  10.501  0.0761 -0.2287 -0.6718
  785MPD2    H211633   3.862   0.375  10.616  1.3152 -1.1462 -0.3230
  785MPD2    H311634   3.655   0.269  10.664 -1.1191  0.0710  0.2910
  785MPD2     N11635   3.507   0.292  10.242 -0.2680 -0.6190  0.3339
  785MPD2    H511636   3.527   0.332  10.150 -0.8316 -0.6448  0.1958
  785MPD2    N111637   3.931   0.481  10.375  0.1116  0.0222 -0.4580
  785MPD2    H711638   3.976   0.509  10.463 -0.6063  1.2200 -0.4653
  786MPD2     C11639   2.467   3.024  14.671  0.1489  0.1998  0.7671
  786MPD2    C111640   2.554   2.917  14.652 -0.0405 -0.7153  0.3256
  786MPD2    C211641   2.644   2.887  14.757 -0.1430 -0.3875  0.0879
  786MPD2    C311642   2.644   2.974  14.869  0.5882 -0.7391 -0.3223
  786MPD2    C411643   2.549   3.073  14.883 -0.4801  0.0253 -0.6183
  786MPD2    C511644   2.463   3.094  14.785  0.9863 -0.3634  0.1639
  786MPD2     H11645   2.704   2.797  14.755 -0.3667 -0.5727  1.6328
  786MPD2    H111646   2.547   3.127  14.977  0.9680 -0.8864 -0.0554
  786MPD2    H211647   2.386   3.055  14.605  0.6435 -1.1202 -0.4505
  786MPD2    H311648   2.390   3.173  14.798  2.5476  1.1820 -0.4901
  786MPD2     N11649   2.720   2.952  14.982  0.1878  0.1319  0.3710
  786MPD2    H511650   2.693   3.008  15.062 -3.0883  2.4743 -2.4155
  786MPD2    N111651   2.550   2.822  14.548 -0.0521  0.6017 -0.6785
  786MPD2    H711652   2.636   2.770  14.545  0.7386  1.7077  2.0979
  787MPD2     C11653   2.634   2.024  14.306 -0.0727  0.2097  0.0996
  787MPD2    C111654   2.665   2.145  14.366 -0.2446 -0.1415 -0.5647
  787MPD2    C211655   2.711   2.142  14.497  0.2099 -0.1260 -0.6591
  787MPD2    C311656   2.727   2.018  14.562 -0.2591 -0.6777 -0.8276
  787MPD2    C411657   2.691   1.901  14.499 -0.0336  0.2307  0.8869
  787MPD2    C511658   2.641   1.911  14.371  1.0522 -0.0806  0.4795
  787MPD2     H11659   2.736   2.234  14.548 -3.4429  0.0009  0.8854
  787MPD2    H111660   2.721   1.807  14.545 -5.2313 -1.3331  1.0842
  787MPD2    H211661   2.608   2.014  14.201 -1.3431 -0.9593  0.5255
  787MPD2    H311662   2.610   1.815  14.333 -0.8777  0.5567  0.4690
  787MPD2     N11663   2.784   2.023  14.688 -0.5192 -0.4509 -0.4518
  787MPD2    H511664   2.801   2.116  14.727  0.2830  0.3041 -2.5856
  787MPD2    N111665   2.635   2.261  14.300  0.0427  0.0741  0.1041
  787MPD2    H711666   2.579   2.257  14.215  1.1206  0.7169 -0.6422
  788MPD2     C11667   3.561   2.106   1.182 -0.0675  0.1536 -0.0153
  788MPD2    C111668   3.576   1.994   1.095 -0.0144  0.0694 -0.0031
  788MPD2    C211669   3.554   2.011   0.958  0.9557 -0.5901  0.4853
  788MPD2    C311670   3.514   2.131   0.913 -0.6012 -0.5355  0.6748
  788MPD2    C411671   3.486   2.235   0.997  0.3653  0.3421 -0.2304
  788MPD2    C511672   3.500   2.220   1.132 -0.3321 -1.1187  0.5746
  788MPD2     H11673   3.555   1.930   0.887  3.1339  1.1103 -1.4480
  788MPD2    H111674   3.440   2.329   0.967 -1.4578  0.4912  2.9931
  788MPD2    H211675   3.574   2.101   1.290 -1.0803 -0.3457  0.0874
  788MPD2    H311676   3.475   2.303   1.198 -2.2792 -0.7202 -0.6639
  788MPD2     N11677   3.489   2.159   0.777 -0.1102  0.4408  0.3638
  788MPD2    H511678   3.435   2.242   0.753  0.3882  0.8075  0.5127
  788MPD2    N111679   3.632   1.873   1.139  0.1482 -0.0912 -0.6947
  788MPD2    H711680   3.635   1.796   1.073  0.3574  0.9903 -1.9290
  789MPD2     C11681   4.149   0.886  16.593  0.7139 -0.0218 -0.2008
  789MPD2    C111682   4.121   0.894  16.724 -0.8652 -0.6020 -0.0618
  789MPD2    C211683   4.016   0.969  16.767  0.8627 -0.6252  0.0086
  789MPD2    C311684   3.935   1.033  16.681  0.0050 -0.1566 -0.3726
  789MPD2    C411685   3.955   1.014  16.550  0.2660  0.1890  0.1027
  789MPD2    C511686   4.066   0.943  16.500  0.4350 -0.0447 -0.4229
  789MPD2     H11687   4.012   0.976  16.875 -2.1214 -1.2175 -0.0417
  789MPD2    H111688   3.886   1.040  16.470  0.8883  0.2479 -0.4120
  789MPD2    H211689   4.240   0.836  16.562 -0.1769 -1.9714  0.3177
  789MPD2    H311690   4.084   0.950  16.393 -1.8780  0.7034 -0.7624
  789MPD2     N11691   3.820   1.109  16.715 -0.2723  0.3730 -0.5900
  789MPD2    H511692   3.759   1.144  16.642 -1.0453  0.4443  0.0837
  789MPD2    N111693   4.198   0.817  16.818  0.2691 -0.6529  0.1575
  789MPD2    H711694   4.150   0.787  16.902 -1.7767 -1.4272 -1.2879
  790MPD2     C11695   0.472   2.486  13.818 -0.5301  0.9932 -0.4622
  790MPD2    C111696   0.547   2.391  13.754 -0.3349  0.4349  0.1192
  790MPD2    C211697   0.522   2.361  13.626 -0.1698  0.0105 -0.9689
  790MPD2    C311698   0.427   2.427  13.546  0.3636 -0.3116 -0.2024
  790MPD2    C411699   0.351   2.511  13.621 -0.2222 -0.0153 -0.1718
  790MPD2    C511700   0.368   2.543  13.753  0.3844  0.5242  0.2436
  790MPD2     H11701   0.584   2.290  13.573 -0.6350 -1.5415  0.5734
  790MPD2    H111702   0.271   2.570  13.577  0.7280  0.9767 -0.5582
  790MPD2    H211703   0.492   2.530  13.915  0.2887 -0.4879  0.0417
  790MPD2    H311704   0.307   2.622  13.795 -2.3865 -1.8116  0.5472
  790MPD2     N11705   0.405   2.391  13.409 -0.0046  0.2385  0.1883
  790MPD2    H511706   0.322   2.427  13.362 -0.8866 -1.7880  0.2064
  790MPD2    N111707   0.652   2.332  13.830 -0.0452 -0.0965  0.4330
  790MPD2    H711708   0.668   2.373  13.921  2.5031 -0.8446  0.3232
  791MPD2     C11709   0.033   2.457  12.640 -0.3053 -0.4415  0.1073
  791MPD2    C111710   0.027   2.376  12.752 -0.1788  0.8827  0.5422
  791MPD2    C211711   4.666   2.284  12.759 -0.8430 -0.2580 -0.0008
  791MPD2    C311712   4.560   2.276  12.664 -0.1168 -0.3334 -0.4012
  791MPD2    C411713   4.565   2.359  12.555  0.2722  0.5090  0.4162
  791MPD2    C511714   4.668   2.443  12.546  0.2988  0.3800 -0.2839
  791MPD2     H11715   4.673   2.229  12.852 -0.3831  0.3805  0.3458
  791MPD2    H111716   4.495   2.334  12.477 -1.1393  2.3515  1.0884
  791MPD2    H211717   0.114   2.525  12.613 -0.0609 -1.4237 -1.6931
  791MPD2    H311718   4.676   2.486  12.447 -0.5116  0.1384 -0.4544
  791MPD2     N11719   4.457   2.173  12.686  0.2505  0.1133  0.6635
  791MPD2    H511720   4.476   2.098  12.752  2.3212 -1.2691 -1.5447
  791MPD2    N111721   0.124   2.395  12.848  0.6577 -0.1107  0.2748
  791MPD2    H711722   0.204   2.451  12.819  0.1270 -0.7604 -2.3493
  792MPD2     C11723   0.473   2.341  11.537  0.1768 -0.3766 -0.0145
  792MPD2    C111724   0.530   2.326  11.410 -0.1889 -0.0519 -0.1392
  792MPD2    C211725   0.450   2.265  11.310 -0.1630 -0.3521 -0.2723
  792MPD2    C311726   0.325   2.216  11.337  0.0025 -0.1240 -0.1883
  792MPD2    C411727   0.276   2.226  11.468  0.1606  0.2764 -0.0147
  792MPD2    C511728   0.347   2.293  11.563 -0.3515 -0.5477  0.2610
  792MPD2     H11729   0.477   2.267  11.206  0.8260 -1.0717 -0.0255
  792MPD2    H111730   0.174   2.206  11.496  0.2406 -0.2073 -0.0747
  792MPD2    H211731   0.528   2.398  11.612 -1.6808  0.5447  0.6445
  792MPD2    H311732   0.302   2.303  11.661  2.2639  3.1490  1.0784
  792MPD2     N11733   0.240   2.149  11.240  0.6855  0.4100 -0.0498
  792MPD2    H511734   0.154   2.116  11.281 -0.8611  0.8299 -2.9756
  792MPD2    N111735   0.658   2.388  11.391 -0.0716  0.0041  0.1111
  792MPD2    H711736   0.715   2.418  11.470 -0.5303  0.3777  0.2974
  793MPD2     C11737   0.146   2.148  10.242 -0.5433  0.0750 -0.0640
  793MPD2    C111738   0.235   2.213  10.326 -0.2382 -0.3591  0.1556
  793MPD2    C211739   0.212   2.182  10.459  0.3325 -0.0512  0.3298
  793MPD2    C311740   0.101   2.114  10.511 -0.5541 -0.0920 -0.3076
  793MPD2    C411741   0.006   2.063  10.427 -0.2890  0.8675  0.0825
  793MPD2    C511742   0.040   2.076  10.293 -0.0109  0.2481 -0.2350
  793MPD2     H11743   0.275   2.228  10.534  0.3076  1.0150 -0.2913
  793MPD2    H111744   4.655   2.012  10.465 -0.9228  3.9111  2.7104
  793MPD2    H211745   0.163   2.150  10.135 -0.0505  1.1497  0.0362
  793MPD2    H311746   4.710   2.025  10.225 -0.6161 -0.0663  0.5988
  793MPD2     N11747   0.092   2.101  10.653 -0.0706 -0.6620  0.1994
  793MPD2    H511748   0.176   2.134  10.700 -0.2333 -0.3079  0.2436
  793MPD2    N111749   0.347   2.290  10.289 -0.2386  0.3649 -0.1187
  793MPD2    H711750   0.386   2.343  10.366 -1.4434  0.5752  0.3502
  794MPD2     C11751   0.545   1.765  16.778  0.1298 -0.5572  0.9792
  794MPD2    C111752   0.435   1.796  16.860 -0.0213  0.3032 -0.0299
  794MPD2    C211753   0.313   1.735  16.834 -0.6671 -0.1775  0.1429
  794MPD2    C311754   0.311   1.637  16.738 -1.0988  1.0278 -0.3624
  794MPD2    C411755   0.425   1.593  16.669 -0.2518 -0.3662 -0.2853
  794MPD2    C511756   0.540   1.660  16.693  0.0059  0.7181 -0.2255
  794MPD2     H11757   0.227   1.767  16.891 -1.3061  2.5834 -2.3450
  794MPD2    H111758   0.434   1.504  16.607  0.6750 -1.5401  1.5306
  794MPD2    H211759   0.640   1.817  16.780  0.8848 -1.7972 -1.6339
  794MPD2    H311760   0.625   1.646  16.628  0.5837 -1.5348  1.0130
  794MPD2     N11761   0.193   1.556  16.716 -0.1995 -0.1733  0.7336
  794MPD2    H511762   0.198   1.501  16.631  0.0444  1.7764 -0.5275
  794MPD2    N111763   0.442   1.882  16.972 -0.2128 -0.8924 -0.5094
  794MPD2    H711764   0.351   1.923  16.993  0.4364  0.6454 -0.6634
  795MPD2     C11765   2.725   3.875  13.893  0.8006  0.4850 -0.0135
  795MPD2    C111766   2.775   3.812  13.781 -0.5676 -0.0905 -1.1785
  795MPD2    C211767   2.876   3.718  13.791 -0.3848 -0.1522  0.1063
  795MPD2    C311768   2.923   3.682  13.917  0.9346  0.1624 -0.7691
  795MPD2    C411769   2.871   3.738  14.029  0.3411 -0.5188  0.9112
  795MPD2    C511770   2.773   3.829  14.013  0.5568 -0.0480  0.4337
  795MPD2     H11771   2.931   3.681  13.705  0.0613 -0.9055  0.7133
  795MPD2    H111772   2.900   3.716  14.131 -0.4916 -0.3237  1.1871
  795MPD2    H211773   2.644   3.947  13.894  0.8954  0.5948 -0.2120
  795MPD2    H311774   2.737   3.868  14.108  0.5569 -0.8080  0.7437
  795MPD2     N11775   3.031   3.585  13.928 -0.6529 -0.2628  0.1799
  795MPD2    H511776   3.070   3.560  13.838  0.3255  0.3064  0.4486
  795MPD2    N111777   2.717   3.834  13.649  0.9736  0.3958 -0.9973
  795MPD2    H711778   2.739   3.778  13.568 -0.1920  0.7850 -1.5793
  796MPD2     C11779   2.373   0.428  15.868  0.5548 -0.4837  0.7746
  796MPD2    C111780   2.434   0.541  15.932  0.2640  0.5618  0.9277
  796MPD2    C211781   2.429   0.663  15.862  0.2609  0.4845  0.5584
  796MPD2    C311782   2.381   0.678  15.732 -0.3785  0.3727 -0.9700
  796MPD2    C411783   2.329   0.558  15.676 -0.2221  0.3415  0.1872
  796MPD2    C511784   2.326   0.436  15.738 -0.4217 -0.4673  0.0211
  796MPD2     H11785   2.465   0.755  15.905 -1.2056  0.9530  0.7809
  796MPD2    H111786   2.301   0.560  15.572  0.4990  0.9536  0.0002
  796MPD2    H211787   2.371   0.325  15.903  1.0925 -0.1793  1.7109
  796MPD2    H311788   2.282   0.353  15.684 -0.3658 -0.0914 -0.5986
  796MPD2     N11789   2.405   0.802  15.664 -0.4953  0.2272  0.1105
  796MPD2    H511790   2.431   0.885  15.718 -0.3170 -0.8943  1.7472
  796MPD2    N111791   2.469   0.535  16.067  0.8115  0.0700  0.3269
  796MPD2    H711792   2.446   0.447  16.114 -3.2644  0.7613 -0.3554
  797MPD2     C11793   3.243   0.464   0.031  0.4603  0.1506 -0.0438
  797MPD2    C111794   3.280   0.594   0.026 -0.5001  0.0322 -0.5352
  797MPD2    C211795   3.230   0.679  17.665  0.4331 -0.6967  1.2596
  797MPD2    C311796   3.167   0.619  17.559 -0.1084 -0.3491 -0.1479
  797MPD2    C411797   3.147   0.483  17.556  0.2010 -0.1540 -0.4227
  797MPD2    C511798   3.175   0.408  17.669  0.4378 -0.2928  0.5741
  797MPD2     H11799   3.229   0.787  17.666 -1.0113 -0.7014  0.6620
  797MPD2    H111800   3.102   0.435  17.469 -0.7691  0.8052 -0.4518
  797MPD2    H211801   3.273   0.405   0.117  1.4160  1.0906  0.2721
  797MPD2    H311802   3.153   0.302  17.677 -0.7822 -0.0027  1.0255
  797MPD2     N11803   3.137   0.712  17.459  0.0458  0.1658  0.2917
  797MPD2    H511804   3.169   0.808  17.465  0.6071  0.0426 -0.7824
  797MPD2    N111805   3.360   0.659   0.129 -0.7179 -0.4257  0.4551
  797MPD2    H711806   3.374   0.760   0.123 -0.1790 -0.7251 -3.4285
  798MPD2     C11807   3.654   1.148  17.437  0.2698 -0.5684  0.7992
  798MPD2    C111808   3.537   1.083  17.468  0.1034  0.0552  0.2032
  798MPD2    C211809   3.523   1.032  17.600 -0.0091 -0.6289 -0.2259
  798MPD2    C311810   3.620   1.067  17.700 -0.6082 -0.6671  0.2872
  798MPD2    C411811   3.729   1.146  17.662 -0.9728 -0.0489  0.6352
  798MPD2    C511812   3.746   1.182  17.529  0.2781  0.0869 -0.3159
  798MPD2     H11813   3.435   0.977  17.632 -1.3034  1.8539  0.4223
  798MPD2    H111814   3.808   1.177  17.730 -0.4920  1.4701 -0.6092
  798MPD2    H211815   3.679   1.185  17.338  0.5829  0.9387  1.4338
  798MPD2    H311816   3.843   1.218  17.497  0.4962  1.8851  2.3274
  798MPD2     N11817   3.597   1.023   0.086  0.0820 -0.8809 -0.3700
  798MPD2    H511818   3.516   0.962   0.095 -0.2565 -0.1557  1.5461
  798MPD2    N111819   3.446   1.055  17.366  0.0958  0.1625  0.0634
  798MPD2    H711820   3.455   1.101  17.276  3.6477  2.0777  1.3979
  799MPD2     C11821   2.476   1.794  14.787 -0.1123  0.1915 -0.1334
  799MPD2    C111822   2.450   1.697  14.693  0.0112 -0.6467  0.0479
  799MPD2    C211823   2.375   1.732  14.581 -0.1595 -0.1722 -0.3036
  799MPD2    C311824   2.339   1.868  14.565  0.2541  0.2138  0.4810
  799MPD2    C411825   2.368   1.957  14.670 -0.4589  0.5482 -0.9603
  799MPD2    C511826   2.440   1.920  14.777 -0.0497  0.2765 -0.4615
  799MPD2     H11827   2.332   1.656  14.517  0.7789 -0.9746  0.0263
  799MPD2    H111828   2.337   2.060  14.674  0.6681  0.8475 -0.0676
  799MPD2    H211829   2.538   1.763  14.870 -0.0447  0.3466 -0.1260
  799MPD2    H311830   2.451   1.991  14.858 -1.2828 -1.2014  0.9952
  799MPD2     N11831   2.263   1.930  14.455 -0.2254 -0.5054  0.1649
  799MPD2    H511832   2.255   2.031  14.460 -0.2763 -0.5742  1.5856
  799MPD2    N111833   2.489   1.558  14.707 -0.5143 -0.2197  0.0307
  799MPD2    H711834   2.497   1.509  14.619  0.5250  2.0335 -1.1261
  800MPD2     C11835   2.769   3.125  14.335  0.2556 -0.7423 -0.0609
  800MPD2    C111836   2.888   3.061  14.324  0.6921 -0.1859 -0.2539
  800MPD2    C211837   2.891   2.938  14.261  0.1288 -0.1293 -0.0296
  800MPD2    C311838   2.779   2.878  14.207 -0.5660 -0.2310  1.0628
  800MPD2    C411839   2.657   2.944  14.244 -0.1065  0.0544  0.0980
  800MPD2    C511840   2.651   3.060  14.308 -0.5971  0.2138 -0.3832
  800MPD2     H11841   2.991   2.902  14.238  0.3621 -0.3230  1.3046
  800MPD2    H111842   2.561   2.908  14.209 -0.1829  2.0015 -1.6889
  800MPD2    H211843   2.762   3.213  14.398 -1.0186 -0.9043  0.0332
  800MPD2    H311844   2.562   3.115  14.334 -0.1239 -0.1763  2.0925
  800MPD2     N11845   2.784   2.758  14.136 -0.4370 -0.3597  0.0672
  800MPD2    H511846   2.876   2.717  14.124  0.6343  2.3900 -1.3914
  800MPD2    N111847   3.004   3.123  14.375  0.1365 -0.2056 -0.0892
  800MPD2    H711848   2.998   3.221  14.401 -1.5768  0.1030 -1.6625
  801MPD2     C11849   3.076   3.619  14.908 -0.2371  0.1085  0.2546
  801MPD2    C111850   3.017   3.551  14.805  0.1826 -0.3764 -0.4281
  801MPD2    C211851   2.876   3.552  14.808  0.3555 -0.3393 -0.6027
  801MPD2    C311852   2.800   3.594  14.918 -0.2075  0.0521  0.0336
  801MPD2    C411853   2.870   3.662  15.017 -0.0536  0.0555  0.7083
  801MPD2    C511854   3.002   3.682  15.007 -0.7930 -0.5750 -0.3515
  801MPD2     H11855   2.831   3.499  14.724  1.3802  0.1324 -1.4501
  801MPD2    H111856   2.822   3.723  15.093 -2.1260 -1.2057  0.4068
  801MPD2    H211857   3.183   3.631  14.898 -0.2436 -0.1990 -0.1861
  801MPD2    H311858   3.050   3.739  15.086 -1.3981 -0.9598  0.2891
  801MPD2     N11859   2.661   3.565  14.926  0.0878 -0.1252  0.4494
  801MPD2    H511860   2.624   3.560  15.020  1.6589 -2.4563  0.9435
  801MPD2    N111861   3.077   3.488  14.697  0.3034 -0.1304  0.3122
  801MPD2    H711862   3.015   3.455  14.624  0.2968  1.8105 -0.5604
  802MPD2     C11863   2.407   4.606   0.148  0.0379 -0.4011 -0.6488
  802MPD2    C111864   2.287   4.545   0.171  1.0099 -0.1480  0.1126
  802MPD2    C211865   2.294   4.412   0.194  0.2095 -0.3038 -0.0429
  802MPD2    C311866   2.405   4.332   0.183 -0.0996  0.7125  0.4449
  802MPD2    C411867   2.524   4.400   0.168 -0.4109 -0.9961 -0.4176
  802MPD2    C511868   2.524   4.532   0.158  0.8461 -0.0179 -0.2126
  802MPD2     H11869   2.196   4.366   0.201 -0.6487  1.5557 -0.0668
  802MPD2    H111870   2.623   4.357   0.169  0.6113  1.4055 -0.2049
  802MPD2    H211871   2.413   4.714   0.146  3.9478 -0.5179  3.6300
  802MPD2    H311872   2.619   4.578   0.133  1.1237 -1.2269 -1.3843
  802MPD2     N11873   2.399   4.195   0.162  0.3203 -0.3467 -0.2885
  802MPD2    H511874   2.302   4.164   0.153  0.5878 -0.8504 -1.4170
  802MPD2    N111875   2.159   4.611   0.172 -0.2500  0.0009  0.0146
  802MPD2    H711876   2.079   4.556   0.201 -1.3852  0.5787 -1.9932
  803MPD2     C11877   2.778   2.723  12.257  0.0347  0.0828  0.0516
  803MPD2    C111878   2.905   2.673  12.216  0.1089 -0.0161 -0.6530
  803MPD2    C211879   2.963   2.564  12.281 -0.5645 -0.2402  0.1449
  803MPD2    C311880   2.893   2.495  12.375 -0.4920 -0.0616 -0.1948
  803MPD2    C411881   2.784   2.550  12.434  0.1203  0.1432  0.5615
  803MPD2    C511882   2.725   2.658  12.374 -0.1632 -0.1079 -0.0509
  803MPD2     H11883   3.063   2.528  12.257  0.3062  1.0362  1.8907
  803MPD2    H111884   2.728   2.497  12.510  0.0543 -2.0675 -1.0069
  803MPD2    H211885   2.736   2.814  12.217  1.1932  0.6951  0.2275
  803MPD2    H311886   2.638   2.700  12.421 -1.8905 -0.7198 -2.6903
  803MPD2     N11887   2.940   2.376  12.436  0.4465  0.8628 -0.2368
  803MPD2    H511888   2.900   2.347  12.524  0.7469 -0.8405 -0.6465
  803MPD2    N111889   2.984   2.737  12.119  0.3240  0.2296  0.3107
  803MPD2    H711890   3.076   2.699  12.105  0.5990  1.8027 -2.1235
  804MPD2     C11891   2.848   3.570  16.807 -0.6845  0.2392 -0.5128
  804MPD2    C111892   2.813   3.556  16.939  0.8485 -0.9105  0.0099
  804MPD2    C211893   2.860   3.645  17.033  0.2687  0.3384  0.2855
  804MPD2    C311894   2.965   3.730  16.997  0.8474  0.5747  0.3430
  804MPD2    C411895   3.007   3.740  16.868  0.2367 -0.3868  0.3523
  804MPD2    C511896   2.947   3.661  16.771 -0.3124 -0.6535 -0.2218
  804MPD2     H11897   2.816   3.637  17.133 -0.2630  1.5761  0.1492
  804MPD2    H111898   3.085   3.806  16.831 -1.1921  1.1920  0.1611
  804MPD2    H211899   2.811   3.509  16.726 -1.0243 -0.1874 -0.0284
  804MPD2    H311900   2.977   3.671  16.667  0.3521  0.1551  0.0430
  804MPD2     N11901   3.032   3.788  17.107 -0.6484  0.4752  0.3567
  804MPD2    H511902   2.989   3.789  17.200 -0.1924 -3.7383  0.6024
  804MPD2    N111903   2.722   3.453  16.985  0.2835 -0.2512  0.0019
  804MPD2    H711904   2.697   3.451  17.083  0.2187 -3.2371 -0.0716
  805MPD2     C11905   1.789   1.455  15.012  0.3513 -0.2495 -0.4087
  805MPD2    C111906   1.903   1.488  14.940  1.7141 -0.1058  0.4843
  805MPD2    C211907   2.020   1.512  15.012 -0.5331 -0.0435  0.9991
  805MPD2    C311908   2.031   1.491  15.151 -0.3052  0.2813 -0.0793
  805MPD2    C411909   1.918   1.439  15.220 -0.3793 -0.0728  0.1816
  805MPD2    C511910   1.799   1.430  15.150  0.1128 -0.4424  0.7265
  805MPD2     H11911   2.114   1.531  14.963 -0.5652 -0.8419  0.6292
  805MPD2    H111912   1.914   1.416  15.326 -2.2002 -1.6274 -0.2226
  805MPD2    H211913   1.694   1.431  14.966 -0.6058  0.4072  1.2309
  805MPD2    H311914   1.715   1.395  15.210  0.7326 -0.9547  1.2904
  805MPD2     N11915   2.158   1.523  15.216  0.2107 -0.7251 -0.2507
  805MPD2    H511916   2.224   1.567  15.153 -1.8422  2.0936 -0.4029
  805MPD2    N111917   1.915   1.481  14.806  0.1781 -0.2535  0.0918
  805MPD2    H711918   2.001   1.522  14.769  0.1546 -0.3065 -0.0214
  806MPD2     C11919   1.899   1.655   0.437 -0.3241 -0.0949 -0.1008
  806MPD2    C111920   1.976   1.734   0.519  0.1367 -0.0338  0.4406
  806MPD2    C211921   2.088   1.812   0.476 -0.2060  0.1267  0.6284
  806MPD2    C311922   2.122   1.801   0.342  0.1592  0.1952  0.5407
  806MPD2    C411923   2.049   1.714   0.261  0.3044  0.4635 -0.5647
  806MPD2    C511924   1.934   1.649   0.305  0.0265 -0.1200 -0.5139
  806MPD2     H11925   2.145   1.886   0.532  1.1046  0.7015 -1.4336
  806MPD2    H111926   2.073   1.713   0.156 -0.7866 -0.6872 -0.8055
  806MPD2    H211927   1.804   1.608   0.462  0.5726 -2.4001 -1.0010
  806MPD2    H311928   1.874   1.595   0.232 -0.7327 -1.0495  0.8033
  806MPD2     N11929   2.225   1.880   0.295 -0.5236  0.7246 -0.2312
  806MPD2    H511930   2.265   1.942   0.365 -1.3872  0.9845  0.0367
  806MPD2    N111931   1.928   1.743   0.651 -0.2204  0.2022  0.7142
  806MPD2    H711932   1.854   1.678   0.675  0.4893 -0.9939 -0.3488
  807MPD2     C11933   1.694   1.297   0.714  0.1895 -0.5897  0.5036
  807MPD2    C111934   1.627   1.325   0.835  0.1013  0.2272  1.1668
  807MPD2    C211935   1.577   1.219   0.914  0.4700  0.4182  0.7321
  807MPD2    C311936   1.584   1.089   0.874  0.0292 -0.8986 -0.0188
  807MPD2    C411937   1.662   1.064   0.758 -0.3363 -0.3080  0.5186
  807MPD2    C511938   1.703   1.169   0.680  0.2233  0.1359  0.3154
  807MPD2     H11939   1.512   1.241   0.998 -2.1404 -1.8547 -0.6473
  807MPD2    H111940   1.677   0.964   0.721  1.6634  0.2496 -0.2234
  807MPD2    H211941   1.752   1.361   0.648 -0.4140 -0.4166  0.1422
  807MPD2    H311942   1.759   1.136   0.593 -1.6159 -0.5760 -0.5958
  807MPD2     N11943   1.522   0.986   0.948  0.6214 -0.0001 -0.5104
  807MPD2    H511944   1.467   1.011   1.029  1.8202  1.0461 -0.0137
  807MPD2    N111945   1.619   1.456   0.883  0.1654 -0.4471  0.1976
  807MPD2    H711946   1.561   1.471   0.965  0.7974 -0.0922  0.5767
  808MPD2     C11947   3.520   3.156  10.281 -0.3427  0.3103  0.4674
  808MPD2    C111948   3.438   3.256  10.325  0.4431  0.2921 -1.1593
  808MPD2    C211949   3.452   3.380  10.263  0.1186  0.1894 -0.8047
  808MPD2    C311950   3.526   3.396  10.143  1.0485 -0.1905 -0.0765
  808MPD2    C411951   3.601   3.292  10.101  0.1100  0.2853 -0.3294
  808MPD2    C511952   3.593   3.173  10.168  0.6552 -1.1344  0.7203
  808MPD2     H11953   3.394   3.461  10.304  0.3870  0.1001 -0.2494
  808MPD2    H111954   3.666   3.301  10.015 -0.4141  0.1910 -0.7418
  808MPD2    H211955   3.526   3.059  10.329  1.9232  0.0153 -0.4275
  808MPD2    H311956   3.659   3.091  10.141  1.5526 -0.9171  2.2444
  808MPD2     N11957   3.535   3.522  10.082 -0.8966  0.3573 -0.1308
  808MPD2    H511958   3.578   3.523   9.990  0.9637  0.6517  0.7384
  808MPD2    N111959   3.354   3.247  10.438  0.2371 -0.0105 -0.4536
  808MPD2    H711960   3.316   3.333  10.476  0.5036  0.6097 -1.5920
  809MPD2     C11961   4.013   4.139   9.489  0.0827 -0.0934 -0.2946
  809MPD2    C111962   4.046   4.032   9.566  0.6309  0.2257 -0.0309
  809MPD2    C211963   3.968   4.001   9.676 -0.8235 -0.3367 -0.9462
  809MPD2    C311964   3.845   4.073   9.703 -0.0248 -0.2063  0.5382
  809MPD2    C411965   3.816   4.181   9.623  0.1691 -0.4255 -0.3993
  809MPD2    C511966   3.905   4.210   9.525 -0.1507 -0.2398 -0.4425
  809MPD2     H11967   4.001   3.920   9.741  0.4168 -0.5685 -1.8832
  809MPD2    H111968   3.725   4.238   9.639  0.5297 -0.0760  0.4229
  809MPD2    H211969   4.072   4.175   9.406  0.0859 -0.3134 -0.3856
  809MPD2    H311970   3.888   4.292   9.457  0.5921  1.4918  1.4872
  809MPD2     N11971   3.748   4.028   9.795 -0.5087  0.2681 -0.0480
  809MPD2    H511972   3.662   4.082   9.796  0.1037  1.2590 -0.5338
  809MPD2    N111973   4.159   3.952   9.547  0.4483  0.3553  0.3066
  809MPD2    H711974   4.176   3.884   9.621 -1.2617  0.0852  0.4344
  810MPD2     C11975   2.369   2.310  11.035 -0.2800 -0.0291 -0.7487
  810MPD2    C111976   2.294   2.395  10.958  0.1376 -0.0243  0.0224
  810MPD2    C211977   2.258   2.526  11.000 -0.6428  0.2535  0.5935
  810MPD2    C311978   2.308   2.577  11.116  0.3678 -0.7454  0.3242
  810MPD2    C411979   2.390   2.490  11.190  0.9580 -0.5609  0.0791
  810MPD2    C511980   2.412   2.355  11.156 -0.1718  0.3261  0.0970
  810MPD2     H11981   2.187   2.591  10.950 -0.7162  0.2486  0.6910
  810MPD2    H111982   2.430   2.521  11.286 -2.0861  0.7066  0.9433
  810MPD2    H211983   2.385   2.204  11.015 -0.9190  0.0540 -1.6966
  810MPD2    H311984   2.477   2.298  11.222 -0.4060  1.6492  1.4673
  810MPD2     N11985   2.302   2.710  11.165  0.6983 -0.0769 -0.2296
  810MPD2    H511986   2.369   2.742  11.235  1.5594 -0.3096 -0.9562
  810MPD2    N111987   2.256   2.342  10.827  0.7483  0.0098 -0.3500
  810MPD2    H711988   2.287   2.249  10.798 -0.3603  0.2344 -2.3130
  811MPD2     C11989   2.204   2.572  10.026  0.4909  0.3929  0.3397
  811MPD2    C111990   2.242   2.614  10.153 -0.1992 -0.1900  0.2725
  811MPD2    C211991   2.238   2.750  10.178  0.2467  0.1116  0.1987
  811MPD2    C311992   2.206   2.838  10.069 -0.3701 -0.4237 -0.1318
  811MPD2    C411993   2.164   2.792   9.947 -0.0119 -0.1598  0.0392
  811MPD2    C511994   2.174   2.654   9.920 -1.2673 -0.0193  0.0173
  811MPD2     H11995   2.280   2.788  10.271  1.8102  1.0089 -0.8768
  811MPD2    H111996   2.141   2.862   9.867  2.4302 -0.4363 -0.9104
  811MPD2    H211997   2.213   2.469   9.995  3.6877  0.0207  2.4675
  811MPD2    H311998   2.157   2.618   9.819  1.0306 -0.7870 -0.1016
  811MPD2     N11999   2.228   2.977  10.064  0.1755  0.2702  0.1870
  811MPD2    H512000   2.199   3.027   9.981 -0.0565 -0.9158 -0.4496
  811MPD2    N112001   2.279   2.535  10.262 -0.1484  0.8438 -0.3860
  811MPD2    H712002   2.297   2.579  10.352 -0.7409 -1.8654  1.0354
  812MPD2     C12003   1.148   2.215  12.007  0.2579 -0.1496  0.1275
  812MPD2    C112004   1.143   2.305  12.110 -0.6474 -0.1650  0.4521
  812MPD2    C212005   1.170   2.272  12.244 -0.2414  0.4857 -0.4426
  812MPD2    C312006   1.208   2.143  12.276  0.5167  0.8669 -0.5060
  812MPD2    C412007   1.217   2.055  12.167  0.1612 -0.1038 -0.0709
  812MPD2    C512008   1.177   2.089  12.037  0.0263 -0.1715  0.2923
  812MPD2     H12009   1.162   2.351  12.318 -1.8562  1.6260 -1.8242
  812MPD2    H112010   1.248   1.951  12.168 -0.2418 -0.2038  1.8069
  812MPD2    H212011   1.130   2.241  11.903 -0.0416  0.2085  0.2687
  812MPD2    H312012   1.186   2.012  11.961 -1.2229  0.1357 -0.1621
  812MPD2     N12013   1.245   2.106  12.412 -0.6004 -0.0109  0.2224
  812MPD2    H512014   1.241   2.175  12.486  0.3626 -1.0024  1.2034
  812MPD2    N112015   1.104   2.433  12.064 -0.3399  0.2011  0.4751
  812MPD2    H712016   1.097   2.444  11.963  2.8806 -0.7353  0.1641
  813MPD2     C12017   0.203   3.956  12.864 -0.5624 -0.4617  0.1288
  813MPD2    C112018   0.196   4.094  12.882 -0.1354  0.7651 -0.0663
  813MPD2    C212019   0.101   4.149  12.958  0.3796  0.0166  0.4378
  813MPD2    C312020   0.000   4.071  13.013  0.1199 -0.0377 -0.2296
  813MPD2    C412021   0.007   3.938  12.998  0.3043  0.3156  0.5009
  813MPD2    C512022   0.102   3.883  12.923  0.2734 -0.3340 -0.3770
  813MPD2     H12023   0.086   4.256  12.962  1.0890  0.1373 -0.0638
  813MPD2    H112024   4.674   3.875  13.053  2.3530 -1.1604  1.4075
  813MPD2    H212025   0.265   3.900  12.795 -0.5106 -0.7143  0.3830
  813MPD2    H312026   0.105   3.775  12.912 -2.1378 -0.5068  0.7243
  813MPD2     N12027   4.636   4.137  13.087 -0.0460  0.2805  0.2008
  813MPD2    H512028   4.642   4.236  13.105 -1.0307  0.6113 -1.2678
  813MPD2    N112029   0.297   4.185  12.846  0.6559  0.4812 -0.4197
  813MPD2    H712030   0.280   4.283  12.867  1.1810  0.8020 -1.4975
  814MPD2     C12031   0.926   0.436  12.696  0.1199  0.2632 -0.1687
  814MPD2    C112032   0.887   0.521  12.597  0.4226  0.2418 -0.5718
  814MPD2    C212033   0.912   0.654  12.610 -0.7170 -0.4282  0.1200
  814MPD2    C312034   0.980   0.712  12.717 -0.1648  0.3402  0.2549
  814MPD2    C412035   1.011   0.623  12.817 -0.8945 -0.2347 -0.4200
  814MPD2    C512036   0.992   0.487  12.807  0.2873 -0.5777  0.1294
  814MPD2     H12037   0.872   0.722  12.536  0.9864  0.0256 -0.3673
  814MPD2    H112038   1.059   0.656  12.908  1.2853 -2.0191 -0.9093
  814MPD2    H212039   0.914   0.329  12.686  0.4019  0.3140 -1.0180
  814MPD2    H312040   1.002   0.425  12.896  3.4065  0.3335  0.4082
  814MPD2     N12041   1.012   0.852  12.728  0.6226  0.0493  0.3586
  814MPD2    H512042   1.066   0.882  12.810  1.6893 -0.5921 -0.1052
  814MPD2    N112043   0.804   0.482  12.491 -0.6194 -0.3420  0.0893
  814MPD2    H712044   0.804   0.541  12.408  0.6126  0.3576  0.5855
  815MPD2     C12045   1.223   3.904  12.435  0.0331 -0.5932  0.4494
  815MPD2    C112046   1.197   3.875  12.301 -0.1720  0.6070 -0.4913
  815MPD2    C212047   1.068   3.887  12.249  0.6082 -0.2481 -0.3454
  815MPD2    C312048   0.962   3.912  12.334  0.4465  0.1819  0.1654
  815MPD2    C412049   0.990   3.955  12.465  0.1202  0.3579 -0.7594
  815MPD2    C512050   1.115   3.949  12.520 -0.0211 -0.3904 -0.0320
  815MPD2     H12051   1.037   3.863  12.148 -0.4146  1.2686 -0.3944
  815MPD2    H112052   0.903   3.983  12.524  0.4317 -2.2819  0.9239
  815MPD2    H212053   1.319   3.890  12.482 -0.0654  2.7834  1.6558
  815MPD2    H312054   1.131   3.976  12.624  0.0404 -0.0059 -0.1391
  815MPD2     N12055   0.835   3.921  12.270  0.3357 -0.3173  0.0012
  815MPD2    H512056   0.833   3.891  12.173 -1.3563 -1.4630  0.3984
  815MPD2    N112057   1.305   3.821  12.224 -0.1738  0.5735 -0.1725
  815MPD2    H712058   1.391   3.795  12.273 -0.3958  0.8241  0.3450
  816MPD2     C12059   1.940   3.303  17.219 -0.4291  0.2575  0.9834
  816MPD2    C112060   1.855   3.243  17.130  0.6274  0.1315 -0.2697
  816MPD2    C212061   1.892   3.221  16.997 -0.5002  0.2398 -0.6447
  816MPD2    C312062   2.017   3.248  16.958  0.8240  0.4885  0.9163
  816MPD2    C412063   2.102   3.296  17.057 -0.1808 -0.0414  0.0288
  816MPD2    C512064   2.070   3.317  17.186 -0.3240  0.7531 -1.3846
  816MPD2     H12065   1.825   3.177  16.924 -2.6018  1.1132  0.7604
  816MPD2    H112066   2.210   3.300  17.043 -0.0476 -0.6330  0.8374
  816MPD2    H212067   1.906   3.314  17.321 -0.3231 -1.2194  1.1857
  816MPD2    H312068   2.148   3.340  17.258 -0.3981 -1.7912 -0.5026
  816MPD2     N12069   2.055   3.226  16.825 -0.3346  0.0060  0.0358
  816MPD2    H512070   1.990   3.172  16.768 -1.4948  1.3803  0.0761
  816MPD2    N112071   1.729   3.226  17.175  0.4457 -0.4661  0.5018
  816MPD2    H712072   1.709   3.269  17.264  0.4110 -1.3478  0.9164
  817MPD2     C12073   0.466   0.059  10.055 -0.0127  0.5903  0.0135
  817MPD2    C112074   0.598   0.040  10.023 -0.5373 -0.2661 -0.0303
  817MPD2    C212075   0.662   0.137   9.952 -0.3376 -0.0090  0.3312
  817MPD2    C312076   0.601   0.252   9.916 -0.0650  1.1188  0.3559
  817MPD2    C412077   0.471   0.268   9.951 -0.2646  0.0613 -0.0666
  817MPD2    C512078   0.400   0.168  10.023 -0.1113 -0.6249  0.3183
  817MPD2     H12079   0.768   0.119   9.937 -0.2892  0.0255  0.6373
  817MPD2    H112080   0.412   0.358   9.932  0.7817  0.6773 -0.3758
  817MPD2    H212081   0.407   4.718  10.102  1.8345 -0.9089 -0.1592
  817MPD2    H312082   0.297   0.176  10.056 -0.1164 -1.0460  0.4031
  817MPD2     N12083   0.675   0.345   9.844  0.1136  0.9054  0.3017
  817MPD2    H512084   0.773   0.322   9.828 -0.4484 -1.0207 -0.4003
  817MPD2    N112085   0.671   4.664  10.066 -0.1112  0.1658 -0.1721
  817MPD2    H712086   0.766   4.647  10.036  0.0511  0.0369  0.4033
  818MPD2     C12087   0.121   0.221   9.794 -0.0427  0.0957  0.2709
  818MPD2    C112088   0.013   0.167   9.858 -0.8576  0.2791  0.7633
  818MPD2    C212089   4.654   0.098   9.789  0.1105 -0.2493 -0.2628
  818MPD2    C312090   4.665   0.070   9.653  0.9232  0.3404 -0.0917
  818MPD2    C412091   0.036   0.124   9.585 -1.0090  0.2116 -0.8160
  818MPD2    C512092   0.127   0.202   9.656  0.3961 -0.3668 -0.4431
  818MPD2     H12093   4.567   0.070   9.847  0.8927  0.9839  1.5117
  818MPD2    H112094   0.038   0.112   9.478 -0.1303  1.3134 -0.9277
  818MPD2    H212095   0.198   0.275   9.847 -1.1719 -0.4620  2.5094
  818MPD2    H312096   0.206   0.242   9.593 -1.1729  0.6851 -1.7266
  818MPD2     N12097   4.578   4.725   9.577 -0.5228  0.3745 -0.6455
  818MPD2    H512098   4.601   4.719   9.479 -0.3740  0.9812 -0.6480
  818MPD2    N112099   4.729   0.180   9.994 -0.3636  0.0477 -0.6672
  818MPD2    H712100   4.652   0.127  10.033 -1.6093  1.3517 -1.3545
  819MPD2     C12101   2.669   1.490  15.371 -0.3819 -0.3953  0.6573
  819MPD2    C112102   2.728   1.372  15.407  0.5171  0.1357  0.6850
  819MPD2    C212103   2.833   1.367  15.499 -0.3744 -0.0675 -0.0642
  819MPD2    C312104   2.867   1.481  15.572 -0.0193 -0.4021 -0.2338
  819MPD2    C412105   2.788   1.592  15.552 -0.3345  0.6198  1.0472
  819MPD2    C512106   2.705   1.603  15.443  0.0631  0.7845 -0.3319
  819MPD2     H12107   2.893   1.279  15.518 -0.0912  0.1406  0.0168
  819MPD2    H112108   2.814   1.681  15.609  5.1529 -0.3386 -0.0388
  819MPD2    H212109   2.585   1.514  15.307  0.6483  0.1221 -0.4890
  819MPD2    H312110   2.663   1.701  15.427 -0.7608  0.8329  2.2283
  819MPD2     N12111   2.975   1.476  15.659  0.1336  0.1562 -0.4586
  819MPD2    H512112   3.012   1.383  15.679 -0.5300  0.0664  0.3950
  819MPD2    N112113   2.679   1.256  15.332 -0.0558 -0.6988 -0.0048
  819MPD2    H712114   2.592   1.259  15.281  1.1126  0.6875 -1.9644
  820MPD2     C12115   2.012   0.846  14.683 -0.7909 -1.0367  0.5545
  820MPD2    C112116   2.093   0.957  14.679  0.3519  0.8708  0.1278
  820MPD2    C212117   2.198   0.971  14.765  0.2297  0.4253 -0.4900
  820MPD2    C312118   2.224   0.874  14.864  0.3205  0.0343 -0.3364
  820MPD2    C412119   2.146   0.764  14.864  0.1691  0.3041  0.7542
  820MPD2    C512120   2.039   0.749  14.783 -0.5716 -0.3695  0.5171
  820MPD2     H12121   2.267   1.054  14.754 -0.9438  1.4805 -0.0107
  820MPD2    H112122   2.163   0.689  14.940  0.4393 -0.3966 -0.0020
  820MPD2    H212123   1.922   0.837  14.623 -1.4740 -0.5417  1.5202
  820MPD2    H312124   1.964   0.673  14.797  1.4928 -2.0430  2.5176
  820MPD2     N12125   2.331   0.871  14.964  0.3606  0.2448 -0.2260
  820MPD2    H512126   2.338   0.787  15.021  0.6209  0.0761 -0.5097
  820MPD2    N112127   2.062   1.055  14.583  0.1769  0.2561  0.0972
  820MPD2    H712128   1.970   1.041  14.543 -0.5305  0.3586  1.7088
  821MPD2     C12129   2.836   2.757  13.326  0.0997  0.4226  0.5623
  821MPD2    C112130   2.928   2.760  13.423  0.3472  0.3632 -0.2938
  821MPD2    C212131   3.053   2.818  13.400 -0.4117 -0.0584 -0.3878
  821MPD2    C312132   3.093   2.857  13.275 -0.1320  0.7657  0.1841
  821MPD2    C412133   3.002   2.846  13.176 -0.5464  0.3690  1.0060
  821MPD2    C512134   2.872   2.809  13.206  0.6120  0.5380  0.1561
  821MPD2     H12135   3.116   2.815  13.488 -0.5194  1.6362 -0.2595
  821MPD2    H112136   3.027   2.866  13.072  2.2853  0.7142  1.7735
  821MPD2    H212137   2.737   2.713  13.336  0.4692  0.0448  2.4874
  821MPD2    H312138   2.816   2.787  13.116 -0.2986  0.5354  0.7253
  821MPD2     N12139   3.217   2.920  13.250 -0.1068 -0.0863 -0.2265
  821MPD2    H512140   3.233   2.951  13.155  4.6784 -0.0317  0.6216
  821MPD2    N112141   2.901   2.724  13.557  0.5861  0.0995  0.3022
  821MPD2    H712142   2.980   2.724  13.621  2.4469 -0.3507 -2.0025
  822MPD2     C12143   3.553   2.651  15.866 -0.4689  0.3024 -0.2687
  822MPD2    C112144   3.631   2.736  15.943 -0.1651 -0.1747  0.3354
  822MPD2    C212145   3.595   2.858  15.978 -0.3298  0.2332  0.0448
  822MPD2    C312146   3.479   2.914  15.927 -0.1082  0.1920  0.8794
  822MPD2    C412147   3.395   2.829  15.854 -0.3045  0.1728 -0.6806
  822MPD2    C512148   3.433   2.698  15.817 -0.7106  0.3124  0.3451
  822MPD2     H12149   3.649   2.919  16.049 -1.3314  1.8267 -0.5603
  822MPD2    H112150   3.299   2.864  15.818  1.0042  3.7658 -0.6521
  822MPD2    H212151   3.583   2.551  15.837  1.7769  1.0558 -0.5453
  822MPD2    H312152   3.381   2.637  15.744  2.3686  0.6090 -2.1061
  822MPD2     N12153   3.420   3.037  15.967  0.1149 -0.0589  0.1857
  822MPD2    H512154   3.321   3.057  15.956  0.4431  2.2689  1.5664
  822MPD2    N112155   3.750   2.688  16.015 -0.4370 -0.4216  0.5065
  822MPD2    H712156   3.797   2.751  16.078 -1.0065  1.3921 -0.8882
  823MPD2     C12157   3.001   3.251  16.683  0.4209 -0.5710 -0.0922
  823MPD2    C112158   3.084   3.168  16.612 -0.4745 -0.6188 -0.5318
  823MPD2    C212159   3.138   3.048  16.655 -0.0695  0.0899 -0.9731
  823MPD2    C312160   3.103   3.006  16.779  0.2725 -0.2397  0.5583
  823MPD2    C412161   3.016   3.079  16.851  0.5013 -0.5046  0.7365
  823MPD2    C512162   2.972   3.202  16.808 -0.7620  0.4792 -0.6492
  823MPD2     H12163   3.205   2.987  16.596  0.6739  0.4738 -0.5292
  823MPD2    H112164   2.991   3.058  16.954 -1.4425 -1.0956  0.1469
  823MPD2    H212165   2.958   3.341  16.640  0.8055 -0.3211  0.0459
  823MPD2    H312166   2.909   3.261  16.873  0.8615 -0.0747  1.3925
  823MPD2     N12167   3.144   2.883  16.838  0.1528  0.6591  0.4050
  823MPD2    H512168   3.107   2.861  16.930 -1.8081  0.4001 -0.4707
  823MPD2    N112169   3.109   3.212  16.475 -0.3085  0.4242  0.0528
  823MPD2    H712170   3.090   3.310  16.462  1.1581  0.4997 -1.3938
  824MPD2     C12171   4.299   2.050  16.129  0.3475  0.2810  0.3112
  824MPD2    C112172   4.263   2.143  16.035  0.7731  0.3341  0.0408
  824MPD2    C212173   4.292   2.119  15.903  0.4255 -0.3034  0.5034
  824MPD2    C312174   4.369   2.010  15.866  0.2109  0.2566  0.9395
  824MPD2    C412175   4.399   1.912  15.960 -0.2746  0.4215 -0.1280
  824MPD2    C512176   4.366   1.934  16.091  0.3856  0.2026  0.0854
  824MPD2     H12177   4.265   2.187  15.823  0.4896 -0.4045  0.3953
  824MPD2    H112178   4.458   1.825  15.934 -0.8142  0.6451 -2.1433
  824MPD2    H212179   4.271   2.049  16.234  0.9033 -2.6485  0.4334
  824MPD2    H312180   4.397   1.865  16.169  1.0538  0.3887 -0.0097
  824MPD2     N12181   4.400   1.996  15.727 -0.5680  0.5780 -0.0315
  824MPD2    H512182   4.356   2.061  15.663 -0.3875  1.0945  0.3684
  824MPD2    N112183   4.186   2.258  16.068  0.1576 -0.1615  0.5168
  824MPD2    H712184   4.149   2.314  15.993 -1.7928 -2.5557 -0.3080
  825MPD2     C12185   0.068   2.320  15.057  0.1432 -0.3265 -0.4501
  825MPD2    C112186   0.068   2.294  15.193  0.2280  0.0136  0.1022
  825MPD2    C212187   0.124   2.393  15.272  0.5332  0.3637  0.4811
  825MPD2    C312188   0.158   2.523  15.217 -0.6161  0.3335  0.1458
  825MPD2    C412189   0.160   2.532  15.078 -0.0949  0.3381 -1.3434
  825MPD2    C512190   0.121   2.431  15.000  0.2914  0.5814  0.8365
  825MPD2     H12191   0.126   2.379  15.380  2.7564  0.8112  0.5077
  825MPD2    H112192   0.170   2.630  15.034 -0.8979  0.3613 -1.4734
  825MPD2    H212193   0.023   2.253  14.985 -2.2915  0.1417  0.6464
  825MPD2    H312194   0.104   2.438  14.893  2.5461  2.0705  0.5791
  825MPD2     N12195   0.188   2.638  15.299 -0.2581 -0.0264 -0.8266
  825MPD2    H512196   0.194   2.725  15.248  0.9358  1.2070  1.4172
  825MPD2    N112197   0.018   2.174  15.244  0.2580 -0.4216  0.0055
  825MPD2    H712198   4.721   2.107  15.175  1.7569 -0.8710 -0.2993
  826MPD2     C12199   4.579   2.475  14.279  0.2595  0.7715  0.7308
  826MPD2    C112200   4.539   2.441  14.146  0.0154 -0.3696  0.4503
  826MPD2    C212201   4.407   2.461  14.118  0.5435 -0.4511 -0.3497
  826MPD2    C312202   4.321   2.537  14.198 -0.1096  0.8072 -0.2652
  826MPD2    C412203   4.366   2.569  14.325 -0.3089  0.5294 -0.1303
  826MPD2    C512204   4.493   2.535  14.366  0.6485 -0.0176 -0.2620
  826MPD2     H12205   4.371   2.418  14.025 -0.3751 -1.3504  0.4121
  826MPD2    H112206   4.302   2.611  14.402 -1.0226 -0.7842 -0.0188
  826MPD2    H212207   4.679   2.451  14.313  1.3694 -0.5963 -3.4104
  826MPD2    H312208   4.524   2.568  14.465  0.5104  0.3548 -0.3456
  826MPD2     N12209   4.187   2.571  14.161 -0.1257 -0.1668 -0.1281
  826MPD2    H512210   4.124   2.587  14.239  1.4453  0.8718  0.9242
  826MPD2    N112211   4.628   2.355  14.072 -0.4449 -0.0985  0.3225
  826MPD2    H712212   4.716   2.346  14.123  0.3968  1.7084 -0.7806
  827MPD2     C12213   0.666   3.586  10.177  0.2313  0.3997 -0.4095
  827MPD2    C112214   0.647   3.471  10.254 -0.4373 -0.6925 -0.5010
  827MPD2    C212215   0.591   3.357  10.201 -0.0137  0.1273 -0.2540
  827MPD2    C312216   0.554   3.347  10.074 -0.3098  0.0031 -0.8654
  827MPD2    C412217   0.559   3.459   9.995 -0.0145 -0.4053  0.1094
  827MPD2    C512218   0.619   3.565  10.046 -0.8835 -0.6663 -0.1379
  827MPD2     H12219   0.579   3.265  10.257 -1.9881 -0.9070 -2.4150
  827MPD2    H112220   0.528   3.464   9.891  0.8540  0.3972 -0.1144
  827MPD2    H212221   0.706   3.678  10.217  3.3934 -0.5807 -1.3424
  827MPD2    H312222   0.640   3.652   9.984  1.8876 -0.9050  0.4664
  827MPD2     N12223   0.491   3.228  10.034 -0.1871  0.8606 -0.2091
  827MPD2    H512224   0.478   3.162  10.110 -0.1470 -0.0408 -0.9986
  827MPD2    N112225   0.690   3.476  10.391 -0.8655 -0.1618 -0.4215
  827MPD2    H712226   0.734   3.560  10.428 -1.6922  0.0226  0.1457
  828MPD2     C12227   3.675   3.303  12.593  0.3669 -0.5761  0.0380
  828MPD2    C112228   3.585   3.305  12.493 -0.6215  0.5720 -0.4741
  828MPD2    C212229   3.618   3.260  12.367 -0.7626  0.9085  0.1428
  828MPD2    C312230   3.745   3.224  12.332  0.1526  0.3192  0.5553
  828MPD2    C412231   3.837   3.222  12.435  0.2302  0.7341  0.2103
  828MPD2    C512232   3.805   3.268  12.562  0.1452 -0.0028 -0.6210
  828MPD2     H12233   3.544   3.253  12.288  0.0292 -0.2814 -0.4844
  828MPD2    H112234   3.936   3.180  12.426  1.1411  2.3352  2.8380
  828MPD2    H212235   3.654   3.331  12.695  2.2497 -1.9116  0.7807
  828MPD2    H312236   3.882   3.269  12.638  0.0516 -0.8248 -0.5185
  828MPD2     N12237   3.793   3.180  12.203  0.5827  0.1506  0.4055
  828MPD2    H512238   3.888   3.146  12.191  0.0819 -0.8687 -0.7349
  828MPD2    N112239   3.450   3.351  12.504  0.3838  0.3137 -0.0300
  828MPD2    H712240   3.390   3.340  12.423  0.2544 -1.6841  0.3289
  829MPD2     C12241   2.831   3.575  11.952 -0.4375  0.1269 -0.4921
  829MPD2    C112242   2.757   3.573  12.069  0.0463  0.7181 -0.1932
  829MPD2    C212243   2.824   3.561  12.189 -0.4535  0.7643  0.6655
  829MPD2    C312244   2.959   3.554  12.194  0.8335 -0.0948  0.3835
  829MPD2    C412245   3.031   3.565  12.083 -0.3076 -0.5961 -0.1050
  829MPD2    C512246   2.967   3.574  11.960  0.6018 -0.0868 -0.0066
  829MPD2     H12247   2.769   3.569  12.282 -0.2761  3.4033  0.5312
  829MPD2    H112248   3.138   3.577  12.095 -0.1187 -0.7406 -1.5893
  829MPD2    H212249   2.784   3.603  11.859 -0.7882  2.5892  0.4145
  829MPD2    H312250   3.023   3.579  11.867  2.5126  2.4863  1.2959
  829MPD2     N12251   3.024   3.537  12.318  0.0844  0.0395  0.6601
  829MPD2    H512252   3.126   3.541  12.315  0.1411  0.7537  3.0045
  829MPD2    N112253   2.614   3.573  12.048  0.0704  0.4400 -0.1478
  829MPD2    H712254   2.583   3.576  11.952 -0.0055  2.6831 -0.0516
  830MPD2     C12255   3.579   1.170  16.092  0.2971 -0.0071 -0.1169
  830MPD2    C112256   3.587   1.269  15.999  0.2318  0.1643 -0.1364
  830MPD2    C212257   3.714   1.291  15.942 -0.3425  0.4410  0.2472
  830MPD2    C312258   3.832   1.242  15.989  0.3307 -0.2402 -0.0321
  830MPD2    C412259   3.820   1.133  16.074  0.0373 -0.2855  0.0288
  830MPD2    C512260   3.696   1.096  16.116  0.0377 -1.0632 -0.6135
  830MPD2     H12261   3.725   1.361  15.860 -0.7464 -2.3613 -2.2210
  830MPD2    H112262   3.907   1.092  16.123  1.1056  0.3762 -1.3184
  830MPD2    H212263   3.485   1.143  16.139  1.8692 -3.2587  1.1467
  830MPD2    H312264   3.699   1.008  16.178 -0.8524 -0.2344  0.6005
  830MPD2     N12265   3.951   1.300  15.949 -0.2518 -0.0817  0.0194
  830MPD2    H512266   3.942   1.383  15.892  0.6786 -1.9167 -2.7997
  830MPD2    N112267   3.470   1.331  15.956 -0.3000 -0.3972  0.4832
  830MPD2    H712268   3.392   1.352  16.018 -0.1003  1.6767  0.0343
  831MPD2     C12269   3.711   3.161  16.449 -0.3803 -0.9985  0.1855
  831MPD2    C112270   3.738   3.061  16.352 -0.5964 -0.9578  0.1163
  831MPD2    C212271   3.644   2.961  16.334 -0.0887  0.0843 -0.5233
  831MPD2    C312272   3.527   2.957  16.409 -0.1427  0.2390 -0.0998
  831MPD2    C412273   3.508   3.048  16.513 -1.1423 -0.0931 -0.4597
  831MPD2    C512274   3.603   3.142  16.534  0.4437  0.4709 -0.4878
  831MPD2     H12275   3.664   2.898  16.248  2.9547  0.4240 -0.0674
  831MPD2    H112276   3.418   3.044  16.573 -2.2627  0.0353 -2.1154
  831MPD2    H212277   3.772   3.249  16.460 -0.5575 -0.5604 -2.3971
  831MPD2    H312278   3.581   3.222  16.605  2.7781  0.4806  0.2203
  831MPD2     N12279   3.420   2.871  16.373  0.6028 -0.6217  0.1665
  831MPD2    H512280   3.325   2.903  16.389  0.7043 -0.9330  1.3825
  831MPD2    N112281   3.842   3.079  16.268  0.2950  0.0282  0.2016
  831MPD2    H712282   3.894   3.166  16.268  3.1537 -1.6530  1.1194
  832MPD2     C12283   1.961   4.024  17.409 -0.2725 -0.6629 -0.5680
  832MPD2    C112284   1.931   4.153  17.370 -0.7440 -0.1696  0.4657
  832MPD2    C212285   1.832   4.180  17.283  0.8840  0.7287  0.1158
  832MPD2    C312286   1.753   4.070  17.241  0.1060  0.2303 -0.1350
  832MPD2    C412287   1.799   3.944  17.280 -0.3685 -0.3373 -0.2941
  832MPD2    C512288   1.902   3.919  17.354 -0.1454 -0.2099  0.2461
  832MPD2     H12289   1.827   4.281  17.243 -3.0952  1.1909  1.7673
  832MPD2    H112290   1.758   3.859  17.227  2.2641 -1.4976 -0.4755
  832MPD2    H212291   2.034   4.008  17.487 -2.9844 -1.9458  1.6636
  832MPD2    H312292   1.935   3.818  17.374 -1.3775 -0.6551 -0.0103
  832MPD2     N12293   1.654   4.079  17.138  0.2892  0.1776  0.5268
  832MPD2    H512294   1.615   3.991  17.105 -0.2879 -0.1141  2.0030
  832MPD2    N112295   2.017   4.250  17.419 -0.2100 -0.0783  0.6285
  832MPD2    H712296   2.108   4.225  17.456  0.8973  2.3270 -0.4932
  833MPD2     C12297   4.680   1.225  12.391  0.1771  0.0288 -0.2292
  833MPD2    C112298   4.563   1.258  12.327  0.8272 -0.2201  0.0123
  833MPD2    C212299   4.551   1.213  12.200 -0.2423  0.0839 -0.1100
  833MPD2    C312300   4.647   1.144  12.130 -0.7150  0.4406  0.3516
  833MPD2    C412301   0.021   1.108  12.201 -1.1100  0.0373  1.0242
  833MPD2    C512302   0.044   1.152  12.329  0.6722 -1.2639 -0.0326
  833MPD2     H12303   4.466   1.238  12.136 -1.0125 -1.1874  0.4378
  833MPD2    H112304   0.092   1.046  12.148 -1.3174  0.3714  0.3590
  833MPD2    H212305   4.699   1.253  12.494 -0.5396 -0.8179  0.1413
  833MPD2    H312306   0.138   1.144  12.383  1.3578 -1.6917 -1.3066
  833MPD2     N12307   4.628   1.124  11.985 -0.1701  0.4012 -0.5164
  833MPD2    H512308   4.548   1.174  11.948 -0.6916  1.2229  1.7163
  833MPD2    N112309   4.448   1.311  12.384  0.5672  0.1210  0.4275
  833MPD2    H712310   4.371   1.339  12.323  1.0619  0.1851 -0.1676
  834MPD2     C12311   4.220   0.417  11.327 -0.1411 -0.0083 -0.0443
  834MPD2    C112312   4.157   0.538  11.308  0.4398 -0.1275 -0.3861
  834MPD2    C212313   4.199   0.647  11.386 -0.2406  0.2361  0.0979
  834MPD2    C312314   4.305   0.632  11.475  0.2185  0.2233  0.8480
  834MPD2    C412315   4.363   0.514  11.493 -0.0438 -0.0757  0.4939
  834MPD2    C512316   4.321   0.403  11.422 -0.4060 -0.3291 -0.6243
  834MPD2     H12317   4.165   0.749  11.377  1.4095  0.7904  0.1455
  834MPD2    H112318   4.438   0.494  11.569 -1.7747 -0.8216  2.0052
  834MPD2    H212319   4.184   0.326  11.279  0.0777 -1.3548  2.3462
  834MPD2    H312320   4.360   0.305  11.445 -1.2119 -0.3607  0.6209
  834MPD2     N12321   4.341   0.751  11.538  0.6056 -0.1083  0.5874
  834MPD2    H512322   4.282   0.833  11.530  0.0362 -0.7628 -1.9445
  834MPD2    N112323   4.053   0.553  11.216 -0.2699 -0.0681  0.5121
  834MPD2    H712324   4.023   0.467  11.170  1.6528  0.4215 -1.6662
  835MPD2     C12325   4.588   4.345  11.243  0.6126 -0.0703 -0.4838
  835MPD2    C112326   4.476   4.281  11.295  0.6764 -0.3499  0.2292
  835MPD2    C212327   4.491   4.206  11.412  0.6715  0.6352  0.9492
  835MPD2    C312328   4.617   4.189  11.474  1.0201 -0.0638 -0.4232
  835MPD2    C412329   4.713   4.276  11.435 -0.2748 -0.4019  0.2359
  835MPD2    C512330   4.702   4.348  11.318  0.1748  0.2173 -0.2901
  835MPD2     H12331   4.404   4.149  11.441 -1.8226  2.4171 -2.9669
  835MPD2    H112332   0.074   4.271  11.481 -0.0775 -0.2101 -0.1655
  835MPD2    H212333   4.586   4.406  11.153 -0.5792  2.7376  1.4393
  835MPD2    H312334   0.053   4.407  11.293 -0.4754  1.5300  0.5966
  835MPD2     N12335   4.641   4.095  11.580 -0.3518 -0.6355 -0.2294
  835MPD2    H512336   4.733   4.105  11.622 -0.1133 -0.9429 -0.6823
  835MPD2    N112337   4.353   4.256  11.229  0.1106  0.3094  0.2144
  835MPD2    H712338   4.285   4.227  11.299 -1.6364 -0.5364 -1.8296
  836MPD2     C12339   4.390   3.361  12.073 -0.0351 -0.7064  0.2348
  836MPD2    C112340   4.353   3.486  12.059  0.0928 -0.3748 -0.0641
  836MPD2    C212341   4.229   3.527  12.113 -0.2322  0.4569  0.3119
  836MPD2    C312342   4.155   3.442  12.194  0.3239  0.0260  0.9314
  836MPD2    C412343   4.210   3.320  12.220 -0.0928  0.0302 -0.4616
  836MPD2    C512344   4.318   3.275  12.157 -0.2169  0.4640 -0.2186
  836MPD2     H12345   4.201   3.632  12.111  1.9991  1.0334 -0.6352
  836MPD2    H112346   4.153   3.264  12.293 -1.1424  3.8423  1.6756
  836MPD2    H212347   4.469   3.318  12.012 -0.5019 -1.1682 -0.0437
  836MPD2    H312348   4.336   3.169  12.165  2.5466  1.1078  1.9446
  836MPD2     N12349   4.045   3.490  12.270  0.1833  0.2487 -0.4124
  836MPD2    H512350   4.007   3.440  12.350 -0.3514  3.8252  1.5653
  836MPD2    N112351   4.433   3.573  11.991  0.1332  0.2555  0.2034
  836MPD2    H712352   4.522   3.535  11.961  0.1813  0.1159  0.5230
  837MPD2     C12353   2.659   3.708  10.316  0.0164  0.0597 -0.6046
  837MPD2    C112354   2.541   3.664  10.370  0.5624 -0.4611 -0.2059
  837MPD2    C212355   2.467   3.741  10.462  0.8371  0.3915 -0.1584
  837MPD2    C312356   2.518   3.863  10.494  0.2702  0.1179  0.0203
  837MPD2    C412357   2.637   3.913  10.440  0.1427  0.6436  0.2822
  837MPD2    C512358   2.708   3.829  10.353 -0.0373  0.0708 -0.0620
  837MPD2     H12359   2.374   3.705  10.504  0.5669  1.0559 -0.1844
  837MPD2    H112360   2.661   4.019  10.446  0.6035  0.5487  0.0921
  837MPD2    H212361   2.720   3.648  10.249 -0.2734 -0.1245 -0.7035
  837MPD2    H312362   2.799   3.861  10.304 -0.7902  0.0733 -1.4508
  837MPD2     N12363   2.418   3.942  10.558 -0.4185  0.4915 -0.2553
  837MPD2    H512364   2.334   3.901  10.600 -1.3880  1.1067 -1.5933
  837MPD2    N112365   2.477   3.543  10.329 -0.5790 -0.7709 -0.0655
  837MPD2    H712366   2.394   3.518  10.381 -0.7500  0.2427  0.1436
  838MPD2     C12367   1.409   1.505  11.722 -0.1317 -0.1795 -0.1250
  838MPD2    C112368   1.287   1.450  11.707  0.8909 -0.2029 -0.4217
  838MPD2    C212369   1.204   1.435  11.817 -0.0085 -1.0781  0.0849
  838MPD2    C312370   1.247   1.468  11.940 -0.0935 -0.0626  0.1625
  838MPD2    C412371   1.373   1.525  11.961  0.1479  0.3229 -0.2705
  838MPD2    C512372   1.451   1.543  11.846  0.3950  0.0381 -0.5667
  838MPD2     H12373   1.102   1.404  11.799 -0.7192  0.5831  1.2363
  838MPD2    H112374   1.421   1.540  12.057 -0.8914 -1.5149  0.5420
  838MPD2    H212375   1.484   1.507  11.644  0.4647 -0.4302  0.4300
  838MPD2    H312376   1.552   1.581  11.860  0.3493  0.1639 -0.5820
  838MPD2     N12377   1.160   1.449  12.046  0.4392 -0.0113  0.1827
  838MPD2    H512378   1.189   1.506  12.126  2.0448  0.8246 -1.0036
  838MPD2    N112379   1.235   1.398  11.584  0.5220  0.4797  0.2629
  838MPD2    H712380   1.139   1.365  11.583  0.8791 -0.5900  1.5956
  839MPD2     C12381   0.420   1.258  11.513 -0.3627  0.0045 -0.7482
  839MPD2    C112382   0.484   1.143  11.482  0.1849 -0.1152  0.2693
  839MPD2    C212383   0.608   1.152  11.423 -0.3890 -0.5387  0.0933
  839MPD2    C312384   0.663   1.275  11.385  0.4487  0.2138 -0.1237
  839MPD2    C412385   0.583   1.382  11.401  0.3542  0.2998  0.3859
  839MPD2    C512386   0.469   1.376  11.466  0.1552  0.0481  0.5131
  839MPD2     H12387   0.671   1.064  11.412 -0.3857 -0.6164  0.7165
  839MPD2    H112388   0.620   1.481  11.376 -0.3124  0.4531 -0.0113
  839MPD2    H212389   0.323   1.261  11.562  0.0368 -0.6836  0.0896
  839MPD2    H312390   0.408   1.463  11.490  1.4903  1.7236 -2.2278
  839MPD2     N12391   0.786   1.293  11.323  0.3269  0.5253 -0.3803
  839MPD2    H512392   0.806   1.393  11.317  1.9628  0.1554 -1.2210
  839MPD2    N112393   0.443   1.013  11.513 -0.3431  0.3995 -1.2512
  839MPD2    H712394   0.505   0.936  11.492 -0.7075 -0.0007 -0.8662
  840MPD2     C12395   1.051   3.896  10.613 -0.2278  0.3765  0.2890
  840MPD2    C112396   1.091   3.790  10.691  0.1199 -0.4419  0.3968
  840MPD2    C212397   1.192   3.806  10.782 -0.0742  0.3540 -0.2022
  840MPD2    C312398   1.248   3.929  10.808  0.2299 -0.0907  0.0295
  840MPD2    C412399   1.205   4.032  10.730  0.1631  0.1704  0.0336
  840MPD2    C512400   1.109   4.024  10.635 -0.0094 -0.0063 -0.5002
  840MPD2     H12401   1.223   3.718  10.836  0.2027  0.1462 -0.7005
  840MPD2    H112402   1.244   4.129  10.760 -1.2464  0.7304  0.0295
  840MPD2    H212403   0.979   3.877  10.535 -2.5115  0.3086  2.4073
  840MPD2    H312404   1.084   4.105  10.568  0.0465  1.4081  1.2070
  840MPD2     N12405   1.350   3.964  10.898 -0.5697 -0.7857  0.3397
  840MPD2    H512406   1.391   4.057  10.890  0.8774 -1.4457 -0.0449
  840MPD2    N112407   1.009   3.673  10.676  0.2387  0.1330 -0.3581
  840MPD2    H712408   0.928   3.684  10.616  1.6685  1.1740 -2.0860
  841MPD2     C12409   0.418   3.584  14.943 -0.5992 -0.5581  0.2721
  841MPD2    C112410   0.475   3.467  14.900 -0.2725 -0.4636  1.3974
  841MPD2    C212411   0.611   3.454  14.896 -0.5270  0.0274  0.2436
  841MPD2    C312412   0.693   3.562  14.921  0.1121  0.2365 -0.1569
  841MPD2    C412413   0.636   3.678  14.960  0.4228  0.1025  0.1401
  841MPD2    C512414   0.498   3.690  14.968  0.5998 -0.0585  0.6731
  841MPD2     H12415   0.651   3.359  14.861 -0.6414 -0.2316  0.8242
  841MPD2    H112416   0.700   3.764  14.975  0.5768  0.1117 -0.5644
  841MPD2    H212417   0.310   3.595  14.945 -0.5702 -0.2556  0.0572
  841MPD2    H312418   0.467   3.784  15.014 -1.1054  0.3516 -1.2934
  841MPD2     N12419   0.832   3.554  14.901 -0.6968  0.3876  0.1492
  841MPD2    H512420   0.858   3.460  14.873 -1.5215  0.1900  0.0408
  841MPD2    N112421   0.394   3.357  14.844  0.3870 -0.2550 -0.7471
  841MPD2    H712422   0.436   3.264  14.836 -0.8918 -0.9558  0.7649
  842MPD2     C12423   1.349   4.524  16.861 -0.5954 -0.2462 -0.8283
  842MPD2    C112424   1.257   4.428  16.827 -0.7137 -0.9374 -0.0709
  842MPD2    C212425   1.175   4.375  16.925  0.4038 -0.2467  0.6562
  842MPD2    C312426   1.192   4.410  17.060 -0.0331  0.3502 -0.6426
  842MPD2    C412427   1.291   4.499  17.092 -0.2618 -0.6299  0.4891
  842MPD2    C512428   1.374   4.549  16.994 -1.1296 -0.2100  0.0639
  842MPD2     H12429   1.085   4.324  16.893  0.0701  0.8311 -0.1102
  842MPD2    H112430   1.300   4.540  17.192  0.6225  1.1032 -0.2780
  842MPD2    H212431   1.401   4.574  16.781  1.9657 -0.9207  0.4308
  842MPD2    H312432   1.450   4.620  17.021  2.0617 -3.5815  0.0053
  842MPD2     N12433   1.096   4.382  17.164 -0.3483 -0.2071 -0.5617
  842MPD2    H512434   1.113   4.438  17.247  3.2881  0.6786 -1.8846
  842MPD2    N112435   1.248   4.398  16.683  0.4425 -0.3741 -0.0284
  842MPD2    H712436   1.304   4.445  16.612 -1.5250  2.1500  0.1030
  843MPD2     C12437   3.117   0.521   0.399  0.1442  0.2834  0.1051
  843MPD2    C112438   3.227   0.511   0.487  0.5852 -0.5532 -0.9984
  843MPD2    C212439   3.297   0.623   0.522 -0.3936 -0.2492  0.0835
  843MPD2    C312440   3.260   0.742   0.473  0.1229  0.1483  0.6418
  843MPD2    C412441   3.158   0.749   0.380  0.4932 -0.2058 -0.3172
  843MPD2    C512442   3.090   0.635   0.340 -0.6781 -0.1036  0.2412
  843MPD2     H12443   3.361   0.626   0.610 -0.2546 -0.3283 -0.0133
  843MPD2    H112444   3.125   0.845   0.340 -0.6994 -0.1207  0.8634
  843MPD2    H212445   3.054   0.438   0.368  1.4338 -1.0213  0.9798
  843MPD2    H312446   3.014   0.642   0.263 -0.0024 -2.7830 -0.6627
  843MPD2     N12447   3.301   0.869   0.519  0.3127  0.3792  0.0563
  843MPD2    H512448   3.271   0.950   0.467  0.0711 -0.5049 -1.1895
  843MPD2    N112449   3.255   0.380   0.524 -0.1646  0.3347 -0.3397
  843MPD2    H712450   3.193   0.304   0.496  1.7370 -1.8572  1.3192
  844MPD2     C12451   1.439   3.625  16.513  0.5792 -0.1766 -0.1596
  844MPD2    C112452   1.503   3.714  16.434  0.8240 -0.1367  0.2803
  844MPD2    C212453   1.595   3.812  16.488 -0.2288  0.7491  0.0790
  844MPD2    C312454   1.610   3.813  16.627  0.1695 -0.4147 -0.6736
  844MPD2    C412455   1.547   3.710  16.707  0.1342  0.5568 -0.0339
  844MPD2    C512456   1.458   3.625  16.646 -0.7362 -0.1063 -0.4131
  844MPD2     H12457   1.637   3.888  16.422  0.5530 -0.4184 -0.7626
  844MPD2    H112458   1.548   3.708  16.816  1.5219  0.4857 -0.0488
  844MPD2    H212459   1.370   3.552  16.472 -0.6415  0.6205  0.4745
  844MPD2    H312460   1.397   3.568  16.716 -0.2522  0.2350  0.2898
  844MPD2     N12461   1.700   3.903  16.683 -0.0597 -0.1249  0.0907
  844MPD2    H512462   1.735   3.967  16.614  0.9280 -0.8542 -0.0806
  844MPD2    N112463   1.489   3.697  16.291  0.9404 -0.3243  0.0086
  844MPD2    H712464   1.560   3.745  16.236 -1.1073 -0.0199 -2.3461
  845MPD2     C12465   1.948   0.119  16.713 -0.2635  0.0163  0.3518
  845MPD2    C112466   2.011   0.078  16.824 -0.0576 -0.5751  0.0796
  845MPD2    C212467   2.011   4.679  16.862  0.8947 -0.1628  0.0681
  845MPD2    C312468   1.943   4.592  16.784 -0.7133 -0.5375  0.3254
  845MPD2    C412469   1.866   4.637  16.678 -0.2805 -0.5098 -0.2622
  845MPD2    C512470   1.879   0.027  16.643 -0.0210 -0.2584  0.4505
  845MPD2     H12471   2.072   4.638  16.942 -0.0298 -1.8535 -0.0893
  845MPD2    H112472   1.811   4.572  16.611  0.7165  2.0510 -3.5358
  845MPD2    H212473   1.948   0.224  16.684 -1.2877  0.3838  1.6806
  845MPD2    H312474   1.831   0.055  16.550  5.2734  0.8522 -1.9254
  845MPD2     N12475   1.950   4.455  16.817  0.4084 -0.0330 -0.2234
  845MPD2    H512476   2.020   4.430  16.885 -0.0662  1.7396  0.8903
  845MPD2    N112477   2.061   0.183  16.903 -0.0987  0.0544 -0.4093
  845MPD2    H712478   2.047   0.277  16.866 -1.9479 -0.3182 -0.6726
  846MPD2     C12479   3.748   0.389  13.856  0.1992  0.0030  0.8841
  846MPD2    C112480   3.635   0.476  13.863 -0.5567  0.0915 -0.5211
  846MPD2    C212481   3.605   0.531  13.982  0.3945  0.8031  0.2299
  846MPD2    C312482   3.668   0.490  14.102  0.9484  0.1267  0.3184
  846MPD2    C412483   3.782   0.417  14.091  0.0139  0.0550  0.0046
  846MPD2    C512484   3.824   0.370  13.967  0.7162 -0.5020 -0.0935
  846MPD2     H12485   3.523   0.602  13.991  1.7196  2.2315  1.0384
  846MPD2    H112486   3.846   0.390  14.174 -1.6964  0.6241  1.4960
  846MPD2    H212487   3.775   0.352  13.757 -1.2356  0.1363  0.4397
  846MPD2    H312488   3.925   0.329  13.960  0.6789 -0.3277 -1.6758
  846MPD2     N12489   3.614   0.530  14.228  0.3331  0.3633  0.2414
  846MPD2    H512490   3.535   0.594  14.228 -0.4473 -0.6065  0.1295
  846MPD2    N112491   3.561   0.511  13.751 -0.0078 -0.7012 -0.1264
  846MPD2    H712492   3.492   0.582  13.772  0.2912 -0.9718  1.8212
  847MPD2     C12493   3.583   1.397  14.649 -0.4703 -0.7948  0.3041
  847MPD2    C112494   3.684   1.490  14.628 -0.4485 -0.2122  0.1552
  847MPD2    C212495   3.712   1.541  14.505  0.3251 -0.0153  0.2596
  847MPD2    C312496   3.636   1.500  14.394 -0.7170  0.2305 -0.3496
  847MPD2    C412497   3.533   1.408  14.409 -0.0994 -0.4804  0.6777
  847MPD2    C512498   3.509   1.363  14.536 -0.6741  0.6609  0.3799
  847MPD2     H12499   3.798   1.605  14.491 -0.8710  2.0272  2.2490
  847MPD2    H112500   3.468   1.366  14.333  1.4480  0.1002 -0.9755
  847MPD2    H212501   3.553   1.363  14.747 -0.8312 -2.0853 -0.2537
  847MPD2    H312502   3.419   1.306  14.550 -0.9495  0.8123 -0.7456
  847MPD2     N12503   3.676   1.558  14.267 -0.6983  0.5605  0.1356
  847MPD2    H512504   3.738   1.637  14.283 -0.0002  0.5452 -2.4884
  847MPD2    N112505   3.768   1.533  14.732 -0.5949 -0.3714  0.3048
  847MPD2    H712506   3.821   1.617  14.714 -0.9255 -0.6767 -2.0098
  848MPD2     C12507   1.429   4.239  16.319 -0.6086  0.2254 -0.4991
  848MPD2    C112508   1.505   4.299  16.417  0.2373  0.0504 -0.1960
  848MPD2    C212509   1.553   4.429  16.391 -0.3287  0.2455 -0.2506
  848MPD2    C312510   1.525   4.498  16.275 -0.4978 -0.3409 -0.7667
  848MPD2    C412511   1.456   4.430  16.176  0.0316  0.0777 -0.5954
  848MPD2    C512512   1.405   4.301  16.203 -0.2338  0.4396 -0.3512
  848MPD2     H12513   1.619   4.476  16.463 -1.4668 -0.2375  1.1119
  848MPD2    H112514   1.433   4.474  16.080 -0.8719 -1.2323 -0.9834
  848MPD2    H212515   1.386   4.140  16.329  1.9504 -1.0584 -2.2160
  848MPD2    H312516   1.352   4.244  16.128  1.1156 -1.3100  0.0073
  848MPD2     N12517   1.566   4.630  16.252 -0.7382 -0.1432 -0.5902
  848MPD2    H512518   1.540   4.676  16.165 -0.6354  1.1655  0.0736
  848MPD2    N112519   1.520   4.248  16.553 -0.0120 -0.2853  0.2425
  848MPD2    H712520   1.580   4.299  16.616  0.5734  0.9511 -1.3197
  849MPD2     C12521   0.324   4.092  14.538  0.8522 -0.2641 -0.0523
  849MPD2    C112522   0.413   4.076  14.430 -0.6195 -1.0354 -0.1023
  849MPD2    C212523   0.545   4.042  14.464 -0.2541  0.3467  0.4700
  849MPD2    C312524   0.588   4.025  14.594  0.2652  0.4549 -0.6832
  849MPD2    C412525   0.496   4.031  14.700 -0.6379  0.1228 -0.0913
  849MPD2    C512526   0.371   4.066  14.663  0.3059  0.0857 -0.3649
  849MPD2     H12527   0.613   4.032  14.380 -1.6942 -2.8867 -0.3103
  849MPD2    H112528   0.516   4.035  14.807 -1.6250  3.1609 -0.0291
  849MPD2    H212529   0.223   4.130  14.527  0.9272  0.9492  3.4902
  849MPD2    H312530   0.299   4.075  14.743 -1.6149  0.5945 -2.1374
  849MPD2     N12531   0.725   4.002  14.621 -0.1149  0.7120 -0.3485
  849MPD2    H512532   0.783   3.984  14.540  2.0919 -1.0052  1.6014
  849MPD2    N112533   0.385   4.111  14.296  0.1997 -0.4595  0.4961
  849MPD2    H712534   0.461   4.121  14.229  0.7033  0.2146  1.1585
  850MPD2     C12535   3.785   2.130  14.957  0.5342 -0.0682  0.4015
  850MPD2    C112536   3.798   2.204  15.075  0.5568  0.3894  0.4381
  850MPD2    C212537   3.927   2.246  15.114 -0.2148  0.0598 -0.2155
  850MPD2    C312538   4.042   2.206  15.043  0.7083 -0.5256 -0.4173
  850MPD2    C412539   4.025   2.141  14.926 -0.2038 -0.3069 -0.3898
  850MPD2    C512540   3.903   2.097  14.881 -0.1861 -1.0294  0.0554
  850MPD2     H12541   3.950   2.303  15.203 -1.7258  0.4336 -0.0583
  850MPD2    H112542   4.106   2.101  14.867 -0.5564 -3.0585  0.9334
  850MPD2    H212543   3.687   2.095  14.923 -0.9727  2.9688  1.6556
  850MPD2    H312544   3.893   2.043  14.788 -2.2697 -1.2010  0.3874
  850MPD2     N12545   4.172   2.244  15.079  0.3038  0.5620  0.8212
  850MPD2    H512546   4.248   2.215  15.018  0.5794  1.4062  0.7710
  850MPD2    N112547   3.677   2.247  15.144 -0.4303 -0.2303 -0.0051
  850MPD2    H712548   3.594   2.224  15.091 -1.5845  1.9364  0.8542
  851MPD2     C12549   3.842   2.153  15.997  0.5439  0.4596  0.4572
  851MPD2    C112550   3.892   2.121  15.871 -0.0650 -0.0768  0.6153
  851MPD2    C212551   3.966   2.001  15.862  0.0332  0.7699  0.0115
  851MPD2    C312552   3.994   1.925  15.974  0.2244  0.2285  0.7037
  851MPD2    C412553   3.953   1.966  16.097 -0.2617  0.4747  0.9423
  851MPD2    C512554   3.883   2.080  16.109  0.7237  0.5717  0.1913
  851MPD2     H12555   3.996   1.955  15.768 -1.3508  0.5913 -0.3422
  851MPD2    H112556   3.973   1.910  16.188 -0.5661 -0.3222  0.5258
  851MPD2    H212557   3.779   2.240  16.009  1.1422  0.5415  2.9588
  851MPD2    H312558   3.854   2.112  16.209 -2.0401 -1.3436  0.0064
  851MPD2     N12559   4.056   1.794  15.954 -0.1074  0.5241  0.1251
  851MPD2    H512560   4.086   1.768  15.861  2.9862 -3.0165  2.1186
  851MPD2    N112561   3.873   2.215  15.767 -0.0769  0.1063 -0.0736
  851MPD2    H712562   3.852   2.309  15.798  0.0257 -0.9552  3.2496
  852MPD2     C12563   3.322   0.372   9.519  0.3687  0.7480 -0.4256
  852MPD2    C112564   3.399   0.444   9.610 -0.5172  0.4460 -0.0479
  852MPD2    C212565   3.510   0.514   9.568  0.1497 -0.1229 -0.1181
  852MPD2    C312566   3.533   0.534   9.429  0.0828 -0.2765  0.6516
  852MPD2    C412567   3.452   0.478   9.336  0.1996 -0.2517 -0.0335
  852MPD2    C512568   3.343   0.402   9.385  0.4326  0.5173  0.0823
  852MPD2     H12569   3.576   0.563   9.638  0.7997 -1.5897  0.3038
  852MPD2    H112570   3.464   0.482   9.228 -2.0641 -2.9558 -0.3944
  852MPD2    H212571   3.237   0.309   9.542  0.8428 -0.1895 -1.2688
  852MPD2    H312572   3.275   0.344   9.326 -1.7879  2.9012  0.3044
  852MPD2     N12573   3.643   0.612   9.389  0.4880  0.2294 -0.2408
  852MPD2    H512574   3.702   0.658   9.457  1.3985 -0.2548 -0.7100
  852MPD2    N112575   3.387   0.436   9.751 -0.0959  0.3089 -0.9252
  852MPD2    H712576   3.456   0.488   9.803  0.7816  0.0738 -1.8550
  853MPD2     C12577   0.480   4.680  12.419 -0.0628 -0.0945  0.4756
  853MPD2    C112578   0.369   4.723  12.358  0.2610 -0.1523 -0.0837
  853MPD2    C212579   0.357   4.717  12.219  0.8863 -0.0964 -0.2090
  853MPD2    C312580   0.467   4.684  12.135  0.7410 -0.0300 -0.9125
  853MPD2    C412581   0.584   4.662  12.199  0.3217  0.3325 -0.4859
  853MPD2    C512582   0.592   4.655  12.341  0.7095  0.8061  0.1868
  853MPD2     H12583   0.267   0.008  12.166 -0.4946  0.7623  2.5912
  853MPD2    H112584   0.675   4.643  12.144  1.7539 -1.0984  2.3860
  853MPD2    H212585   0.498   4.673  12.526 -0.0742 -1.2570  0.4075
  853MPD2    H312586   0.692   4.643  12.380  0.7365 -2.8405 -1.0118
  853MPD2     N12587   0.461   4.662  11.996 -0.3646 -0.1289 -0.4004
  853MPD2    H512588   0.548   4.652  11.946 -0.2010  0.1791 -0.1836
  853MPD2    N112589   0.260   0.029  12.445 -0.5357 -0.4510 -0.1029
  853MPD2    H712590   0.271   0.046  12.544 -0.9855  0.1869 -0.1621
  854MPD2     C12591   2.380   0.275  13.253  0.1456 -0.4065  0.1946
  854MPD2    C112592   2.389   0.274  13.115 -0.1468  0.1187  0.3640
  854MPD2    C212593   2.450   0.164  13.055  0.6629  0.2725  0.5000
  854MPD2    C312594   2.506   0.060  13.126  0.3045 -0.0721 -0.5286
  854MPD2    C412595   2.502   0.071  13.257  0.1313  0.3655 -0.4436
  854MPD2    C512596   2.440   0.172  13.322 -0.0349  0.1487  0.0362
  854MPD2     H12597   2.440   0.149  12.948  0.3297  1.6078  0.3410
  854MPD2    H112598   2.556   0.001  13.320  0.2131  1.5553  0.8174
  854MPD2    H212599   2.329   0.360  13.297  0.5597 -1.3740  2.5642
  854MPD2    H312600   2.444   0.167  13.430  0.8956 -1.0298 -0.0566
  854MPD2     N12601   2.551   4.677  13.065  0.4517 -1.0640 -0.1849
  854MPD2    H512602   2.578   4.605  13.131 -0.6072 -0.3694  1.0117
  854MPD2    N112603   2.324   0.375  13.043 -0.1399 -0.0550  0.1835
  854MPD2    H712604   2.257   0.430  13.095  0.2919  1.0354 -0.4177
  855MPD2     C12605   2.940   4.071  13.520  0.7156 -0.1022 -0.1188
  855MPD2    C112606   2.857   4.179  13.522 -0.0743 -0.6121  0.0680
  855MPD2    C212607   2.802   4.221  13.406  0.0926 -0.1024  0.4036
  855MPD2    C312608   2.818   4.149  13.285  0.2211 -0.0597  0.1442
  855MPD2    C412609   2.896   4.036  13.288  0.7870 -0.1966 -0.2992
  855MPD2    C512610   2.962   3.999  13.402 -0.4567 -0.2687 -0.0373
  855MPD2     H12611   2.744   4.311  13.421 -0.2273 -0.1155 -0.7740
  855MPD2    H112612   2.922   3.974  13.203  0.1680  0.6722 -1.1204
  855MPD2    H212613   3.010   4.051  13.600  1.6957 -0.0335 -0.9657
  855MPD2    H312614   3.040   3.928  13.379 -0.3206 -0.5132  1.1633
  855MPD2     N12615   2.757   4.183  13.171 -0.7784  0.1664 -0.4178
  855MPD2    H512616   2.759   4.114  13.097  1.5686 -0.7700  0.5395
  855MPD2    N112617   2.837   4.258  13.635 -0.1320 -0.9532 -0.0162
  855MPD2    H712618   2.775   4.337  13.626  1.7135  0.4167 -0.7850
  856MPD2     C12619   4.270   0.836  13.565  0.4151  0.0818 -0.5351
  856MPD2    C112620   4.350   0.944  13.600  0.6101 -0.1857 -0.6518
  856MPD2    C212621   4.296   1.067  13.581 -0.2540 -0.4774 -0.1704
  856MPD2    C312622   4.174   1.085  13.518 -0.1425  0.2823 -0.4123
  856MPD2    C412623   4.107   0.973  13.467  0.6335  0.4705 -0.2049
  856MPD2    C512624   4.153   0.848  13.493 -0.8096 -0.2830  0.2416
  856MPD2     H12625   4.352   1.148  13.627 -0.2977 -2.0002  2.4935
  856MPD2    H112626   4.015   0.988  13.412  0.6796  0.3185 -0.3225
  856MPD2    H212627   4.303   0.733  13.571  1.8735  0.5845 -0.1290
  856MPD2    H312628   4.093   0.764  13.459  0.0412  0.1531 -2.3665
  856MPD2     N12629   4.103   1.207  13.511  0.1371 -0.5733 -0.4892
  856MPD2    H512630   4.004   1.196  13.494  0.4446 -1.3832 -1.7615
  856MPD2    N112631   4.462   0.938  13.686 -0.4663 -0.1217 -0.0474
  856MPD2    H712632   4.504   1.027  13.714 -0.4406 -0.1818  0.1048
  857MPD2     C12633   1.032   3.146  12.661 -0.2213  0.1423 -0.0008
  857MPD2    C112634   1.149   3.103  12.722  0.4613  0.1290 -0.2491
  857MPD2    C212635   1.214   3.182  12.816  0.1504 -0.8412  0.4321
  857MPD2    C312636   1.163   3.313  12.838  0.2302  0.6953 -0.5676
  857MPD2    C412637   1.043   3.353  12.776  0.3822  1.0706 -0.6365
  857MPD2    C512638   0.982   3.269  12.691  0.7753 -0.1621 -0.3995
  857MPD2     H12639   1.300   3.138  12.865  1.0790  1.6669  1.0153
  857MPD2    H112640   0.989   3.443  12.800 -0.3293  1.1142 -2.3876
  857MPD2    H212641   0.980   3.088  12.584  1.6666  1.6660 -2.4179
  857MPD2    H312642   0.895   3.306  12.637  0.8666 -3.8789 -3.0437
  857MPD2     N12643   1.238   3.383  12.935 -0.0085 -0.0077 -0.3690
  857MPD2    H512644   1.322   3.339  12.971  0.4399  0.2558 -1.0845
  857MPD2    N112645   1.199   2.982  12.670 -1.0697 -0.1002  0.1787
  857MPD2    H712646   1.139   2.927  12.609  0.1608  0.0103 -1.1318
  858MPD2     C12647   2.266   2.156  16.481 -0.0539  0.0025 -0.4836
  858MPD2    C112648   2.191   2.048  16.527  0.0559  0.5153  0.1826
  858MPD2    C212649   2.144   2.059  16.658 -0.3253  0.6435 -0.1099
  858MPD2    C312650   2.169   2.176  16.731 -0.6849  0.1087  0.3349
  858MPD2    C412651   2.235   2.279  16.674  0.4844 -0.2646 -0.1398
  858MPD2    C512652   2.285   2.272  16.546  0.4101  0.2681  0.0123
  858MPD2     H12653   2.101   1.973  16.708 -0.0621  0.6425  0.1143
  858MPD2    H112654   2.253   2.373  16.724 -0.2909 -0.4562  0.4878
  858MPD2    H212655   2.304   2.147  16.379  0.9760  0.1200 -0.1123
  858MPD2    H312656   2.350   2.347  16.502  1.0856 -0.1232  0.3516
  858MPD2     N12657   2.107   2.191  16.856  0.2211 -0.9575 -0.2155
  858MPD2    H512658   2.114   2.288  16.885  0.7275 -0.5445 -1.6955
  858MPD2    N112659   2.179   1.928  16.453 -0.1082  0.0206  0.1128
  858MPD2    H712660   2.240   1.929  16.372 -0.5336 -3.5040 -0.2469
  859MPD2     C12661   0.485   3.849  15.492 -0.7622  0.1246 -0.0405
  859MPD2    C112662   0.587   3.879  15.577 -0.4258  0.4917  0.1125
  859MPD2    C212663   0.654   3.778  15.646 -0.5314 -0.0599 -0.1107
  859MPD2    C312664   0.606   3.643  15.633 -0.2138 -0.0785 -0.2887
  859MPD2    C412665   0.496   3.619  15.554  0.0223  0.5714  0.0396
  859MPD2    C512666   0.440   3.718  15.477 -0.7125 -0.2214  0.6071
  859MPD2     H12667   0.736   3.799  15.714  0.2116 -0.0750 -1.0007
  859MPD2    H112668   0.457   3.517  15.551 -1.2728  1.0051  1.7171
  859MPD2    H212669   0.439   3.934  15.443 -0.2725  1.6543  2.1575
  859MPD2    H312670   0.363   3.685  15.408 -0.7354  1.6924 -0.2821
  859MPD2     N12671   0.669   3.526  15.686 -0.1318 -0.5070 -0.1709
  859MPD2    H512672   0.634   3.435  15.656 -1.1282  0.6464 -2.4802
  859MPD2    N112673   0.621   4.017  15.570  0.3597  0.3619 -0.5202
  859MPD2    H712674   0.561   4.079  15.516 -0.1696  0.6663  0.3954
  860MPD2     C12675   3.082   0.107  11.476  0.4949  0.1156  0.0541
  860MPD2    C112676   3.080   0.051  11.602 -0.2467 -0.6023  0.3372
  860MPD2    C212677   2.965   4.722  11.652 -0.1068 -0.0097  0.7393
  860MPD2    C312678   2.851   4.731  11.577 -0.3143 -0.1769 -0.1043
  860MPD2    C412679   2.854   0.058  11.459  0.1135  0.5864 -0.5342
  860MPD2    C512680   2.966   0.115  11.410  0.3943 -0.5636  0.3858
  860MPD2     H12681   2.970   4.675  11.750 -1.1160 -0.5276  0.5361
  860MPD2    H112682   2.761   0.075  11.405 -1.3552  1.3349  2.1979
  860MPD2    H212683   3.170   0.152  11.430 -1.0403  3.2990  0.2508
  860MPD2    H312684   2.961   0.178  11.321 -3.6425 -1.7951 -0.2360
  860MPD2     N12685   2.731   4.675  11.640  0.0788  0.0054  0.0391
  860MPD2    H512686   2.755   4.622  11.724 -2.3481  1.7313  1.7990
  860MPD2    N112687   3.189   0.050  11.689 -0.3264 -0.2838 -0.0374
  860MPD2    H712688   3.170   0.020  11.784  2.4888 -0.2950  0.5430
  861MPD2     C12689   1.422   2.453  11.425 -0.4229  0.4953  0.4176
  861MPD2    C112690   1.512   2.548  11.460  0.1385 -0.5370  0.2930
  861MPD2    C212691   1.530   2.650  11.366  0.4245 -0.1937 -0.6604
  861MPD2    C312692   1.447   2.663  11.252  0.6965 -0.2162 -0.8144
  861MPD2    C412693   1.357   2.565  11.219  0.3200 -0.3057 -0.1611
  861MPD2    C512694   1.347   2.458  11.312 -0.8493  0.5138  1.1652
  861MPD2     H12695   1.602   2.727  11.391  0.1850 -0.5053  0.9693
  861MPD2    H112696   1.276   2.575  11.148  0.8730  1.3093 -0.5629
  861MPD2    H212697   1.399   2.364  11.483 -3.7381  1.7067  0.9525
  861MPD2    H312698   1.260   2.393  11.307  0.3858 -0.9949 -0.8579
  861MPD2     N12699   1.434   2.772  11.176  0.0515  0.1297 -0.5054
  861MPD2    H512700   1.351   2.786  11.119 -0.5810  0.3217  0.4782
  861MPD2    N112701   1.588   2.554  11.577  0.0077 -0.2947  0.5175
  861MPD2    H712702   1.665   2.619  11.581 -0.9679  0.8756  0.1085
  862MPD2     C12703   1.568   3.024  10.493  0.8714  0.0925  0.0329
  862MPD2    C112704   1.618   2.956  10.603  0.4984 -0.0237 -0.4414
  862MPD2    C212705   1.626   2.818  10.590  0.8137  0.3811  0.3764
  862MPD2    C312706   1.594   2.750  10.472  0.4756  0.2548 -0.8241
  862MPD2    C412707   1.542   2.824  10.369 -0.5447  0.2688  0.4468
  862MPD2    C512708   1.530   2.957  10.384  0.1710 -0.1516  0.6168
  862MPD2     H12709   1.647   2.770  10.684  1.8716  1.3918  0.6607
  862MPD2    H112710   1.516   2.779  10.274  1.7583  2.3305 -1.1725
  862MPD2    H212711   1.552   3.132  10.494 -0.6785 -0.1383  0.6613
  862MPD2    H312712   1.497   3.016  10.298 -0.1941 -1.3495 -0.0694
  862MPD2     N12713   1.598   2.611  10.467  0.2784 -1.1235  0.8718
  862MPD2    H512714   1.557   2.561  10.389 -1.5490 -1.0865  1.8292
  862MPD2    N112715   1.621   3.003  10.734  0.5561  0.5714  0.7539
  862MPD2    H712716   1.666   2.942  10.802  0.5907 -0.2032  0.0395
  863MPD2     C12717   0.405   0.698  16.649  0.6245  0.1053 -0.7218
  863MPD2    C112718   0.313   0.797  16.670 -0.8550 -0.8835 -0.5465
  863MPD2    C212719   0.331   0.883  16.775 -0.3971 -0.0310  1.0704
  863MPD2    C312720   0.442   0.863  16.859  0.1824 -0.3843  0.8308
  863MPD2    C412721   0.543   0.779  16.822 -0.1079 -0.1325 -0.6810
  863MPD2    C512722   0.520   0.692  16.721 -1.2759  0.2427 -0.4114
  863MPD2     H12723   0.258   0.961  16.791  1.2894  1.5915  0.9431
  863MPD2    H112724   0.642   0.779  16.868  0.0072 -0.2306 -0.9305
  863MPD2    H212725   0.386   0.632  16.565 -0.9664 -3.6945  2.5965
  863MPD2    H312726   0.591   0.615  16.695  0.8904  1.6683  1.3197
  863MPD2     N12727   0.479   0.946  16.971 -0.3731  0.0897 -0.0153
  863MPD2    H512728   0.575   0.942  17.001 -0.2803 -1.0682 -0.4870
  863MPD2    N112729   0.203   0.813  16.586 -0.3241 -0.8162  0.4073
  863MPD2    H712730   0.191   0.750  16.508 -2.8228  1.1377 -0.7908
  864MPD2     C12731   0.998   2.075  17.169 -0.0505 -0.0785  0.2411
  864MPD2    C112732   1.041   1.984  17.065  0.1180 -0.8313 -0.0982
  864MPD2    C212733   1.120   2.034  16.965  0.0109  0.1385 -0.2767
  864MPD2    C312734   1.165   2.165  16.968  0.4342 -0.1919  0.0218
  864MPD2    C412735   1.124   2.246  17.069 -0.5014 -0.2593 -1.1273
  864MPD2    C512736   1.042   2.205  17.164  0.1269  0.2123 -0.3658
  864MPD2     H12737   1.155   1.974  16.882  0.2203 -1.9230  1.3160
  864MPD2    H112738   1.167   2.346  17.071  0.1700 -0.5781  0.8347
  864MPD2    H212739   0.938   2.041  17.252 -2.7510  0.5783 -1.4495
  864MPD2    H312740   1.006   2.273  17.241 -0.1768  0.4812 -0.7411
  864MPD2     N12741   1.256   2.220  16.884  0.6135 -0.5168  0.3275
  864MPD2    H512742   1.287   2.314  16.907  0.5349 -0.0280 -1.5545
  864MPD2    N112743   0.984   1.856  17.055 -0.3288 -0.1438  0.3148
  864MPD2    H712744   0.911   1.830  17.120  0.3316 -1.2207  0.6327
  865MPD2     C12745   1.522   2.524  16.128 -0.4156  0.1806 -0.6233
  865MPD2    C112746   1.451   2.445  16.217  0.0060 -0.2963  0.0091
  865MPD2    C212747   1.411   2.499  16.333 -0.0604 -0.7032 -0.4725
  865MPD2    C312748   1.456   2.630  16.368 -0.2228  0.4734 -0.5214
  865MPD2    C412749   1.508   2.706  16.268 -0.5709  0.3998  0.3310
  865MPD2    C512750   1.541   2.656  16.145  1.1146 -0.1579  0.3215
  865MPD2     H12751   1.350   2.436  16.398 -1.6695  2.8964  1.4863
  865MPD2    H112752   1.538   2.808  16.288 -1.7233  0.8542 -0.2885
  865MPD2    H212753   1.538   2.478  16.031 -0.9578 -0.5503 -0.3655
  865MPD2    H312754   1.579   2.730  16.074  1.4483  0.2767  0.9536
  865MPD2     N12755   1.444   2.692  16.494  0.0461  0.3863 -0.1003
  865MPD2    H512756   1.453   2.793  16.489  0.5589  0.3243 -0.4785
  865MPD2    N112757   1.429   2.310  16.178  0.0405 -0.5581 -0.0493
  865MPD2    H712758   1.455   2.294  16.081 -0.0995 -0.1447 -0.1544
  866MPD2     C12759   2.595   2.870  11.744  0.5052 -0.3250 -0.2406
  866MPD2    C112760   2.567   2.884  11.611  0.5863 -0.7589 -0.5454
  866MPD2    C212761   2.436   2.906  11.577  0.0697 -0.1192  0.1069
  866MPD2    C312762   2.342   2.939  11.673 -0.0928  0.3494 -0.2419
  866MPD2    C412763   2.377   2.929  11.805 -0.0403 -0.0648  0.5851
  866MPD2    C512764   2.500   2.900  11.838 -0.3571  1.0049  0.4247
  866MPD2     H12765   2.410   2.899  11.472  2.6723 -2.2692 -0.3990
  866MPD2    H112766   2.309   2.926  11.890 -1.2473  0.3142 -0.3636
  866MPD2    H212767   2.697   2.876  11.778  0.4683 -3.4598  0.3984
  866MPD2    H312768   2.515   2.925  11.942 -0.2630  0.1176  0.6174
  866MPD2     N12769   2.209   2.986  11.633  0.6949  0.5939 -0.3671
  866MPD2    H512770   2.138   3.009  11.702  1.1359  1.6647 -0.2780
  866MPD2    N112771   2.667   2.841  11.526  0.0998  0.3369  0.2118
  866MPD2    H712772   2.763   2.827  11.557  0.7435  0.5356 -1.6892
  867MPD2     C12773   4.074   1.819  16.736 -0.5351  0.3320 -0.1141
  867MPD2    C112774   4.167   1.764  16.820  0.4608 -0.5444 -0.5340
  867MPD2    C212775   4.173   1.803  16.956 -0.1559  0.5749  0.3609
  867MPD2    C312776   4.084   1.899  16.998 -0.7376  0.6001  0.3915
  867MPD2    C412777   3.984   1.953  16.909  0.2550 -0.4033  0.1052
  867MPD2    C512778   3.985   1.911  16.778 -0.4728  0.3896 -0.0619
  867MPD2     H12779   4.247   1.769  17.028  0.4263 -0.3710 -0.6829
  867MPD2    H112780   3.914   2.031  16.935  0.3232 -0.9648  1.9438
  867MPD2    H212781   4.069   1.789  16.633  0.8929 -1.2607  0.2752
  867MPD2    H312782   3.906   1.949  16.714 -0.5235  0.0270 -0.2101
  867MPD2     N12783   4.082   1.963  17.130  0.2235  0.2688 -0.0908
  867MPD2    H512784   4.004   2.025  17.149  0.6878 -0.2860  3.6789
  867MPD2    N112785   4.258   1.673  16.761  0.6446 -0.0178  0.2751
  867MPD2    H712786   4.236   1.646  16.666  2.5433  2.6799 -0.9089
  868MPD2     C12787   1.708   1.635  13.110 -0.3025  0.4103  0.4120
  868MPD2    C112788   1.697   1.500  13.155  0.0430  0.6288 -0.5136
  868MPD2    C212789   1.571   1.457  13.181 -0.0217 -0.3085 -1.3338
  868MPD2    C312790   1.455   1.538  13.180  0.4154 -0.6147 -0.1182
  868MPD2    C412791   1.471   1.664  13.133 -0.1981 -0.3428  0.3064
  868MPD2    C512792   1.593   1.715  13.088 -0.1229 -0.7152  0.0987
  868MPD2     H12793   1.552   1.353  13.205  0.4576 -0.2255 -0.5807
  868MPD2    H112794   1.381   1.725  13.128  0.6138  0.7315 -1.2049
  868MPD2    H212795   1.805   1.675  13.085  1.0835 -1.9872  1.9235
  868MPD2    H312796   1.596   1.814  13.045 -3.0686  0.1502  1.8734
  868MPD2     N12797   1.338   1.484  13.243 -0.0847  0.6269 -0.8887
  868MPD2    H512798   1.338   1.393  13.288 -1.8648  1.1021  0.0418
  868MPD2    N112799   1.808   1.424  13.175 -0.0016 -0.4359  0.3645
  868MPD2    H712800   1.898   1.471  13.164  0.6632 -1.3723  1.7106
  869MPD2     C12801   1.993   0.209   0.479 -0.1972  0.2166 -0.1976
  869MPD2    C112802   1.945   0.076   0.481 -0.7354 -0.9050  0.5859
  869MPD2    C212803   2.031   4.706   0.479 -0.2885 -0.5219  0.2750
  869MPD2    C312804   2.166   4.730   0.499 -0.1959 -0.0157 -0.1789
  869MPD2    C412805   2.209   0.127   0.497  0.0019  0.3896  0.0760
  869MPD2    C512806   2.125   0.233   0.497 -0.2904  0.4372 -0.1721
  869MPD2     H12807   1.993   4.608   0.503 -0.8453 -0.4039 -0.1345
  869MPD2    H112808   2.315   0.149   0.496 -0.0151  0.4841  0.7676
  869MPD2    H212809   1.930   0.296   0.469  0.3875  0.5292 -1.1720
  869MPD2    H312810   2.177   0.328   0.496 -1.6017  1.1557 -1.8465
  869MPD2     N12811   2.258   4.627   0.535  0.7253  0.2342 -0.1892
  869MPD2    H512812   2.344   4.667   0.571  1.5633 -0.7844 -1.0523
  869MPD2    N112813   1.811   0.059   0.479  0.1189 -0.2883  0.1395
  869MPD2    H712814   1.750   0.138   0.495 -1.3370 -1.4820  0.4482
  870MPD2     C12815   2.347   3.283   1.964  0.2206 -0.3705  0.7590
  870MPD2    C112816   2.366   3.181   1.865  0.2609  0.1410 -0.2173
  870MPD2    C212817   2.314   3.200   1.740 -0.7490  0.7405 -0.3251
  870MPD2    C312818   2.227   3.305   1.713 -0.5474  0.2394  0.6846
  870MPD2    C412819   2.191   3.385   1.817  0.6436 -0.3377 -1.1240
  870MPD2    C512820   2.255   3.384   1.934 -0.2072  0.7341 -0.2878
  870MPD2     H12821   2.338   3.142   1.652  0.9259 -0.2052  0.7429
  870MPD2    H112822   2.110   3.458   1.811 -0.1518 -1.2631 -1.6781
  870MPD2    H212823   2.396   3.287   2.061 -0.2834 -3.2028  1.1289
  870MPD2    H312824   2.226   3.454   2.011  1.1059  0.8838  0.0637
  870MPD2     N12825   2.167   3.322   1.584  0.4559  0.2090  0.2688
  870MPD2    H512826   2.200   3.257   1.513  2.0618  2.2738 -0.8560
  870MPD2    N112827   2.460   3.076   1.888 -0.9990  0.0295  0.5392
  870MPD2    H712828   2.518   3.073   1.972  0.2461 -1.3558 -0.3753
  871MPD2     C12829   3.570   2.303  16.523 -0.7555  0.3924 -0.6844
  871MPD2    C112830   3.483   2.249  16.618  0.2982 -1.0235 -0.8081
  871MPD2    C212831   3.479   2.113  16.635 -0.4858  0.4276 -0.0435
  871MPD2    C312832   3.568   2.020  16.578 -0.0373 -0.1707 -0.8195
  871MPD2    C412833   3.659   2.080  16.487 -1.0449  0.2342 -0.2660
  871MPD2    C512834   3.660   2.215  16.472  0.7447  0.0677 -0.3734
  871MPD2     H12835   3.407   2.076  16.708 -0.4922  0.2998 -0.1154
  871MPD2    H112836   3.737   2.021  16.440 -0.4312  1.5229 -0.8582
  871MPD2    H212837   3.588   2.408  16.505  0.4388  0.0917 -1.2602
  871MPD2    H312838   3.741   2.260  16.417  0.4992  3.5445  2.0725
  871MPD2     N12839   3.567   1.883  16.621 -0.4819  0.4566  0.7832
  871MPD2    H512840   3.496   1.862  16.691 -2.3648  0.0459 -1.2540
  871MPD2    N112841   3.413   2.347  16.688 -0.2817  0.5530  0.8133
  871MPD2    H712842   3.436   2.442  16.662  0.5639 -0.6489 -2.7769
  872MPD2     C12843   4.408   4.448  13.984 -0.4515  0.2130  0.2688
  872MPD2    C112844   4.406   4.584  13.952 -0.2712 -0.1373 -0.2471
  872MPD2    C212845   4.292   4.660  13.989 -0.2051  0.2587 -0.2722
  872MPD2    C312846   4.193   4.609  14.068  0.1459 -0.8313 -0.3903
  872MPD2    C412847   4.201   4.477  14.103 -0.2791 -0.2296 -0.2552
  872MPD2    C512848   4.302   4.397  14.050  0.4468 -0.3279  0.1760
  872MPD2     H12849   4.295   0.027  13.956 -0.7865  0.3174 -0.1398
  872MPD2    H112850   4.122   4.431  14.161  0.1782  0.5941  0.9983
  872MPD2    H212851   4.486   4.379  13.953 -1.1552  1.2535 -3.8287
  872MPD2    H312852   4.297   4.291  14.070 -2.1460  0.1621  2.1217
  872MPD2     N12853   4.090   4.690  14.122  0.2810  0.1502  0.2781
  872MPD2    H512854   4.020   4.643  14.178  1.4381 -0.5553  1.1304
  872MPD2    N112855   4.508   4.640  13.868 -0.3050  0.0898 -0.2142
  872MPD2    H712856   4.490   4.736  13.838 -1.5874  0.1579  0.7833
  873MPD2     C12857   0.161   0.455   0.460  0.4187  0.8712  0.6741
  873MPD2    C112858   0.260   0.364   0.476 -0.2493 -0.3506 -0.5115
  873MPD2    C212859   0.264   0.243   0.406  0.3187 -0.2332  0.0225
  873MPD2    C312860   0.160   0.212   0.314 -0.3998  0.5940  0.5329
  873MPD2    C412861   0.067   0.314   0.290  0.7597  0.3674 -0.4132
  873MPD2    C512862   0.072   0.432   0.361  0.1015  0.1655  0.0522
  873MPD2     H12863   0.331   0.160   0.427 -2.3273 -2.2991  0.3041
  873MPD2    H112864   4.724   0.304   0.216  1.2446  1.2174 -1.0510
  873MPD2    H212865   0.147   0.548   0.514 -0.1701 -1.5011  4.6283
  873MPD2    H312866   4.728   0.504   0.352 -1.2520 -1.2178  0.9966
  873MPD2     N12867   0.145   0.090   0.235 -0.1003 -0.7987  0.3631
  873MPD2    H512868   0.087   0.098   0.153  2.4269 -1.1863 -1.4664
  873MPD2    N112869   0.367   0.406   0.557 -0.1228  0.2109 -0.1352
  873MPD2    H712870   0.360   0.500   0.596 -2.2785 -0.4379  1.0242
  874MPD2     C12871   0.942   0.160  16.131  0.1107  0.3626 -0.5473
  874MPD2    C112872   1.055   0.102  16.171  0.0463 -0.1027 -0.0906
  874MPD2    C212873   1.174   0.156  16.138  0.2125  0.6948  0.2234
  874MPD2    C312874   1.195   0.263  16.052 -0.5810  0.6513 -0.1486
  874MPD2    C412875   1.076   0.318  15.998 -0.1142 -0.0573 -0.1962
  874MPD2    C512876   0.961   0.269  16.047 -0.0454  0.3542  0.5752
  874MPD2     H12877   1.268   0.104  16.151  0.1773  0.6074  0.1291
  874MPD2    H112878   1.066   0.397  15.925 -0.0681 -2.9985 -3.4357
  874MPD2    H212879   0.842   0.127  16.158  1.4141 -1.8969  1.5279
  874MPD2    H312880   0.870   0.310  16.005  0.3057 -0.4405 -0.9778
  874MPD2     N12881   1.312   0.316  15.999  0.6242 -0.5049 -0.6207
  874MPD2    H512882   1.305   0.392  15.932 -0.8415 -1.4150 -1.4920
  874MPD2    N112883   1.044   4.715  16.243  0.4413 -0.7131  0.2230
  874MPD2    H712884   0.949   4.680  16.239 -0.4838  1.8923 -0.6952
  875MPD2     C12885   1.981   3.076  14.386  0.8887  0.5155  0.0112
  875MPD2    C112886   1.846   3.095  14.389 -0.0342  0.6995  0.3826
  875MPD2    C212887   1.790   3.125  14.514  0.3992  0.5597  0.4636
  875MPD2    C312888   1.877   3.143  14.624 -0.2457  0.0069 -0.3306
  875MPD2    C412889   2.012   3.123  14.612 -0.0371  0.3905 -0.3720
  875MPD2    C512890   2.060   3.087  14.496 -0.0051  0.3928  0.3942
  875MPD2     H12891   1.683   3.122  14.533  0.4526  0.1150  0.7021
  875MPD2    H112892   2.077   3.130  14.699  0.4565 -0.4291 -0.6710
  875MPD2    H212893   2.027   3.044  14.293 -0.0437  0.3562 -0.3915
  875MPD2    H312894   2.168   3.085  14.484 -0.3698  0.0880 -2.6999
  875MPD2     N12895   1.833   3.173  14.759 -0.3806  0.2017  0.2486
  875MPD2    H512896   1.906   3.193  14.826  1.1759 -1.0352 -1.0925
  875MPD2    N112897   1.771   3.098  14.269 -0.2671 -0.5782 -0.0800
  875MPD2    H712898   1.671   3.110  14.285  0.0358  1.6739  0.1629
  876MPD2     C12899   0.656   4.319  16.093 -0.3922  0.2960  0.3931
  876MPD2    C112900   0.792   4.306  16.067  0.7590 -0.4455 -0.5970
  876MPD2    C212901   0.859   4.185  16.088 -0.8981  0.6741 -0.7579
  876MPD2    C312902   0.795   4.086  16.152 -0.1984  0.4775 -0.0438
  876MPD2    C412903   0.666   4.105  16.186 -0.5209 -0.4616 -0.2138
  876MPD2    C512904   0.596   4.217  16.152  0.0118 -0.1023 -0.0393
  876MPD2     H12905   0.962   4.165  16.061 -0.9351  1.4336 -1.4560
  876MPD2    H112906   0.608   4.023  16.228  1.3489 -0.2465  2.7181
  876MPD2    H212907   0.591   4.404  16.076 -2.1730 -0.8841  1.1879
  876MPD2    H312908   0.493   4.233  16.182  0.1858 -1.4166  1.2530
  876MPD2     N12909   0.867   3.970  16.180  0.6431 -0.5685 -0.2159
  876MPD2    H512910   0.964   3.969  16.152  0.4396  0.0241 -0.9526
  876MPD2    N112911   0.852   4.434  16.020 -0.5565 -0.5138  0.3841
  876MPD2    H712912   0.794   4.504  15.976  0.3200 -0.7094 -1.0852
  877MPD2     C12913   0.875   0.124  15.381 -0.7960  1.2289 -0.3621
  877MPD2    C112914   1.008   0.106  15.418  0.0712 -0.4922 -0.0932
  877MPD2    C212915   1.099   0.131  15.317 -0.1864 -0.5623 -0.3537
  877MPD2    C312916   1.058   0.161  15.190 -0.1735 -0.6346  0.2945
  877MPD2    C412917   0.930   0.180  15.163  0.6114  0.3949 -0.2079
  877MPD2    C512918   0.836   0.158  15.256 -0.4694 -0.1818  0.6564
  877MPD2     H12919   1.200   0.110  15.350 -0.6589 -1.0776  0.7783
  877MPD2    H112920   0.912   0.218  15.063  2.3392  0.8376 -0.3522
  877MPD2    H212921   0.791   0.119  15.450 -0.5990  0.5450 -0.1755
  877MPD2    H312922   0.731   0.163  15.227 -0.2909  0.8690  0.2203
  877MPD2     N12923   1.148   0.182  15.079  0.3538  0.3888  0.2936
  877MPD2    H512924   1.104   0.191  14.988 -1.0817 -0.5149  0.8829
  877MPD2    N112925   1.049   0.070  15.550  0.1256  0.1961 -0.0376
  877MPD2    H712926   1.149   0.059  15.565  0.1005 -0.9538 -0.6793
  878MPD2     C12927   0.219   4.014  13.269  0.2961  0.3379  0.0187
  878MPD2    C112928   0.333   4.083  13.305  0.1455 -0.3240  0.4517
  878MPD2    C212929   0.366   4.093  13.439  0.4397 -0.3885 -0.0129
  878MPD2    C312930   0.278   4.055  13.534 -0.2440 -0.0310  0.5377
  878MPD2    C412931   0.156   4.006  13.501 -0.2812  0.1390  0.1369
  878MPD2    C512932   0.137   3.976  13.370  0.0484 -0.2661  0.4865
  878MPD2     H12933   0.453   4.147  13.476 -0.0486 -0.3416  1.0596
  878MPD2    H112934   0.080   3.979  13.573 -0.6771 -0.8188 -0.6463
  878MPD2    H212935   0.190   3.988  13.168 -0.5836 -0.1527  0.3987
  878MPD2    H312936   0.043   3.929  13.344 -0.5977  1.3773 -0.1186
  878MPD2     N12937   0.321   4.079  13.668 -0.3492 -0.5183  1.0402
  878MPD2    H512938   0.421   4.068  13.682  0.0238  1.4175 -0.0260
  878MPD2    N112939   0.416   4.127  13.199  0.1654 -0.3211 -0.0223
  878MPD2    H712940   0.372   4.116  13.108 -1.4612 -2.3186  1.0039
  879MPD2     C12941   1.607   0.183  17.052 -1.3792  0.0351  0.5943
  879MPD2    C112942   1.505   0.278  17.050  0.1708  0.0513 -0.3728
  879MPD2    C212943   1.420   0.288  16.947  0.5125 -0.3783  0.2302
  879MPD2    C312944   1.420   0.190  16.846  0.2138  0.4001  0.3826
  879MPD2    C412945   1.510   0.092  16.849  0.3401 -0.2419 -0.2753
  879MPD2    C512946   1.603   0.090  16.949  0.1802 -0.5616 -0.6837
  879MPD2     H12947   1.360   0.378  16.954  1.1230  0.2142 -2.2207
  879MPD2    H112948   1.515   0.021  16.767  1.3214  0.1998 -0.5960
  879MPD2    H212949   1.689   0.181  17.122  0.4024 -1.8983 -1.5429
  879MPD2    H312950   1.682   0.016  16.941  0.8492 -0.1524  1.9862
  879MPD2     N12951   1.324   0.191  16.746 -0.1572  0.2349 -0.8825
  879MPD2    H512952   1.314   0.111  16.685  1.3035 -1.0053  0.5095
  879MPD2    N112953   1.499   0.375  17.152  0.3937 -0.0328  0.1992
  879MPD2    H712954   1.587   0.398  17.196  0.6356  1.2124 -0.9231
  880MPD2     C12955   2.122   2.494   0.300 -0.1366 -0.4871  0.0429
  880MPD2    C112956   2.230   2.547   0.371 -0.7865  0.6959 -0.3339
  880MPD2    C212957   2.294   2.473   0.469  0.2480 -0.4695  1.3030
  880MPD2    C312958   2.253   2.336   0.492 -0.4884 -0.0519  0.7320
  880MPD2    C412959   2.138   2.292   0.438 -0.4634  0.3447  0.7196
  880MPD2    C512960   2.078   2.370   0.343 -0.5800  0.4523  0.0042
  880MPD2     H12961   2.380   2.511   0.525 -0.1731  1.4301  0.6577
  880MPD2    H112962   2.108   2.189   0.452  0.0184  0.2740  1.2267
  880MPD2    H212963   2.064   2.553   0.229 -0.2820 -1.4900 -0.6825
  880MPD2    H312964   1.990   2.325   0.300 -1.5706  2.1492  0.2459
  880MPD2     N12965   2.324   2.266   0.584  0.1057  0.3976  0.1471
  880MPD2    H512966   2.395   2.318   0.636  1.2807 -0.3227 -0.7379
  880MPD2    N112967   2.263   2.676   0.331 -0.0779  0.1158  0.6312
  880MPD2    H712968   2.202   2.716   0.260 -0.0676 -2.3070 -0.7543
  881MPD2     C12969   2.305   3.481  17.452  0.2443 -0.8472 -1.0379
  881MPD2    C112970   2.348   3.351  17.446 -0.9204 -0.2309  0.2377
  881MPD2    C212971   2.330   3.278  17.559  0.4118 -0.6031  0.6736
  881MPD2    C312972   2.248   3.319  17.667  0.1322 -0.5805 -0.5234
  881MPD2    C412973   2.191   3.451  17.655  0.1769 -0.6295  1.1701
  881MPD2    C512974   2.209   3.524  17.542 -0.2087 -0.1636  0.7392
  881MPD2     H12975   2.372   3.180  17.576 -0.3894 -1.1045 -0.2979
  881MPD2    H112976   2.128   3.497  17.731  0.6203  0.1601  1.0590
  881MPD2    H212977   2.332   3.538  17.363 -0.8757  2.7684  0.9140
  881MPD2    H312978   2.159   3.620  17.535 -0.1672 -0.0626  1.8501
  881MPD2     N12979   2.224   3.241   0.041  0.1146 -0.1925  0.3950
  881MPD2    H512980   2.175   3.287   0.117 -1.0740 -2.0686  0.7689
  881MPD2    N112981   2.446   3.322  17.342 -0.6877 -0.0210 -0.1585
  881MPD2    H712982   2.473   3.398  17.280 -3.6941 -0.5431 -2.1154
  882MPD2     C12983   1.239   4.597  14.459 -0.3903  0.6032 -0.8459
  882MPD2    C112984   1.177   4.708  14.515 -0.4510  0.2950  0.1663
  882MPD2    C212985   1.042   4.705  14.537  0.7855  0.2504 -0.7142
  882MPD2    C312986   0.965   4.592  14.510  0.7955 -0.3356  0.4542
  882MPD2    C412987   1.029   4.483  14.465 -0.1252  0.4151  0.4145
  882MPD2    C512988   1.165   4.478  14.444 -0.4768  0.2429  0.2509
  882MPD2     H12989   0.996   0.051  14.589  1.2828 -0.0556  0.2077
  882MPD2    H112990   0.978   4.391  14.440 -3.4227  2.6706 -1.0956
  882MPD2    H212991   1.341   4.599  14.423 -0.6142  0.2963 -1.5051
  882MPD2    H312992   1.219   4.403  14.388 -1.6698 -0.3131 -0.1538
  882MPD2     N12993   0.827   4.587  14.537 -0.5233 -0.0469 -0.2266
  882MPD2    H512994   0.778   4.501  14.514 -1.4752  0.6469 -0.7854
  882MPD2    N112995   1.266   0.071  14.575 -0.3330  0.4595  0.6192
  882MPD2    H712996   1.362   0.043  14.591 -0.0949  0.7767 -0.1996
  883MPD2     C12997   2.811   0.271  16.477 -0.4871 -0.2311 -0.0870
  883MPD2    C112998   2.891   0.235  16.375  0.1584  0.6705 -0.4753
  883MPD2    C212999   3.014   0.179  16.402  0.0284  0.3916 -0.7909
  883MPD2    C313000   3.060   0.149  16.527  0.1065  0.0067 -0.0554
  883MPD2    C413001   2.971   0.172  16.632  0.1664  0.7582  0.4722
  883MPD2    C513002   2.850   0.231  16.605 -0.5815  0.7253 -0.7043
  883MPD2     H13003   3.075   0.150  16.317  1.3956 -2.1930  1.0420
  883MPD2    H113004   2.991   0.136  16.732 -0.3714 -1.7856 -0.3380
  883MPD2    H213005   2.719   0.328  16.469 -1.2122 -1.4602 -0.4935
  883MPD2    H313006   2.783   0.250  16.688 -0.8518  1.3025 -1.0611
  883MPD2     N13007   3.189   0.094  16.544 -0.3991  0.0392 -0.4893
  883MPD2    H513008   3.246   0.073  16.463 -1.9026 -2.5314 -0.8724
  883MPD2    N113009   2.855   0.247  16.236 -0.2675 -0.0516  0.2641
  883MPD2    H713010   2.930   0.234  16.168 -2.5401 -2.1797 -1.7986
  884MPD2     C13011   0.020   0.828  15.115  0.5486  0.7913 -0.2012
  884MPD2    C113012   4.716   0.902  15.008  0.2530 -1.6873  0.2693
  884MPD2    C213013   4.590   0.960  15.020  0.2697  0.4700 -0.0911
  884MPD2    C313014   4.513   0.950  15.132 -0.2934 -0.6910  0.3938
  884MPD2    C413015   4.557   0.874  15.237  0.0411  1.8337 -1.0361
  884MPD2    C513016   4.669   0.806  15.222 -0.0170  0.4857 -0.2183
  884MPD2     H13017   4.555   1.014  14.933  1.6623  0.9075 -0.3637
  884MPD2    H113018   4.494   0.855  15.323  3.6107 -0.6386  1.0359
  884MPD2    H213019   0.095   0.750  15.109 -1.0624 -0.9376  2.1676
  884MPD2    H313020   4.688   0.736  15.303  0.9539  2.1966  1.0436
  884MPD2     N13021   4.381   1.011  15.131 -0.0232  0.0195 -0.6475
  884MPD2    H513022   4.351   1.055  15.045  1.1645  1.8317 -0.1454
  884MPD2    N113023   0.054   0.914  14.883  0.6348 -0.5987  0.0929
  884MPD2    H713024   0.017   0.983  14.819  1.0099  0.5472  1.1118
  885MPD2     C13025   2.525   1.598   0.545 -0.2596 -0.1292 -0.4251
  885MPD2    C113026   2.576   1.469   0.533  0.0336  0.2890 -0.5732
  885MPD2    C213027   2.595   1.420   0.401 -0.2469 -0.3855  0.0504
  885MPD2    C313028   2.564   1.497   0.294 -0.6725 -0.3676 -0.4982
  885MPD2    C413029   2.512   1.626   0.307  1.1982 -0.7427  0.0565
  885MPD2    C513030   2.491   1.676   0.437  0.1580  0.2722 -0.2614
  885MPD2     H13031   2.631   1.318   0.391  2.3696  0.7476 -1.8917
  885MPD2    H113032   2.493   1.692   0.223  1.2560 -0.6162  0.1441
  885MPD2    H213033   2.510   1.635   0.646  1.3144  1.0271 -0.6111
  885MPD2    H313034   2.434   1.767   0.454 -1.1796 -0.4776 -0.7663
  885MPD2     N13035   2.606   1.441   0.170  0.6741  0.8301 -0.3453
  885MPD2    H513036   2.636   1.343   0.175  1.8130  1.1633 -0.5400
  885MPD2    N113037   2.600   1.398   0.652  0.5361  0.1156  0.2408
  885MPD2    H713038   2.600   1.454   0.736 -0.8119 -0.2876  0.4929
  886MPD2     C13039   4.377   4.670  15.846 -0.0499 -0.3219  0.5745
  886MPD2    C113040   4.484   4.609  15.794  0.2503 -0.7178  0.5034
  886MPD2    C213041   4.546   4.662  15.681  0.7392  0.6310  0.4127
  886MPD2    C313042   4.498   0.029  15.608  0.3435 -0.1439 -0.6965
  886MPD2    C413043   4.379   0.082  15.653 -0.4902  0.0905 -1.5001
  886MPD2    C513044   4.321   0.028  15.766  0.1518  0.1590 -0.0102
  886MPD2     H13045   4.633   4.610  15.642  0.5404  0.7912 -0.2380
  886MPD2    H113046   4.335   0.171  15.610 -0.1731  1.8053  1.7398
  886MPD2    H213047   4.326   4.644  15.938 -2.1611  1.1929 -0.1606
  886MPD2    H313048   4.222   0.057  15.799  0.6278  2.0939 -0.2955
  886MPD2     N13049   4.562   0.053  15.487 -0.1146  0.2010  0.3440
  886MPD2    H513050   4.653   0.009  15.477 -0.3980 -0.0755 -1.1272
  886MPD2    N113051   4.538   4.494  15.852  0.1153 -0.0855  0.1436
  886MPD2    H713052   4.504   4.470  15.944 -2.1770  1.2968 -0.3370
  887MPD2     C13053   0.331   4.439  16.314 -0.0628 -0.0709 -0.3585
  887MPD2    C113054   0.274   4.481  16.195  0.4710  0.0971  0.0626
  887MPD2    C213055   0.286   4.611  16.148  0.7789 -0.7139  0.5168
  887MPD2    C313056   0.350   4.700  16.231 -0.0827  0.2864 -0.0828
  887MPD2    C413057   0.385   4.660  16.359  1.1175 -0.3563 -0.2065
  887MPD2    C513058   0.378   4.533  16.401 -0.5169 -0.8164  0.4125
  887MPD2     H13059   0.234   4.640  16.058  1.0361  1.5342  1.0879
  887MPD2    H113060   0.425   0.001  16.423  0.1350  0.9088 -1.1301
  887MPD2    H213061   0.325   4.334  16.342 -0.2680 -0.0681 -0.3902
  887MPD2    H313062   0.417   4.501  16.497 -0.6468  2.5094  1.5833
  887MPD2     N13063   0.376   0.099  16.196  0.0032 -0.3492 -0.1462
  887MPD2    H513064   0.409   0.156  16.274  0.3697  0.4130 -0.8603
  887MPD2    N113065   0.182   4.409  16.120  0.3159 -0.0423  0.3610
  887MPD2    H713066   0.142   4.449  16.036  1.2003 -0.1353 -0.1042
  888MPD2     C13067   2.109   4.255  15.020 -0.0629 -0.5655 -0.2536
  888MPD2    C113068   2.115   4.328  15.135 -0.5652 -0.1935  0.0021
  888MPD2    C213069   2.181   4.449  15.131  0.1168 -0.7076  0.3443
  888MPD2    C313070   2.247   4.490  15.015  0.2908  0.8554  0.0458
  888MPD2    C413071   2.237   4.409  14.906 -0.1484  1.2876  0.2894
  888MPD2    C513072   2.181   4.290  14.913  0.3155  0.2233  0.3603
  888MPD2     H13073   2.192   4.516  15.217  0.1609 -1.1398  0.6742
  888MPD2    H113074   2.269   4.436  14.806 -0.2066  0.9317  0.1748
  888MPD2    H213075   2.060   4.159  15.011 -3.0126  0.9181 -0.0205
  888MPD2    H313076   2.170   4.228  14.825 -0.5554  1.2537 -0.2553
  888MPD2     N13077   2.315   4.616  15.018 -0.7136 -0.1157 -0.2605
  888MPD2    H513078   2.330   4.664  15.106 -2.2080  0.5146 -0.3540
  888MPD2    N113079   2.047   4.297  15.253  0.1492  0.6655 -0.0676
  888MPD2    H713080   2.052   4.369  15.324 -0.4018 -0.3528  0.9912
  889MPD2     C13081   1.001   4.070  13.162 -0.1867  0.3163  0.7642
  889MPD2    C113082   1.113   4.051  13.237 -0.3529 -0.6461 -0.4858
  889MPD2    C213083   1.127   4.125  13.359 -0.2427  0.3096 -0.2371
  889MPD2    C313084   1.033   4.217  13.394  0.2591 -0.7324 -0.8322
  889MPD2    C413085   0.919   4.235  13.318  0.4296 -0.0216  0.1498
  889MPD2    C513086   0.906   4.159  13.206 -0.4038  0.4131  0.8143
  889MPD2     H13087   1.219   4.111  13.414  0.6063  1.3761 -1.3803
  889MPD2    H113088   0.850   4.316  13.337  0.9227 -0.1049  2.2889
  889MPD2    H213089   0.986   4.021  13.066 -1.0041 -2.0076  2.1050
  889MPD2    H313090   0.827   4.169  13.133 -0.3447  0.1929  0.7212
  889MPD2     N13091   1.067   4.295  13.508 -0.0201  0.5120 -0.2926
  889MPD2    H513092   1.159   4.275  13.546 -0.8819  0.4334  1.7462
  889MPD2    N113093   1.189   3.935  13.203 -0.4472 -0.5602  0.3101
  889MPD2    H713094   1.161   3.880  13.122 -0.4926  1.2216 -0.8922
  890MPD2     C13095   0.519   0.609  14.297 -0.3718 -0.0388 -0.0468
  890MPD2    C113096   0.642   0.657  14.339 -0.0109  0.3654  0.2434
  890MPD2    C213097   0.676   0.644  14.473  0.0936 -0.6919  0.0346
  890MPD2    C313098   0.594   0.573  14.563 -0.8492 -0.2138 -0.4432
  890MPD2    C413099   0.472   0.531  14.515 -0.0321 -0.1204  0.2208
  890MPD2    C513100   0.442   0.546  14.380 -0.2905  0.5664  0.7834
  890MPD2     H13101   0.771   0.682  14.509 -0.2364  0.8009 -0.6597
  890MPD2    H113102   0.400   0.490  14.585 -1.6120 -1.4124 -2.1742
  890MPD2    H213103   0.497   0.624  14.191 -0.4851  0.5009  0.0513
  890MPD2    H313104   0.359   0.498  14.331  1.2305 -0.6218 -0.6368
  890MPD2     N13105   0.636   0.574  14.696 -0.6594  0.5648 -1.2366
  890MPD2    H513106   0.734   0.596  14.711 -1.0347  2.3747 -1.3485
  890MPD2    N113107   0.727   0.722  14.248 -0.3058  0.1051 -0.0008
  890MPD2    H713108   0.683   0.747  14.160 -2.3130 -0.6171  0.7733
  891MPD2     C13109   4.305   3.985  16.984  0.3047 -0.2939  0.3419
  891MPD2    C113110   4.179   3.956  17.039 -0.7133 -0.3201 -0.2029
  891MPD2    C213111   4.155   3.824  17.074 -0.1806  0.6254  0.2331
  891MPD2    C313112   4.253   3.727  17.069 -0.2865  0.1720  0.0242
  891MPD2    C413113   4.378   3.765  17.030 -0.8162  0.1236  0.1765
  891MPD2    C513114   4.402   3.888  16.977 -0.1095  0.0638 -0.3703
  891MPD2     H13115   4.056   3.796  17.107 -0.6252 -1.7071 -3.1224
  891MPD2    H113116   4.468   3.703  17.034 -0.1548  0.9984 -1.0860
  891MPD2    H213117   4.330   4.087  16.959  2.7958 -1.1183 -0.4957
  891MPD2    H313118   4.504   3.915  16.950  1.1968 -0.5006  4.0762
  891MPD2     N13119   4.210   3.597  17.100 -0.6175 -0.2771 -0.4957
  891MPD2    H513120   4.111   3.581  17.112 -0.8558  0.9593 -0.9025
  891MPD2    N113121   4.085   4.060  17.039  0.5187 -0.0109  0.5016
  891MPD2    H713122   4.102   4.153  17.003 -0.0908 -0.4233 -0.8382
  892MPD2     C13123   0.261   0.272  15.256 -0.2472  0.3434  0.9434
  892MPD2    C113124   0.203   0.273  15.130  0.0483  0.0002 -0.5663
  892MPD2    C213125   0.255   0.195  15.030 -0.2257 -0.1749  0.5646
  892MPD2    C313126   0.364   0.113  15.053  0.3518 -0.1076 -0.0113
  892MPD2    C413127   0.426   0.116  15.178  0.5565  0.4886  0.1035
  892MPD2    C513128   0.373   0.196  15.276  0.9245 -0.2133 -0.4495
  892MPD2     H13129   0.210   0.204  14.932  2.0388  0.0207 -0.4452
  892MPD2    H113130   0.517   0.061  15.202  0.0000  0.6871  2.6722
  892MPD2    H213131   0.217   0.335  15.333  0.8735  2.2905 -0.0240
  892MPD2    H313132   0.406   0.196  15.379 -1.9485  0.2633  0.4836
  892MPD2     N13133   0.422   0.031  14.946 -0.1625  0.1913  0.5856
  892MPD2    H513134   0.508   4.719  14.970  0.0127  1.3592  2.3214
  892MPD2    N113135   0.091   0.352  15.097 -0.2253  0.3534 -0.0822
  892MPD2    H713136   0.073   0.365  14.998  3.6407  0.9917 -0.7056
  893MPD2     C13137   1.065   3.465   1.424 -0.2852 -0.5731 -0.1172
  893MPD2    C113138   1.024   3.551   1.324 -0.1619 -0.3308 -0.3188
  893MPD2    C213139   0.892   3.569   1.298 -0.3029  0.2008 -0.7145
  893MPD2    C313140   0.801   3.485   1.357 -0.3683 -0.0961 -0.5685
  893MPD2    C413141   0.839   3.398   1.456 -0.3760  0.0555  0.4427
  893MPD2    C513142   0.975   3.399   1.498 -0.3542  0.0342 -0.4488
  893MPD2     H13143   0.862   3.647   1.229 -1.2000  0.1093 -0.4269
  893MPD2    H113144   0.769   3.344   1.518 -0.1083 -0.1425  0.5721
  893MPD2    H213145   1.167   3.472   1.461 -0.0813 -0.5175 -0.6995
  893MPD2    H313146   1.008   3.344   1.586  1.2502  1.1975 -0.3135
  893MPD2     N13147   0.657   3.482   1.330  0.7047 -0.0280 -0.5833
  893MPD2    H513148   0.600   3.424   1.391  0.0369  0.7830 -0.4167
  893MPD2    N113149   1.124   3.620   1.253 -0.5608  0.0380  0.1535
  893MPD2    H713150   1.216   3.621   1.297 -0.5900 -0.1251  0.2157
  894MPD2     C13151   4.511   1.252   1.506 -0.5053 -0.0095  0.6057
  894MPD2    C113152   4.388   1.311   1.508  0.2336 -0.2400 -0.0455
  894MPD2    C213153   4.375   1.442   1.558  0.2775  0.5378  0.0537
  894MPD2    C313154   4.484   1.517   1.606  0.0155  0.3158  0.2402
  894MPD2    C413155   4.606   1.456   1.599 -0.7509 -0.5971 -0.1640
  894MPD2    C513156   4.616   1.324   1.556 -0.1968  0.5337 -0.0599
  894MPD2     H13157   4.274   1.480   1.546 -0.7311 -1.2966  2.8545
  894MPD2    H113158   4.700   1.499   1.631  0.5292 -3.5447  0.0846
  894MPD2    H213159   4.521   1.152   1.464  0.3413  0.6663 -0.8090
  894MPD2    H313160   4.710   1.270   1.551  2.1716  4.4681  1.1077
  894MPD2     N13161   4.458   1.647   1.647 -0.6813 -0.2421 -0.2566
  894MPD2    H513162   4.363   1.682   1.642 -0.1509  1.4069  1.0328
  894MPD2    N113163   4.274   1.246   1.470  0.5880 -0.5410 -0.0992
  894MPD2    H713164   4.196   1.306   1.493 -0.1264 -1.1607 -0.9295
  895MPD2     C13165   3.696   0.020  13.803 -0.7326 -0.5587 -0.4003
  895MPD2    C113166   3.660   4.633  13.863  0.7076 -0.4989 -0.1671
  895MPD2    C213167   3.759   4.529  13.885  1.3787 -0.1174  0.1651
  895MPD2    C313168   3.892   4.554  13.851  0.3853 -0.6001 -0.2841
  895MPD2    C413169   3.927   4.678  13.799 -0.3153  0.7067  0.8044
  895MPD2    C513170   3.832   0.035  13.783  0.0269 -0.6378  0.1299
  895MPD2     H13171   3.735   4.425  13.905 -1.0305  0.1212 -1.5922
  895MPD2    H113172   4.029   4.697  13.766 -0.4147 -1.5708 -0.8447
  895MPD2    H213173   3.626   0.098  13.774 -0.7952 -0.5253 -0.1532
  895MPD2    H313174   3.852   0.131  13.735  0.5038 -0.7677  0.0742
  895MPD2     N13175   3.988   4.456  13.849 -0.1219 -0.2430  0.3078
  895MPD2    H513176   4.061   4.467  13.780  1.8698 -2.2318  2.0519
  895MPD2    N113177   3.523   4.586  13.859 -0.9977  0.4347 -0.3573
  895MPD2    H713178   3.505   4.494  13.897 -1.7339 -0.2996 -2.4754
  896MPD2     C13179   1.742   2.776   1.667 -0.2449  1.4348 -0.0041
  896MPD2    C113180   1.663   2.681   1.603  0.4944  0.4951 -0.2266
  896MPD2    C213181   1.527   2.693   1.615 -0.7041  0.6273 -1.0121
  896MPD2    C313182   1.464   2.797   1.673  0.0118 -0.8146 -0.4157
  896MPD2    C413183   1.542   2.896   1.722 -0.3153 -0.0957 -0.6802
  896MPD2    C513184   1.675   2.884   1.721 -0.6290  0.3362 -0.5604
  896MPD2     H13185   1.462   2.617   1.572  1.4362 -1.9249  0.2452
  896MPD2    H113186   1.489   2.976   1.772  0.6142  0.5620 -0.7499
  896MPD2    H213187   1.849   2.760   1.667 -0.5398 -0.6872 -3.0776
  896MPD2    H313188   1.736   2.958   1.774 -1.0994 -1.3735  2.3869
  896MPD2     N13189   1.319   2.790   1.668 -0.3354 -0.0500 -0.1099
  896MPD2    H513190   1.288   2.702   1.627 -1.9720  0.6373 -0.3411
  896MPD2    N113191   1.731   2.572   1.547  0.7443  0.9186  0.1839
  896MPD2    H713192   1.832   2.568   1.550  0.7466  2.1892  1.6862
  897MPD2     C13193   3.118   3.886  10.411 -0.5760  0.1262 -0.0302
  897MPD2    C113194   3.023   3.980  10.420  0.0902  0.0375 -0.3574
  897MPD2    C213195   2.935   3.976  10.526  0.3185  0.4085 -1.4841
  897MPD2    C313196   2.931   3.865  10.611  0.1018  0.1606 -0.5869
  897MPD2    C413197   3.017   3.761  10.582 -0.1410 -0.4002 -0.0727
  897MPD2    C513198   3.118   3.775  10.496 -0.1073  0.3713  0.1963
  897MPD2     H13199   2.880   4.061  10.565  0.6782  0.8932 -2.0481
  897MPD2    H113200   3.014   3.666  10.634  1.2021  0.1718  1.0469
  897MPD2    H213201   3.199   3.890  10.339  1.5826 -0.5049  2.3334
  897MPD2    H313202   3.190   3.695  10.482  2.2346  2.2436  1.6101
  897MPD2     N13203   2.849   3.850  10.720  0.6687  0.0149  0.2497
  897MPD2    H513204   2.774   3.919  10.727  0.1148 -0.2411 -3.4002
  897MPD2    N113205   3.020   4.079  10.320 -0.2706 -0.2469 -0.6679
  897MPD2    H713206   3.088   4.074  10.245  0.6273 -0.6379  0.1692
  898MPD2     C13207   4.110   0.252   0.610  0.8097 -0.4903  0.0495
  898MPD2    C113208   4.100   0.145   0.521  0.0068  0.1111  0.0047
  898MPD2    C213209   4.004   0.156   0.426  0.1647  0.1530  0.1072
  898MPD2    C313210   3.926   0.271   0.402  0.2211 -0.1368  0.4480
  898MPD2    C413211   3.941   0.372   0.496 -0.0632  0.7218 -0.2302
  898MPD2    C513212   4.024   0.363   0.601 -0.7852 -0.4751 -0.1709
  898MPD2     H13213   3.983   0.070   0.363 -0.6079 -0.5952  1.4000
  898MPD2    H113214   3.869   0.452   0.502 -1.1574 -0.3678  1.0115
  898MPD2    H213215   4.188   0.248   0.686 -0.7353 -1.6286  1.5693
  898MPD2    H313216   4.030   0.446   0.671  1.2152  0.3099 -1.2970
  898MPD2     N13217   3.848   0.290   0.289 -1.5075  0.4888 -0.4130
  898MPD2    H513218   3.822   0.213   0.229  0.7799 -0.9935  0.4952
  898MPD2    N113219   4.192   0.036   0.542  0.6113  0.0607  0.2956
  898MPD2    H713220   4.248   0.039   0.627  0.4056 -1.1637  0.4748
  899MPD2     C13221   0.126   1.064  17.661  0.1386 -0.3509  0.2129
  899MPD2    C113222   0.223   1.156  17.644 -0.0922 -0.0013 -0.1734
  899MPD2    C213223   0.246   1.260  17.734  0.1749  0.3450  0.1532
  899MPD2    C313224   0.153   1.275   0.099  0.1109 -0.8896 -0.3897
  899MPD2    C413225   0.053   1.174   0.112 -0.5195 -0.2190 -0.0521
  899MPD2    C513226   0.048   1.067   0.030  0.1026  0.3825  0.2417
  899MPD2     H13227   0.326   1.332  17.718  0.4144 -0.4325 -2.0249
  899MPD2    H113228   4.715   1.179   0.191 -2.6422 -2.0525 -1.9300
  899MPD2    H213229   0.107   0.982  17.593  0.6851 -0.4857  0.2255
  899MPD2    H313230   4.707   0.993   0.046  1.1483 -1.1279 -1.7185
  899MPD2     N13231   0.168   1.384   0.194 -0.2503  0.3874  0.0384
  899MPD2    H513232   0.105   1.379   0.274 -0.2307  2.5662  0.1794
  899MPD2    N113233   0.309   1.129  17.531  1.7092  0.5627  0.7314
  899MPD2    H713234   0.286   1.038  17.493  1.6811  0.2164  1.5918
  900MPD2     C13235   0.402   2.260  12.557 -0.0346  0.6673  0.2710
  900MPD2    C113236   0.315   2.153  12.583  0.1907 -0.1978 -0.4891
  900MPD2    C213237   0.207   2.150  12.494 -0.0365 -0.1926 -0.0761
  900MPD2    C313238   0.188   2.246  12.395  0.1171  0.4185 -0.1808
  900MPD2    C413239   0.278   2.354  12.378 -0.8400 -0.0089  0.7491
  900MPD2    C513240   0.390   2.344  12.450 -0.2235  0.0850  0.0178
  900MPD2     H13241   0.124   2.081  12.506  0.3212 -0.7943 -1.1639
  900MPD2    H113242   0.267   2.434  12.305  1.7949 -0.8071 -0.5070
  900MPD2    H213243   0.481   2.292  12.624 -0.2056 -2.3210  1.9051
  900MPD2    H313244   0.456   2.429  12.435  0.3348 -0.4246 -0.4083
  900MPD2     N13245   0.070   2.235  12.315 -0.1494  0.1121  0.4329
  900MPD2    H513246   0.014   2.151  12.328  2.5875 -1.8632 -0.5580
  900MPD2    N113247   0.325   2.080  12.707  0.1282  0.2273 -0.4572
  900MPD2    H713248   0.406   2.100  12.764  2.1440 -2.6067 -2.3336
  901MPD2     C13249   0.018   1.101  13.104 -0.4856 -0.6045  0.0469
  901MPD2    C113250   0.132   1.096  13.029 -0.2398  0.4233  0.2199
  901MPD2    C213251   0.188   1.219  12.999  0.1576 -0.0398 -0.1400
  901MPD2    C313252   0.124   1.341  13.022  0.0390 -0.2743  0.2452
  901MPD2    C413253   0.000   1.344  13.080  0.0831  0.9022 -0.0108
  901MPD2    C513254   4.700   1.221  13.132 -0.3292 -1.0466 -0.0614
  901MPD2     H13255   0.283   1.229  12.948 -0.1681  0.8808 -0.5774
  901MPD2    H113256   4.676   1.432  13.096 -2.6776 -1.0476  0.1585
  901MPD2    H213257   4.711   1.010  13.142  1.8027  0.0547  4.2568
  901MPD2    H313258   4.609   1.220  13.190 -1.8938  1.1078 -2.5093
  901MPD2     N13259   0.191   1.460  12.985 -0.6345 -0.2668  0.3320
  901MPD2    H513260   0.273   1.454  12.926 -0.7832 -1.9100  0.2733
  901MPD2    N113261   0.174   0.968  12.982 -0.0501  0.6591  0.7909
  901MPD2    H713262   0.118   0.887  13.008  0.6507 -0.0308  0.1952
  902MPD2     C13263   4.317   0.249  12.716 -0.4736  0.0552  0.3751
  902MPD2    C113264   4.303   0.299  12.590  0.0564  0.3461 -0.1320
  902MPD2    C213265   4.329   0.216  12.486  0.0373 -0.2299 -0.4575
  902MPD2    C313266   4.382   0.086  12.503  0.8331  0.3444  0.4342
  902MPD2    C413267   4.410   0.044  12.628 -0.0269  0.0644 -0.4222
  902MPD2    C513268   4.371   0.124  12.733  0.8288  0.2125 -0.5033
  902MPD2     H13269   4.320   0.260  12.387 -1.3734  1.7321  0.5589
  902MPD2    H113270   4.455   4.684  12.647 -1.4595 -0.4762  0.2497
  902MPD2    H213271   4.284   0.304  12.804 -0.1190  2.4100 -0.9606
  902MPD2    H313272   4.380   0.092  12.837  2.1459  2.6863  0.1525
  902MPD2     N13273   4.442   0.012  12.400  0.0756 -0.0980  0.0754
  902MPD2    H513274   4.499   4.668  12.422  1.3566  0.8463  0.2433
  902MPD2    N113275   4.258   0.435  12.575 -0.0635 -0.2796 -0.4365
  902MPD2    H713276   4.226   0.486  12.658  0.3599 -1.4506  0.4438
  903MPD2     C13277   4.281   0.187  11.758 -0.3343 -0.1370  0.7286
  903MPD2    C113278   4.246   0.059  11.787 -0.4112  0.6422 -0.1769
  903MPD2    C213279   4.111   0.030  11.791 -0.7642 -1.1433  0.1836
  903MPD2    C313280   4.013   0.122  11.769 -0.0382  0.2895  0.1636
  903MPD2    C413281   4.055   0.252  11.741 -0.4372  0.7368  0.4527
  903MPD2    C513282   4.193   0.281  11.741  0.3449 -0.2475 -0.6126
  903MPD2     H13283   4.082   4.666  11.822 -0.8884 -1.7922 -2.0520
  903MPD2    H113284   3.985   0.331  11.718 -0.0723  0.3605 -1.9418
  903MPD2    H213285   4.387   0.211  11.751 -0.2095 -1.7169 -2.5624
  903MPD2    H313286   4.222   0.379  11.706 -0.4043 -0.5623 -2.1201
  903MPD2     N13287   3.882   0.085  11.790 -0.1692 -0.2994  0.0999
  903MPD2    H513288   3.871   4.730  11.832 -2.5762  0.4248  1.0887
  903MPD2    N113289   4.351   4.714  11.833  0.5197 -0.0132  0.5936
  903MPD2    H713290   4.434   0.025  11.867 -0.2689  1.5559  0.3417
  904MPD2     C13291   3.302   3.719  14.323  0.0053 -0.4183  0.0202
  904MPD2    C113292   3.388   3.826  14.327  0.1920 -0.5702 -0.2330
  904MPD2    C213293   3.521   3.798  14.303 -0.2830  0.4889 -0.5738
  904MPD2    C313294   3.574   3.679  14.273 -0.0899 -0.7156 -0.7966
  904MPD2    C413295   3.493   3.578  14.260  0.4906  0.4532  0.6813
  904MPD2    C513296   3.358   3.597  14.290 -0.1346 -0.0077  0.1323
  904MPD2     H13297   3.590   3.881  14.312 -1.8257  1.4731  2.4829
  904MPD2    H113298   3.525   3.479  14.229 -1.0989  0.3910 -0.7868
  904MPD2    H213299   3.194   3.721  14.333  0.0324  0.6931  0.0295
  904MPD2    H313300   3.292   3.512  14.278  0.9730 -1.0015  0.9616
  904MPD2     N13301   3.708   3.653  14.238  0.1950 -0.0347 -0.2323
  904MPD2    H513302   3.738   3.556  14.227 -0.1044  0.0767 -2.0435
  904MPD2    N113303   3.331   3.950  14.341 -0.1982  0.5819 -0.2344
  904MPD2    H713304   3.230   3.949  14.349 -0.2194  0.7563 -0.5076
  905MPD2     C13305   3.232   4.021  13.778 -0.1690 -0.3265 -0.5122
  905MPD2    C113306   3.322   4.101  13.851 -0.0788  0.2960  0.4697
  905MPD2    C213307   3.446   4.124  13.796 -0.4461 -0.4074  0.9967
  905MPD2    C313308   3.481   4.071  13.677  0.1447 -1.0607 -0.6799
  905MPD2    C413309   3.395   3.980  13.613 -0.1114 -0.2673  0.2624
  905MPD2    C513310   3.270   3.955  13.662  0.3260 -0.1803 -0.0623
  905MPD2     H13311   3.516   4.186  13.851 -0.9231 -0.5634  1.7770
  905MPD2    H113312   3.420   3.920  13.527  1.6250  1.2807 -0.3058
  905MPD2    H213313   3.131   4.001  13.812  0.5763  0.1307  1.9411
  905MPD2    H313314   3.201   3.898  13.601  0.1357 -1.2146  1.1044
  905MPD2     N13315   3.609   4.093  13.614 -0.4045  0.9466  0.3600
  905MPD2    H513316   3.647   4.027  13.547  1.6685  0.0706  2.4074
  905MPD2    N113317   3.280   4.163  13.971  0.3062  0.1946 -0.7057
  905MPD2    H713318   3.192   4.134  14.011  1.3201  0.7229  1.8900
  906MPD2     C13319   1.365   4.319  11.515 -0.3099  0.2471 -0.4875
  906MPD2    C113320   1.387   4.186  11.483 -0.2285 -0.6315 -0.1371
  906MPD2    C213321   1.335   4.082  11.560 -0.4804 -1.3253  0.9230
  906MPD2    C313322   1.237   4.107  11.647  0.0575  0.0896  0.1299
  906MPD2    C413323   1.212   4.239  11.679 -0.4497  0.4226  0.7903
  906MPD2    C513324   1.278   4.343  11.619  0.1371 -0.6443 -0.6622
  906MPD2     H13325   1.357   3.979  11.533 -0.8141 -0.9800 -0.7018
  906MPD2    H113326   1.131   4.261  11.749  0.2688 -2.0621  2.3986
  906MPD2    H213327   1.396   4.404  11.456 -1.8966  1.3343  0.2327
  906MPD2    H313328   1.268   4.446  11.652 -0.0094 -0.4513 -1.3083
  906MPD2     N13329   1.159   4.003  11.707 -0.2763 -0.9888 -0.4355
  906MPD2    H513330   1.085   4.039  11.766 -0.9713 -1.0028 -1.2880
  906MPD2    N113331   1.447   4.145  11.366 -0.4699 -0.7291  0.2178
  906MPD2    H713332   1.434   4.048  11.339  1.4734 -0.4900 -1.6064
  907MPD2     C13333   0.420   2.998  16.142  0.3222 -0.1111  0.1432
  907MPD2    C113334   0.403   2.873  16.082 -0.7633  0.1903 -0.3472
  907MPD2    C213335   0.445   2.759  16.154  0.7617 -0.4839  0.6087
  907MPD2    C313336   0.499   2.771  16.281 -0.1024  0.7019  0.6439
  907MPD2    C413337   0.503   2.895  16.343 -0.3095  0.4578  1.0773
  907MPD2    C513338   0.464   3.007  16.269 -0.4056 -0.4883  0.0592
  907MPD2     H13339   0.416   2.664  16.110 -1.4461  1.0314 -1.1728
  907MPD2    H113340   0.541   2.905  16.444 -0.1130 -1.5813  1.2088
  907MPD2    H213341   0.385   3.086  16.090 -0.1251 -2.5431 -3.6765
  907MPD2    H313342   0.476   3.108  16.305  0.6696 -0.1258 -1.3137
  907MPD2     N13343   0.531   2.654  16.354  0.1440 -0.0948  0.1119
  907MPD2    H513344   0.543   2.569  16.299  0.1061  0.6742 -1.0933
  907MPD2    N113345   0.359   2.875  15.946  0.7656 -0.9177 -0.2279
  907MPD2    H713346   0.341   2.967  15.908  0.1280 -0.2658  1.6636
  908MPD2     C13347   3.392   3.776   9.649 -0.2905 -0.0693  0.1573
  908MPD2    C113348   3.314   3.723   9.745 -0.1652  0.1581  0.5022
  908MPD2    C213349   3.230   3.805   9.821 -0.1354  0.0360 -0.5007
  908MPD2    C313350   3.232   3.944   9.798  0.1939 -0.0944  0.0417
  908MPD2    C413351   3.320   3.992   9.704  0.1104 -0.3482  0.4915
  908MPD2    C513352   3.392   3.908   9.630 -0.4712 -0.4397 -0.1198
  908MPD2     H13353   3.161   3.756   9.889  0.4115  1.3352  0.9984
  908MPD2    H113354   3.323   4.097   9.675 -1.1338  0.3227  2.7429
  908MPD2    H213355   3.458   3.718   9.586  0.3926  0.3941  0.4486
  908MPD2    H313356   3.458   3.933   9.548  1.9451  0.0507  1.9655
  908MPD2     N13357   3.145   4.027   9.875 -0.3241 -0.1480  0.0923
  908MPD2    H513358   3.079   3.980   9.936 -0.8647 -0.2185 -0.5509
  908MPD2    N113359   3.310   3.585   9.752 -0.1005 -0.0128 -0.2878
  908MPD2    H713360   3.347   3.535   9.671  3.8413 -0.7134  1.9534
  909MPD2     C13361   3.192   2.008  11.713  0.3514  0.3303  0.8232
  909MPD2    C113362   3.177   2.144  11.688 -0.6756  0.5585  0.1030
  909MPD2    C213363   3.103   2.219  11.780 -0.6721 -0.2208  0.6310
  909MPD2    C313364   3.049   2.157  11.890 -0.4505 -0.4527 -0.4007
  909MPD2    C413365   3.065   2.018  11.902 -0.3046 -0.3675 -0.3126
  909MPD2    C513366   3.134   1.942  11.810  0.2025 -0.4665  0.8792
  909MPD2     H13367   3.087   2.324  11.757 -1.3533 -0.3248  0.6275
  909MPD2    H113368   3.018   1.976  11.990  0.3669  1.0376  0.7202
  909MPD2    H213369   3.234   1.948  11.633  0.0027 -1.3286  1.8903
  909MPD2    H313370   3.138   1.835  11.827 -1.8781 -0.7060 -0.1718
  909MPD2     N13371   2.958   2.237  11.961 -0.1371 -0.1718 -0.3513
  909MPD2    H513372   2.951   2.336  11.941  1.6747  0.4384  2.1122
  909MPD2    N113373   3.218   2.208  11.570  0.2450 -0.4594 -0.1559
  909MPD2    H713374   3.243   2.305  11.585  2.4442 -1.2465  1.3308
  910MPD2     C13375   4.254   3.307  16.346 -0.4984 -0.6059 -0.1631
  910MPD2    C113376   4.260   3.224  16.237 -0.1602 -0.6748 -0.1745
  910MPD2    C213377   4.255   3.273  16.110 -0.3146 -0.0881  0.1129
  910MPD2    C313378   4.230   3.412  16.101 -1.3146 -0.0107  0.0269
  910MPD2    C413379   4.213   3.489  16.212  0.1190 -0.0756 -1.0632
  910MPD2    C513380   4.229   3.439  16.339 -0.3690 -0.1630 -0.0281
  910MPD2     H13381   4.270   3.202  16.029  2.7301 -0.1499  0.7383
  910MPD2    H113382   4.207   3.597  16.200  0.6301 -0.3455 -3.9010
  910MPD2    H213383   4.291   3.277  16.444  2.3496 -0.1588 -1.0862
  910MPD2    H313384   4.228   3.506  16.424  0.8910  0.7436 -0.7317
  910MPD2     N13385   4.198   3.472  15.973  0.3414  0.2142  0.1389
  910MPD2    H513386   4.164   3.568  15.976  0.1525  0.1141  1.0766
  910MPD2    N113387   4.281   3.083  16.257 -0.0337 -1.0076 -0.2914
  910MPD2    H713388   4.308   3.031  16.175 -0.1600  0.6190 -1.3615
  911MPD2     C13389   2.283   3.954  16.699  0.3250  0.2339 -0.5833
  911MPD2    C113390   2.333   4.080  16.708 -0.3418  0.4591 -0.1181
  911MPD2    C213391   2.270   4.183  16.651  0.3806  0.0164 -0.0781
  911MPD2    C313392   2.147   4.177  16.587  0.0575  0.0116  0.8925
  911MPD2    C413393   2.103   4.047  16.574 -0.0944  0.4853 -0.3362
  911MPD2    C513394   2.167   3.941  16.628 -1.1413 -0.4016  0.3920
  911MPD2     H13395   2.320   4.279  16.659 -1.9321  1.2564 -0.5792
  911MPD2    H113396   2.012   4.029  16.517 -0.0015  1.1094 -0.6860
  911MPD2    H213397   2.327   3.867  16.747  2.5554  2.4837  1.4513
  911MPD2    H313398   2.116   3.846  16.637  1.1086 -1.8122 -1.5228
  911MPD2     N13399   2.085   4.288  16.531  0.8413  0.2944 -0.2931
  911MPD2    H513400   2.013   4.276  16.460  0.5037  2.0787 -0.2681
  911MPD2    N113401   2.462   4.092  16.772 -0.6107  0.0630  0.5966
  911MPD2    H713402   2.513   4.007  16.792 -0.9599  0.0570  1.4827
  912MPD2     C13403   1.635   4.382  15.913  0.7026 -0.0777  0.0385
  912MPD2    C113404   1.699   4.319  16.013 -1.2495 -0.9491 -0.4643
  912MPD2    C213405   1.673   4.180  16.027  0.3219 -0.2987  0.3349
  912MPD2    C313406   1.589   4.112  15.944 -0.3986  0.1763 -1.2215
  912MPD2    C413407   1.520   4.189  15.852 -0.2298  0.5304  0.0500
  912MPD2    C513408   1.543   4.320  15.841 -1.2198  0.9315 -0.1493
  912MPD2     H13409   1.732   4.138  16.108 -0.2493  0.6037  1.2187
  912MPD2    H113410   1.441   4.150  15.789  1.1552 -2.1737 -0.0202
  912MPD2    H213411   1.643   4.489  15.902 -1.5529  0.3118  2.2606
  912MPD2    H313412   1.475   4.379  15.781  0.7405  1.4377 -1.9009
  912MPD2     N13413   1.571   3.971  15.959  1.0519  0.3133 -0.0694
  912MPD2    H513414   1.619   3.925  16.035  2.4374  0.2659 -0.9749
  912MPD2    N113415   1.786   4.397  16.090  0.2625 -0.0841  0.7385
  912MPD2    H713416   1.813   4.488  16.055 -1.0735 -0.2716 -0.7500
  913MPD2     C13417   3.228   0.896  10.051 -0.0291  0.2822  0.2576
  913MPD2    C113418   3.279   1.009  10.113  0.0303  0.2325  0.5517
  913MPD2    C213419   3.194   1.099  10.174  0.2285 -0.4649  0.0444
  913MPD2    C313420   3.058   1.073  10.181 -0.2717  0.7795  0.1096
  913MPD2    C413421   3.010   0.951  10.132  0.6394  0.2409  0.0899
  913MPD2    C513422   3.092   0.872  10.054 -0.1611  0.0545  0.5728
  913MPD2     H13423   3.241   1.189  10.212  0.5162 -0.7894  0.4616
  913MPD2    H113424   2.905   0.928  10.134  0.1071  2.6676  0.9252
  913MPD2    H213425   3.288   0.826   9.996  0.7020  1.4603 -0.4403
  913MPD2    H313426   3.045   0.798   9.990  2.2129 -0.4146 -0.6389
  913MPD2     N13427   2.963   1.167  10.237 -0.6517 -0.5491  0.0518
  913MPD2    H513428   2.865   1.142  10.239 -0.7744 -0.1735 -1.2584
  913MPD2    N113429   3.417   1.028  10.096 -0.3940 -0.1930  0.5027
  913MPD2    H713430   3.470   0.968  10.032 -0.6203 -1.6759  1.7077
  914MPD2     C13431   0.675   0.814  12.143  0.2150 -0.4379 -0.1463
  914MPD2    C113432   0.675   0.907  12.239  0.1619  0.2041  1.3409
  914MPD2    C213433   0.611   0.878  12.360 -0.1077 -0.1807  0.1494
  914MPD2    C313434   0.554   0.757  12.387  0.4009  0.3796 -0.2568
  914MPD2    C413435   0.563   0.661  12.288  0.2980 -0.4872 -0.1879
  914MPD2    C513436   0.625   0.691  12.169 -0.8604  0.5410  0.6068
  914MPD2     H13437   0.603   0.955  12.436  2.3175 -0.7582  1.0049
  914MPD2    H113438   0.507   0.569  12.301 -0.7558  0.3604  1.2876
  914MPD2    H213439   0.726   0.835  12.050  0.9124  0.0299  0.3425
  914MPD2    H313440   0.639   0.622  12.086  0.2765  1.7666 -0.2253
  914MPD2     N13441   0.499   0.745  12.519  0.0087  0.5513 -0.3031
  914MPD2    H513442   0.514   0.832  12.570 -1.9133  1.0554 -0.5726
  914MPD2    N113443   0.732   1.038  12.209  0.0426 -0.0783  0.3767
  914MPD2    H713444   0.805   1.034  12.139  0.9656  0.5896  1.3023
  915MPD2     C13445   3.517   0.848  15.966 -0.7134 -0.1636  0.0780
  915MPD2    C113446   3.443   0.932  15.884  0.2346  0.1890 -0.2539
  915MPD2    C213447   3.323   0.990  15.933  0.2317 -0.7262 -0.0919
  915MPD2    C313448   3.288   0.967  16.070 -0.2221  0.1242 -0.0091
  915MPD2    C413449   3.368   0.873  16.143 -0.2037 -0.0626  0.3901
  915MPD2    C513450   3.479   0.815  16.089 -0.5784 -0.5161  0.2568
  915MPD2     H13451   3.271   1.069  15.881 -1.2015 -2.2803 -1.0044
  915MPD2    H113452   3.338   0.831  16.238 -2.0410  0.0873 -0.1144
  915MPD2    H213453   3.610   0.805  15.930 -0.2540  0.4573  0.5362
  915MPD2    H313454   3.537   0.749  16.152 -2.6306 -2.1570  0.4121
  915MPD2     N13455   3.169   1.029  16.120  0.2960  0.0128 -0.4983
  915MPD2    H513456   3.116   1.083  16.052 -0.4223  2.1121  1.7486
  915MPD2    N113457   3.493   0.950  15.754 -0.8207 -0.3382 -0.4674
  915MPD2    H713458   3.572   0.891  15.731 -0.1228  0.2784  0.3541
  916MPD2     C13459   1.179   3.692  15.709  0.3529 -0.5555 -0.4753
  916MPD2    C113460   1.177   3.600  15.806  0.2131 -0.1925  0.0993
  916MPD2    C213461   1.244   3.482  15.776  0.2221  0.7130  0.3517
  916MPD2    C313462   1.304   3.456  15.651 -0.1079 -0.2335  0.3243
  916MPD2    C413463   1.309   3.563  15.564  0.0520 -0.0220  0.5862
  916MPD2    C513464   1.244   3.675  15.589 -0.0691 -0.0628 -0.3531
  916MPD2     H13465   1.243   3.413  15.859  0.0490  1.2706  0.8113
  916MPD2    H113466   1.366   3.551  15.472 -1.0116  0.2648 -0.1166
  916MPD2    H213467   1.126   3.782  15.738 -0.4778 -1.2334  0.1101
  916MPD2    H313468   1.247   3.761  15.523  3.7061  0.4635  0.5212
  916MPD2     N13469   1.382   3.336  15.629  0.0950  0.2610  0.5205
  916MPD2    H513470   1.413   3.323  15.533  1.0885  1.7088  0.6410
  916MPD2    N113471   1.131   3.636  15.935 -0.1510  0.4343  0.0233
  916MPD2    H713472   1.092   3.729  15.946  0.1668  0.4085  1.3355
  917MPD2     C13473   1.394   1.039  11.321  0.3758 -0.5255  0.4291
  917MPD2    C113474   1.463   1.103  11.421  0.6231  0.5221  0.6163
  917MPD2    C213475   1.574   1.176  11.392 -0.4988 -0.5472 -0.3221
  917MPD2    C313476   1.616   1.177  11.255 -0.0986 -0.3807  0.0554
  917MPD2    C413477   1.545   1.115  11.156 -0.2385 -0.1717 -0.0535
  917MPD2    C513478   1.429   1.043  11.187  0.2366 -0.8324  0.3599
  917MPD2     H13479   1.617   1.238  11.469 -0.8000 -0.6334 -0.0845
  917MPD2    H113480   1.570   1.129  11.051 -2.4420  1.6225 -0.3600
  917MPD2    H213481   1.312   0.974  11.349  3.0755 -3.5330  1.4314
  917MPD2    H313482   1.362   0.996  11.115  1.2941 -3.8628  1.3362
  917MPD2     N13483   1.733   1.246  11.216  0.2411 -0.0792  0.0142
  917MPD2    H513484   1.745   1.253  11.116 -2.3877  0.1579 -0.2696
  917MPD2    N113485   1.417   1.083  11.554 -0.0874 -0.2962 -0.1820
  917MPD2    H713486   1.328   1.035  11.571 -0.1469  0.5166  1.7911
  918MPD2     C13487   1.644   1.571  12.391 -0.1778 -0.3376 -0.2216
  918MPD2    C113488   1.734   1.511  12.307 -0.4241 -0.3908  0.2989
  918MPD2    C213489   1.685   1.407  12.231 -0.2152 -0.4540  0.5656
  918MPD2    C313490   1.559   1.351  12.233  0.5366 -0.1194 -0.3689
  918MPD2    C413491   1.468   1.410  12.322 -0.6895  0.2567 -0.5124
  918MPD2    C513492   1.516   1.521  12.394  0.1284 -0.2675  0.5456
  918MPD2     H13493   1.760   1.362  12.167 -0.8333 -2.3351  1.1804
  918MPD2    H113494   1.363   1.386  12.329 -0.9824  2.5325  2.6245
  918MPD2    H213495   1.674   1.640  12.470 -0.8104  0.0866 -0.3537
  918MPD2    H313496   1.441   1.563  12.460 -3.0806 -2.0429 -1.9258
  918MPD2     N13497   1.528   1.243  12.155  0.6724  0.5473  0.3855
  918MPD2    H513498   1.595   1.209  12.086 -0.6945 -0.4038 -0.4778
  918MPD2    N113499   1.876   1.547  12.308 -0.2482 -0.7469 -0.5142
  918MPD2    H713500   1.939   1.489  12.255 -1.1568 -0.2087 -2.1679
  919MPD2     C13501   2.143   0.478  11.121  0.5084 -0.6951  0.2396
  919MPD2    C113502   2.031   0.434  11.172  0.3298  0.0923  0.6032
  919MPD2    C213503   1.911   0.496  11.147 -0.2334 -0.8334  0.1028
  919MPD2    C313504   1.909   0.603  11.060  1.1835 -1.4897 -0.1722
  919MPD2    C413505   2.026   0.642  10.995  0.2533  0.3556  0.0570
  919MPD2    C513506   2.145   0.577  11.020  0.6939 -0.2673  0.3669
  919MPD2     H13507   1.814   0.474  11.190  0.0583  0.5933  1.4849
  919MPD2    H113508   2.034   0.734  10.938 -3.6481 -0.2067 -1.3704
  919MPD2    H213509   2.243   0.442  11.142  1.2067  1.1031  0.0257
  919MPD2    H313510   2.236   0.623  10.984  0.6329 -0.5392 -0.1276
  919MPD2     N13511   1.797   0.689  11.026 -0.0951  0.3768 -0.4241
  919MPD2    H513512   1.810   0.764  10.959  0.7213 -1.1253 -1.9488
  919MPD2    N113513   2.040   0.322  11.259  0.2892  0.3975  0.2828
  919MPD2    H713514   2.132   0.282  11.276  0.7438  1.8919  1.3047
  920MPD2     C13515   1.620   1.166  10.246 -0.0231  0.1483 -0.3738
  920MPD2    C113516   1.491   1.123  10.279 -0.5585  0.0980  0.1684
  920MPD2    C213517   1.465   1.065  10.403  0.3199 -0.2556 -0.6742
  920MPD2    C313518   1.564   1.058  10.503 -0.5358  0.2122  0.4261
  920MPD2    C413519   1.683   1.106  10.473 -0.2760 -0.3883 -0.5454
  920MPD2    C513520   1.712   1.157  10.351 -0.2518 -0.8949  0.4921
  920MPD2     H13521   1.372   1.018  10.431  1.8974 -1.3553  2.7803
  920MPD2    H113522   1.756   1.122  10.551 -1.0391 -0.3299  0.1652
  920MPD2    H213523   1.652   1.210  10.153  1.8407  1.4799  0.8734
  920MPD2    H313524   1.812   1.198  10.346 -1.4989  2.0941 -0.2039
  920MPD2     N13525   1.524   1.014  10.632 -0.8306 -0.7732 -0.3478
  920MPD2    H513526   1.426   0.990  10.633 -0.7731 -0.9679  0.9171
  920MPD2    N113527   1.391   1.128  10.183  0.5515  0.5285 -0.3795
  920MPD2    H713528   1.300   1.089  10.202  0.8145  0.2926  0.3769
  921MPD2     C13529   3.332   4.199  17.372 -0.0663 -0.2431 -0.0080
  921MPD2    C113530   3.369   4.228  17.244  0.3936  0.3031 -0.2316
  921MPD2    C213531   3.270   4.232  17.148 -1.0413  0.0797 -0.0812
  921MPD2    C313532   3.135   4.221  17.176  0.2589  0.2004  0.2885
  921MPD2    C413533   3.102   4.212  17.311 -0.1096  0.5704  0.4626
  921MPD2    C513534   3.199   4.198  17.405  0.4884  0.6733  0.1426
  921MPD2     H13535   3.300   4.220  17.045 -0.1818  0.0439  0.1734
  921MPD2    H113536   3.001   4.200  17.349 -0.8607  1.0373 -1.3793
  921MPD2    H213537   3.406   4.194  17.451  0.8302 -1.7069 -0.9440
  921MPD2    H313538   3.167   4.184  17.508 -2.9771  1.9269 -0.7568
  921MPD2     N13539   3.054   4.206  17.060  0.4561 -0.4359  0.0878
  921MPD2    H513540   3.102   4.213  16.971  2.8270 -2.3532  1.1987
  921MPD2    N113541   3.504   4.249  17.218  0.8585 -0.4478 -0.4739
  921MPD2    H713542   3.578   4.241  17.288 -0.6029  0.9606  1.2360
  922MPD2     C13543   3.458   2.199  17.533 -1.0541 -0.3880  0.2137
  922MPD2    C113544   3.354   2.222  17.619  0.9664 -0.1829 -0.8059
  922MPD2    C213545   3.265   2.122  17.647 -0.3815 -0.1527 -0.8499
  922MPD2    C313546   3.274   1.995  17.587 -1.1140  0.8683  0.1684
  922MPD2    C413547   3.384   1.973  17.502 -0.6168  0.5698 -0.4656
  922MPD2    C513548   3.475   2.078  17.480  0.4492  0.2913  0.5125
  922MPD2     H13549   3.185   2.146  17.716  1.5537 -1.4535  1.8494
  922MPD2    H113550   3.416   1.881  17.456  0.8737  0.0767  1.5413
  922MPD2    H213551   3.540   2.266  17.511 -0.8516 -1.2240 -1.5207
  922MPD2    H313552   3.555   2.059  17.410 -1.8575 -0.3778 -1.9376
  922MPD2     N13553   3.168   1.902  17.613 -0.3705 -0.1708 -0.4529
  922MPD2    H513554   3.094   1.930  17.676  0.3332  0.9586 -0.1202
  922MPD2    N113555   3.338   2.344  17.687  0.8605 -0.1918  0.0647
  922MPD2    H713556   3.282   2.350   0.026 -0.4501 -0.4464 -0.7961
  923MPD2     C13557   4.627   4.605   8.892  0.1480  0.4572  0.8133
  923MPD2    C113558   4.626   4.634   9.025  0.0068  0.0037 -0.0241
  923MPD2    C213559   4.683   4.547   9.117 -0.1073 -0.2189  0.0125
  923MPD2    C313560   0.019   4.442   9.071 -0.1161  0.1200 -0.4604
  923MPD2    C413561   0.019   4.414   8.942 -0.0035  0.3907 -0.1322
  923MPD2    C513562   4.693   4.497   8.849  0.2281  0.9090  0.1967
  923MPD2     H13563   4.671   4.564   9.223  1.2545  0.5234  0.0491
  923MPD2    H113564   0.079   4.329   8.912  0.1037  0.2391  0.5038
  923MPD2    H213565   4.587   4.670   8.815  2.0853  1.0581  0.3035
  923MPD2    H313566   4.712   4.475   8.744  1.1356 -1.4185  0.8360
  923MPD2     N13567   0.092   4.351   9.152  0.0083 -0.1326  0.3617
  923MPD2    H513568   0.156   4.284   9.111 -0.0925 -0.8449  1.3839
  923MPD2    N113569   4.557   0.015   9.061  0.4188  0.0714 -0.1922
  923MPD2    H713570   4.511   0.066   8.986 -0.3535  1.4239  1.2006
  924MPD2     C13571   0.645   2.081  15.889  0.1215 -0.2067  0.1867
  924MPD2    C113572   0.578   2.030  16.000 -0.5273  0.8089  0.8695
  924MPD2    C213573   0.608   2.083  16.126  0.5337 -0.1914  0.4072
  924MPD2    C313574   0.701   2.185  16.134 -0.1370  0.9283  0.6976
  924MPD2    C413575   0.773   2.222  16.026  0.4665  0.3205 -0.1784
  924MPD2    C513576   0.743   2.165  15.905  0.2274  0.3422 -1.0074
  924MPD2     H13577   0.561   2.055  16.220  1.5901  2.1563  1.6462
  924MPD2    H113578   0.841   2.306  16.030  1.2801 -0.3069 -0.7678
  924MPD2    H213579   0.626   2.036  15.792 -2.1030 -2.6050  1.7232
  924MPD2    H313580   0.804   2.183  15.817 -0.5340  2.9257 -1.0035
  924MPD2     N13581   0.724   2.259  16.250  0.5084  0.1062  0.2331
  924MPD2    H513582   0.787   2.338  16.238  0.1090  0.7166  2.0440
  924MPD2    N113583   0.482   1.926  15.982 -0.2129  0.0635 -0.1311
  924MPD2    H713584   0.460   1.901  15.887  0.7744 -0.4507 -0.2261
  925MPD2     C13585   4.144   0.299  14.849  0.3462  0.3958  0.0166
  925MPD2    C113586   4.015   0.271  14.818 -0.3176  0.1874  1.6442
  925MPD2    C213587   3.916   0.271  14.923  0.7758 -0.6671  0.5816
  925MPD2    C313588   3.959   0.285  15.050  0.1709  0.4659 -0.3339
  925MPD2    C413589   4.093   0.293  15.072  0.9821  0.0664 -0.2071
  925MPD2    C513590   4.187   0.306  14.980 -0.0984 -0.2298  0.0648
  925MPD2     H13591   3.815   0.248  14.892  1.3676 -2.3556 -0.0774
  925MPD2    H113592   4.133   0.304  15.172 -3.0553 -1.4169  1.6076
  925MPD2    H213593   4.217   0.317  14.770 -0.2547 -1.9804 -1.0803
  925MPD2    H313594   4.293   0.318  14.999  0.0768 -1.5714 -0.1112
  925MPD2     N13595   3.877   0.275  15.158 -0.2120  0.9407  0.3189
  925MPD2    H513596   3.923   0.246  15.244 -0.1106  0.5535  0.1305
  925MPD2    N113597   3.972   0.258  14.681 -0.1450 -0.1924  0.4401
  925MPD2    H713598   3.871   0.246  14.668  0.0801 -1.7614  0.1020
  926MPD2     C13599   2.644   3.344  13.867 -0.3750 -0.3031 -0.3049
  926MPD2    C113600   2.577   3.402  13.755  0.2963 -0.1169 -0.2438
  926MPD2    C213601   2.649   3.430  13.637  0.3834 -0.3712  0.7144
  926MPD2    C313602   2.784   3.414  13.645 -0.3932  0.5066  0.5682
  926MPD2    C413603   2.846   3.359  13.751  0.2581 -0.0799  0.7456
  926MPD2    C513604   2.778   3.322  13.863 -0.1155  0.0515 -0.2508
  926MPD2     H13605   2.600   3.464  13.547  1.0706 -1.0931  0.0631
  926MPD2    H113606   2.952   3.338  13.743  0.1132 -0.7478  0.5841
  926MPD2    H213607   2.593   3.319  13.959 -0.0935  2.4149  0.5749
  926MPD2    H313608   2.827   3.285  13.953  1.2215  2.3184 -0.0560
  926MPD2     N13609   2.873   3.459  13.544  0.2189  0.0601  0.4636
  926MPD2    H513610   2.968   3.429  13.561 -0.4379 -0.8556  2.6019
  926MPD2    N113611   2.436   3.435  13.760 -0.6247  0.2982 -0.0004
  926MPD2    H713612   2.408   3.502  13.690  1.6432  0.6182 -0.6108
  927MPD2     C13613   1.545   0.604   0.059  0.0452  0.9807  0.1642
  927MPD2    C113614   1.592   0.731   0.097 -0.0789  0.7446  0.1072
  927MPD2    C213615   1.686   0.794   0.013  0.0591  0.7950 -0.5385
  927MPD2    C313616   1.749   0.724  17.656  0.3562 -0.0774 -0.5002
  927MPD2    C413617   1.714   0.591  17.636 -0.2842  0.3873 -0.2316
  927MPD2    C513618   1.605   0.538  17.699  0.6138  0.2349  0.1067
  927MPD2     H13619   1.707   0.900   0.020 -1.5040  1.1713 -1.8060
  927MPD2    H113620   1.755   0.539  17.550  0.2018  1.7390 -0.8153
  927MPD2    H213621   1.455   0.558   0.098  0.9698 -0.9567  0.0391
  927MPD2    H313622   1.556   0.446  17.668  0.2333  0.4647  0.0276
  927MPD2     N13623   1.849   0.793  17.591 -0.2949 -0.4678 -0.0809
  927MPD2    H513624   1.837   0.894  17.597  1.3062 -0.1625 -1.9184
  927MPD2    N113625   1.528   0.791   0.209 -0.0742  0.3974  0.3604
  927MPD2    H713626   1.455   0.740   0.259 -0.2784  0.8266  0.4952
  928MPD2     C13627   0.299   3.769   0.580 -0.3354 -0.2964  0.5681
  928MPD2    C113628   0.222   3.866   0.633  0.6464 -0.2483  0.2691
  928MPD2    C213629   0.162   3.960   0.559 -0.1101  0.2175 -0.6238
  928MPD2    C313630   0.184   3.959   0.421 -0.4307 -0.5316  0.2482
  928MPD2    C413631   0.268   3.869   0.361 -0.7674  0.4863 -0.4840
  928MPD2    C513632   0.326   3.772   0.444  0.2159  0.0678  0.1239
  928MPD2     H13633   0.088   4.026   0.604 -0.5791 -1.1315  0.5998
  928MPD2    H113634   0.280   3.849   0.255  2.4692 -3.8604  0.7139
  928MPD2    H213635   0.346   3.687   0.633 -1.0761  0.1459  1.9035
  928MPD2    H313636   0.382   3.688   0.405 -2.0361 -0.7616 -1.2830
  928MPD2     N13637   0.128   4.059   0.336 -0.0987  0.8514  0.2746
  928MPD2    H513638   0.168   4.061   0.243 -0.9924  0.7929 -0.1068
  928MPD2    N113639   0.212   3.847   0.771 -0.6754 -0.5457  0.0465
  928MPD2    H713640   0.264   3.769   0.808 -1.3033 -1.8092 -1.7685
  929MPD2     C13641   0.276   4.394   9.921  0.0554  0.2047  0.6109
  929MPD2    C113642   0.198   4.272   9.902  0.2689  0.1946 -0.3245
  929MPD2    C213643   0.075   4.285   9.834 -0.3813  0.2425  0.0479
  929MPD2    C313644   0.040   4.408   9.786  0.3402  0.3570 -0.1331
  929MPD2    C413645   0.113   4.525   9.807 -0.5270 -0.2729  0.5241
  929MPD2    C513646   0.235   4.516   9.868 -0.3528  0.1596  0.1986
  929MPD2     H13647   0.012   4.200   9.811 -3.2068  2.4395 -0.3195
  929MPD2    H113648   0.081   4.623   9.773  1.1635  0.2739  0.5249
  929MPD2    H213649   0.370   4.393   9.975  1.6828 -0.8544 -2.2346
  929MPD2    H313650   0.297   4.602   9.891 -0.2488  0.4822 -1.2568
  929MPD2     N13651   4.658   4.415   9.712 -0.8524 -0.7976 -0.0846
  929MPD2    H513652   4.645   4.506   9.669  0.5603 -0.0479  1.0662
  929MPD2    N113653   0.250   4.149   9.958  0.5837  0.2795  0.0597
  929MPD2    H713654   0.345   4.151   9.995  0.9031  2.2835 -0.8438
  930MPD2     C13655   2.086   1.429  14.214  0.0020 -0.2735  0.7349
  930MPD2    C113656   2.212   1.406  14.170 -0.1059 -0.8107 -0.2359
  930MPD2    C213657   2.235   1.302  14.081 -0.2777 -0.0754 -0.3216
  930MPD2    C313658   2.130   1.232  14.027 -0.4403  0.0635 -0.0404
  930MPD2    C413659   2.001   1.249  14.084  0.7223  0.4434 -0.1665
  930MPD2    C513660   1.981   1.354  14.168  0.5290  0.1283 -0.3957
  930MPD2     H13661   2.337   1.293  14.046 -0.1349 -0.2965  0.1488
  930MPD2    H113662   1.914   1.202  14.039 -0.7798 -0.2027  3.3959
  930MPD2    H213663   2.062   1.502  14.291  1.1012  0.9638 -0.0848
  930MPD2    H313664   1.880   1.382  14.197  1.3599  2.3309  0.3463
  930MPD2     N13665   2.146   1.165  13.900  0.2543 -0.3432  0.4742
  930MPD2    H513666   2.060   1.134  13.855  0.0774 -0.7690  1.1020
  930MPD2    N113667   2.308   1.505  14.189  0.2415 -0.1783  0.6382
  930MPD2    H713668   2.278   1.590  14.236  2.2364  0.7411  0.2685
  931MPD2     C13669   1.170   0.537   0.693  0.3577  0.1161 -0.4189
  931MPD2    C113670   1.307   0.542   0.703  1.1405  0.0731  0.0591
  931MPD2    C213671   1.378   0.436   0.770  0.1015  0.1390 -1.0731
  931MPD2    C313672   1.301   0.341   0.831  0.6256 -0.0312 -0.4600
  931MPD2    C413673   1.165   0.336   0.810 -0.0910  0.1721  0.2953
  931MPD2    C513674   1.101   0.433   0.746  0.2203  0.3385  0.9954
  931MPD2     H13675   1.480   0.454   0.805 -0.6320  0.0039  1.1261
  931MPD2    H113676   1.114   0.254   0.859 -2.2323  2.4309  1.8069
  931MPD2    H213677   1.123   0.615   0.634 -0.5711 -0.9587 -1.1230
  931MPD2    H313678   0.994   0.434   0.729  0.6339  2.2393 -1.4968
  931MPD2     N13679   1.350   0.237   0.909  0.2479  0.1395  0.0902
  931MPD2    H513680   1.288   0.164   0.943 -0.2122  1.0755  1.2686
  931MPD2    N113681   1.380   0.660   0.668 -0.2629  0.2137  0.2517
  931MPD2    H713682   1.480   0.659   0.657 -0.1921  0.3833  0.8889
  932MPD2     C13683   3.418   0.301  11.046  0.3096 -0.9223  0.4554
  932MPD2    C113684   3.538   0.292  11.110 -0.2460 -0.6922 -0.5087
  932MPD2    C213685   3.557   0.206  11.216 -0.4086  0.1451  0.0706
  932MPD2    C313686   3.447   0.122  11.248 -0.0965  0.8450  1.1462
  932MPD2    C413687   3.326   0.149  11.196  0.6912 -0.3913  0.3726
  932MPD2    C513688   3.311   0.228  11.086 -0.4495 -0.0186  0.1174
  932MPD2     H13689   3.656   0.203  11.260 -0.3603  1.4449  0.0674
  932MPD2    H113690   3.236   0.102  11.234  0.1190  1.4979  1.3074
  932MPD2    H213691   3.403   0.371  10.965  0.1869  0.0472  1.3294
  932MPD2    H313692   3.215   0.237  11.035  0.0873 -0.1105 -0.9016
  932MPD2     N13693   3.452   0.011  11.345  0.2385  0.8800  0.2985
  932MPD2    H513694   3.367   4.693  11.358  1.8768 -1.4413  1.0560
  932MPD2    N113695   3.651   0.366  11.075  0.9234 -0.5695  0.5978
  932MPD2    H713696   3.743   0.359  11.117  1.3640 -0.8675 -0.4183
  933MPD2     C13697   0.284   4.331   1.545 -0.0941 -0.1921 -0.6752
  933MPD2    C113698   0.190   4.279   1.453  0.2035  0.6425 -0.5007
  933MPD2    C213699   0.078   4.359   1.439 -0.7300  0.0715 -0.7218
  933MPD2    C313700   0.054   4.472   1.509  0.0675  0.8050 -0.4443
  933MPD2    C413701   0.156   4.519   1.588 -0.2623  0.1675  0.0291
  933MPD2    C513702   0.271   4.453   1.607 -0.4579 -0.1510 -0.1405
  933MPD2     H13703   0.007   4.327   1.363  0.3177  0.0011 -1.6676
  933MPD2    H113704   0.155   4.614   1.639  0.0261 -0.5902  1.4467
  933MPD2    H213705   0.388   4.302   1.537  0.3553  0.5648  2.2271
  933MPD2    H313706   0.350   4.490   1.671 -0.6483  0.1997 -0.1084
  933MPD2     N13707   4.673   4.549   1.496 -0.8509 -0.2027  0.5081
  933MPD2    H513708   4.680   4.640   1.540 -2.0053  0.1619 -0.0626
  933MPD2    N113709   0.223   4.170   1.371 -0.6198 -0.3557  0.6362
  933MPD2    H713710   0.309   4.119   1.386  0.4521  1.5641  1.0276
  934MPD2     C13711   1.148   2.685   1.987 -0.0682  0.1634 -0.6854
  934MPD2    C113712   1.219   2.575   1.949  0.7395  0.4075  0.4414
  934MPD2    C213713   1.144   2.463   1.920 -0.2297  0.4375 -0.2569
  934MPD2    C313714   1.006   2.458   1.941 -0.0187 -0.6013 -0.2814
  934MPD2    C413715   0.941   2.565   1.987  0.5423  0.5215 -0.2699
  934MPD2    C513716   1.008   2.683   1.996 -0.0673  0.0052 -0.3058
  934MPD2     H13717   1.183   2.371   1.877 -0.0696  0.2392  0.3125
  934MPD2    H113718   0.833   2.564   1.988  0.5227  0.4424 -1.7020
  934MPD2    H213719   1.198   2.780   2.000 -1.0404  0.1894  2.9620
  934MPD2    H313720   0.966   2.777   2.028 -0.1369 -0.6288  1.4826
  934MPD2     N13721   0.934   2.336   1.910 -0.4262  0.5308  0.9623
  934MPD2    H513722   0.837   2.323   1.936 -1.6561 -0.5197 -4.2157
  934MPD2    N113723   1.360   2.566   1.947  0.0932 -0.4092 -0.2209
  934MPD2    H713724   1.401   2.476   1.923 -0.7910 -1.0494  0.6822
  935MPD2     C13725   1.141   1.490   1.432  0.2264 -0.1220 -0.3051
  935MPD2    C113726   1.014   1.530   1.389 -0.3463  0.3935  0.1595
  935MPD2    C213727   0.950   1.617   1.478 -0.6529 -0.5351 -0.1957
  935MPD2    C313728   1.011   1.668   1.588  0.4050 -0.0557 -0.6622
  935MPD2    C413729   1.145   1.633   1.620  0.7741  0.1297 -0.2000
  935MPD2    C513730   1.204   1.535   1.549 -0.1277  0.2733  1.1041
  935MPD2     H13731   0.848   1.646   1.458 -0.6894 -0.3615  0.2411
  935MPD2    H113732   1.204   1.683   1.695 -0.6012 -0.9948  1.6143
  935MPD2    H213733   1.200   1.420   1.374 -0.8288 -2.1732  1.0894
  935MPD2    H313734   1.300   1.497   1.581 -0.2739  1.0188  2.4085
  935MPD2     N13735   0.953   1.768   1.676  0.7720 -0.2834  0.2982
  935MPD2    H513736   1.010   1.803   1.753 -1.2827 -0.3359  1.8465
  935MPD2    N113737   0.963   1.477   1.268  0.0047  0.0554  0.0802
  935MPD2    H713738   0.867   1.500   1.243 -0.0768  0.0011  0.3440
  936MPD2     C13739   4.301   2.654  12.396 -0.3250 -0.1404  0.7488
  936MPD2    C113740   4.400   2.664  12.489 -0.8166  0.3021 -0.3173
  936MPD2    C213741   4.516   2.727  12.449 -0.8390  0.2279 -0.5194
  936MPD2    C313742   4.535   2.775  12.324  0.0604 -0.2861 -0.2797
  936MPD2    C413743   4.433   2.762  12.234 -0.6562 -0.3086  0.1528
  936MPD2    C513744   4.318   2.701  12.269  0.0476 -0.5862 -0.2255
  936MPD2     H13745   4.599   2.741  12.517  1.3805 -0.6527 -3.0447
  936MPD2    H113746   4.458   2.794  12.133  0.2305 -2.6863 -0.3759
  936MPD2    H213747   4.203   2.614  12.423 -0.0007 -0.0164  2.1182
  936MPD2    H313748   4.245   2.687  12.190  0.0898  0.4042 -0.4323
  936MPD2     N13749   4.664   2.834  12.306 -0.0220 -0.0405  0.1940
  936MPD2    H513750   4.728   2.822  12.384  1.6374  2.1328 -0.8413
  936MPD2    N113751   4.395   2.632  12.622 -0.0615  0.4300  0.2186
  936MPD2    H713752   4.483   2.640  12.672  0.5149  1.1549 -0.9439
  937MPD2     C13753   2.499   4.505  11.248 -0.2515 -0.3151 -0.7645
  937MPD2    C113754   2.481   4.642  11.283 -1.2096 -0.2617 -0.1576
  937MPD2    C213755   2.550   0.009  11.219  0.1520 -0.1056  0.3793
  937MPD2    C313756   2.653   4.707  11.135  0.0285  0.6978  0.7477
  937MPD2    C413757   2.673   4.575  11.105  0.1421  0.6105  0.2738
  937MPD2    C513758   2.606   4.477  11.167  0.2270  0.3780  0.0173
  937MPD2     H13759   2.524   0.114  11.230 -0.6752 -0.0040 -2.5645
  937MPD2    H113760   2.748   4.536  11.038 -1.0240 -0.4612 -0.4115
  937MPD2    H213761   2.439   4.418  11.273 -2.4365  1.7398  1.1210
  937MPD2    H313762   2.619   4.372  11.146  1.9094  0.4188  0.8270
  937MPD2     N13763   2.726   0.071  11.070 -0.4160  0.3318 -0.2473
  937MPD2    H513764   2.702   0.167  11.092 -0.6472  0.0922  0.5508
  937MPD2    N113765   2.361   4.693  11.343 -0.4044  0.1495  0.3589
  937MPD2    H713766   2.361   0.058  11.336 -1.7077  0.0460 -1.1738
  938MPD2     C13767   4.615   1.830   1.324  0.4257 -0.0653  0.2543
  938MPD2    C113768   4.733   1.852   1.398  0.5543 -0.5014  0.0299
  938MPD2    C213769   0.089   1.747   1.402  0.0400 -0.6240 -0.0280
  938MPD2    C313770   0.078   1.626   1.332 -0.2183 -0.2540 -0.4629
  938MPD2    C413771   4.700   1.605   1.261 -0.4097 -0.2254 -0.3940
  938MPD2    C513772   4.606   1.707   1.258 -0.0462  1.1045 -0.2808
  938MPD2     H13773   0.181   1.765   1.456 -0.8274  2.4723  0.3755
  938MPD2    H113774   4.689   1.508   1.214  0.1419 -0.3816 -0.2007
  938MPD2    H213775   4.539   1.907   1.314  0.7918  0.1921 -0.5647
  938MPD2    H313776   4.522   1.705   1.190 -0.7706  3.7677  0.5223
  938MPD2     N13777   0.165   1.517   1.331  0.5620 -0.4297  0.6694
  938MPD2    H513778   0.133   1.437   1.277 -0.4178  1.1158 -1.0379
  938MPD2    N113779   0.012   1.968   1.480  0.2060 -0.2361 -0.6260
  938MPD2    H713780   0.102   1.978   1.526  0.0742 -1.6888 -0.0470
  939MPD2     C13781   0.719   1.876   0.850  0.3086 -0.8513  0.0296
  939MPD2    C113782   0.825   1.962   0.854  1.0527  0.5031  0.4528
  939MPD2    C213783   0.907   1.963   0.740 -0.1560  0.0199 -0.2139
  939MPD2    C313784   0.888   1.888   0.628 -0.3367  0.1599 -0.1295
  939MPD2    C413785   0.778   1.801   0.626 -0.4349  0.0843  0.5360
  939MPD2    C513786   0.696   1.800   0.737  0.1565  0.0806 -0.0342
  939MPD2     H13787   1.001   2.017   0.744  0.6160 -1.4824  2.0127
  939MPD2    H113788   0.738   1.755   0.536 -0.1607 -0.4394  0.6863
  939MPD2    H213789   0.652   1.858   0.934 -0.7426 -1.8133 -1.0239
  939MPD2    H313790   0.607   1.738   0.733  0.5143 -0.5024  0.9477
  939MPD2     N13791   0.971   1.916   0.515  0.6112 -0.3915 -0.2750
  939MPD2    H513792   1.038   1.991   0.525 -1.6632  1.2936  2.0995
  939MPD2    N113793   0.847   2.041   0.967  0.0250  0.2153 -0.0036
  939MPD2    H713794   0.776   2.043   1.040  1.6610 -1.2965  1.6144
  940MPD2     C13795   4.673   3.246  13.120  0.2941  0.2219 -0.3712
  940MPD2    C113796   0.037   3.287  13.211 -0.9790  0.0059 -0.4946
  940MPD2    C213797   0.169   3.293  13.158  0.8830  0.0080  0.1448
  940MPD2    C313798   0.205   3.263  13.026 -0.3943 -0.6444  0.5494
  940MPD2    C413799   0.100   3.234  12.942  0.1488 -0.4418  0.3764
  940MPD2    C513800   4.710   3.225  12.994 -0.6570 -0.0478  0.0282
  940MPD2     H13801   0.251   3.317  13.225 -0.3141 -1.2947  2.0612
  940MPD2    H113802   0.113   3.211  12.837  1.7844 -1.1600  0.7248
  940MPD2    H213803   4.574   3.214  13.151 -0.2585 -0.5468 -2.9273
  940MPD2    H313804   4.641   3.180  12.922  1.4909 -1.4261 -1.1855
  940MPD2     N13805   0.335   3.278  12.972 -0.1181  0.1599 -0.5844
  940MPD2    H513806   0.344   3.257  12.873 -2.0868  0.5554 -0.8609
  940MPD2    N113807   0.020   3.311  13.349  0.3844 -1.0135  0.6094
  940MPD2    H713808   0.102   3.333  13.405 -0.4250  0.7088  1.1224
  941MPD2     C13809   4.355   1.947   9.433 -0.2679  0.3387 -0.1972
  941MPD2    C113810   4.451   1.945   9.537 -0.7071 -1.0668  0.8131
  941MPD2    C213811   4.429   1.868   9.647 -0.7573 -0.0274 -0.1259
  941MPD2    C313812   4.313   1.795   9.661  0.2688  0.2582 -0.0482
  941MPD2    C413813   4.226   1.783   9.551  0.2004  0.2317  0.3506
  941MPD2    C513814   4.247   1.862   9.441  0.1417 -0.6667  0.4239
  941MPD2     H13815   4.500   1.871   9.729  1.5168  0.2002 -2.1055
  941MPD2    H113816   4.148   1.709   9.546 -2.2940  2.9482 -0.8853
  941MPD2    H213817   4.369   1.993   9.337 -1.1355  1.2999  0.1377
  941MPD2    H313818   4.179   1.851   9.357 -1.8438  1.2883  1.7866
  941MPD2     N13819   4.312   1.718   9.774 -0.4275  0.3587 -0.3511
  941MPD2    H513820   4.378   1.732   9.849 -1.4500  1.5668  0.3050
  941MPD2    N113821   4.572   2.019   9.540 -0.4673 -0.1481  0.4200
  941MPD2    H713822   4.637   1.991   9.612  0.0209  1.2948  0.5461
  942MPD2     C13823   4.045   0.020   9.094 -0.2704 -0.1996 -0.5398
  942MPD2    C113824   4.109   0.018   8.974 -0.2159  0.2476 -0.0530
  942MPD2    C213825   4.211   4.657   8.953  0.2732  0.0166  0.6461
  942MPD2    C313826   4.256   4.574   9.055 -0.1686  0.3504 -0.2883
  942MPD2    C413827   4.204   4.594   9.174 -0.5885  0.1120  0.1116
  942MPD2    C513828   4.097   4.678   9.192 -0.0750  0.3352 -0.2991
  942MPD2     H13829   4.246   4.632   8.853  0.5487 -1.0272  1.0110
  942MPD2    H113830   4.241   4.529   9.252  0.2409  0.2961 -0.1321
  942MPD2    H213831   3.966   0.092   9.114 -0.1141 -0.5542  1.3796
  942MPD2    H313832   4.051   4.676   9.290  0.4132 -0.3362 -0.0853
  942MPD2     N13833   4.322   4.452   9.046  0.0185  0.0146 -0.0618
  942MPD2    H513834   4.340   4.399   9.130 -1.9179  0.9508  0.9619
  942MPD2    N113835   4.077   0.105   8.870 -0.5421  0.5349  0.1498
  942MPD2    H713836   4.127   0.090   8.783 -0.8157 -0.4177  0.1575
  943MPD2     C13837   3.016   3.014  10.289 -0.5305 -0.4251  0.1661
  943MPD2    C113838   3.043   2.877  10.296 -0.3084 -0.1152  0.0531
  943MPD2    C213839   3.159   2.826  10.240 -0.8378 -0.3318 -0.3701
  943MPD2    C313840   3.242   2.903  10.157  0.4042 -0.0898 -0.0456
  943MPD2    C413841   3.210   3.042  10.154  0.1030 -0.4933 -0.3701
  943MPD2    C513842   3.102   3.094  10.217  0.7851 -0.2222 -0.3026
  943MPD2     H13843   3.184   2.724  10.265  0.0295 -0.1287 -0.4240
  943MPD2    H113844   3.261   3.113  10.090 -1.3960 -0.8655 -1.9664
  943MPD2    H213845   2.925   3.059  10.328 -0.5574 -1.2811  1.0767
  943MPD2    H313846   3.082   3.199  10.198  1.2013 -0.2521 -0.9199
  943MPD2     N13847   3.348   2.848  10.083 -0.4740  0.4028  0.1605
  943MPD2    H513848   3.406   2.909  10.026 -0.1529 -1.2017 -1.2296
  943MPD2    N113849   2.947   2.788  10.353 -0.0519 -0.4974  0.0357
  943MPD2    H713850   2.851   2.821  10.354  0.2278  0.3122 -0.0704
  944MPD2     C13851   2.994   1.685  10.989  0.2762 -0.3848 -0.7974
  944MPD2    C113852   3.115   1.729  11.038  0.8986 -0.8805  0.0331
  944MPD2    C213853   3.111   1.794  11.163 -0.0055  0.4089  0.1381
  944MPD2    C313854   2.995   1.814  11.232 -0.0077  0.3078 -0.0944
  944MPD2    C413855   2.879   1.763  11.176  0.1516 -0.2049 -0.2115
  944MPD2    C513856   2.880   1.705  11.054 -0.1550 -0.0901 -1.1595
  944MPD2     H13857   3.199   1.838  11.209 -1.7748  1.0321  2.8943
  944MPD2    H113858   2.777   1.765  11.212 -0.0524  1.5396 -0.9058
  944MPD2    H213859   2.997   1.647  10.888 -0.8910 -2.9965  0.1321
  944MPD2    H313860   2.785   1.680  11.010 -0.7093 -2.3288  1.2906
  944MPD2     N13861   2.997   1.883  11.356  0.3064 -0.1177  0.0206
  944MPD2    H513862   3.084   1.930  11.382  1.3048 -1.3209 -1.1892
  944MPD2    N113863   3.233   1.709  10.963 -0.3132  0.4855 -0.0238
  944MPD2    H713864   3.222   1.654  10.879 -0.6142  1.8103 -0.8451
    1TMC1    C113865   1.176   1.753  14.362 -0.1763  0.1522  0.0789
    1TMC1    C213866   1.266   1.791  14.265  0.1146 -0.1580 -0.0837
    1TMC1    C313867   1.287   1.693  14.167  1.0772 -0.4626 -0.5956
    1TMC1    C413868   1.108   1.630  14.364  0.0862  0.0033  0.7136
    1TMC1    C513869   1.133   1.542  14.265  0.5345  0.1920  0.0086
    1TMC1    C613870   1.222   1.572  14.160 -0.1403  0.9716  0.0490
    1TMC1     C13871   1.127   1.853  14.455  0.7860  0.9835  0.6982
    1TMC1     O13872   1.077   1.818  14.565 -0.2896  0.5899 -0.2083
    1TMC1     H13873   1.329   1.879  14.268 -0.8315  0.5412 -0.7303
    1TMC1    H113874   1.043   1.601  14.445 -0.9751 -0.0101 -0.1427
    1TMC1    H213875   1.252   1.500  14.085 -1.8429  0.1867  0.1081
    1TMC1    C713876   1.052   1.421  14.249 -0.1133 -0.1418  1.2066
    1TMC1    C813877   1.388   1.728  14.067 -0.5656 -0.0357 -0.1925
    1TMC1    O113878   0.952   1.422  14.322  0.1224 -0.2477  0.0883
    1TMC1    O213879   1.400   1.661  13.962  0.1482 -0.1781 -0.3494
    1TMC1    O313880   1.133   1.319  14.210 -0.1752  1.0176  0.1901
    1TMC1    H313881   1.229   1.335  14.203 -0.3949  1.4057 -1.9040
    1TMC1    O513882   1.497   1.755  14.133  0.2857 -0.4280  0.2510
    1TMC1    H513883   1.478   1.759  14.230  0.6509 -0.2258  0.3125
    2MPD2     C13884   1.063   2.341  14.574 -1.0804 -0.1375  0.2054
    2MPD2    C113885   1.084   2.330  14.441  0.2574  0.3966 -0.1661
    2MPD2    C213886   1.103   2.206  14.386  0.3835 -0.1716 -0.1934
    2MPD2    C313887   1.114   2.097  14.469  0.6207  0.0730 -0.0169
    2MPD2    C413888   1.090   2.103  14.608  0.8197  0.4202 -0.5610
    2MPD2    C513889   1.058   2.234  14.658 -0.3962 -0.2204 -0.2988
    2MPD2     H13890   1.103   2.191  14.279  1.6663 -1.6434  0.0115
    2MPD2    H113891   1.097   2.023  14.682  0.3885 -0.4443 -1.4501
    2MPD2    H213892   1.042   2.437  14.620 -1.7322 -0.4070  0.4835
    2MPD2    H313893   1.019   2.248  14.759  2.1285  2.8006  0.2589
    2MPD2     N13894   1.138   1.975  14.398 -0.2271 -0.2555  0.2247
    2MPD2    H513895   1.170   1.973  14.301 -1.1746 -2.5293 -0.0508
    2MPD2    N113896   1.053   2.446  14.360 -0.5351  0.1304  0.3469
    2MPD2    H713897   1.030   2.525  14.420 -0.2587  0.3277  0.1968
    3TMC2    C113898   1.019   2.587  14.168  0.2114 -0.2900  0.0255
    3TMC2    C213899   1.128   2.670  14.180 -1.0286  0.2576 -0.3031
    3TMC2    C313900   1.125   2.785  14.117  0.2336  0.0053  0.0504
    3TMC2    C413901   0.936   2.605  14.062 -0.2354  0.7296  0.3210
    3TMC2    C513902   0.939   2.720  13.986  0.4153  0.0645  0.0062
    3TMC2    C613903   1.021   2.817  14.035 -0.0843 -0.3307 -0.5946
    3TMC2     C13904   1.033   2.456  14.224 -0.1918 -0.9064  0.3694
    3TMC2     O13905   1.024   2.365  14.144  0.1262  0.0103  0.6589
    3TMC2     H13906   1.200   2.659  14.260 -1.8999 -2.0204  0.1664
    3TMC2    H113907   0.854   2.534  14.058 -2.0498  2.8671 -0.7962
    3TMC2    H213908   1.008   2.920  14.004  1.0180  0.1783  0.6448
    3TMC2    C713909   0.818   2.747  13.904 -0.5640 -0.6698  0.5821
    3TMC2    C813910   1.256   2.859  14.101  0.0758  0.4975  0.1511
    3TMC2    O113911   0.726   2.659  13.905 -0.3314  0.1157  0.3264
    3TMC2    O213912   1.357   2.792  14.106  0.0469 -0.2455  0.0494
    3TMC2    O513913   1.246   2.991  14.112  0.2439 -0.1047 -0.3108
    3TMC2    H513914   1.159   3.034  14.118  1.0807  1.6406 -0.5739
    4TMC2    C113915   0.535   3.714  13.842  0.0410 -0.3425  0.0188
    4TMC2    C213916   0.622   3.775  13.932  0.2299 -0.4573  0.9731
    4TMC2    C313917   0.737   3.711  13.974  0.1372 -0.0528  0.2599
    4TMC2    C413918   0.560   3.591  13.791 -0.1641  0.4053  0.0407
    4TMC2    C513919   0.681   3.533  13.832  0.2618 -0.0441 -0.3759
    4TMC2    C613920   0.764   3.589  13.923  0.0879 -0.1817 -1.0675
    4TMC2     C13921   0.395   3.743  13.857  0.6785  0.7022 -0.3002
    4TMC2     O13922   0.378   3.824  13.947  0.1738  0.5504  0.9270
    4TMC2     H13923   0.590   3.865  13.982 -1.3594  0.3691 -1.5560
    4TMC2    H113924   0.491   3.533  13.730  0.4713 -0.5913  0.2877
    4TMC2    H213925   0.852   3.536  13.959  1.0935  1.0999 -1.6322
    4TMC2    C713926   0.707   3.391  13.818  0.6427 -0.0287  0.4415
    4TMC2    C813927   0.791   3.752  14.103  0.6947  0.3643  0.2553
    4TMC2    O113928   0.823   3.353  13.832  0.3526  0.4324  0.4375
    4TMC2    O213929   0.712   3.775  14.192  0.6531 -0.0045 -0.2044
    4TMC2    O513930   0.904   3.689  14.118 -0.1225 -0.4078 -0.3338
    4TMC2    H513931   0.960   3.700  14.038  2.7263  2.6915  2.0857
    5MPD2     C13932   4.647   3.798  13.733  0.3499  0.4830 -0.2655
    5MPD2    C113933   4.712   3.739  13.625  0.6209 -0.5640 -0.1990
    5MPD2    C213934   0.110   3.710  13.630 -0.4262  0.3717  0.0797
    5MPD2    C313935   0.178   3.743  13.741  0.2592  0.4490  0.0487
    5MPD2    C413936   0.108   3.791  13.853  0.3215  0.2166 -0.2125
    5MPD2    C513937   4.714   3.827  13.847 -0.6939  0.0524 -0.1147
    5MPD2     H13938   0.161   3.678  13.539 -0.7668 -0.3811  0.1460
    5MPD2    H113939   0.160   3.805  13.948  2.3562 -0.7990 -1.1935
    5MPD2    H213940   4.541   3.816  13.728  0.0539 -0.6120  2.0628
    5MPD2    H313941   4.666   3.863  13.937  2.0084 -1.1339  1.7842
    5MPD2     N13942   0.320   3.709  13.752 -0.0638 -0.2680 -0.3547
    5MPD2    H513943   0.358   3.672  13.666 -0.2760  3.4044 -2.0225
    5MPD2    N113944   4.626   3.722  13.506  0.6356 -0.4140 -0.3948
    5MPD2    H713945   4.527   3.736  13.523  0.5955 -0.1113 -0.8804
    6MPD1     C13946   3.986   0.177  12.196 -0.0450  1.2038  0.2423
    6MPD1    C113947   3.990   0.206  12.330 -0.3865 -0.5401  0.2631
    6MPD1    C213948   4.019   0.104  12.419  0.0929 -0.7277 -0.7182
    6MPD1    C313949   4.050   4.713  12.371 -0.0118 -0.4659 -0.5887
    6MPD1    C413950   4.044   4.692  12.236 -0.1339  0.3292  0.0367
    6MPD1    C513951   4.019   0.058  12.143  0.0951 -1.2428  0.0845
    6MPD1     H13952   4.017   0.130  12.524 -1.2674 -0.4620 -0.8151
    6MPD1    H113953   4.066   4.593  12.197  1.1257  0.0342  1.4928
    6MPD1    H213954   3.965   0.256  12.124  2.0175  0.4587 -1.1918
    6MPD1    H313955   4.022   0.052  12.035 -0.5976  3.4683 -0.2101
    6MPD1     N13956   4.076   4.605  12.459  0.1238 -0.2644  0.4155
    6MPD1    H513957   4.107   4.515  12.424  4.2488  0.4011  2.4397
    6MPD1    N113958   3.930   0.329  12.367 -0.0490 -0.3568 -0.1509
    6MPD1    H613959   3.953   0.399  12.297 -0.9970  0.3608  0.2557
    6MPD1    H713960   3.969   0.352  12.458 -2.0718 -0.1938  0.6633
    7MPD2     C13961   4.124   4.280  13.296 -0.4869  0.0757 -0.2506
    7MPD2    C113962   4.125   4.211  13.181 -0.3508  0.5726  0.3422
    7MPD2    C213963   4.124   4.076  13.184  0.4267  0.2206 -0.5182
    7MPD2    C313964   4.138   4.004  13.300 -0.0294  0.4063 -0.6913
    7MPD2    C413965   4.124   4.076  13.419  0.4842  0.8209 -0.3585
    7MPD2    C513966   4.129   4.213  13.412 -0.4384  0.5991 -0.5250
    7MPD2     H13967   4.149   4.025  13.091 -0.6362  1.5823 -1.5566
    7MPD2    H113968   4.129   4.031  13.518  0.3148 -0.5459 -0.9646
    7MPD2    H213969   4.124   4.388  13.307  1.2197  0.3647 -2.9163
    7MPD2    H313970   4.138   4.273  13.502  1.9496 -0.2960 -0.1780
    7MPD2     N13971   4.183   3.877  13.309  1.0985 -0.4177 -0.4341
    7MPD2    H513972   4.201   3.834  13.399 -0.4450  2.7803  1.4254
    7MPD2    N113973   4.137   4.269  13.055  0.7312  0.9274  0.0194
    7MPD2    H713974   4.130   4.209  12.973  2.3826  2.7140 -1.4387
    8TMC3    C113975   4.319   3.692  13.224  0.2042 -0.1154 -0.1461
    8TMC3    C213976   4.420   3.695  13.319 -0.0469 -0.0172  0.4434
    8TMC3    C313977   4.546   3.644  13.295  0.2430  1.0019  0.1576
    8TMC3    C413978   4.352   3.629  13.105  0.1540 -0.4718 -0.6734
    8TMC3    C513979   4.480   3.575  13.080  0.4935 -0.1609  0.6523
    8TMC3    C613980   4.574   3.584  13.177  0.5192  0.1930 -0.7449
    8TMC3     C13981   4.223   3.801  13.197 -0.0974  0.4384  0.1735
    8TMC3     O13982   4.188   3.809  13.080  0.4464 -0.0618  0.1444
    8TMC3     H13983   4.397   3.745  13.413  2.8510 -1.0970  1.7484
    8TMC3    H113984   4.271   3.598  13.039  0.4528  0.9417 -1.7101
    8TMC3    H213985   4.667   3.535  13.150 -0.4326 -0.1678 -3.3906
    8TMC3    C713986   4.522   3.602  12.946 -0.0480 -0.1169 -0.4247
    8TMC3    C813987   4.663   3.682  13.383 -0.1377 -0.3657  0.7476
    8TMC3    O113988   4.619   3.542  12.895 -0.3687 -0.3401 -0.7343
    8TMC3    O213989   0.042   3.665  13.345  0.5923  0.2412  0.0510
    9TMC3    C113990   4.150   4.531  12.673 -0.2370  0.3376  0.5438
    9TMC3    C213991   4.244   4.455  12.605 -1.1749 -0.2491  0.5415
    9TMC3    C313992   4.298   4.345  12.683  0.2629 -0.5222 -0.0038
    9TMC3    C413993   4.113   4.504  12.807 -0.2048 -0.2834  0.0276
    9TMC3    C513994   4.186   4.411  12.877 -0.4190  0.9862  0.0187
    9TMC3    C613995   4.279   4.331  12.817  0.0235  0.0698 -0.3987
    9TMC3     C13996   4.070   4.622  12.598  0.3954 -0.1086 -0.0740
    9TMC3     O13997   3.997   4.698  12.659 -0.6380  0.0675  0.2385
    9TMC3     H13998   4.262   4.470  12.499  0.7071 -1.0141  0.7594
    9TMC3    H113999   4.031   4.559  12.853  1.8082  2.0695  0.7654
    9TMC3    H214000   4.333   4.268  12.886 -2.0689 -0.9896  0.2888
    9TMC3    C714001   4.165   4.399  13.024 -0.7356  1.1812  0.4606
    9TMC3    C814002   4.363   4.242  12.608  0.5197 -0.2569  0.5808
    9TMC3    O114003   4.166   4.498  13.088  0.2677 -0.5572 -0.3737
    9TMC3    O214004   4.444   4.273  12.524 -0.0945  0.0071  0.0537
   10MPD2     C14005   4.579   3.778  12.701 -0.0576  0.0268 -0.6306
   10MPD2    C114006   4.486   3.803  12.802 -0.1284 -0.5190 -0.1305
   10MPD2    C214007   4.415   3.918  12.780 -0.2677  0.2520 -0.0423
   10MPD2    C314008   4.431   4.009  12.674  0.7904  0.1121  0.2042
   10MPD2    C414009   4.531   3.982  12.585  0.6407 -0.7403 -0.6637
   10MPD2    C514010   4.600   3.864  12.600 -0.0989  0.3204  0.2284
   10MPD2     H14011   4.338   3.948  12.851 -0.9256 -0.7056 -0.3583
   10MPD2    H114012   4.547   4.030  12.490  1.9900  0.3231  0.1075
   10MPD2    H214013   4.637   3.687  12.693 -1.1826 -0.6308 -1.3404
   10MPD2    H314014   4.678   3.842  12.528 -0.9023 -1.1591 -0.1936
   10MPD2     N14015   4.351   4.123  12.676  0.3622  0.0396  0.1966
   10MPD2    H514016   4.279   4.127  12.748  0.0789  1.7248 -0.1603
   10MPD2    N114017   4.463   3.722  12.916 -0.2219  0.4401 -0.5150
   10MPD2    H714018   4.408   3.753  12.996 -2.4338  0.6886 -2.1463
   11MPD2     C14019   0.578   2.877  13.803  0.5125 -0.7834  0.4390
   11MPD2    C114020   0.696   2.949  13.825  0.1651  0.1218 -0.3314
   11MPD2    C214021   0.717   3.088  13.810 -0.2109  0.5222 -0.5856
   11MPD2    C314022   0.610   3.167  13.787 -0.1527 -0.3797  0.5029
   11MPD2    C414023   0.492   3.103  13.758  0.0609 -0.3798  0.2662
   11MPD2    C514024   0.475   2.962  13.752  0.2754  0.6926 -0.4410
   11MPD2     H14025   0.808   3.138  13.844  0.3338 -0.2164 -0.9607
   11MPD2    H114026   0.410   3.167  13.728 -0.8993 -1.2719  1.0058
   11MPD2    H214027   0.558   2.772  13.818  1.6649 -0.8197  1.6753
   11MPD2    H314028   0.382   2.917  13.719  0.2913  0.2458  0.1355
   11MPD2     N14029   0.603   3.311  13.803 -0.4928  0.8324 -0.1294
   11MPD2    H514030   0.512   3.355  13.788  0.6953  1.5844 -4.8578
   11MPD2    N114031   0.811   2.879  13.873 -0.1507 -0.2064 -0.4301
   11MPD2    H714032   0.889   2.939  13.896  0.7219 -1.4255 -0.1721
    1MPD1     C14033   4.089   0.135   0.085 -0.1771 -1.0110  0.3904
    1MPD1    C114034   3.966   0.115   0.025  0.2428  0.3412  0.7394
    1MPD1    C214035   3.933   0.207  17.668  0.6066  0.3145 -0.0070
    1MPD1    C314036   4.022   0.304  17.613  0.1656 -0.6252  0.3451
    1MPD1    C414037   4.151   0.306  17.668 -0.3237  0.3612  0.6182
    1MPD1    C514038   4.173   0.235   0.037 -0.6677 -0.1361  0.3713
    1MPD1     H14039   3.835   0.206  17.622  0.6349 -0.9647 -0.0369
    1MPD1    H114040   4.228   0.373  17.631 -0.5527  1.0058  1.3211
    1MPD1    H214041   4.124   0.073   0.167  1.6686  0.0879  0.4410
    1MPD1    H314042   4.273   0.222   0.076 -0.1685 -1.0352 -1.2028
    1MPD1     N14043   4.006   0.384  17.496  0.0666  0.2641 -0.6399
    1MPD1    H514044   4.091   0.435  17.477 -0.5131  0.4097 -2.8238
    1MPD1    N114045   3.877   0.029   0.082  0.4948 -0.3529  0.8936
    1MPD1    H614046   3.917   4.683   0.126  0.5665  0.9894  3.3161
    1MPD1    H714047   3.808   0.003   0.011  0.1172  0.5388  0.9404
    2MPD1     C14048   4.515   1.019  17.350 -0.1026 -1.0155 -0.5663
    2MPD1    C114049   4.463   0.954  17.458  0.6505  0.5789 -0.2420
    2MPD1    C214050   4.359   0.869  17.437 -0.0557  0.4333  0.0774
    2MPD1    C314051   4.305   0.852  17.309  0.0691 -0.3500 -1.3396
    2MPD1    C414052   4.350   0.937  17.210  0.3145 -0.1250 -0.5223
    2MPD1    C514053   4.455   1.016  17.228  0.3549 -0.4292  0.3187
    2MPD1     H14054   4.329   0.799  17.514  2.4275  0.2022  0.8325
    2MPD1    H114055   4.301   0.941  17.113 -1.7866 -3.3127  0.4038
    2MPD1    H214056   4.611   1.066  17.367 -0.3562 -0.0070 -1.9570
    2MPD1    H314057   4.482   1.074  17.141 -0.8699  0.3268  0.4378
    2MPD1     N14058   4.199   0.762  17.293  0.3291  0.3697  0.6586
    2MPD1    H514059   4.188   0.699  17.372 -1.0675  1.5999  1.4493
    2MPD1    N114060   4.541   0.944  17.579  0.0761 -0.5786  0.2513
    2MPD1    H614061   4.582   1.035  17.601 -2.2077  0.1686  1.3734
    2MPD1    H714062   4.484   0.917  17.659  2.8115 -1.6273  1.8283
    3TMC3    C114063   4.022   0.643  17.190 -0.5399 -0.8240 -0.1150
    3TMC3    C214064   3.953   0.615  17.073  0.0516 -0.4391 -0.0398
    3TMC3    C314065   3.860   0.518  17.076  0.1580 -0.2565 -0.1519
    3TMC3    C414066   3.993   0.586  17.313  0.8546  0.0796  0.4303
    3TMC3    C514067   3.906   0.484  17.306 -0.1718  0.0364  0.0968
    3TMC3    C614068   3.842   0.439  17.192 -0.1035 -0.3174 -0.1210
    3TMC3     C14069   4.117   0.753  17.183  0.5616 -0.8786  0.2168
    3TMC3     O14070   4.119   0.814  17.077 -0.3598 -0.1054  0.4052
    3TMC3     H14071   3.962   0.672  16.981  1.0721 -0.3778  0.0958
    3TMC3    H114072   4.022   0.628  17.409  2.7436 -1.5334  0.5524
    3TMC3    H214073   3.764   0.365  17.208 -0.5720 -0.7974 -4.8646
    3TMC3    C714074   3.891   0.397  17.422  0.5358  0.8180  0.2143
    3TMC3    C814075   3.773   0.512  16.963  0.2348 -0.7754  0.1986
    3TMC3    O114076   3.787   0.331  17.441 -0.0272  0.0035 -0.3800
    3TMC3    O214077   3.807   0.560  16.858  0.1189  0.0270  0.3096
    4MPD1     C14078   3.292   0.421  16.784 -0.0987  0.0371 -0.6220
    4MPD1    C114079   3.287   0.408  16.918  0.7556  1.1438  0.1135
    4MPD1    C214080   3.406   0.440  16.983  0.0667  0.4609 -0.1136
    4MPD1    C314081   3.532   0.457  16.922  0.4328  0.0471  0.2464
    4MPD1    C414082   3.529   0.469  16.785  1.0949 -0.2265  0.1101
    4MPD1    C514083   3.409   0.449  16.722 -0.1896  0.3458  0.2736
    4MPD1     H14084   3.406   0.435  17.091 -2.2296 -0.3990 -0.1560
    4MPD1    H114085   3.614   0.482  16.720  1.2028  0.6171  0.4138
    4MPD1    H214086   3.206   0.410  16.719  0.3679 -1.6229 -0.9400
    4MPD1    H314087   3.400   0.448  16.614 -1.9161  1.0797  0.3995
    4MPD1     N14088   3.649   0.474  17.001 -0.0195  0.3554 -0.1696
    4MPD1    H514089   3.633   0.474  17.101  2.1157 -0.0786  0.1949
    4MPD1    N114090   3.162   0.412  16.988 -0.4536 -0.4218 -0.1645
    4MPD1    H614091   3.100   0.346  16.943 -2.5155  1.9092 -0.7452
    4MPD1    H714092   3.177   0.374  17.081  1.4936  1.4567  0.3052
    1TCq1    O114093   3.666   4.041  10.921 -0.0269 -0.0767 -0.0115
    1TCq1    C114094   3.604   4.118  10.841  0.8532  0.2505  0.4719
    1TCq1    O214095   3.647   4.150  10.731 -0.2188  0.4939  0.2713
    1TCq1    C214096   3.547   4.220  10.930 -0.4037  0.0541 -0.0835
    1TCq1    C314097   3.481   4.174  11.041  0.1308 -0.0590  0.2573
    1TCq1    C414098   3.455   4.273  11.136 -0.4269 -0.0521 -0.0208
    1TCq1    C514099   3.541   4.377  11.150 -0.4279  0.0161  0.0767
    1TCq1    C614100   3.627   4.406  11.051  0.1944  0.2171 -0.2470
    1TCq1    C714101   3.614   4.336  10.931  0.9946 -0.9531  0.2348
    1TCq1    C814102   3.768   4.437  11.083  0.5531 -0.4525  0.6575
    1TCq1    O414103   3.843   4.431  10.984  0.4600  0.0232  0.2416
    1TCq1    C914104   3.393   4.230  11.255 -1.0890  0.6278  0.3029
    1TCq1    O514105   3.377   4.106  11.260 -0.3027  0.1433 -0.0339
    1TCq1    O614106   3.358   4.311  11.341 -0.3177 -0.4747  0.5992
    1TCq1    H114107   3.658   4.075  11.013  4.0359  0.0723  0.3144
    1TCq1    H214108   3.433   4.077  11.036 -1.3633  0.7087 -0.0043
    1TCq1    H314109   3.542   4.423  11.248  1.4833  1.7883 -0.7741
    1TCq1    H414110   3.675   4.358  10.845 -0.3451 -0.5781 -0.6247
    2MPD1     C14111   4.181   4.498  11.379 -0.4502  0.0379  0.0136
    2MPD1    C114112   4.074   4.478  11.462 -0.4841  0.1309 -0.5791
    2MPD1    C214113   3.949   4.456  11.403 -0.5577 -0.0666  0.2529
    2MPD1    C314114   3.926   4.471  11.268 -0.4051 -0.3924 -0.8896
    2MPD1    C414115   4.030   4.526  11.193  0.7490 -0.1198 -0.0697
    2MPD1    C514116   4.150   4.533  11.251  0.9760  0.4330  0.2062
    2MPD1     H14117   3.866   4.435  11.469  0.7555  0.4099  2.0311
    2MPD1    H114118   4.014   4.575  11.097  2.1374 -0.1008 -0.2931
    2MPD1    H214119   4.284   4.503  11.410 -0.7918  1.0427  1.0174
    2MPD1    H314120   4.225   4.576  11.186 -0.1463  0.0007 -1.3855
    2MPD1     N14121   3.798   4.443  11.218 -0.1910 -0.4471 -0.5672
    2MPD1    H514122   3.727   4.414  11.285 -0.2413  0.2281 -0.3272
    2MPD1    N114123   4.093   4.447  11.596  0.1707 -0.1212  0.0829
    2MPD1    H614124   4.008   4.465  11.650  0.8989  2.3109  0.4266
    2MPD1    H714125   4.177   4.494  11.627  0.3011  1.2692 -2.3746
    1TMC1    C114126   2.080   2.791   1.171  0.5733  0.1012 -0.0454
    1TMC1    C214127   2.104   2.868   1.286 -0.6743 -0.6756 -0.2154
    1TMC1    C314128   2.203   2.956   1.295  0.4764 -0.3974 -0.3123
    1TMC1    C414129   2.146   2.822   1.061  0.3043 -0.2365  0.2898
    1TMC1    C514130   2.249   2.913   1.071 -0.7231  0.8329 -0.0008
    1TMC1    C614131   2.278   2.986   1.185  0.5014  0.1973  0.2111
    1TMC1     C14132   1.964   2.701   1.157 -0.5114  0.5558 -0.8121
    1TMC1     O14133   1.924   2.649   1.262 -0.1773 -0.2619 -0.5267
    1TMC1     H14134   2.051   2.858   1.380  2.7195  1.1062  1.8942
    1TMC1    H114135   2.138   2.759   0.973  0.8713 -0.5558  0.4678
    1TMC1    H214136   2.353   3.064   1.194  0.1267  0.8334 -2.1608
    1TMC1    C714137   2.358   2.894   0.980 -0.4262 -0.0649  0.2650
    1TMC1    C814138   2.198   3.052   1.400  0.2776  0.3149  0.0080
    1TMC1    O114139   2.476   2.897   1.011  0.3006  0.2412 -0.2789
    1TMC1    O214140   2.297   3.125   1.416 -0.3543 -0.0878 -0.0744
    1TMC1    O314141   2.309   2.870   0.856  0.3154 -0.3833  0.5434
    1TMC1    H314142   2.219   2.905   0.840  0.6002  1.0299  1.9654
    1TMC1    O514143   2.079   3.104   1.374 -0.6812 -0.5373 -0.2794
    1TMC1    H514144   2.013   3.040   1.339  0.4909 -0.5949 -2.3955
    2MPD1     C14145   1.505   2.636   0.945 -0.0888  0.5561 -0.3150
    2MPD1    C114146   1.580   2.693   0.851 -0.2617  0.2214  0.3297
    2MPD1    C214147   1.710   2.717   0.889 -0.1927  0.9833  0.2477
    2MPD1    C314148   1.762   2.685   1.016 -0.0553  0.1205 -0.2955
    2MPD1    C414149   1.674   2.632   1.111 -0.2758 -0.4477 -0.4984
    2MPD1    C514150   1.547   2.610   1.077 -0.6008 -0.1228 -0.1055
    2MPD1     H14151   1.774   2.768   0.818  0.1551 -0.8702 -0.7682
    2MPD1    H114152   1.709   2.596   1.207 -2.5669 -0.3605  0.3753
    2MPD1    H214153   1.411   2.593   0.911  0.2238 -0.5570  0.2284
    2MPD1    H314154   1.477   2.554   1.137  0.4013 -1.5509 -0.2631
    2MPD1     N14155   1.894   2.723   1.038 -0.4717 -0.5116  0.1070
    2MPD1    H514156   1.938   2.783   0.968 -1.0123  0.9976  1.0536
    2MPD1    N114157   1.534   2.698   0.719  0.9139 -0.4262  0.6143
    2MPD1    H614158   1.433   2.688   0.708  0.9253 -1.0343  1.0486
    2MPD1    H714159   1.574   2.770   0.660  1.5179 -2.0838 -1.0184
    1MPD1     C14160   1.630   2.441  12.775 -0.7154  0.6115  0.6910
    1MPD1    C114161   1.530   2.521  12.838  0.3194  0.5053 -0.0242
    1MPD1    C214162   1.562   2.655  12.849 -0.1827 -0.4011  0.5808
    1MPD1    C314163   1.678   2.708  12.794  0.0226 -0.3022  0.2998
    1MPD1    C414164   1.765   2.628  12.734 -0.1793 -0.6178  0.4852
    1MPD1    C514165   1.731   2.497  12.703 -0.4981 -0.7329  0.1988
    1MPD1     H14166   1.500   2.715  12.915 -1.8278 -0.3147 -1.0460
    1MPD1    H114167   1.841   2.662  12.666  0.3423  0.6341  1.6998
    1MPD1    H214168   1.614   2.335  12.755  2.2840  0.5680 -1.5423
    1MPD1    H314169   1.793   2.438  12.637  0.0018 -1.4516  1.3082
    1MPD1     N14170   1.708   2.842  12.819 -0.0216  0.9376  0.4583
    1MPD1    H514171   1.644   2.894  12.879  0.8201 -0.3227  2.4442
    1MPD1    N114172   1.422   2.461  12.906  0.3291  0.0884  0.2379
    1MPD1    H614173   1.381   2.377  12.866 -2.2268  1.5923 -0.2685
    1MPD1    H714174   1.342   2.519  12.930 -0.7314 -0.5549 -1.7249
    2MPD1     C14175   0.377   4.305  12.280  0.1655 -0.5232  0.9161
    2MPD1    C114176   0.485   4.283  12.366  0.3595  0.4060 -0.1060
    2MPD1    C214177   0.617   4.298  12.317 -0.0516 -0.0903  0.1259
    2MPD1    C314178   0.641   4.322  12.184 -0.2765  0.3913 -0.0191
    2MPD1    C414179   0.538   4.342  12.100 -0.1385  0.8815 -0.2693
    2MPD1    C514180   0.407   4.333  12.146 -0.1694 -0.5049 -0.3099
    2MPD1     H14181   0.694   4.310  12.393  0.8330  0.0076 -0.7931
    2MPD1    H114182   0.561   4.363  11.996  1.4844 -1.3261 -0.3581
    2MPD1    H214183   0.276   4.284  12.315 -0.5728  0.5374 -0.6046
    2MPD1    H314184   0.324   4.350  12.078  0.7408  2.8858 -0.5641
    2MPD1     N14185   0.771   4.358  12.143 -0.5474 -0.1695 -0.1755
    2MPD1    H514186   0.778   4.391  12.047  1.0680 -0.6392 -0.2122
    2MPD1    N114187   0.465   4.264  12.505 -0.9012 -0.1078  0.7956
    2MPD1    H614188   0.542   4.218  12.553  2.2446  2.1003 -2.2088
    2MPD1    H714189   0.376   4.218  12.524 -1.3722  0.9947  1.2652
    3MPD1     C14190   1.364   0.234  11.625 -0.8664 -0.7286  0.7188
    3MPD1    C114191   1.454   0.133  11.644 -0.1522  0.1605 -0.8195
    3MPD1    C214192   1.404   0.019  11.699 -0.1319  0.0802 -0.4880
    3MPD1    C314193   1.277   0.010  11.758 -0.0679 -0.3572  0.3625
    3MPD1    C414194   1.191   0.118  11.739 -0.5575  0.7312  0.4879
    3MPD1    C514195   1.235   0.235  11.683  0.3384  0.0856 -0.9051
    3MPD1     H14196   1.471   4.670  11.698 -1.3209 -0.8742  1.4331
    3MPD1    H114197   1.090   0.121  11.778 -1.2118 -0.1721 -1.1191
    3MPD1    H214198   1.389   0.328  11.577 -0.3918 -0.6793  1.0697
    3MPD1    H314199   1.155   0.305  11.664 -0.8533 -1.6031 -2.1296
    3MPD1     N14200   1.249   4.629  11.843 -0.1448 -0.2430 -0.3687
    3MPD1    H514201   1.331   4.573  11.861 -0.3096 -0.0249  1.0077
    3MPD1    N114202   1.579   0.141  11.583  0.0029  0.7106  0.3348
    3MPD1    H614203   1.646   0.085  11.636 -1.6849  0.3276  2.0587
    3MPD1    H714204   1.604   0.239  11.571 -1.1160  1.1786  1.9353
    4MPD2     C14205   1.509   3.584  12.815  0.0747 -0.8288  0.2167
    4MPD2    C114206   1.637   3.566  12.855 -0.6256  0.2217 -0.4682
    4MPD2    C214207   1.718   3.679  12.835 -0.3581 -0.2235 -0.6925
    4MPD2    C314208   1.671   3.801  12.789  0.3473  0.3794  0.2462
    4MPD2    C414209   1.535   3.814  12.755 -0.2693 -0.0426 -0.1360
    4MPD2    C514210   1.465   3.700  12.769  0.7990  0.5447 -0.9437
    4MPD2     H14211   1.821   3.675  12.870 -1.0584  1.8282  1.5922
    4MPD2    H114212   1.487   3.903  12.715 -0.6708  0.0471  0.5296
    4MPD2    H214213   1.428   3.512  12.828  0.6679 -1.1163  2.2746
    4MPD2    H314214   1.366   3.695  12.725  0.5601 -1.4292 -0.1653
    4MPD2     N14215   1.755   3.913  12.754 -0.0958  0.5594  0.4685
    4MPD2    H514216   1.718   3.997  12.712  1.0485  1.6382  1.6278
    4MPD2    N114217   1.693   3.445  12.908 -0.5875 -0.6515  0.2630
    4MPD2    H714218   1.794   3.436  12.920 -0.1293  0.9975 -2.2810
    5TMC3    C114219   1.719   3.216  12.955 -0.0890 -0.0279  0.0814
    5TMC3    C214220   1.706   3.098  12.892 -0.1608  0.0218  0.7137
    5TMC3    C314221   1.827   3.043  12.848 -0.5356  0.2762 -0.4292
    5TMC3    C414222   1.840   3.264  12.993  0.5445 -0.0770 -0.4183
    5TMC3    C514223   1.953   3.219  12.935  0.0454 -0.0730 -0.4248
    5TMC3    C614224   1.942   3.109  12.848  0.6265  0.6408 -0.4968
    5TMC3     C14225   1.626   3.327  12.930  0.0590  0.5180  0.1809
    5TMC3     O14226   1.511   3.295  12.899 -0.2113  0.3415 -0.8599
    5TMC3     H14227   1.604   3.061  12.889 -0.5367  1.2066 -0.8754
    5TMC3    H114228   1.852   3.341  13.067  0.0777  1.3663 -1.8360
    5TMC3    H214229   2.032   3.058  12.816 -0.3004 -1.2327 -0.1230
    5TMC3    C714230   2.021   3.337  12.871  0.1646  0.2868  0.4779
    5TMC3    C814231   1.827   2.903  12.798  0.5094 -0.4081  0.4832
    5TMC3    O114232   1.998   3.451  12.919 -0.0356  0.1367  0.3310
    5TMC3    O214233   1.927   2.873  12.737  0.2735 -0.6381 -0.2040
    6TMC3    C114234   1.008   4.366  12.163  0.2393  0.4726 -0.0049
    6TMC3    C214235   1.007   4.455  12.064 -0.3579 -0.3439 -0.4998
    6TMC3    C314236   1.127   4.481  11.999 -0.0682  0.2995  0.0763
    6TMC3    C414237   1.110   4.285  12.191 -0.3244 -0.2113  0.9772
    6TMC3    C514238   1.223   4.302  12.113 -0.3611 -0.0612 -0.7218
    6TMC3    C614239   1.236   4.404  12.018  0.1747  0.3846  0.1374
    6TMC3     C14240   0.885   4.330  12.218  0.0082 -0.1213 -0.0215
    6TMC3     O14241   0.892   4.251  12.308  1.2348 -0.0023  0.4688
    6TMC3     H14242   0.923   4.523  12.051 -0.5906 -0.4774  0.3063
    6TMC3    H114243   1.097   4.197  12.254 -2.3155 -0.2021  0.5810
    6TMC3    H214244   1.329   4.422  11.966  0.5293 -2.9140 -0.3729
    6TMC3    C714245   1.336   4.222  12.146  0.0340  0.5889  0.4910
    6TMC3    C814246   1.129   4.602  11.908 -0.2523 -0.2844 -0.8592
    6TMC3    O114247   1.347   4.191  12.261  0.2194  0.3923  0.9731
    6TMC3    O214248   1.030   4.670  11.894 -0.3669 -0.1778  0.3348
    7MPD2     C14249   2.232   3.573  12.470  0.3425 -0.7943  0.7375
    7MPD2    C114250   2.153   3.624  12.565  0.2070 -0.3542  0.4846
    7MPD2    C214251   2.097   3.539  12.659 -0.1269  0.7993  0.1948
    7MPD2    C314252   2.123   3.402  12.650 -0.2761 -0.4338  0.2396
    7MPD2    C414253   2.190   3.349  12.544 -0.1328  0.3952 -0.1607
    7MPD2    C514254   2.249   3.435  12.458  0.3571 -0.5538 -0.4296
    7MPD2     H14255   2.042   3.584  12.741 -0.6433  0.5887 -0.0414
    7MPD2    H114256   2.209   3.242  12.535 -3.4981  0.0735 -3.4222
    7MPD2    H214257   2.295   3.638  12.410  1.2626 -1.4522  0.9931
    7MPD2    H314258   2.311   3.402  12.376 -1.0773 -1.0265 -1.3330
    7MPD2     N14259   2.063   3.309  12.741  0.0435 -0.0895  0.2837
    7MPD2    H514260   2.094   3.216  12.717 -0.9622  0.5580 -3.5629
    7MPD2    N114261   2.125   3.764  12.573  0.8810 -0.0199  0.1168
    7MPD2    H714262   2.092   3.798  12.662  0.1491  0.4651 -0.3412
    8TMC3    C114263   2.113   3.989  12.515 -0.0799 -0.1950  0.0218
    8TMC3    C214264   2.033   4.030  12.418  1.0938  0.1179  0.3182
    8TMC3    C314265   1.910   4.080  12.463  0.0197  0.6679  0.3949
    8TMC3    C414266   2.088   4.005  12.647  0.6568 -0.2278 -0.3611
    8TMC3    C514267   1.958   4.028  12.681 -0.0792 -0.0639 -0.8526
    8TMC3    C614268   1.869   4.084  12.592 -0.4358  0.0644 -0.1879
    8TMC3     C14269   2.171   3.862  12.486 -0.4546  0.4152  0.1705
    8TMC3     O14270   2.233   3.855  12.385 -0.3665  0.4468 -0.6094
    8TMC3     H14271   2.066   4.008  12.317  0.3840  0.7568 -0.0471
    8TMC3    H114272   2.148   3.965  12.728 -0.1241 -1.7703 -0.5379
    8TMC3    H214273   1.785   4.143  12.626 -0.2080 -0.4204  1.2145
    8TMC3    C714274   1.894   3.919  12.758  0.6867  0.3638  0.1178
    8TMC3    C814275   1.803   4.105  12.372 -0.7363 -0.2352 -0.5820
    8TMC3    O114276   1.976   3.835  12.801  0.1747 -0.3997 -0.2471
    8TMC3    O214277   1.711   4.165  12.419  0.1856 -0.3495 -0.2045
    9MPD2     C14278   1.778   4.014  12.017  0.3829 -0.5120 -0.0015
    9MPD2    C114279   1.736   4.061  12.139  0.1112  0.0649  0.5731
    9MPD2    C214280   1.603   4.114  12.149 -0.6061  0.6386 -0.2974
    9MPD2    C314281   1.533   4.134  12.034  0.0888 -0.0203 -0.0910
    9MPD2    C414282   1.585   4.084  11.915 -0.1922  0.3235 -0.2536
    9MPD2    C514283   1.710   4.030  11.905  0.9104  0.2786  0.0688
    9MPD2     H14284   1.566   4.145  12.246 -0.4901  0.0424 -0.0646
    9MPD2    H114285   1.522   4.080  11.826 -0.5400 -1.4326  0.0729
    9MPD2    H214286   1.878   3.971  12.018 -0.7031 -3.0221  0.3582
    9MPD2    H314287   1.741   3.976  11.816  0.2080  1.0868 -0.6631
    9MPD2     N14288   1.405   4.190  12.033  0.3526 -0.8591  0.5210
    9MPD2    H514289   1.370   4.196  11.938  0.0399 -2.5803  0.5358
    9MPD2    N114290   1.829   4.047  12.246 -0.2649 -0.2514  0.2930
    9MPD2    H714291   1.911   3.994  12.221  0.8557  1.7446 -0.2933
    1MPD1     C14292   0.721   2.880  15.844  0.6629  0.2831 -0.6994
    1MPD1    C114293   0.712   2.966  15.950  0.1814 -0.7713 -0.6286
    1MPD1    C214294   0.648   3.081  15.939  0.5059 -0.6346  0.0859
    1MPD1    C314295   0.572   3.106  15.826  0.6590  0.1637  0.7442
    1MPD1    C414296   0.573   3.017  15.724  0.1668  0.1199  0.1393
    1MPD1    C514297   0.659   2.911  15.725 -0.0410  0.7841  0.5824
    1MPD1     H14298   0.645   3.148  16.024 -1.3686 -0.6006 -0.0073
    1MPD1    H114299   0.525   3.030  15.628 -0.3831  0.4681  0.4609
    1MPD1    H214300   0.784   2.792  15.852  0.9969  0.9036  3.4487
    1MPD1    H314301   0.655   2.848  15.636 -1.3062 -0.4911  1.5472
    1MPD1     N14302   0.492   3.221  15.812 -0.3778 -0.4710  0.0857
    1MPD1    H514303   0.441   3.224  15.725 -1.2908  1.4885  0.6700
    1MPD1    N114304   0.794   2.952  16.062  0.4702 -0.0694  0.3104
    1MPD1    H614305   0.810   2.855  16.090 -0.3132 -0.5605 -0.9169
    1MPD1    H714306   0.756   3.002  16.142  0.2965  1.3091 -0.6333
    2TMC2    C114307   0.280   3.635  15.859  0.5095  0.6619 -0.2055
    2TMC2    C214308   0.189   3.608  15.761 -0.1547 -1.3561 -0.1162
    2TMC2    C314309   0.181   3.476  15.725  0.6973  0.3154  0.2791
    2TMC2    C414310   0.375   3.546  15.900  0.5020 -0.0277 -0.0413
    2TMC2    C514311   0.368   3.419  15.860  0.2312  0.0260  0.1355
    2TMC2    C614312   0.267   3.386  15.775  0.5226 -0.2234 -0.9723
    2TMC2     C14313   0.319   3.774  15.881 -0.1475 -0.0357 -0.2720
    2TMC2     O14314   0.396   3.798  15.973 -0.1396 -0.8302 -0.6880
    2TMC2     H14315   0.112   3.683  15.747  0.8251 -0.2624  0.3901
    2TMC2    H114316   0.442   3.566  15.983 -2.0013 -0.8094  2.1546
    2TMC2    H214317   0.234   3.286  15.752  1.4160 -0.6012 -0.5742
    2TMC2    C714318   0.462   3.318  15.906 -1.1187 -0.1718  0.0673
    2TMC2    C814319   0.058   3.430  15.672 -0.0737 -1.0123  0.0492
    2TMC2    O114320   0.502   3.338  16.017  0.0838 -0.4800  0.0433
    2TMC2    O214321   0.015   3.315  15.688  0.3515  0.2672  0.3678
    2TMC2    O514322   4.735   3.533  15.609  0.1905  0.3195  0.4152
    2TMC2    H514323   0.056   3.602  15.571  0.4641 -1.3243 -2.2059
    3MPD1     C14324   0.299   4.276  15.790  0.8322  0.3656 -0.2469
    3MPD1    C114325   0.223   4.211  15.699 -0.5460  0.2948 -0.0640
    3MPD1    C214326   0.207   4.075  15.698  0.1348  0.7957  0.1534
    3MPD1    C314327   0.269   4.002  15.799 -0.0131 -0.2800 -0.3281
    3MPD1    C414328   0.339   4.068  15.898  0.6781  0.1374  0.3976
    3MPD1    C514329   0.354   4.201  15.890 -0.2177  0.5630 -0.3691
    3MPD1     H14330   0.147   4.032  15.618  0.6392  0.8558 -0.2536
    3MPD1    H114331   0.387   4.024  15.984  0.9840 -1.3735 -0.5294
    3MPD1    H214332   0.316   4.383  15.784 -1.6395  0.9424  3.0365
    3MPD1    H314333   0.406   4.260  15.964 -2.7803 -0.2091  2.0352
    3MPD1     N14334   0.259   3.859  15.791 -0.5077 -0.0711 -0.6384
    3MPD1    H514335   0.208   3.810  15.718 -2.6116  0.0749  0.7313
    3MPD1    N114336   0.168   4.282  15.598  0.2072 -0.1752 -0.1052
    3MPD1    H614337   0.077   4.253  15.564  0.4399 -0.4244 -0.5322
    3MPD1    H714338   0.163   4.382  15.613 -1.1083 -0.3751  0.7059
    1TMC1    C114339   4.354   2.276  13.492 -0.3821  0.0585  0.3648
    1TMC1    C214340   4.368   2.202  13.611 -0.2752 -0.9419  0.4319
    1TMC1    C314341   4.272   2.113  13.643 -0.0062  0.1652  0.2173
    1TMC1    C414342   4.249   2.253  13.411  0.0583 -0.4593 -0.1311
    1TMC1    C514343   4.158   2.159  13.437 -0.4462  0.5396  0.5507
    1TMC1    C614344   4.168   2.093  13.559  0.3438  0.2882 -0.3664
    1TMC1     C14345   4.428   2.402  13.475  0.3332 -0.0034 -0.1431
    1TMC1     O14346   4.397   2.463  13.369 -1.0691 -1.0201  0.4626
    1TMC1     H14347   4.463   2.201  13.664  0.3446  0.4212 -0.6550
    1TMC1    H114348   4.234   2.319  13.326 -0.0643 -1.5395 -0.9483
    1TMC1    H214349   4.102   2.011  13.584  0.9705 -0.6465 -1.8155
    1TMC1    C714350   4.026   2.193  13.371 -0.0631 -0.5758  0.6253
    1TMC1    C814351   4.297   2.010  13.739  0.7579  0.1670  0.6315
    1TMC1    O114352   3.996   2.309  13.359 -0.0676 -0.2798 -0.9519
    1TMC1    O214353   4.372   1.915  13.723 -0.5086  0.1597 -0.1279
    1TMC1    O314354   3.944   2.095  13.392 -0.2437 -0.1684 -0.8040
    1TMC1    H314355   3.989   2.008  13.393 -0.9155 -0.5067 -0.2816
    1TMC1    O514356   4.278   2.074  13.852  0.0814  0.1010  0.1638
    1TMC1    H514357   4.230   2.159  13.842  0.2087  0.2672  0.9825
    2MPD2     C14358   4.572   2.674  13.514 -0.5394  0.2772  0.4089
    2MPD2    C114359   4.558   2.573  13.608 -1.0699  0.1926 -0.3738
    2MPD2    C214360   4.612   2.597  13.734 -0.3510  0.1654 -0.1634
    2MPD2    C314361   4.691   2.713  13.765 -0.0177 -0.2042  0.2603
    2MPD2    C414362   4.706   2.804  13.662  0.0960 -0.1759 -0.1583
    2MPD2    C514363   4.646   2.787  13.537  0.3883  0.0237 -0.2496
    2MPD2     H14364   4.606   2.509  13.796 -3.8580  0.7732  0.3210
    2MPD2    H114365   0.026   2.896  13.667  1.2712 -0.8959 -0.1457
    2MPD2    H214366   4.559   2.649  13.409 -1.0014 -1.4158  0.8766
    2MPD2    H314367   4.671   2.856  13.457  1.6332  1.1392  1.0748
    2MPD2     N14368   0.017   2.730  13.888  0.4091 -0.0750  0.2372
    2MPD2    H514369   4.733   2.657  13.955  0.4211 -1.5582 -1.3747
    2MPD2    N114370   4.489   2.448  13.588 -0.1323  0.5101 -0.1679
    2MPD2    H714371   4.484   2.385  13.668  1.2513  0.8008  0.1444
    3TCq1    O114372   0.346   2.920  14.459 -0.1323 -0.1667  0.1378
    3TCq1    C114373   0.291   2.972  14.351 -0.0864  0.7695 -0.4133
    3TCq1    O214374   0.307   3.085  14.308  0.6123  0.7383  0.2121
    3TCq1    C214375   0.269   2.855  14.259  0.0413  0.6665  0.0011
    3TCq1    C314376   0.239   2.728  14.315  0.4976  0.4307  0.3320
    3TCq1    C414377   0.189   2.639  14.231  0.1143 -0.5654  0.2909
    3TCq1    C514378   0.157   2.668  14.100  0.2855 -0.2174 -0.2247
    3TCq1    C614379   0.176   2.793  14.053  0.2438  0.2654 -0.2350
    3TCq1    C714380   0.229   2.892  14.134  0.3196  0.5581 -0.0534
    3TCq1    C814381   0.119   2.817  13.920  0.4129  0.4978 -0.6585
    3TCq1    O414382   0.166   2.910  13.855  0.6561  0.1681 -0.2932
    3TCq1    C914383   0.169   2.504  14.279  0.5127  0.5286 -0.2530
    3TCq1    O514384   0.132   2.411  14.195  0.0836  0.1001 -0.2009
    3TCq1    O614385   0.191   2.486  14.402  0.3391  0.4047  0.0868
    3TCq1    H114386   0.363   2.823  14.450  0.2807 -0.1489  0.7265
    3TCq1    H214387   0.267   2.700  14.416  0.6259 -3.2354 -0.7201
    3TCq1    H314388   0.115   2.585  14.043  0.6594 -0.9284  0.5423
    3TCq1    H414389   0.259   2.990  14.096 -1.6844 -0.2293 -3.6925
    1MPD2     C14390   3.915   3.468  15.104 -0.3630 -0.4991  0.4716
    1MPD2    C114391   3.850   3.350  15.157 -0.7046  0.2160 -0.1271
    1MPD2    C214392   3.911   3.258  15.239  0.0110 -0.6347  0.8941
    1MPD2    C314393   4.047   3.278  15.265  0.4448  0.8963 -0.9440
    1MPD2    C414394   4.112   3.390  15.221 -1.0170 -0.4613 -0.3245
    1MPD2    C514395   4.045   3.484  15.144 -0.3187 -0.2926 -0.2392
    1MPD2     H14396   3.864   3.163  15.263 -1.2677 -0.0449  0.7444
    1MPD2    H114397   4.209   3.423  15.256 -2.0905  0.9271  1.4100
    1MPD2    H214398   3.863   3.549  15.055 -1.3727 -0.5826  1.4092
    1MPD2    H314399   4.087   3.581  15.120  2.3091 -1.3548  0.1046
    1MPD2     N14400   4.126   3.180  15.338 -0.1482  0.0910 -0.2680
    1MPD2    H514401   4.225   3.204  15.340 -0.7802  2.8687 -2.0213
    1MPD2    N114402   3.725   3.309  15.117  0.5639 -0.3667 -0.4536
    1MPD2    H714403   3.683   3.229  15.161  2.1735 -0.6781  0.4935
    2TMC3    C114404   3.558   3.261  14.959 -0.1264  0.1006 -0.1892
    2TMC3    C214405   3.598   3.129  14.959  0.0488 -0.1757  0.2729
    2TMC3    C314406   3.509   3.030  14.930 -1.4034 -0.0652  0.0909
    2TMC3    C414407   3.434   3.300  14.924  0.2808  0.2210 -0.3747
    2TMC3    C514408   3.349   3.202  14.900 -0.1856  0.6180 -0.0169
    2TMC3    C614409   3.385   3.069  14.894  0.1163  0.4375  0.1293
    2TMC3     C14410   3.652   3.361  15.009  0.2304 -0.7485 -0.0105
    2TMC3     O14411   3.667   3.463  14.941  0.5143  0.6264 -0.5131
    2TMC3     H14412   3.704   3.111  14.973  0.0692  1.7952  2.5636
    2TMC3    H114413   3.409   3.404  14.942  1.2131  0.8545 -2.7650
    2TMC3    H214414   3.308   2.994  14.886  0.7145 -0.0519 -1.1802
    2TMC3    C714415   3.211   3.216  14.932  0.4472  0.0759  0.3722
    2TMC3    C814416   3.541   2.892  14.955 -0.4228 -0.5162 -0.0016
    2TMC3    O114417   3.138   3.122  14.903 -0.2862 -0.6643 -0.0400
    2TMC3    O214418   3.500   2.811  14.877 -0.6046 -0.0896  0.1061
    3TCq1    O114419   3.237   4.045  15.676  0.1557  0.0263 -0.6666
    3TCq1    C114420   3.225   3.913  15.659 -0.7892 -0.1726  0.1236
    3TCq1    O214421   3.319   3.843  15.622  0.0349 -0.0334 -0.5075
    3TCq1    C214422   3.090   3.858  15.660 -0.0544  0.0730  0.1450
    3TCq1    C314423   3.001   3.899  15.752 -0.5162 -0.7590 -0.6081
    3TCq1    C414424   2.884   3.833  15.762  0.4298 -0.3153 -0.1108
    3TCq1    C514425   2.846   3.750  15.660 -0.1415  0.3772 -0.1410
    3TCq1    C614426   2.939   3.700  15.571  0.3529 -0.2363 -0.0132
    3TCq1    C714427   3.062   3.752  15.574  0.4707 -0.0464 -0.6393
    3TCq1    C814428   2.899   3.584  15.483  0.0037 -1.1245  0.3919
    3TCq1    O414429   2.783   3.544  15.489  0.2401 -0.2816 -0.0762
    3TCq1    C914430   2.792   3.875  15.870  0.1147  0.2946 -0.7213
    3TCq1    O514431   2.845   3.933  15.963  0.0175  0.0703  0.2554
    3TCq1    O614432   2.675   3.827  15.870  0.5152 -0.0528 -0.3003
    3TCq1    H114433   3.152   4.093  15.682  0.3084  0.4517 -1.7812
    3TCq1    H214434   3.018   3.983  15.819  0.0758 -2.5865  1.5507
    3TCq1    H314435   2.748   3.704  15.658 -1.1232  2.4448  0.7286
    3TCq1    H414436   3.137   3.710  15.507  2.3902  0.4819  1.1791
    4MPD2     C14437   2.858   3.374  15.271  0.1988 -0.3696 -0.2586
    4MPD2    C114438   2.981   3.436  15.300  0.1591  0.4983  0.9695
    4MPD2    C214439   3.086   3.416  15.215  0.0987 -0.3628 -1.2480
    4MPD2    C314440   3.079   3.336  15.099 -0.5816  0.0120  0.5040
    4MPD2    C414441   2.959   3.282  15.070  0.4421 -0.4271  0.4355
    4MPD2    C514442   2.854   3.286  15.160  0.7937 -0.2173  0.7678
    4MPD2     H14443   3.185   3.447  15.247 -0.4122 -0.4157  0.3761
    4MPD2    H114444   2.946   3.247  14.968 -0.7036 -4.2134  1.8896
    4MPD2    H214445   2.768   3.397  15.327  0.6019  1.5377 -0.4134
    4MPD2    H314446   2.755   3.252  15.132  1.0328 -1.0815  0.9790
    4MPD2     N14447   3.188   3.327  15.012 -0.3348 -0.1794 -0.8580
    4MPD2    H514448   3.266   3.389  15.032 -1.0356  0.3121  0.3384
    4MPD2    N114449   3.001   3.534  15.402 -0.5619  0.2298 -0.0401
    4MPD2    H714450   3.092   3.578  15.401 -0.3794 -0.1572 -0.0508
    5TMC2    C114451   4.226   2.752  15.381  0.6146 -0.5448 -0.8128
    5TMC2    C214452   4.355   2.775  15.341  0.4564  0.2057 -0.7183
    5TMC2    C314453   4.406   2.901  15.358 -0.3073  0.4288  0.2120
    5TMC2    C414454   4.150   2.848  15.438  0.3571  0.2969  0.1829
    5TMC2    C514455   4.195   2.972  15.437  0.2409 -0.1486 -0.9163
    5TMC2    C614456   4.325   3.004  15.396 -1.2188 -0.0025  0.2715
    5TMC2     C14457   4.162   2.682  15.268  0.0717 -0.2478 -0.0243
    5TMC2     O14458   4.228   2.625  15.186 -0.1076 -0.0465 -0.6312
    5TMC2     H14459   4.419   2.704  15.290  1.3352  0.1459  0.4592
    5TMC2    H114460   4.051   2.826  15.476  0.1353 -0.6044 -0.8916
    5TMC2    H214461   4.369   3.102  15.412 -2.4475  0.4611  0.7871
    5TMC2    C714462   4.089   3.056  15.391 -0.9245  1.0165 -0.0903
    5TMC2    C814463   4.549   2.900  15.391 -0.2731 -0.2690  0.0328
    5TMC2    O114464   3.975   3.009  15.404  0.3290 -0.0887 -0.0880
    5TMC2    O214465   4.627   2.820  15.346  0.4605  0.0772  0.4604
    5TMC2    O514466   4.578   2.992  15.488  0.0209  0.5847 -0.1758
    5TMC2    H514467   4.515   3.057  15.526 -3.0363 -2.5491  0.1304
    6MPD2     C14468   3.758   2.678  14.953  0.1334  0.0214  0.0920
    6MPD2    C114469   3.739   2.780  15.048 -0.1277 -0.1278 -0.5995
    6MPD2    C214470   3.830   2.780  15.153 -0.0210 -0.4711 -0.5238
    6MPD2    C314471   3.941   2.703  15.152 -0.1802  0.6950  0.3964
    6MPD2    C414472   3.955   2.604  15.062 -0.1304 -0.1606  0.2649
    6MPD2    C514473   3.858   2.579  14.966 -0.2211  0.1920 -0.8169
    6MPD2     H14474   3.827   2.857  15.230  0.2298 -1.3269  0.3467
    6MPD2    H114475   4.045   2.544  15.063 -1.1018 -1.6189 -0.1379
    6MPD2    H214476   3.694   2.672  14.866  2.5854  0.5028 -1.7423
    6MPD2    H314477   3.868   2.498  14.894 -0.2359  1.7598 -2.5815
    6MPD2     N14478   4.037   2.737  15.249  0.0945  0.4534  0.4080
    6MPD2    H514479   4.006   2.815  15.307  1.9256  0.8481  0.8616
    6MPD2    N114480   3.644   2.876  15.047 -0.5402 -0.0675 -0.1098
    6MPD2    H714481   3.646   2.949  15.118  0.2625  1.1101 -1.3443
  945NH4     N114482   1.043   1.352  17.478  0.5473 -0.1841 -0.5736
  945NH4     H214483   0.967   1.283  17.498  1.5445 -1.6788 -1.8997
  945NH4     H314484   1.029   1.391  17.382 -3.5792 -0.1895 -0.0079
  945NH4     H414485   1.140   1.317  17.488  0.6274  0.7216  1.6872
  945NH4     H514486   1.033   1.430  17.546 -1.5417 -0.7656 -0.2110
  946SOD     NA14487   0.140   3.009  11.178  0.0599 -0.1157 -0.5075
  947SOD     NA14488   3.719   4.157  15.027  0.2969  0.1045  0.0050
  948SOD     NA14489   0.583   3.801  16.484 -0.3547 -0.4527 -0.6190
  949SOD     NA14490   1.785   0.498   7.729  0.0085  0.1131  0.4024
  950SOD     NA14491   1.846   3.956   5.488  0.1300 -0.0017 -0.0389
  951SOD     NA14492   1.049   0.794   7.379  0.2393 -0.0722 -0.1334
  952SOD     NA14493   0.113   3.610  14.208  0.1737  0.3523 -0.4071
  953SOL     OW14494   1.566   1.205   7.117 -0.4079 -0.6051  0.0682
  953SOL    HW114495   1.487   1.248   7.083  0.3217  0.3789 -0.3860
  953SOL    HW214496   1.605   1.178   7.034  2.1950  1.7333  0.5535
  954SOL     OW14497   2.505   1.962  12.978  0.1375  0.0454  0.2258
  954SOL    HW114498   2.587   1.942  13.024  0.8835  0.5151 -0.8994
  954SOL    HW214499   2.470   2.022  13.044  3.7885 -1.9263  3.9585
  955SOL     OW14500   2.596   0.108   7.211 -0.6785  0.0570 -0.2241
  955SOL    HW114501   2.527   0.147   7.266  1.2081  1.8368  0.8819
  955SOL    HW214502   2.626   0.038   7.268  2.6744  0.5841 -1.3568
  956SOL     OW14503   2.347   4.435   9.203 -0.1621 -0.2347  0.0839
  956SOL    HW114504   2.420   4.373   9.211  0.6764  0.3580 -3.1613
  956SOL    HW214505   2.375   4.499   9.268  0.4315 -1.9310  1.5140
  957SOL     OW14506   2.283   0.777   1.821 -0.3821 -0.0834 -0.3412
  957SOL    HW114507   2.203   0.823   1.797  1.0079  1.6675 -1.6276
  957SOL    HW214508   2.342   0.805   1.750  1.7598 -1.0729  1.0273
  958SOL     OW14509   1.090   1.521   4.435 -0.0111  0.0622 -0.0671
  958SOL    HW114510   1.117   1.594   4.491 -1.8948  0.4788  0.2913
  958SOL    HW214511   1.049   1.469   4.504  2.5093 -2.3188 -0.3316
  959SOL     OW14512   1.231   3.048   0.830  0.0163 -0.4490 -0.4637
  959SOL    HW114513   1.284   3.046   0.750  0.3687  0.7754 -0.2684
  959SOL    HW214514   1.295   3.029   0.899 -0.1183 -1.5986 -0.6547
  960SOL     OW14515   2.081   1.666   8.389 -0.1663  0.8275  0.1292
  960SOL    HW114516   2.096   1.610   8.313 -1.3568  1.2615 -0.4190
  960SOL    HW214517   1.991   1.696   8.381  0.2025  1.6776 -0.8854
  961SOL     OW14518   3.348   3.407   7.660 -0.4566  0.4517  0.0501
  961SOL    HW114519   3.304   3.472   7.714  0.3341  1.7329 -0.8426
  961SOL    HW214520   3.314   3.326   7.697  0.0984 -0.3882 -1.2727
  962SOL     OW14521   1.643   1.968   5.468 -0.3419 -0.0838 -0.3594
  962SOL    HW114522   1.708   2.027   5.504 -1.4077  0.4613  0.6755
  962SOL    HW214523   1.699   1.936   5.398 -1.0443  1.1674 -1.4887
  963SOL     OW14524   3.817   4.246   4.794  0.3941 -0.3632  0.1318
  963SOL    HW114525   3.799   4.281   4.882 -1.9233 -0.1356 -0.4409
  963SOL    HW214526   3.863   4.324   4.762  0.9568 -0.2780  1.1256
  964SOL     OW14527   4.110   0.619  14.897 -0.2215  0.8617 -0.3311
  964SOL    HW114528   4.062   0.702  14.901 -0.7921  0.5171 -0.0902
  964SOL    HW214529   4.124   0.623  14.802 -1.3742  0.0933 -0.5375
  965SOL     OW14530   1.727   3.803  16.147 -0.0359 -0.0864 -0.1252
  965SOL    HW114531   1.790   3.761  16.088  0.5574  1.7161 -0.7667
  965SOL    HW214532   1.789   3.817  16.218 -0.7735 -0.3700  0.5735
  966SOL     OW14533   2.923   0.197  11.942 -0.2696 -0.5197  0.5472
  966SOL    HW114534   3.011   0.203  11.903 -0.7670  1.0600 -0.3581
  966SOL    HW214535   2.935   0.258  12.015 -2.2382 -0.1736  0.5658
  967SOL     OW14536   2.001   1.585  15.681  0.4485  0.9622 -0.5726
  967SOL    HW114537   1.939   1.520  15.716  0.9055  0.2568 -1.0708
  967SOL    HW214538   2.037   1.532  15.610  0.0869 -1.8886  1.3574
  968SOL     OW14539   1.145   3.029  11.312  0.0845  0.2371  0.3543
  968SOL    HW114540   1.188   3.075  11.384  0.6351 -1.2988  1.0175
  968SOL    HW214541   1.093   3.100  11.276 -0.2751  0.0400  0.4769
  969SOL     OW14542   3.782   1.866   7.280  0.3262 -0.1219 -0.1669
  969SOL    HW114543   3.773   1.958   7.256 -0.5858 -0.1056  0.2428
  969SOL    HW214544   3.850   1.838   7.219  0.9705  0.2668  0.3623
  970SOL     OW14545   1.455   1.668   5.854 -0.0678  0.2036 -0.1393
  970SOL    HW114546   1.367   1.630   5.852 -0.2020  0.4260  1.2894
  970SOL    HW214547   1.456   1.731   5.782 -1.1861  0.4912  0.0999
  971SOL     OW14548   2.808   2.328   5.737  0.4204 -0.0386 -0.1513
  971SOL    HW114549   2.757   2.250   5.757  1.8909 -1.3224 -1.3398
  971SOL    HW214550   2.883   2.282   5.698  1.0591  1.6204 -0.9027
  972SOL     OW14551   3.090   2.893   4.169 -0.0610 -0.3910  0.2270
  972SOL    HW114552   3.096   2.843   4.251 -1.4518 -1.7346 -0.4808
  972SOL    HW214553   3.025   2.960   4.190  0.8665  0.6363 -0.1833
  973SOL     OW14554   3.845   1.717   9.239 -0.0344 -0.1265  0.1808
  973SOL    HW114555   3.831   1.625   9.259  0.5033 -0.1175  0.6024
  973SOL    HW214556   3.753   1.737   9.226 -0.3531  0.0717  2.8532
  974SOL     OW14557   0.449   0.718   8.915  0.0434  0.5848  0.0515
  974SOL    HW114558   0.377   0.728   8.977  0.5415 -2.1217  1.0584
  974SOL    HW214559   0.401   0.686   8.838  0.9370  0.8798 -0.6359
  975SOL     OW14560   4.182   3.372   5.621 -0.4012 -0.3693 -0.0387
  975SOL    HW114561   4.160   3.457   5.659 -0.3001 -0.0827 -0.6235
  975SOL    HW214562   4.189   3.399   5.529 -0.0003  1.1520  0.4456
  976SOL     OW14563   0.896   0.393   3.757 -0.4458 -0.3422 -0.3596
  976SOL    HW114564   0.841   0.468   3.778 -0.7289 -0.5295 -0.4358
  976SOL    HW214565   0.983   0.409   3.794 -0.0567 -1.5313 -0.7771
  977SOL     OW14566   3.743   1.405   5.218  0.1225 -0.0394 -0.2854
  977SOL    HW114567   3.715   1.378   5.130  0.6544  0.1485 -0.5132
  977SOL    HW214568   3.660   1.389   5.263 -0.1668 -1.5182 -1.3573
  978SOL     OW14569   1.486   1.576  17.067 -0.9635  0.1789  0.0659
  978SOL    HW114570   1.505   1.578  16.973  0.3454 -1.3166  0.2880
  978SOL    HW214571   1.557   1.518  17.096  0.7482  1.6142 -1.2668
  979SOL     OW14572   4.609   3.317   0.177  0.0150 -0.2536 -0.3184
  979SOL    HW114573   4.573   3.251   0.117 -2.2032  0.6240  0.0543
  979SOL    HW214574   4.626   3.264   0.255 -0.0990 -1.3827 -1.0591
  980SOL     OW14575   2.841   0.223   5.992 -0.0629 -0.3004 -0.1581
  980SOL    HW114576   2.764   0.204   6.045 -0.5282 -0.5162 -0.9059
  980SOL    HW214577   2.893   0.220   6.072 -0.0565 -1.9661 -0.2282
  981SOL     OW14578   3.828   1.139  13.588  0.1085 -0.0588  0.0915
  981SOL    HW114579   3.851   1.047  13.599 -2.5990 -1.0652 -2.7956
  981SOL    HW214580   3.854   1.190  13.665 -1.1101 -1.6055  1.5362
  982SOL     OW14581   4.625   4.721   8.486  0.4263 -0.5509  0.6284
  982SOL    HW114582   4.604   4.717   8.392 -1.5627  0.6435  1.0143
  982SOL    HW214583   4.564   4.653   8.516  0.8577 -0.8537  0.8132
  983SOL     OW14584   3.447   4.550   1.803  0.4951  0.2775 -0.2297
  983SOL    HW114585   3.467   4.642   1.820  2.1631 -0.1667  0.2650
  983SOL    HW214586   3.356   4.546   1.833 -0.3233  3.0119 -2.3337
  984SOL     OW14587   3.204   1.229  10.484  0.8350  0.4029  0.2219
  984SOL    HW114588   3.280   1.177  10.460 -0.0185 -1.5430  1.7917
  984SOL    HW214589   3.201   1.293  10.412  0.9551 -1.0016 -1.0250
  985SOL     OW14590   3.835   2.714   8.021 -0.3219 -0.2768  0.6044
  985SOL    HW114591   3.744   2.743   8.013 -0.5624 -1.2650 -0.1773
  985SOL    HW214592   3.838   2.651   8.092  1.5134  0.9282  1.6040
  986SOL     OW14593   1.935   1.813   4.652 -0.3950 -0.4047 -0.4541
  986SOL    HW114594   1.878   1.762   4.709  0.8194 -0.2452  0.8919
  986SOL    HW214595   1.995   1.744   4.625 -1.3056 -1.6922  0.8405
  987SOL     OW14596   2.951   0.927  10.792  0.0166 -0.1740 -0.6653
  987SOL    HW114597   2.992   1.012  10.808  1.5377 -1.2496  1.2205
  987SOL    HW214598   2.877   0.956  10.740 -1.6448 -1.3539  1.0641
  988SOL     OW14599   4.134   2.402   8.574  0.4046  0.4398 -0.2162
  988SOL    HW114600   4.185   2.477   8.603 -1.4107  1.0229  1.4763
  988SOL    HW214601   4.206   2.352   8.535  0.0926 -1.5305  1.7551
  989SOL     OW14602   0.188   3.572  11.560 -0.1368 -0.5191  0.8830
  989SOL    HW114603   0.210   3.663  11.582 -1.3339 -0.1566  0.5689
  989SOL    HW214604   0.150   3.580  11.472 -0.8448 -1.2898  1.1235
  990SOL     OW14605   2.759   1.772   8.442 -0.4119 -0.1311 -0.5846
  990SOL    HW114606   2.834   1.770   8.502  1.0587  0.8486 -2.3796
  990SOL    HW214607   2.780   1.694   8.390  1.4496 -1.6933  2.4969
  991SOL     OW14608   1.012   2.145  15.521 -0.1552  0.2902  0.5075
  991SOL    HW114609   1.000   2.072  15.581  0.6724  2.0124  2.8127
  991SOL    HW214610   1.045   2.209  15.585  2.1278  0.5351 -0.8873
  992SOL     OW14611   4.626   2.484   0.484 -0.1334  0.0931  0.4629
  992SOL    HW114612   4.542   2.511   0.447 -0.5350  1.0492  2.0642
  992SOL    HW214613   4.690   2.478   0.413  1.9352  1.8295  2.2028
  993SOL     OW14614   3.386   3.265   0.503  0.2855 -0.1764  0.5830
  993SOL    HW114615   3.473   3.276   0.464 -0.0069  3.5174  0.9580
  993SOL    HW214616   3.337   3.340   0.468 -2.1202 -2.3660 -0.6511
  994SOL     OW14617   2.927   0.311   7.379  0.0854 -0.1646 -0.1736
  994SOL    HW114618   2.951   0.401   7.360 -1.1500 -0.0781 -1.3594
  994SOL    HW214619   2.964   0.279   7.297  1.5144 -1.0857  0.8374
  995SOL     OW14620   0.480   2.035  13.638  0.6962  0.9864  0.1165
  995SOL    HW114621   0.517   2.032  13.727  1.5232 -0.5568 -0.2596
  995SOL    HW214622   0.551   2.073  13.587 -0.7971  1.3013 -1.7283
  996SOL     OW14623   3.582   1.822  14.856 -0.1669  0.3547 -1.0048
  996SOL    HW114624   3.508   1.874  14.888 -0.2655  0.4118 -1.3236
  996SOL    HW214625   3.535   1.779  14.785 -1.1988 -0.3452  0.1087
  997SOL     OW14626   2.387   4.160   9.535  0.2054 -0.0796 -0.3217
  997SOL    HW114627   2.293   4.170   9.552  0.3328 -1.2719  1.0309
  997SOL    HW214628   2.422   4.244   9.566  1.3179 -0.7007  0.0933
  998SOL     OW14629   1.678   4.047   0.622  0.0639  0.0197 -0.1220
  998SOL    HW114630   1.618   4.024   0.693 -0.6610 -1.5316 -1.2405
  998SOL    HW214631   1.656   3.972   0.568 -2.2990 -0.1764  1.1042
  999SOL     OW14632   3.202   2.568   3.808  0.0006 -0.0379  0.2916
  999SOL    HW114633   3.205   2.473   3.802  0.3361 -0.1069  1.4658
  999SOL    HW214634   3.214   2.588   3.901  0.6347 -3.6698  0.9838
 1000SOL     OW14635   0.393   3.587   6.956 -0.5981 -0.4876 -0.8490
 1000SOL    HW114636   0.372   3.494   6.959 -1.7676 -0.2375 -1.5315
 1000SOL    HW214637   0.487   3.576   6.972 -0.6164  0.8240  0.1727
 1001SOL     OW14638   2.961   4.637   8.552  0.0641 -0.0062 -0.2020
 1001SOL    HW114639   2.919   4.723   8.549 -0.7042 -0.3916 -0.3493
 1001SOL    HW214640   3.018   4.647   8.629 -1.4974 -1.3952  1.1501
 1002SOL     OW14641   2.009   4.424   6.895  0.2633  0.0947 -0.1278
 1002SOL    HW114642   2.010   4.482   6.972 -1.2261  0.0252 -0.0641
 1002SOL    HW214643   1.964   4.350   6.935  1.1866 -0.2657  0.2562
 1003SOL     OW14644   4.059   3.078   0.454 -0.0220 -0.6391  0.2415
 1003SOL    HW114645   4.030   3.099   0.365  0.2699  2.6534  0.9276
 1003SOL    HW214646   3.988   3.102   0.513  0.8389 -1.4037  1.5927
 1004SOL     OW14647   0.236   2.642   3.966 -0.7810 -0.2674 -0.3272
 1004SOL    HW114648   0.154   2.593   3.955 -1.4796  0.5548  1.2262
 1004SOL    HW214649   0.197   2.720   4.006 -0.6431 -0.0272 -0.6615
 1005SOL     OW14650   3.074   0.277   3.223  0.2300 -0.0825  0.1707
 1005SOL    HW114651   3.030   0.193   3.215  0.5549 -0.4539  2.2983
 1005SOL    HW214652   3.081   0.296   3.317 -0.1483  0.1720  0.1470
 1006SOL     OW14653   4.672   2.088   5.101 -0.2614  0.0143 -0.0599
 1006SOL    HW114654   4.679   2.166   5.157  1.1372 -0.6601  0.7292
 1006SOL    HW214655   4.660   2.138   5.021 -2.3853 -0.6731 -0.1595
 1007SOL     OW14656   0.063   1.767  15.652  0.6565 -0.0179  0.3556
 1007SOL    HW114657   4.722   1.797  15.700  0.2706  0.4153 -0.5534
 1007SOL    HW214658   0.136   1.806  15.701  1.5536  1.5660 -2.2226
 1008SOL     OW14659   4.474   4.173   7.175  0.2313  0.0001 -0.1536
 1008SOL    HW114660   4.389   4.191   7.217  0.1583  0.7550 -0.6304
 1008SOL    HW214661   4.531   4.134   7.241  0.3723  0.0059 -0.2718
 1009SOL     OW14662   1.994   1.262  10.044 -0.4495 -0.0890 -0.5323
 1009SOL    HW114663   2.005   1.179  10.091  0.6025  1.5746  2.1796
 1009SOL    HW214664   2.087   1.285  10.043 -0.5463  0.2386 -1.5473
 1010SOL     OW14665   2.623   3.601  12.561  0.6095  0.0604 -0.0074
 1010SOL    HW114666   2.703   3.563  12.526  0.4965  0.1020 -0.3057
 1010SOL    HW214667   2.585   3.642  12.483 -1.3397 -2.2058 -0.2659
 1011SOL     OW14668   3.102   3.935   7.024  0.1375 -0.2515 -0.1931
 1011SOL    HW114669   3.153   3.857   7.002  2.8269  1.5472 -0.3088
 1011SOL    HW214670   3.025   3.890   7.061  0.6915 -2.1287 -1.2908
 1012SOL     OW14671   0.522   2.864   7.362 -0.1681 -0.0137 -0.6069
 1012SOL    HW114672   0.460   2.886   7.432  0.3393  0.8798 -0.4279
 1012SOL    HW214673   0.492   2.910   7.284  0.1325  1.6440  0.2473
 1013SOL     OW14674   1.193   1.074   8.418  0.0351  0.6202  0.0810
 1013SOL    HW114675   1.266   1.129   8.388 -0.3673  0.6899 -0.7550
 1013SOL    HW214676   1.179   1.097   8.510 -0.5074  0.9804 -0.0947
 1014SOL     OW14677   2.348   0.263  11.347 -0.0858 -0.2219  0.3518
 1014SOL    HW114678   2.397   0.345  11.352 -1.8873  0.7159  2.6148
 1014SOL    HW214679   2.302   0.256  11.430 -2.4630  4.0625 -0.5952
 1015SOL     OW14680   0.204   2.902   0.624 -0.5387  0.3260  0.2286
 1015SOL    HW114681   0.161   2.934   0.703 -0.8656 -0.4399  0.3566
 1015SOL    HW214682   0.205   2.811   0.651 -0.8421  0.3726  0.3973
 1016SOL     OW14683   3.776   3.505   6.278 -0.5640  0.1613 -0.3047
 1016SOL    HW114684   3.862   3.536   6.250 -1.0742  2.0199  0.1455
 1016SOL    HW214685   3.794   3.412   6.290  0.8477  0.8138  2.8390
 1017SOL     OW14686   4.427   1.117   3.897 -0.1341 -0.0945 -0.1764
 1017SOL    HW114687   4.503   1.175   3.903  1.1729 -1.6407 -1.9708
 1017SOL    HW214688   4.438   1.062   3.820 -1.2574  0.9328 -1.0688
 1018SOL     OW14689   1.433   2.892  13.529  0.1857 -0.1502  0.0827
 1018SOL    HW114690   1.431   2.890  13.624  0.0746  0.8539  0.1049
 1018SOL    HW214691   1.452   2.984  13.512 -0.3646  0.1602  1.1569
 1019SOL     OW14692   4.713   3.665   8.342  0.0448  0.1544  0.7413
 1019SOL    HW114693   0.020   3.712   8.413  0.5326  0.3185  0.3388
 1019SOL    HW214694   4.714   3.739   8.282  0.3791 -2.5517 -2.6083
 1020SOL     OW14695   3.491   4.462   2.541 -0.4977 -0.4175 -0.0744
 1020SOL    HW114696   3.574   4.496   2.574 -0.4146  0.4620 -1.2044
 1020SOL    HW214697   3.476   4.526   2.472 -0.3917 -0.9828 -0.6169
 1021SOL     OW14698   3.002   1.103   9.075  0.1176  0.0359  0.1328
 1021SOL    HW114699   3.097   1.114   9.082  0.0361  0.0831  1.2560
 1021SOL    HW214700   2.987   1.043   9.002  1.8600  1.2885 -1.2533
 1022SOL     OW14701   3.150   1.031   3.816 -0.0675  0.0756 -0.4409
 1022SOL    HW114702   3.241   1.047   3.841 -0.1111  0.2342 -0.3827
 1022SOL    HW214703   3.146   1.101   3.751 -0.1709 -0.5007 -1.0437
 1023SOL     OW14704   3.091   3.358   5.177 -0.2493  0.3550  0.2180
 1023SOL    HW114705   3.138   3.316   5.250 -1.3559  1.8430  1.7926
 1023SOL    HW214706   3.158   3.351   5.109  1.5519  0.7047  1.9746
 1024SOL     OW14707   2.600   3.969   1.180 -0.4324 -0.7807  0.2275
 1024SOL    HW114708   2.664   3.921   1.127  0.5284  2.3484 -1.4451
 1024SOL    HW214709   2.642   3.981   1.266 -1.3991  0.0940  0.5671
 1025SOL     OW14710   3.655   2.596   5.842 -0.3063 -0.7540 -0.1939
 1025SOL    HW114711   3.703   2.563   5.918 -1.2359 -0.1676  0.6563
 1025SOL    HW214712   3.722   2.599   5.774  0.5919 -1.7157  0.6544
 1026SOL     OW14713   3.374   1.860   8.909  0.2461 -0.2097 -0.3459
 1026SOL    HW114714   3.395   1.953   8.911  2.3090 -0.6826  0.2079
 1026SOL    HW214715   3.420   1.825   8.985 -0.7218 -0.6452  0.0418
 1027SOL     OW14716   0.202   2.019   7.728 -0.3578  0.2985  0.3641
 1027SOL    HW114717   0.184   2.044   7.638  0.9715  0.7902  0.2313
 1027SOL    HW214718   0.295   2.040   7.716 -0.0971 -1.9165 -1.5685
 1028SOL     OW14719   2.920   0.334  14.296  0.4720  0.0121  0.0158
 1028SOL    HW114720   2.867   0.282  14.356 -0.5827 -0.6822 -1.5028
 1028SOL    HW214721   2.921   0.413  14.350  0.4298 -1.1426  1.6924
 1029SOL     OW14722   0.489   4.199   8.439 -0.0430 -0.2988  0.7744
 1029SOL    HW114723   0.525   4.222   8.524  0.3363  0.8382  0.3038
 1029SOL    HW214724   0.545   4.248   8.378  0.7908 -3.1434 -0.7699
 1030SOL     OW14725   0.030   4.053   2.105  0.3226  0.1033 -0.1439
 1030SOL    HW114726   0.089   4.047   2.180  1.0826 -1.1954 -0.8324
 1030SOL    HW214727   0.041   3.973   2.053  0.5317 -0.1196  0.2386
 1031SOL     OW14728   2.083   2.228   2.262 -0.7407  0.8142  0.0078
 1031SOL    HW114729   2.144   2.162   2.230  0.3789  1.5610  0.6147
 1031SOL    HW214730   2.100   2.300   2.201  1.6677  1.2264  1.1731
 1032SOL     OW14731   0.753   0.723   0.139 -0.4282 -0.5136  0.0844
 1032SOL    HW114732   0.804   0.803   0.155 -0.9532 -0.2358  0.3887
 1032SOL    HW214733   0.730   0.685   0.224 -0.2974  1.9521  1.2129
 1033SOL     OW14734   3.507   0.700   1.464  0.3577  0.1023 -0.2407
 1033SOL    HW114735   3.591   0.716   1.508 -0.3717 -0.8042  1.4459
 1033SOL    HW214736   3.538   0.637   1.398 -1.7113 -3.0943  1.8502
 1034SOL     OW14737   2.193   0.453   2.417 -0.0679  0.2241  0.2748
 1034SOL    HW114738   2.109   0.444   2.372  0.4646 -2.3587 -0.2006
 1034SOL    HW214739   2.246   0.511   2.363  0.8923 -0.2960  0.6720
 1035SOL     OW14740   0.509   2.443   8.695  0.0912  0.2670 -0.0023
 1035SOL    HW114741   0.422   2.467   8.728  0.6525 -0.2686  1.8449
 1035SOL    HW214742   0.487   2.358   8.657  1.0282 -0.9787  2.2009
 1036SOL     OW14743   0.147   4.202   3.374 -0.0758 -0.1579  0.2883
 1036SOL    HW114744   0.202   4.131   3.341 -1.6911 -0.9587 -0.6929
 1036SOL    HW214745   0.207   4.273   3.394  0.2411 -0.8180  1.6633
 1037SOL     OW14746   2.286   1.503   3.108  0.5042  0.4804 -0.4046
 1037SOL    HW114747   2.329   1.569   3.055  0.8053 -0.6913 -1.6171
 1037SOL    HW214748   2.289   1.432   3.044  2.4150  0.6853 -0.5390
 1038SOL     OW14749   2.334   1.245   6.092  0.2941 -0.1477  0.6352
 1038SOL    HW114750   2.311   1.171   6.149 -1.7887  0.5819  0.7277
 1038SOL    HW214751   2.257   1.266   6.040  0.8097  0.0368 -0.0562
 1039SOL     OW14752   2.930   3.016  13.618 -0.1331  0.1960  0.3817
 1039SOL    HW114753   3.011   3.021  13.669  0.9013 -0.6920 -1.1695
 1039SOL    HW214754   2.885   2.954  13.675  2.6710 -0.6194  1.7249
 1040SOL     OW14755   3.869   3.473   1.065  0.9370 -0.1407 -0.3401
 1040SOL    HW114756   3.915   3.390   1.057  0.3032 -0.4062 -1.2714
 1040SOL    HW214757   3.927   3.541   1.098 -1.6210  0.8626  2.1031
 1041SOL     OW14758   3.025   4.340   5.631 -0.0544 -0.0057  0.2604
 1041SOL    HW114759   3.048   4.432   5.613 -2.5147  0.7925  1.1870
 1041SOL    HW214760   3.112   4.300   5.631  0.0596  0.2317 -0.6452
 1042SOL     OW14761   1.669   2.384   5.782 -0.5214  0.6373  0.4354
 1042SOL    HW114762   1.641   2.294   5.797 -0.2200  0.4279 -0.2657
 1042SOL    HW214763   1.683   2.409   5.874  0.4002  0.9340  0.2176
 1043SOL     OW14764   1.237   0.779   9.027 -0.3433  0.3342 -0.2296
 1043SOL    HW114765   1.255   0.873   9.035  1.2691 -0.2215  2.5995
 1043SOL    HW214766   1.152   0.766   9.067 -1.0538  1.0180 -1.5094
 1044SOL     OW14767   0.893   3.686   0.667  0.6028  0.0460 -0.0981
 1044SOL    HW114768   0.808   3.660   0.700  0.9596  1.6682  2.1605
 1044SOL    HW214769   0.946   3.613   0.699  0.8474  1.0947  1.9277
 1045SOL     OW14770   3.444   1.944   4.486 -0.1884 -0.1102 -0.1852
 1045SOL    HW114771   3.359   1.973   4.453  0.8703  2.4645 -0.6581
 1045SOL    HW214772   3.469   1.893   4.409 -1.7885  1.4477 -1.7114
 1046SOL     OW14773   2.416   2.718   7.129 -0.1586  0.4455 -0.5303
 1046SOL    HW114774   2.429   2.711   7.034  2.0139  2.7519 -0.4125
 1046SOL    HW214775   2.478   2.787   7.153  0.2359 -0.0793 -0.0485
 1047SOL     OW14776   1.453   0.352   1.804  0.0510 -0.4937  0.0823
 1047SOL    HW114777   1.362   0.327   1.822 -0.5862  2.6796  1.3694
 1047SOL    HW214778   1.436   0.430   1.751 -0.6451  0.1063  1.1863
 1048SOL     OW14779   1.131   3.630   4.862  0.2111  0.1557 -0.4787
 1048SOL    HW114780   1.205   3.690   4.868 -0.3749  0.8417 -0.0508
 1048SOL    HW214781   1.137   3.585   4.947  0.4723  1.1711  0.0380
 1049SOL     OW14782   4.722   1.063   7.935 -0.5126 -0.5199 -0.2685
 1049SOL    HW114783   4.703   1.155   7.953 -1.7304 -0.7695 -0.2380
 1049SOL    HW214784   4.670   1.014   7.999  0.7063  0.3586  1.3785
 1050SOL     OW14785   1.172   3.086   7.364  0.1744  0.2079 -0.1365
 1050SOL    HW114786   1.108   3.039   7.419 -0.8231  0.5204 -1.0307
 1050SOL    HW214787   1.109   3.151   7.331  0.1144 -0.0877 -0.6006
 1051SOL     OW14788   3.672   4.359  14.922  0.2777  0.0342 -0.2467
 1051SOL    HW114789   3.677   4.356  14.826 -3.0727 -0.4387 -0.4123
 1051SOL    HW214790   3.637   4.448  14.933  1.0010  0.3661 -0.6207
 1052SOL     OW14791   3.752   2.896   5.946  0.3300 -0.4508 -0.2220
 1052SOL    HW114792   3.690   2.823   5.951  0.0318  0.0029  2.8705
 1052SOL    HW214793   3.699   2.951   5.889 -2.7292 -1.9017  1.1933
 1053SOL     OW14794   3.654   2.979   8.340 -0.1295  0.5518  0.6631
 1053SOL    HW114795   3.730   3.035   8.353 -0.3603  1.0079  0.0500
 1053SOL    HW214796   3.700   2.898   8.359 -0.4000  0.5557  1.3488
 1054SOL     OW14797   1.376   0.192   0.091  0.2711 -0.3526  0.3821
 1054SOL    HW114798   1.340   0.251   0.025  0.1096 -0.6471  0.2070
 1054SOL    HW214799   1.292   0.156   0.119  0.2965 -1.0909 -0.5114
 1055SOL     OW14800   2.964   4.732  12.333  0.1831 -0.0945 -0.6765
 1055SOL    HW114801   2.978   4.675  12.408 -0.1168  1.1127  0.2919
 1055SOL    HW214802   3.048   4.729  12.287 -0.3628 -0.1292 -1.6763
 1056SOL     OW14803   2.242   4.289   8.038 -0.0441  0.4637 -0.5601
 1056SOL    HW114804   2.278   4.203   8.015 -2.3062 -0.2094 -1.5803
 1056SOL    HW214805   2.238   4.289   8.134  1.2626  1.6072 -0.5182
 1057SOL     OW14806   3.787   4.368   3.095  0.3573 -0.1621  0.4914
 1057SOL    HW114807   3.810   4.383   3.004 -2.7979  2.4620  0.1277
 1057SOL    HW214808   3.718   4.433   3.108  1.1720  1.0070 -1.1239
 1058SOL     OW14809   1.758   4.499   8.983  0.7713 -0.0610 -0.3169
 1058SOL    HW114810   1.789   4.566   9.044  0.0756 -0.6926  0.7236
 1058SOL    HW214811   1.720   4.557   8.917 -0.5047  0.1552  0.6068
 1059SOL     OW14812   1.100   2.126   4.445  0.5589  0.4808 -0.4415
 1059SOL    HW114813   1.017   2.089   4.477  0.4475  2.2501  1.3060
 1059SOL    HW214814   1.142   2.046   4.413  1.7384  0.7654  0.3801
 1060SOL     OW14815   4.214   2.671   5.822  0.4973 -0.3950  0.1027
 1060SOL    HW114816   4.127   2.686   5.860  1.0800  1.2148  0.7873
 1060SOL    HW214817   4.191   2.681   5.730  1.5686  0.3255 -0.0762
 1061SOL     OW14818   4.679   0.809   6.515  0.5730  0.1166 -0.1229
 1061SOL    HW114819   0.006   0.739   6.525  1.0642  0.8694  2.0633
 1061SOL    HW214820   4.666   0.834   6.607  2.8433 -0.6090  0.3912
 1062SOL     OW14821   4.379   0.274  16.074  0.9838 -0.0076  0.4646
 1062SOL    HW114822   4.406   0.364  16.060  0.7200 -0.2106 -1.3397
 1062SOL    HW214823   4.459   0.223  16.061  1.6276  1.3238 -0.8039
 1063SOL     OW14824   3.591   2.879   1.040  0.3645  1.1362  0.1095
 1063SOL    HW114825   3.674   2.888   1.085  0.6324  2.0466 -0.5698
 1063SOL    HW214826   3.542   2.958   1.063  0.2673  0.5991  1.7431
 1064SOL     OW14827   3.240   0.945   3.192  0.0768 -0.2774  0.1990
 1064SOL    HW114828   3.329   0.933   3.225 -0.1574 -1.0934  0.5255
 1064SOL    HW214829   3.248   1.038   3.169  0.0187 -0.4960 -0.7199
 1065SOL     OW14830   2.752   0.081  13.562  0.2005 -0.2361 -0.3834
 1065SOL    HW114831   2.838   0.039  13.569  0.4889  0.0654 -2.1939
 1065SOL    HW214832   2.771   0.143  13.492 -1.5998 -0.2945 -0.9108
 1066SOL     OW14833   0.160   0.516  10.484  0.2109  0.0700 -0.0405
 1066SOL    HW114834   0.236   0.462  10.462  1.1253  1.4737 -0.3384
 1066SOL    HW214835   0.104   0.469  10.545  2.4248 -2.6230 -0.0708
 1067SOL     OW14836   4.189   0.167   1.101  0.1686 -0.8117 -0.0868
 1067SOL    HW114837   4.271   0.194   1.059  0.4231 -0.7966  0.4266
 1067SOL    HW214838   4.169   0.092   1.045  1.9171 -1.4101  0.0641
 1068SOL     OW14839   3.542   0.853   9.861 -0.0988 -0.3322 -0.4909
 1068SOL    HW114840   3.548   0.790   9.933 -1.4006  1.1034  0.9082
 1068SOL    HW214841   3.456   0.843   9.821 -0.4482 -0.9318  0.4029
 1069SOL     OW14842   2.229   1.039   5.859  0.4722 -0.0141 -0.1370
 1069SOL    HW114843   2.190   1.012   5.775 -1.4054 -1.1383  1.0977
 1069SOL    HW214844   2.156   1.085   5.901  0.5866  0.6994 -0.7218
 1070SOL     OW14845   2.401   4.274  11.633  0.1432 -0.3095 -0.0475
 1070SOL    HW114846   2.483   4.240  11.595  0.9636  0.2071  1.2629
 1070SOL    HW214847   2.363   4.328  11.563  0.7218 -0.3503 -0.3979
 1071SOL     OW14848   0.245   0.253   8.164  0.0899  0.1504  0.5773
 1071SOL    HW114849   0.290   0.204   8.095  0.1161  1.6427 -0.4635
 1071SOL    HW214850   0.303   0.218   8.232  1.4103 -1.3843 -1.2929
 1072SOL     OW14851   3.003   2.886   7.299  0.4945 -0.3102 -0.1237
 1072SOL    HW114852   2.943   2.943   7.347 -0.6652 -0.3054 -1.5942
 1072SOL    HW214853   2.941   2.862   7.231 -0.1278 -0.4466  0.4870
 1073SOL     OW14854   0.555   1.972  15.516 -0.1040 -0.3027  0.5403
 1073SOL    HW114855   0.519   1.970  15.428  1.7610 -2.0937 -0.1618
 1073SOL    HW214856   0.531   2.062  15.543  1.7834  1.2129 -2.9217
 1074SOL     OW14857   2.771   3.347   2.038  0.8818 -0.5050  0.4798
 1074SOL    HW114858   2.772   3.400   1.959  0.7181  0.9940  1.4808
 1074SOL    HW214859   2.757   3.408   2.111 -1.7970  1.6759 -1.8856
 1075SOL     OW14860   0.194   2.356  16.044  0.1102 -0.1156  0.2774
 1075SOL    HW114861   0.168   2.264  16.041 -0.1634 -0.0851  1.7337
 1075SOL    HW214862   0.251   2.361  15.967  0.0010  1.3703  0.2932
 1076SOL     OW14863   1.193   0.263   6.505 -0.0630 -0.6487 -0.1484
 1076SOL    HW114864   1.212   0.183   6.456 -0.3402 -0.5900 -0.3495
 1076SOL    HW214865   1.257   0.259   6.576 -0.5488 -0.5279  0.3000
 1077SOL     OW14866   0.582   0.992   0.666  0.8489 -0.2867 -1.0566
 1077SOL    HW114867   0.567   0.904   0.699 -0.6085  0.8751  1.3714
 1077SOL    HW214868   0.541   1.050   0.730  1.9619 -1.9339  1.1321
 1078SOL     OW14869   1.266   2.745   7.640 -0.1867 -0.1354  0.4266
 1078SOL    HW114870   1.351   2.708   7.617 -0.4822 -0.1891 -0.5812
 1078SOL    HW214871   1.286   2.823   7.693  0.3489 -0.9889  1.4777
 1079SOL     OW14872   1.009   4.366   6.190  0.0602  0.3853  0.0121
 1079SOL    HW114873   0.954   4.418   6.132 -1.1144 -0.2968  0.5219
 1079SOL    HW214874   0.969   4.283   6.166 -0.0478  1.0591 -2.1732
 1080SOL     OW14875   2.767   3.989   4.043  0.5088  0.1427 -0.3358
 1080SOL    HW114876   2.859   3.969   4.062  0.1602  0.6344  1.8486
 1080SOL    HW214877   2.768   4.069   3.991  0.0430  0.1472 -0.3363
 1081SOL     OW14878   3.918   0.535   2.020  0.2765 -0.6195 -0.8042
 1081SOL    HW114879   3.864   0.472   2.067  0.8577 -0.6738 -0.2222
 1081SOL    HW214880   3.866   0.615   2.020  2.2664  0.6528  3.5000
 1082SOL     OW14881   0.915   3.499   1.969  0.0337  0.5967 -0.1367
 1082SOL    HW114882   0.847   3.458   1.916 -1.0932  0.3336  1.5146
 1082SOL    HW214883   0.918   3.459   2.056  2.3988  1.4877  0.1901
 1083SOL     OW14884   4.553   1.648   5.946 -0.4989 -0.3338  0.3433
 1083SOL    HW114885   4.504   1.570   5.920 -0.1621 -0.7414  0.9401
 1083SOL    HW214886   4.642   1.615   5.957 -0.2898  0.2882  0.4781
 1084SOL     OW14887   0.432   3.554   7.457  0.2870  0.5638  0.2975
 1084SOL    HW114888   0.519   3.557   7.419  0.2245 -1.8814 -0.0456
 1084SOL    HW214889   0.393   3.612   7.392  0.5256 -0.5748 -0.8516
 1085SOL     OW14890   2.180   1.373   7.015 -0.4908  0.5433  0.0770
 1085SOL    HW114891   2.262   1.346   6.974 -1.7004 -4.1895  0.7503
 1085SOL    HW214892   2.200   1.361   7.108  1.2652  0.5821 -0.2848
 1086SOL     OW14893   2.934   0.647  14.383  0.0852 -0.2919  0.5031
 1086SOL    HW114894   2.976   0.627  14.466 -1.7306  0.4693  1.6078
 1086SOL    HW214895   2.886   0.728  14.403  0.3535  0.3442 -1.4397
 1087SOL     OW14896   0.083   2.041   4.308 -0.0007  0.0510 -0.0861
 1087SOL    HW114897   4.726   2.052   4.289 -0.6796 -0.6974  2.7925
 1087SOL    HW214898   0.109   2.033   4.217 -0.7053  3.0345 -0.5644
 1088SOL     OW14899   1.748   2.548   7.778  0.0599  0.0335 -0.0276
 1088SOL    HW114900   1.722   2.527   7.868  0.7146  2.3627  0.7038
 1088SOL    HW214901   1.790   2.464   7.757 -0.0437  0.4734 -1.9544
 1089SOL     OW14902   2.379   3.716   7.611 -0.1724  0.4829 -0.3305
 1089SOL    HW114903   2.332   3.784   7.660 -0.4091 -1.0097  1.5034
 1089SOL    HW214904   2.339   3.637   7.649  1.3826 -0.7065 -1.2167
 1090SOL     OW14905   1.675   0.532   2.541 -0.3501  0.0929 -0.1067
 1090SOL    HW114906   1.675   0.519   2.446  1.5570 -2.8893  0.3086
 1090SOL    HW214907   1.700   0.446   2.574 -0.6522  0.2394  0.5074
 1091SOL     OW14908   1.532   2.900  13.071 -0.4883  0.1903  0.0712
 1091SOL    HW114909   1.444   2.940  13.066 -0.5722  0.0536  0.4811
 1091SOL    HW214910   1.584   2.971  13.109 -2.2272  1.2084  0.5805
 1092SOL     OW14911   2.498   3.005   5.039 -0.1090 -0.3798 -0.1109
 1092SOL    HW114912   2.560   3.024   5.109 -0.4297  0.0187  0.0673
 1092SOL    HW214913   2.486   3.094   5.005  1.8029  0.2835  0.9664
 1093SOL     OW14914   0.061   3.126  17.646  0.5420 -0.0094  0.2794
 1093SOL    HW114915   0.117   3.103  17.571  1.1690  1.2402  0.3595
 1093SOL    HW214916   0.071   3.043  17.691 -2.9959 -1.2229 -1.1966
 1094SOL     OW14917   4.720   4.415   3.793  0.4924 -0.1870 -0.1021
 1094SOL    HW114918   4.730   4.456   3.707  0.3492 -1.0479 -0.5327
 1094SOL    HW214919   4.635   4.372   3.789 -0.4895  1.6695  1.2348
 1095SOL     OW14920   1.867   2.948   9.689  0.0273 -0.7340 -0.1505
 1095SOL    HW114921   1.772   2.952   9.696  0.0136 -1.1278 -0.1319
 1095SOL    HW214922   1.893   2.968   9.599  0.5510  1.6424  0.5203
 1096SOL     OW14923   0.360   2.930  16.656 -0.0692 -0.1105 -0.1538
 1096SOL    HW114924   0.306   2.876  16.713 -0.0188  2.9663  2.8133
 1096SOL    HW214925   0.428   2.865  16.639 -0.1328 -0.0335 -0.7001
 1097SOL     OW14926   2.225   4.542  13.161  0.0498  0.8048 -0.0547
 1097SOL    HW114927   2.169   4.605  13.207  0.9222  1.9780 -0.6155
 1097SOL    HW214928   2.296   4.524  13.222  0.6996  0.4109 -0.9269
 1098SOL     OW14929   2.923   1.405   1.310  0.4204 -0.3525 -0.0933
 1098SOL    HW114930   2.934   1.311   1.320  1.5511 -0.1021  0.8692
 1098SOL    HW214931   2.974   1.441   1.382  0.7106  0.4762 -0.7085
 1099SOL     OW14932   2.114   2.817   4.545 -0.6749 -0.2786  0.3978
 1099SOL    HW114933   2.046   2.845   4.483 -0.1500  0.9629  0.3890
 1099SOL    HW214934   2.059   2.796   4.621 -2.7426 -0.6831 -1.2139
 1100SOL     OW14935   0.234   4.029   4.403 -0.1481  0.0993  0.7726
 1100SOL    HW114936   0.228   4.121   4.426  0.1161  0.0592  0.9870
 1100SOL    HW214937   0.220   3.983   4.485  1.3909 -1.0767  0.3740
 1101SOL     OW14938   4.626   0.615  17.717 -0.4742  0.3170 -0.2656
 1101SOL    HW114939   4.645   0.674  17.644 -2.9428 -0.3211 -1.4395
 1101SOL    HW214940   4.531   0.632  17.718 -0.6954 -0.8294 -1.6858
 1102SOL     OW14941   2.102   3.419  15.482  1.1848  0.1990  0.4395
 1102SOL    HW114942   2.055   3.380  15.407  0.5455  1.4013  0.2104
 1102SOL    HW214943   2.189   3.436  15.446  0.5709 -0.2363 -1.2684
 1103SOL     OW14944   2.208   1.659   6.512  0.6287  0.0844 -0.2288
 1103SOL    HW114945   2.143   1.713   6.466  1.5770  0.0490 -1.6348
 1103SOL    HW214946   2.228   1.723   6.580 -2.2681  1.4799 -0.7114
 1104SOL     OW14947   4.392   2.393   8.992 -0.5277 -0.0865  0.3401
 1104SOL    HW114948   4.366   2.309   8.956 -1.6758  0.5231 -0.2407
 1104SOL    HW214949   4.415   2.443   8.913 -1.8996 -1.2583 -0.8050
 1105SOL     OW14950   2.809   2.101   2.882 -0.3236 -0.1447  0.4501
 1105SOL    HW114951   2.904   2.117   2.881 -0.4492  0.6965  1.8311
 1105SOL    HW214952   2.779   2.179   2.835  1.5902  0.5146  0.3131
 1106SOL     OW14953   3.391   4.539   9.220 -0.2200  0.8963  0.3645
 1106SOL    HW114954   3.447   4.569   9.291 -0.4003  2.2575 -0.0610
 1106SOL    HW214955   3.449   4.480   9.171 -0.5426  1.0309 -0.1824
 1107SOL     OW14956   2.834   1.369   7.090 -0.0806 -0.2413 -0.4015
 1107SOL    HW114957   2.850   1.448   7.040  0.1613 -0.4888 -0.7137
 1107SOL    HW214958   2.845   1.313   7.013  0.7029 -1.4725  0.6107
 1108SOL     OW14959   2.137   3.127   7.726 -0.2143 -0.0305  0.0430
 1108SOL    HW114960   2.046   3.116   7.753  0.0557  0.3626  1.0974
 1108SOL    HW214961   2.188   3.114   7.806  0.6222  0.7832 -0.3533
 1109SOL     OW14962   2.175   1.357   1.930  0.7812 -0.9964  0.4338
 1109SOL    HW114963   2.120   1.398   1.862  1.4975 -0.2387  0.3032
 1109SOL    HW214964   2.132   1.406   2.001  1.9748 -0.5114  0.8177
 1110SOL     OW14965   1.483   0.604   7.319 -0.0568  0.2056  0.2145
 1110SOL    HW114966   1.493   0.574   7.229  1.8618 -0.6945  0.7374
 1110SOL    HW214967   1.445   0.692   7.310  0.6978  0.3562 -1.4912
 1111SOL     OW14968   0.657   4.629  15.042 -0.2537 -0.7965  0.1647
 1111SOL    HW114969   0.709   4.576  14.982 -0.6356 -0.4478 -0.4704
 1111SOL    HW214970   0.631   4.563  15.107  1.7658  0.0519  1.8268
 1112SOL     OW14971   2.641   3.564   9.026  0.4043 -0.2337  0.5456
 1112SOL    HW114972   2.719   3.522   9.061  0.5918  0.6687  1.2117
 1112SOL    HW214973   2.670   3.655   9.022  2.2105 -0.8660 -0.3741
 1113SOL     OW14974   2.759   2.063   6.745 -0.3505  0.5264 -0.4508
 1113SOL    HW114975   2.787   2.136   6.799  1.6835  0.5527 -1.5258
 1113SOL    HW214976   2.711   2.002   6.802 -2.1579  1.1424 -1.3046
 1114SOL     OW14977   3.874   3.213   0.621 -0.5807 -0.0007 -0.1258
 1114SOL    HW114978   3.791   3.217   0.667 -0.6180 -1.6592 -0.0372
 1114SOL    HW214979   3.930   3.285   0.650  0.4324 -1.2189  0.9926
 1115SOL     OW14980   2.430   1.520   6.477 -0.0230 -0.7496  0.1957
 1115SOL    HW114981   2.433   1.477   6.391 -2.4640 -1.4202  0.4664
 1115SOL    HW214982   2.345   1.561   6.488  1.3755  1.4071  2.9267
 1116SOL     OW14983   1.957   0.055   4.291 -0.7289  0.1819  0.5905
 1116SOL    HW114984   2.031   0.100   4.251 -1.5012  1.7729  0.9334
 1116SOL    HW214985   1.920   0.025   4.208  0.0252  0.6574  0.0837
 1117SOL     OW14986   2.524   2.000   6.263 -0.6047 -0.7304  0.3746
 1117SOL    HW114987   2.441   1.953   6.273 -1.8700  1.3020 -0.4663
 1117SOL    HW214988   2.583   1.931   6.292  0.7323  0.3772  0.2891
 1118SOL     OW14989   2.120   1.069  11.597  0.7443  0.2793 -0.0040
 1118SOL    HW114990   2.181   1.046  11.527 -0.7117 -0.0779 -1.1598
 1118SOL    HW214991   2.095   0.984  11.633 -1.3211  1.4033  1.2414
 1119SOL     OW14992   2.508   2.062   9.179 -0.1359  0.7631  0.3641
 1119SOL    HW114993   2.497   2.109   9.096  0.3219 -0.4812 -0.4007
 1119SOL    HW214994   2.603   2.057   9.188 -0.4669 -2.0453  2.1795
 1120SOL     OW14995   4.409   0.718   6.647  0.0455 -0.1914 -0.0087
 1120SOL    HW114996   4.336   0.779   6.658  0.2985  0.2428 -0.7243
 1120SOL    HW214997   4.411   0.716   6.552 -2.1931 -2.5159 -0.0198
 1121SOL     OW14998   1.427   2.968   8.561 -0.2031 -0.0296 -0.4280
 1121SOL    HW114999   1.513   2.927   8.555  0.0854  0.5278 -0.0870
 1121SOL    HW215000   1.393   2.999   8.477 -1.9423 -0.9451 -0.0436
 1122SOL     OW15001   4.383   0.111   3.793  0.5044  0.1071  0.7048
 1122SOL    HW115002   4.308   0.060   3.762  1.5043 -1.0155  0.1114
 1122SOL    HW215003   4.443   0.055   3.842  0.1409 -0.1864  0.8177
 1123SOL     OW15004   0.605   0.160   5.736  0.6772 -0.0231  0.2321
 1123SOL    HW115005   0.512   0.154   5.759  0.3834  0.3805 -0.8690
 1123SOL    HW215006   0.601   0.193   5.647  0.1308 -0.4787  0.0870
 1124SOL     OW15007   2.178   2.127   5.804  0.1294 -0.3960  0.5287
 1124SOL    HW115008   2.142   2.154   5.889 -1.3583  2.1897 -0.9501
 1124SOL    HW215009   2.178   2.210   5.757 -1.0771 -0.5409  0.2613
 1125SOL     OW15010   1.678   2.856   6.320 -0.7482  0.4683  0.2889
 1125SOL    HW115011   1.690   2.951   6.326  2.7208  0.0836 -0.7293
 1125SOL    HW215012   1.767   2.832   6.295 -0.6903 -0.3688  1.2692
 1126SOL     OW15013   1.830   4.216   3.472  0.0237  0.3002  0.1646
 1126SOL    HW115014   1.888   4.179   3.537  0.5711 -0.4093 -0.7296
 1126SOL    HW215015   1.871   4.298   3.445 -2.5698  0.9696 -1.7655
 1127SOL     OW15016   2.421   4.491  13.609 -0.3721 -0.5427 -0.3993
 1127SOL    HW115017   2.398   4.503  13.517  1.1720  1.6421 -0.4943
 1127SOL    HW215018   2.364   4.562  13.637  1.8867  0.9424  0.4735
 1128SOL     OW15019   0.236   3.501   5.148 -0.4282 -0.1064 -0.2751
 1128SOL    HW115020   0.281   3.586   5.158  0.0975 -0.5572  1.1828
 1128SOL    HW215021   0.174   3.502   5.221  1.3109  2.1550  1.1921
 1129SOL     OW15022   3.101   1.228  15.683  0.0369  0.4094  0.4874
 1129SOL    HW115023   3.190   1.193  15.677  0.5786  2.1407 -1.5760
 1129SOL    HW215024   3.064   1.169  15.616  1.3550 -0.3147  0.3924
 1130SOL     OW15025   1.432   0.804   7.637  0.1308  0.7891  0.0635
 1130SOL    HW115026   1.476   0.783   7.555  1.6881  1.4965  0.7193
 1130SOL    HW215027   1.345   0.829   7.605  0.8286  1.0685 -1.6100
 1131SOL     OW15028   3.307   4.378  14.838  0.1841  0.2298 -0.3396
 1131SOL    HW115029   3.288   4.409  14.926 -0.4408 -0.3508 -0.2668
 1131SOL    HW215030   3.355   4.459  14.822 -0.8766  0.7825 -0.6865
 1132SOL     OW15031   1.909   4.681   2.835  0.0971 -0.6262  0.7509
 1132SOL    HW115032   1.925   4.648   2.746  0.0184 -0.0289  0.5165
 1132SOL    HW215033   1.949   4.608   2.882  1.8053  0.0554  0.3526
 1133SOL     OW15034   3.978   1.085   7.379  0.5940 -0.4876 -0.3309
 1133SOL    HW115035   3.890   1.119   7.394 -0.1876 -1.7877 -1.9433
 1133SOL    HW215036   3.998   1.128   7.295 -3.7251  0.2625 -0.9545
 1134SOL     OW15037   0.449   1.912   6.906  0.2367  0.0446 -0.6837
 1134SOL    HW115038   0.522   1.865   6.946 -0.8417 -0.7355  0.3322
 1134SOL    HW215039   0.393   1.839   6.882 -0.6806  0.0997  1.3699
 1135SOL     OW15040   4.651   1.924   4.651  0.3372 -0.5941 -0.0925
 1135SOL    HW115041   4.711   1.935   4.725 -1.0199  1.7180  0.6870
 1135SOL    HW215042   4.617   2.009   4.624  0.4644 -0.5535 -0.1219
 1136SOL     OW15043   2.908   2.125   4.943  0.8045  0.4805  0.1175
 1136SOL    HW115044   2.973   2.162   5.003 -0.2969  2.3030  0.1536
 1136SOL    HW215045   2.843   2.100   5.009 -0.2918  2.6828 -0.1446
 1137SOL     OW15046   2.910   1.968   8.119  0.1996 -0.1922  0.5657
 1137SOL    HW115047   2.825   1.928   8.136 -0.4664  0.9780 -0.0208
 1137SOL    HW215048   2.966   1.897   8.152  1.9270  1.6202  1.5279
 1138SOL     OW15049   0.756   1.166   3.834  0.3942 -0.2050  0.0406
 1138SOL    HW115050   0.741   1.140   3.743 -1.3511 -2.1842  0.8954
 1138SOL    HW215051   0.703   1.245   3.848  1.0345  0.5381 -1.6385
 1139SOL     OW15052   2.276   2.859   9.585  0.6211 -0.6392  0.0819
 1139SOL    HW115053   2.289   2.871   9.491 -1.4179  1.2553  0.0347
 1139SOL    HW215054   2.268   2.949   9.616  2.1037 -0.7662  0.8374
 1140SOL     OW15055   0.807   4.287   5.773 -0.0444  0.3850  0.1161
 1140SOL    HW115056   0.764   4.275   5.688 -2.5821 -0.8859  1.5397
 1140SOL    HW215057   0.865   4.211   5.779  0.6411  0.8823 -0.2869
 1141SOL     OW15058   1.429   3.498   7.177 -0.0259 -0.1375 -0.3438
 1141SOL    HW115059   1.513   3.541   7.194  0.0322 -0.1813 -0.5198
 1141SOL    HW215060   1.449   3.462   7.090  0.4378  2.3563 -1.2670
 1142SOL     OW15061   3.674   4.462   4.353 -0.3203  0.1829 -0.1266
 1142SOL    HW115062   3.675   4.475   4.447  2.9509  0.1341 -0.1605
 1142SOL    HW215063   3.676   4.366   4.351  0.8874  0.2028  0.0434
 1143SOL     OW15064   1.608   3.547   8.507  0.0064 -0.2769  0.0788
 1143SOL    HW115065   1.530   3.537   8.452 -0.8081 -1.8338  1.4882
 1143SOL    HW215066   1.575   3.515   8.591  1.7825 -2.2219  0.0338
 1144SOL     OW15067   1.307   1.704   9.035 -0.2122  0.2501  0.0912
 1144SOL    HW115068   1.357   1.711   9.116 -0.2680 -0.7430  0.2121
 1144SOL    HW215069   1.219   1.733   9.059 -0.3898  1.2957 -1.8200
 1145SOL     OW15070   0.044   1.842   7.480 -0.3840 -0.3145  0.0696
 1145SOL    HW115071   0.094   1.922   7.463 -1.1007 -0.0054 -0.6175
 1145SOL    HW215072   4.697   1.882   7.507 -0.5603 -1.1871  0.7900
 1146SOL     OW15073   1.993   4.417  10.348 -0.0480 -0.2686  0.2384
 1146SOL    HW115074   1.920   4.397  10.289 -0.5601 -1.1093  1.1485
 1146SOL    HW215075   1.946   4.473  10.410 -1.2209 -0.2713 -0.6385
 1147SOL     OW15076   0.032   4.304   8.316  0.6399 -0.0257  0.0648
 1147SOL    HW115077   0.123   4.279   8.306  0.4899  0.0905 -1.5895
 1147SOL    HW215078   0.026   4.362   8.240  1.9294  0.1442  0.1039
 1148SOL     OW15079   1.425   2.401  15.113  0.3010 -0.1928  0.1521
 1148SOL    HW115080   1.343   2.360  15.085 -0.7119  0.8499  1.5735
 1148SOL    HW215081   1.498   2.347  15.084  0.1265 -0.7096  0.6664
 1149SOL     OW15082   1.722   1.307   1.218  0.2928  0.7809  0.5357
 1149SOL    HW115083   1.746   1.400   1.219  1.7213  0.3945  2.3383
 1149SOL    HW215084   1.632   1.307   1.249  0.1903 -1.6707  0.2388
 1150SOL     OW15085   1.772   2.486   4.365  0.1501  0.1159 -0.0647
 1150SOL    HW115086   1.852   2.466   4.413  0.3810  0.7787 -0.1691
 1150SOL    HW215087   1.810   2.498   4.278 -1.1291 -1.5493 -0.8587
 1151SOL     OW15088   2.011   1.673  16.032  0.7818 -0.4892  0.3499
 1151SOL    HW115089   2.008   1.617  15.954  1.2997  1.5039 -1.1168
 1151SOL    HW215090   2.099   1.709  16.021  0.6985 -0.9968 -2.0943
 1152SOL     OW15091   3.425   0.985   3.921  0.3009  0.2956  0.2440
 1152SOL    HW115092   3.421   1.022   4.009 -2.7635 -0.5746  0.4450
 1152SOL    HW215093   3.505   0.932   3.929  0.6590  0.6258 -1.0597
 1153SOL     OW15094   2.107   3.683   3.351 -0.2489  0.5204 -0.5297
 1153SOL    HW115095   2.200   3.693   3.374 -0.5228  1.4131  0.1535
 1153SOL    HW215096   2.059   3.724   3.422  0.6201  0.8516 -0.1318
 1154SOL     OW15097   3.892   1.092   3.262  0.0416  0.1614 -0.1202
 1154SOL    HW115098   3.859   1.151   3.194 -0.4707  1.0865  0.9264
 1154SOL    HW215099   3.827   1.091   3.333 -0.0146 -0.1813 -0.1772
 1155SOL     OW15100   3.026   2.030   0.700 -0.2784 -0.1766  0.4731
 1155SOL    HW115101   3.024   2.034   0.604 -0.9135  0.4722  0.5142
 1155SOL    HW215102   2.944   1.982   0.710  0.0902 -0.9775 -0.3307
 1156SOL     OW15103   2.640   0.013   5.092 -0.2793 -0.3319  0.1804
 1156SOL    HW115104   2.702   4.728   5.161  0.6717 -1.7645 -1.1315
 1156SOL    HW215105   2.605   4.666   5.061  0.1672 -0.3453 -0.2906
 1157SOL     OW15106   0.936   2.470   6.762 -0.8067  0.0132 -0.4869
 1157SOL    HW115107   0.917   2.494   6.852 -1.0030 -0.1234 -0.4935
 1157SOL    HW215108   0.920   2.555   6.721  0.9293  0.8898  0.6346
 1158SOL     OW15109   1.214   1.045   3.668  0.0822 -0.3877 -0.0911
 1158SOL    HW115110   1.283   1.019   3.607 -1.6224 -1.1677 -1.6883
 1158SOL    HW215111   1.249   1.128   3.702  0.0487  0.0505 -1.1222
 1159SOL     OW15112   0.207   0.472   5.119 -0.1632  0.3093  0.3264
 1159SOL    HW115113   0.205   0.519   5.036 -0.2498  0.1667  0.2462
 1159SOL    HW215114   0.131   0.511   5.162 -1.6535 -0.5077 -1.5294
 1160SOL     OW15115   1.923   1.213   1.021  0.5808  0.4025 -0.0527
 1160SOL    HW115116   1.951   1.153   1.091 -0.0125  0.0100 -0.1569
 1160SOL    HW215117   1.868   1.272   1.073 -1.3523 -0.3632 -1.2379
 1161SOL     OW15118   3.031   2.111   5.530 -0.4371 -0.3293 -0.5254
 1161SOL    HW115119   2.949   2.144   5.495 -0.8985  0.4934  1.3103
 1161SOL    HW215120   3.086   2.188   5.547 -1.9372  0.5519  0.2536
 1162SOL     OW15121   0.017   1.758   6.803  0.3439 -0.4431 -0.4059
 1162SOL    HW115122   0.026   1.848   6.836 -1.4733 -0.4996  0.2442
 1162SOL    HW215123   4.670   1.750   6.757  0.7853  1.9349 -1.6561
 1163SOL     OW15124   4.179   0.059   3.596  0.2142  0.0840 -0.0131
 1163SOL    HW115125   4.184   0.001   3.520  2.0715  0.7492 -0.3932
 1163SOL    HW215126   4.092   0.093   3.573  0.0199 -1.8724 -2.2246
 1164SOL     OW15127   3.001   3.110  15.679  0.3199 -0.0333 -0.0784
 1164SOL    HW115128   2.954   3.028  15.673 -0.4932  0.5219 -1.3302
 1164SOL    HW215129   2.922   3.164  15.676  1.1408  1.1934  0.0583
 1165SOL     OW15130   3.898   1.559  15.826 -0.0380 -0.2252 -0.7193
 1165SOL    HW115131   3.881   1.644  15.785 -0.1381 -0.2238 -0.6751
 1165SOL    HW215132   3.820   1.553  15.881 -1.2444 -1.0024 -2.5385
 1166SOL     OW15133   1.435   2.323   1.816  0.3956 -0.0604  0.3221
 1166SOL    HW115134   1.388   2.269   1.879 -0.1134 -0.1053 -0.0927
 1166SOL    HW215135   1.371   2.355   1.752 -0.1190 -1.9373 -0.0941
 1167SOL     OW15136   2.149   0.031   9.352  0.0279 -0.5398 -0.2805
 1167SOL    HW115137   2.192   0.033   9.267  2.0027  1.2421  0.7536
 1167SOL    HW215138   2.184   0.111   9.392 -0.9908 -0.0770 -0.3109
 1168SOL     OW15139   2.974   1.654   6.400  0.5950  0.0169  0.1403
 1168SOL    HW115140   2.952   1.743   6.429  0.1615 -0.3194  0.8360
 1168SOL    HW215141   2.887   1.617   6.386  0.8938 -1.1966  1.4762
 1169SOL     OW15142   0.449   2.413  16.168 -0.4159 -0.3700 -0.0190
 1169SOL    HW115143   0.367   2.386  16.126  0.1801 -1.8387 -0.2501
 1169SOL    HW215144   0.512   2.369  16.112  0.2213 -1.0205  1.2252
 1170SOL     OW15145   3.262   1.190   5.282  0.1720  0.6252  0.0849
 1170SOL    HW115146   3.238   1.143   5.202  0.3135  1.0270 -0.1949
 1170SOL    HW215147   3.229   1.129   5.347 -2.4422 -0.3898 -2.1934
 1171SOL     OW15148   1.892   0.689  13.256  0.4060  0.0228  0.0236
 1171SOL    HW115149   1.863   0.718  13.169 -0.7720  2.0932  1.1140
 1171SOL    HW215150   1.926   0.772  13.287  0.2795 -0.2899  1.0022
 1172SOL     OW15151   4.126   1.401  14.289  0.0201 -0.1508  0.1735
 1172SOL    HW115152   4.136   1.454  14.368  1.7828  1.3578 -1.0494
 1172SOL    HW215153   4.084   1.319  14.315  1.9048 -1.8202 -2.0984
 1173SOL     OW15154   0.557   3.622   6.397  0.2468 -0.1161  0.3621
 1173SOL    HW115155   0.522   3.558   6.459  0.6754  0.0604  0.7882
 1173SOL    HW215156   0.551   3.566   6.320  0.4331  0.1562  0.1505
 1174SOL     OW15157   2.447   3.733  13.036 -0.6021 -0.4452  0.1769
 1174SOL    HW115158   2.476   3.692  12.954 -3.0861 -2.5254  0.3519
 1174SOL    HW215159   2.449   3.655  13.090 -0.4306 -0.1280  0.6301
 1175SOL     OW15160   2.820   0.435   2.223  0.3687 -0.1137 -0.3582
 1175SOL    HW115161   2.728   0.460   2.225 -0.0268 -1.6048  0.3509
 1175SOL    HW215162   2.839   0.428   2.316 -1.4893 -0.5516 -0.0136
 1176SOL     OW15163   3.303   3.349  12.239  0.2089 -0.1373 -0.0145
 1176SOL    HW115164   3.354   3.402  12.178  0.4954 -0.9330 -0.4672
 1176SOL    HW215165   3.248   3.298  12.179  1.0484  0.3052 -1.1676
 1177SOL     OW15166   1.775   1.799   3.784  0.1511  0.1158  0.2634
 1177SOL    HW115167   1.790   1.856   3.860  1.7355  1.3954 -1.0094
 1177SOL    HW215168   1.815   1.857   3.719 -1.1464  1.2202  0.4206
 1178SOL     OW15169   1.361   0.182  13.945  0.0545 -0.1683  0.2610
 1178SOL    HW115170   1.343   0.212  14.034  0.4273  1.3084 -0.1709
 1178SOL    HW215171   1.289   0.219  13.894 -0.3584  1.5468  2.1122
 1179SOL     OW15172   2.514   1.929  11.231  0.0825 -0.2417 -0.3207
 1179SOL    HW115173   2.561   1.982  11.166  1.2041 -1.0361 -0.1492
 1179SOL    HW215174   2.557   1.949  11.314 -0.3328 -0.1479 -0.1278
 1180SOL     OW15175   2.250   4.408  16.889 -0.0073  0.3906  0.2541
 1180SOL    HW115176   2.209   4.439  16.809 -2.3653 -1.9001  0.5752
 1180SOL    HW215177   2.340   4.385  16.864 -0.3773 -1.4363  0.6166
 1181SOL     OW15178   2.903   0.195   7.024 -0.0014  0.7793  0.5083
 1181SOL    HW115179   2.972   0.239   7.073  0.8353 -0.9995  0.9434
 1181SOL    HW215180   2.827   0.197   7.083 -1.3000 -1.4738 -1.0903
 1182SOL     OW15181   1.515   4.601   9.198 -0.1297 -0.2828  0.5104
 1182SOL    HW115182   1.583   4.660   9.165 -1.1369  0.0603 -0.9587
 1182SOL    HW215183   1.477   4.641   9.276 -1.7730 -0.5736 -0.1337
 1183SOL     OW15184   4.327   0.733   0.782 -0.1516 -0.2128  0.3889
 1183SOL    HW115185   4.240   0.748   0.744 -0.6720 -0.3469  1.5321
 1183SOL    HW215186   4.385   0.766   0.714 -1.2795  0.4631 -0.2409
 1184SOL     OW15187   1.516   3.298   0.392 -0.1517 -0.0266  0.1212
 1184SOL    HW115188   1.537   3.379   0.344 -1.9759 -0.9173 -2.2178
 1184SOL    HW215189   1.421   3.310   0.399 -0.8286 -2.8172 -4.0481
 1185SOL     OW15190   0.519   2.695  14.450 -0.3149 -0.7268 -0.5262
 1185SOL    HW115191   0.486   2.608  14.473 -0.6633 -0.6701 -0.8097
 1185SOL    HW215192   0.573   2.670  14.374 -0.9703 -1.9233 -0.5984
 1186SOL     OW15193   0.564   0.415  10.965 -0.1824  0.1428 -0.0955
 1186SOL    HW115194   0.621   0.371  11.029 -1.4109 -2.2005 -0.5940
 1186SOL    HW215195   0.496   0.447  11.024 -0.9238  0.5652 -1.1994
 1187SOL     OW15196   3.023   0.255   6.559 -0.1957  0.7080  0.4410
 1187SOL    HW115197   2.962   0.280   6.629  1.0422  3.3625  0.5627
 1187SOL    HW215198   3.001   0.323   6.496 -0.7266  1.0851  1.0263
 1188SOL     OW15199   3.392   0.485  16.016  1.0913 -0.1337 -0.0571
 1188SOL    HW115200   3.448   0.427  15.965  0.5855 -0.6787 -0.0012
 1188SOL    HW215201   3.380   0.563  15.962 -0.1972  0.1935  0.7089
 1189SOL     OW15202   2.677   1.489   5.213 -0.1240 -0.3332 -0.1546
 1189SOL    HW115203   2.585   1.503   5.193 -0.4243 -0.8100  0.8870
 1189SOL    HW215204   2.711   1.419   5.157 -0.9384 -0.8403 -0.0073
 1190SOL     OW15205   3.494   2.485  10.811 -0.6084  0.0627 -0.6574
 1190SOL    HW115206   3.587   2.498  10.797 -0.8098  0.5009 -1.5900
 1190SOL    HW215207   3.463   2.575  10.796  2.2375  1.3567  1.0974
 1191SOL     OW15208   3.176   1.012   5.106 -0.3403  0.3845  0.3790
 1191SOL    HW115209   3.195   0.926   5.068 -4.1234 -0.6659  0.8451
 1191SOL    HW215210   3.080   1.013   5.104 -0.3925 -2.3966  1.2621
 1192SOL     OW15211   2.432   2.184   8.078 -0.5990  0.0616  0.0033
 1192SOL    HW115212   2.385   2.194   8.161  0.4353 -2.2312  0.8677
 1192SOL    HW215213   2.440   2.277   8.056  0.2404 -0.0048  0.0288
 1193SOL     OW15214   0.693   0.348   4.678  0.2637  0.2575  0.1594
 1193SOL    HW115215   0.755   0.397   4.733 -0.9170  2.1422 -0.1776
 1193SOL    HW215216   0.743   0.347   4.597  0.5623  0.2885  0.3420
 1194SOL     OW15217   0.329   4.023   5.232  0.5687  0.1080  0.5319
 1194SOL    HW115218   0.309   4.036   5.325  0.5458 -1.4486  0.7359
 1194SOL    HW215219   0.305   4.108   5.194 -1.7068 -0.7964 -0.0476
 1195SOL     OW15220   0.130   4.661   5.742 -0.5264  0.2649  0.2405
 1195SOL    HW115221   0.037   4.640   5.727 -0.3511  1.4162 -2.4820
 1195SOL    HW215222   0.148   4.612   5.823 -0.0247  0.3278  0.1647
 1196SOL     OW15223   3.135   4.416   6.621  0.0166  0.0045 -0.3145
 1196SOL    HW115224   3.207   4.359   6.595 -0.9046 -1.9581  1.4445
 1196SOL    HW215225   3.168   4.481   6.684  2.0381  0.5567 -1.9714
 1197SOL     OW15226   3.369   4.084   3.532 -0.2464 -0.3684  0.3717
 1197SOL    HW115227   3.429   4.096   3.458  2.1655 -2.8002  1.9361
 1197SOL    HW215228   3.304   4.029   3.488  3.6439 -1.8751 -3.5252
 1198SOL     OW15229   0.545   4.156   5.991  0.1835 -0.0166 -0.2487
 1198SOL    HW115230   0.546   4.079   5.935  0.3458  2.5244 -3.7706
 1198SOL    HW215231   0.505   4.121   6.070 -1.6319  1.2490 -0.6012
 1199SOL     OW15232   0.179   1.662   7.915 -0.2441 -0.3418  0.2983
 1199SOL    HW115233   0.090   1.637   7.941 -1.0974  0.6658 -1.6794
 1199SOL    HW215234   0.168   1.753   7.887 -1.7420 -0.8648 -0.8314
 1200SOL     OW15235   0.920   0.637  17.667  0.3325  0.1245 -0.3489
 1200SOL    HW115236   0.877   0.698  17.727 -0.8411 -1.0664  0.0321
 1200SOL    HW215237   0.863   0.629  17.590  0.7201  0.0368 -0.6282
 1201SOL     OW15238   1.422   2.777  14.467 -0.3077 -0.1583  0.0384
 1201SOL    HW115239   1.403   2.687  14.495  0.1984  0.4575  2.3381
 1201SOL    HW215240   1.336   2.806  14.498  0.8754  0.3661  2.8012
 1202SOL     OW15241   0.617   0.416   1.573 -0.5924  0.1810 -0.1417
 1202SOL    HW115242   0.658   0.344   1.524 -0.6065  1.3508 -1.8892
 1202SOL    HW215243   0.695   0.468   1.592 -1.4375  1.3474  0.1109
 1203SOL     OW15244   4.011   3.147   2.654 -0.7783 -0.8973 -0.8341
 1203SOL    HW115245   4.017   3.075   2.717  2.3857 -1.1380 -1.4361
 1203SOL    HW215246   3.934   3.189   2.693 -0.1105  0.9169 -1.4770
 1204SOL     OW15247   1.814   0.085  11.075  0.2087  0.0708  0.4877
 1204SOL    HW115248   1.829   0.003  11.122 -1.6327  0.3456  1.5579
 1204SOL    HW215249   1.765   0.144  11.132 -0.4653 -0.4753  0.4677
 1205SOL     OW15250   0.038   3.714  11.397 -0.1024  0.0655  0.3215
 1205SOL    HW115251   4.717   3.668  11.458 -0.2652  0.4473  0.4600
 1205SOL    HW215252   0.002   3.706  11.309  1.9338  0.4988 -0.5549
 1206SOL     OW15253   2.669   0.903   1.926  0.4290 -0.6771 -0.6343
 1206SOL    HW115254   2.642   0.821   1.884 -2.2116 -0.3606  0.4280
 1206SOL    HW215255   2.685   0.943   1.841  1.5715 -1.3788 -0.7482
 1207SOL     OW15256   2.606   1.875   0.026 -0.8525  0.3047 -0.0421
 1207SOL    HW115257   2.589   1.781   0.025 -0.8261  0.2789  2.6536
 1207SOL    HW215258   2.584   1.895  17.680  0.8048  0.4348 -0.4207
 1208SOL     OW15259   1.815   0.126  10.010  0.4456  0.1479 -0.0864
 1208SOL    HW115260   1.822   0.032   9.989  0.0225 -0.2092  1.3323
 1208SOL    HW215261   1.830   0.123  10.105  0.3756 -0.5070 -0.0920
 1209SOL     OW15262   3.935   2.640   2.512 -0.0559  0.2476  0.2244
 1209SOL    HW115263   3.963   2.614   2.424  1.3473 -2.2574  1.3866
 1209SOL    HW215264   3.945   2.735   2.516  0.2481  0.1605  1.7254
 1210SOL     OW15265   0.392   4.204  15.421  0.9103 -0.2310  0.3187
 1210SOL    HW115266   0.320   4.193  15.483  0.1223 -0.9350 -0.7241
 1210SOL    HW215267   0.400   4.295  15.451 -0.5601 -0.9573  2.8679
 1211SOL     OW15268   1.542   3.357   8.688 -0.4043  1.2107  0.3850
 1211SOL    HW115269   1.600   3.312   8.627  0.8242 -0.7260  2.9811
 1211SOL    HW215270   1.464   3.366   8.633  0.0784 -2.3457 -0.8996
 1212SOL     OW15271   0.460   3.856   8.917 -0.8018 -0.0642  0.2084
 1212SOL    HW115272   0.523   3.793   8.949 -1.7851 -1.0806  0.1487
 1212SOL    HW215273   0.471   3.929   8.978 -0.5373 -0.8721  1.1304
 1213SOL     OW15274   0.123   0.528   8.248  0.5893 -0.4265 -0.3033
 1213SOL    HW115275   0.144   0.438   8.274 -1.8182 -0.6245  0.9360
 1213SOL    HW215276   0.055   0.510   8.184  0.2666  1.6520 -0.5402
 1214SOL     OW15277   4.173   0.229  13.859  0.6336  0.0705  0.3845
 1214SOL    HW115278   4.211   0.202  13.942  3.2447 -1.8648 -1.4072
 1214SOL    HW215279   4.174   0.323  13.871  0.4145  0.2564 -1.0009
 1215SOL     OW15280   1.695   3.525   5.695  0.0526  0.3164  0.1635
 1215SOL    HW115281   1.770   3.465   5.696 -0.4517 -0.2897  1.8689
 1215SOL    HW215282   1.681   3.540   5.602 -1.8109  1.2996  0.6109
 1216SOL     OW15283   2.925   1.284  11.796 -0.0694  0.4655 -0.1862
 1216SOL    HW115284   2.943   1.330  11.714  0.7150  1.7972  0.7136
 1216SOL    HW215285   2.950   1.349  11.862 -2.3388 -0.1651  1.2740
 1217SOL     OW15286   1.561   2.168   6.192  0.0511  0.2187 -0.7845
 1217SOL    HW115287   1.633   2.216   6.151  0.7886 -0.2241 -0.0154
 1217SOL    HW215288   1.482   2.205   6.153  1.1866  2.0739 -1.2877
 1218SOL     OW15289   2.025   4.495   2.996 -0.3840  0.5118  0.2368
 1218SOL    HW115290   2.018   4.495   3.092 -0.8728  0.5782  0.2029
 1218SOL    HW215291   2.013   4.403   2.973  1.4356  1.1769 -3.3962
 1219SOL     OW15292   2.145   2.024   7.794 -0.4091  0.1842  0.4312
 1219SOL    HW115293   2.200   2.083   7.744  0.3610 -0.2641  0.7442
 1219SOL    HW215294   2.204   1.960   7.834  0.0972  0.1131 -0.4440
 1220SOL     OW15295   4.537   2.028   7.783 -0.2577 -0.0484 -0.6849
 1220SOL    HW115296   4.623   2.063   7.807  0.8242 -2.2858 -1.3131
 1220SOL    HW215297   4.489   2.109   7.766 -1.0365 -0.6121 -1.1565
 1221SOL     OW15298   1.395   1.160   3.881  0.5350  0.0528  0.2369
 1221SOL    HW115299   1.388   1.204   3.966  0.0893 -1.9458  1.2400
 1221SOL    HW215300   1.377   1.227   3.816  2.7512 -0.6649 -1.0889
 1222SOL     OW15301   0.108   2.789   7.928 -0.4389 -0.2923  0.3865
 1222SOL    HW115302   0.108   2.876   7.969 -3.5556  0.0867 -0.4070
 1222SOL    HW215303   0.143   2.818   7.844  0.2714 -0.3258  0.6712
 1223SOL     OW15304   1.214   0.998   8.736  0.0789  0.1743 -0.2890
 1223SOL    HW115305   1.225   1.001   8.831  0.5785  1.0285 -0.3663
 1223SOL    HW215306   1.244   0.908   8.725 -0.8497 -0.2001  0.2572
 1224SOL     OW15307   3.869   0.107   6.344  0.5269 -0.1394 -0.2845
 1224SOL    HW115308   3.958   0.135   6.367 -0.6392  0.0639  4.0334
 1224SOL    HW215309   3.819   0.171   6.394  0.6690  0.4820 -0.9489
 1225SOL     OW15310   3.457   2.525   2.558 -0.1692 -0.4140  0.1861
 1225SOL    HW115311   3.549   2.503   2.576  0.6200  1.3760 -1.6552
 1225SOL    HW215312   3.454   2.524   2.462 -0.3077 -1.0768  0.1975
 1226SOL     OW15313   0.659   3.453   7.315 -0.8645 -0.0147 -0.0089
 1226SOL    HW115314   0.728   3.436   7.379 -0.4323 -0.1676 -0.5107
 1226SOL    HW215315   0.708   3.475   7.235 -2.1710 -1.1568 -1.1326
 1227SOL     OW15316   1.058   1.186   5.541 -0.4215 -0.1416 -0.8116
 1227SOL    HW115317   1.042   1.265   5.592 -0.2044 -0.2740 -0.5368
 1227SOL    HW215318   0.966   1.171   5.523 -0.4577  2.2965 -2.7193
 1228SOL     OW15319   0.956   3.296   2.183 -0.1129  0.2661  0.1055
 1228SOL    HW115320   0.924   3.240   2.113 -1.1145 -0.7161  1.3467
 1228SOL    HW215321   0.958   3.227   2.249  0.1703 -0.6772 -0.8895
 1229SOL     OW15322   1.152   2.427   7.103  0.1120  0.4439  0.8135
 1229SOL    HW115323   1.220   2.371   7.066  0.6485  0.4995  1.7194
 1229SOL    HW215324   1.145   2.390   7.191  0.3854 -1.1705  0.1493
 1230SOL     OW15325   0.083   1.625   7.026 -0.1304 -0.0685 -0.2079
 1230SOL    HW115326   0.023   1.656   7.094 -1.8502 -0.5273 -1.5079
 1230SOL    HW215327   0.057   1.685   6.956  0.5218 -0.3570 -0.6949
 1231SOL     OW15328   4.689   4.420   5.485 -0.4307 -0.3809  0.3332
 1231SOL    HW115329   4.636   4.461   5.553 -1.3964 -0.9869 -0.0530
 1231SOL    HW215330   0.023   4.381   5.536  1.8482 -0.6657 -3.0006
 1232SOL     OW15331   2.430   0.917   4.658 -0.4891 -0.4262 -0.0317
 1232SOL    HW115332   2.349   0.881   4.622  0.4837  1.1723 -3.8089
 1232SOL    HW215333   2.478   0.838   4.682  1.3152  0.7139  0.1109
 1233SOL     OW15334   1.085   0.517   1.066 -0.0736  0.3150 -0.1156
 1233SOL    HW115335   1.019   0.450   1.050 -0.1243  0.0719  1.1462
 1233SOL    HW215336   1.064   0.573   0.992 -0.5627  1.5537  0.9647
 1234SOL     OW15337   1.327   0.843   7.314  0.1920 -0.1856 -0.1189
 1234SOL    HW115338   1.337   0.866   7.222 -0.3175  1.3357  0.2046
 1234SOL    HW215339   1.292   0.924   7.353  0.2426  0.5198 -1.5389
 1235SOL     OW15340   1.961   0.381   7.051 -0.7197  0.3613 -0.9080
 1235SOL    HW115341   2.044   0.334   7.038 -0.9460  0.0810 -1.3370
 1235SOL    HW215342   1.927   0.331   7.125 -0.2894  2.5420  0.7661
 1236SOL     OW15343   3.099   2.277   6.084  0.0474  0.0908 -0.5752
 1236SOL    HW115344   3.180   2.243   6.122 -0.3368 -0.4607 -0.2643
 1236SOL    HW215345   3.039   2.260   6.156  0.4428  2.8337  0.4170
 1237SOL     OW15346   0.335   3.364   2.412  0.1094 -0.7922  0.0256
 1237SOL    HW115347   0.416   3.317   2.390 -0.3488 -0.5772 -2.0874
 1237SOL    HW215348   0.275   3.292   2.390  0.3391 -0.4898 -1.6009
 1238SOL     OW15349   2.031   3.975   5.648  0.6107  0.1660 -0.2593
 1238SOL    HW115350   2.016   4.042   5.716  3.6584  0.3399  0.2256
 1238SOL    HW215351   2.113   4.007   5.610  0.7851  0.6369  0.4985
 1239SOL     OW15352   2.895   0.924   6.552  0.9681 -0.8203  0.0102
 1239SOL    HW115353   2.854   0.843   6.523 -1.9493  1.4678 -2.1889
 1239SOL    HW215354   2.940   0.893   6.631  1.1623 -0.0476  0.1980
 1240SOL     OW15355   0.522   2.485   4.779  0.6731 -0.3787 -0.1924
 1240SOL    HW115356   0.528   2.391   4.762 -1.3687 -0.4310 -0.6460
 1240SOL    HW215357   0.495   2.476   4.871  1.1193 -0.5793 -0.0804
 1241SOL     OW15358   0.952   1.839  13.692 -0.1539  0.1965 -0.0738
 1241SOL    HW115359   1.027   1.779  13.694 -0.9895 -0.8309  0.3724
 1241SOL    HW215360   0.880   1.776  13.695 -0.2143  0.2655 -0.0988
 1242SOL     OW15361   4.393   4.388   5.671 -0.0387 -0.9032  0.0858
 1242SOL    HW115362   4.369   4.302   5.707 -0.6051 -1.0902 -0.7374
 1242SOL    HW215363   4.351   4.443   5.738 -2.3910 -0.3262 -1.8409
 1243SOL     OW15364   3.844   1.469   2.750 -0.0338  0.7216  0.3747
 1243SOL    HW115365   3.924   1.486   2.799 -0.2652 -0.0265  0.9988
 1243SOL    HW215366   3.784   1.444   2.820 -3.1238 -1.7909 -3.1217
 1244SOL     OW15367   3.482   2.762   8.510 -0.0379 -0.0032  0.4576
 1244SOL    HW115368   3.405   2.755   8.566 -0.9499 -0.3689 -0.8455
 1244SOL    HW215369   3.461   2.831   8.446 -1.6910  1.0714  2.1827
 1245SOL     OW15370   1.022   3.556   8.027 -0.4219 -0.0970 -0.0997
 1245SOL    HW115371   1.093   3.491   8.027  0.0752  0.4397  0.2723
 1245SOL    HW215372   1.058   3.624   7.970 -0.3728  0.9764  1.2004
 1246SOL     OW15373   0.594   1.151  16.587  0.1746 -0.5585  0.8477
 1246SOL    HW115374   0.666   1.212  16.571 -0.9884  1.0983  1.8020
 1246SOL    HW215375   0.629   1.064  16.571  1.0913  0.4344 -2.5415
 1247SOL     OW15376   4.151   3.337   1.549 -0.2597 -0.2884 -0.1403
 1247SOL    HW115377   4.209   3.368   1.480  1.8433 -0.8138  1.3814
 1247SOL    HW215378   4.172   3.396   1.622  0.0190  0.1260 -0.5542
 1248SOL     OW15379   4.208   0.063   2.748  0.3088 -0.0332 -0.1351
 1248SOL    HW115380   4.295   0.103   2.757  0.3051 -0.4497  1.6923
 1248SOL    HW215381   4.198   0.058   2.653 -3.2235  2.7433  0.0846
 1249SOL     OW15382   3.033   3.814   2.776 -0.2244  0.0300 -0.5873
 1249SOL    HW115383   3.019   3.817   2.681 -3.3946 -1.3171 -0.1905
 1249SOL    HW215384   3.006   3.903   2.798  0.5318  0.0237  0.3288
 1250SOL     OW15385   3.200   1.721  10.426  0.2398 -0.6012  0.0146
 1250SOL    HW115386   3.269   1.673  10.473  1.4507  0.7730 -0.3619
 1250SOL    HW215387   3.136   1.725  10.497 -2.1979 -0.9375 -2.1587
 1251SOL     OW15388   1.027   3.090  14.253 -0.1701  0.3512  0.1438
 1251SOL    HW115389   0.942   3.134  14.254  0.5367  1.7140 -0.7049
 1251SOL    HW215390   1.087   3.147  14.301 -0.5475  0.1194  0.8978
 1252SOL     OW15391   1.704   3.773   6.175 -0.5732 -0.1195  0.4440
 1252SOL    HW115392   1.633   3.710   6.182 -0.5950 -0.1941 -0.5025
 1252SOL    HW215393   1.726   3.796   6.266  0.6877 -0.9353  0.3433
 1253SOL     OW15394   4.078   3.844   3.217 -0.1890 -0.6200  0.9424
 1253SOL    HW115395   4.022   3.771   3.244  0.3542 -1.1864  0.5503
 1253SOL    HW215396   4.148   3.788   3.181  1.2393  0.9618  1.2641
 1254SOL     OW15397   0.896   1.787  11.166  0.1204  0.1164 -0.1747
 1254SOL    HW115398   0.961   1.740  11.115  1.4338  1.5384  0.1893
 1254SOL    HW215399   0.932   1.875  11.171  1.5799 -0.5194  0.4618
 1255SOL     OW15400   4.188   2.083   3.873  0.0996 -0.1283 -0.4082
 1255SOL    HW115401   4.202   2.126   3.957 -0.1002 -2.2307  0.6815
 1255SOL    HW215402   4.141   2.156   3.833 -1.1643 -0.5629  0.2969
 1256SOL     OW15403   1.867   1.245   9.571 -0.3268 -0.1252 -0.4992
 1256SOL    HW115404   1.870   1.274   9.662 -0.3403 -2.0878  0.1371
 1256SOL    HW215405   1.961   1.228   9.557 -0.3627  0.2516 -1.1925
 1257SOL     OW15406   3.206   3.866   4.975 -0.1838  0.3703  0.9355
 1257SOL    HW115407   3.281   3.897   4.924 -2.0441 -0.8909 -2.5316
 1257SOL    HW215408   3.219   3.771   4.972 -2.6922  0.1033 -1.3627
 1258SOL     OW15409   2.844   0.475  17.136  0.4869 -0.0370 -0.1481
 1258SOL    HW115410   2.865   0.388  17.168  1.1198 -0.2511 -1.1493
 1258SOL    HW215411   2.931   0.514  17.128 -0.8488  2.5693 -2.2257
 1259SOL     OW15412   0.382   2.598   3.227  0.1070  0.4751 -0.4649
 1259SOL    HW115413   0.451   2.664   3.232 -1.5949  2.1569  0.7138
 1259SOL    HW215414   0.387   2.561   3.315 -0.9937  0.4699 -0.4090
 1260SOL     OW15415   2.589   1.365   5.471 -0.1969  0.2403  0.1035
 1260SOL    HW115416   2.502   1.326   5.463  0.7770 -1.6981 -0.9480
 1260SOL    HW215417   2.587   1.431   5.401 -0.9368  0.3135  0.1935
 1261SOL     OW15418   4.086   0.622   5.482  0.2035 -0.2744 -0.1812
 1261SOL    HW115419   4.149   0.677   5.528  0.0109 -0.4264  0.2657
 1261SOL    HW215420   4.015   0.684   5.463  0.4323 -0.1084 -0.4852
 1262SOL     OW15421   3.803   2.728   3.513 -0.0952 -0.4807  0.0196
 1262SOL    HW115422   3.782   2.635   3.510 -0.8251 -0.3793  1.9885
 1262SOL    HW215423   3.898   2.724   3.499 -0.2786  1.2420 -1.7512
 1263SOL     OW15424   3.729   3.934   1.370  0.1918 -0.1644 -0.2029
 1263SOL    HW115425   3.714   4.006   1.432  0.3860 -1.0274  0.8446
 1263SOL    HW215426   3.639   3.933   1.337 -0.8677  0.1251  2.6848
 1264SOL     OW15427   4.213   3.469  17.474 -0.1954 -0.4597 -0.7845
 1264SOL    HW115428   4.241   3.542  17.528 -0.4571  0.3250 -1.7120
 1264SOL    HW215429   4.291   3.431  17.434  1.4716 -0.5638  2.5595
 1265SOL     OW15430   3.695   0.090   8.554 -0.1346 -0.2456  0.6496
 1265SOL    HW115431   3.657   0.034   8.486 -1.0036 -0.4052  1.2584
 1265SOL    HW215432   3.784   0.058   8.545 -0.3988  0.0166 -2.9606
 1266SOL     OW15433   4.353   3.966   0.235 -0.4501 -0.1579 -0.6892
 1266SOL    HW115434   4.282   3.907   0.261  0.4906 -1.3916 -0.9586
 1266SOL    HW215435   4.424   3.917   0.276 -0.2140  1.0498  0.3515
 1267SOL     OW15436   1.538   2.639   7.573  0.0536  0.0857  0.3082
 1267SOL    HW115437   1.565   2.730   7.568 -2.1382  0.7660  0.7987
 1267SOL    HW215438   1.587   2.606   7.648 -0.9170 -1.9150  0.0686
 1268SOL     OW15439   3.134   0.049  10.918 -0.2596  0.2062  0.5411
 1268SOL    HW115440   3.156   0.113  10.851  2.0542  0.3505  1.4380
 1268SOL    HW215441   3.223   0.039  10.954  0.6309  3.0616 -0.8645
 1269SOL     OW15442   4.517   4.409   8.435 -0.3992 -0.3048  0.3827
 1269SOL    HW115443   4.491   4.321   8.462  0.1093 -0.7272 -0.5147
 1269SOL    HW215444   4.599   4.391   8.390 -1.0761  1.7019 -1.6050
 1270SOL     OW15445   0.198   4.121  12.519 -0.3620  0.3055 -0.2090
 1270SOL    HW115446   0.114   4.121  12.472 -0.2970  2.7695 -0.3068
 1270SOL    HW215447   0.180   4.161  12.604  1.7314  2.3728 -0.7489
 1271SOL     OW15448   0.600   1.311  12.961 -0.1882 -0.1359  0.1980
 1271SOL    HW115449   0.621   1.290  13.052  2.0151 -2.8805 -0.9176
 1271SOL    HW215450   0.588   1.406  12.957  1.0814 -0.0194 -1.0335
 1272SOL     OW15451   2.775   0.277  15.422 -0.1804 -0.3569  0.0334
 1272SOL    HW115452   2.747   0.368  15.432 -0.3479 -0.5759  1.5269
 1272SOL    HW215453   2.832   0.277  15.498  2.0897 -4.5453 -1.6751
 1273SOL     OW15454   1.368   4.729   3.552  0.2026  0.0971 -0.0918
 1273SOL    HW115455   1.347   0.038   3.471  2.0077 -0.3952 -0.8323
 1273SOL    HW215456   1.282   4.708   3.588  0.3361  1.2220  0.8753
 1274SOL     OW15457   2.554   4.694   1.630 -0.2240  0.5562 -0.2193
 1274SOL    HW115458   2.526   0.049   1.634 -0.7304  0.4024 -0.2499
 1274SOL    HW215459   2.466   4.658   1.641 -1.0947  2.0003 -2.3122
 1275SOL     OW15460   1.619   2.444  13.588 -0.4866  0.1576  0.1412
 1275SOL    HW115461   1.630   2.517  13.526  0.1976  0.6278  0.8112
 1275SOL    HW215462   1.566   2.491  13.653 -0.8921  1.0150 -0.8099
 1276SOL     OW15463   2.262   1.844   6.746  0.6874  0.3890 -0.2117
 1276SOL    HW115464   2.299   1.767   6.789 -2.0561 -0.6146  0.3759
 1276SOL    HW215465   2.239   1.899   6.820 -0.4700  1.6200 -1.4810
 1277SOL     OW15466   2.358   0.398   3.484  0.2191  0.1335 -0.0542
 1277SOL    HW115467   2.326   0.348   3.410 -0.2614  3.3613 -2.0393
 1277SOL    HW215468   2.285   0.380   3.544  0.5070 -5.2716 -1.3143
 1278SOL     OW15469   3.526   2.866   5.488 -0.4858 -0.0913 -0.2643
 1278SOL    HW115470   3.464   2.902   5.551  0.1667  0.3179  0.1399
 1278SOL    HW215471   3.541   2.782   5.531 -1.7188 -0.1595  0.0159
 1279SOL     OW15472   2.421   3.536   7.313  0.3187  0.3495  0.3741
 1279SOL    HW115473   2.472   3.518   7.234 -0.5338  0.4303 -0.1957
 1279SOL    HW215474   2.420   3.456   7.364 -0.7419 -0.0004 -0.1953
 1280SOL     OW15475   1.044   2.047   5.018  0.2531  0.6528  0.0335
 1280SOL    HW115476   1.116   2.025   5.076 -0.0099 -0.1221  0.0667
 1280SOL    HW215477   0.974   2.046   5.084 -0.6394 -0.0041 -0.9114
 1281SOL     OW15478   1.806   2.506   2.876 -0.2898 -0.2215 -0.4581
 1281SOL    HW115479   1.832   2.510   2.784 -0.6205 -2.6930 -0.6653
 1281SOL    HW215480   1.740   2.437   2.866 -0.4450  0.0348 -1.1804
 1282SOL     OW15481   3.364   0.007  14.538 -0.4123  0.0899  0.0395
 1282SOL    HW115482   3.398   4.690  14.467 -2.4186 -2.4944  0.9958
 1282SOL    HW215483   3.412   0.089  14.527  0.2053  0.0333  2.1823
 1283SOL     OW15484   4.664   3.914   2.632 -0.3491 -0.0212  0.6952
 1283SOL    HW115485   4.614   3.836   2.655  0.6790 -0.6036  0.9179
 1283SOL    HW215486   4.728   3.915   2.704  0.4873  0.9818 -0.0621
 1284SOL     OW15487   4.613   4.355  10.094  0.2194 -0.0045 -0.3803
 1284SOL    HW115488   4.685   4.414  10.113 -0.8612  0.9536  0.7927
 1284SOL    HW215489   4.617   4.302  10.173 -0.8028 -1.7928 -1.5341
 1285SOL     OW15490   0.736   2.040   7.947  0.4760  0.0056  0.0302
 1285SOL    HW115491   0.661   2.044   8.007  0.3431 -1.4255 -0.0494
 1285SOL    HW215492   0.800   2.092   7.996 -0.4684  1.9178 -0.7511
 1286SOL     OW15493   3.934   3.691   5.565 -0.0115  0.0609  0.5940
 1286SOL    HW115494   3.977   3.621   5.614 -1.0497 -0.2217  1.1158
 1286SOL    HW215495   3.964   3.776   5.597  2.2050 -0.7705  0.7364
 1287SOL     OW15496   3.882   2.037   9.796 -0.1923  0.6545 -0.1375
 1287SOL    HW115497   3.905   1.946   9.775  0.2380  0.4482  1.2016
 1287SOL    HW215498   3.900   2.069   9.708 -0.8191 -0.2342 -0.5942
 1288SOL     OW15499   2.119   0.004   4.818  0.0190  0.3504 -0.0454
 1288SOL    HW115500   2.105   0.031   4.728  0.5519 -1.3515 -0.6254
 1288SOL    HW215501   2.141   4.648   4.807  1.7946  1.0432 -2.2124
 1289SOL     OW15502   0.204   3.113   5.029 -0.6154 -0.1113  0.3367
 1289SOL    HW115503   0.203   3.201   5.067  1.6764 -1.3852  3.3212
 1289SOL    HW215504   0.259   3.132   4.953 -0.5882  1.9997  0.8839
 1290SOL     OW15505   3.783   0.474   6.947  0.3037 -0.0741  0.4322
 1290SOL    HW115506   3.747   0.542   7.004 -0.1411  2.0203 -2.3598
 1290SOL    HW215507   3.714   0.479   6.881 -2.1639 -1.2897  2.8987
 1291SOL     OW15508   3.589   0.930   5.907  0.6217  0.6193  0.5007
 1291SOL    HW115509   3.505   0.896   5.875  1.3085 -0.4004 -0.2273
 1291SOL    HW215510   3.646   0.860   5.875 -0.0893  0.4912 -0.5106
 1292SOL     OW15511   2.080   4.138   0.182  0.4686  0.8207 -0.4573
 1292SOL    HW115512   2.045   4.111   0.097  1.6704 -0.1401 -0.6510
 1292SOL    HW215513   2.022   4.209   0.211  1.5660  1.2948  0.5664
 1293SOL     OW15514   4.446   2.574   4.231 -0.0347 -0.0091  1.0897
 1293SOL    HW115515   4.376   2.627   4.191  0.6957  1.1943  1.3987
 1293SOL    HW215516   4.502   2.645   4.263 -1.7741  2.0637 -0.4178
 1294SOL     OW15517   2.021   4.371   3.313 -0.3440 -0.1807 -0.2275
 1294SOL    HW115518   2.094   4.372   3.376 -1.4031  0.7973  0.9734
 1294SOL    HW215519   2.023   4.280   3.283  2.8138 -1.0339  2.5722
 1295SOL     OW15520   3.516   0.127  15.810  0.1688  0.2072  0.0052
 1295SOL    HW115521   3.537   0.218  15.828  0.7487  0.3225 -1.2485
 1295SOL    HW215522   3.497   0.100  15.900  3.1209  0.7813  0.8141
 1296SOL     OW15523   1.729   4.112   4.088 -0.0952 -0.1060 -0.6292
 1296SOL    HW115524   1.729   4.189   4.145  1.9126 -1.4937  1.2405
 1296SOL    HW215525   1.807   4.070   4.125 -0.2959  0.5194  0.5001
 1297SOL     OW15526   4.183   1.143   4.019 -0.6417 -0.0653  0.2664
 1297SOL    HW115527   4.142   1.222   3.983  1.1796  0.8334  0.1605
 1297SOL    HW215528   4.266   1.140   3.972  0.4433  3.2911  1.9062
 1298SOL     OW15529   1.926   0.801   4.375 -0.6640 -0.0699 -0.3760
 1298SOL    HW115530   2.013   0.840   4.379  0.5409 -2.4429 -3.0015
 1298SOL    HW215531   1.875   0.872   4.415 -1.1472 -0.1137 -0.9099
 1299SOL     OW15532   3.080   0.031  15.768 -0.0128 -0.5524  0.8131
 1299SOL    HW115533   3.058   0.108  15.715  0.2972 -2.1759 -1.6905
 1299SOL    HW215534   3.173   0.023  15.745 -0.2222 -2.0946  0.4978
 1300SOL     OW15535   0.332   4.621   9.269  0.7675  0.2776 -0.0656
 1300SOL    HW115536   0.399   4.674   9.312  0.1519 -0.3795  1.6980
 1300SOL    HW215537   0.259   4.679   9.293  0.0835 -0.2960 -0.7529
 1301SOL     OW15538   1.186   2.263   9.584  0.0782 -0.0405 -0.3917
 1301SOL    HW115539   1.183   2.354   9.553  3.2923 -0.0657 -0.8247
 1301SOL    HW215540   1.145   2.209   9.517 -2.4555  0.2987  0.9206
 1302SOL     OW15541   3.173   3.635   7.254 -0.0945 -0.0043  0.4700
 1302SOL    HW115542   3.167   3.541   7.240 -0.1659  0.0541  0.0993
 1302SOL    HW215543   3.225   3.630   7.334 -0.5904  2.4662  0.9690
 1303SOL     OW15544   2.410   2.884   8.291 -0.3609 -0.2258 -0.0531
 1303SOL    HW115545   2.455   2.851   8.368 -1.9455 -1.5791  0.3146
 1303SOL    HW215546   2.473   2.903   8.221 -0.8259 -2.5412 -1.1304
 1304SOL     OW15547   3.163   1.522   2.110 -0.2512 -0.1285  0.4159
 1304SOL    HW115548   3.248   1.537   2.151  1.6288 -2.3905 -2.6698
 1304SOL    HW215549   3.168   1.581   2.035  2.5491  1.6393  2.0036
 1305SOL     OW15550   3.240   3.300   3.606  0.4244 -0.5136  1.0185
 1305SOL    HW115551   3.259   3.218   3.652  1.7976 -0.9068 -0.2581
 1305SOL    HW215552   3.322   3.312   3.557 -0.8555  2.9845 -0.2487
 1306SOL     OW15553   0.534   2.909   2.847  0.3837  0.3852  0.0531
 1306SOL    HW115554   0.488   2.832   2.879  0.6759  0.7595  1.3730
 1306SOL    HW215555   0.523   2.966   2.923  0.1541 -0.4446  0.6392
 1307SOL     OW15556   2.153   2.117   9.187  0.4578  0.5271  0.2189
 1307SOL    HW115557   2.216   2.046   9.198  2.5887  2.3697 -0.1384
 1307SOL    HW215558   2.065   2.079   9.194  1.0323 -0.9961 -0.7587
 1308SOL     OW15559   0.371   1.155  11.874  0.1493 -0.0423  0.6332
 1308SOL    HW115560   0.388   1.071  11.917  1.4631 -1.5711 -2.8131
 1308SOL    HW215561   0.319   1.131  11.797 -0.1067  0.0651  0.7758
 1309SOL     OW15562   0.519   3.757   1.459 -0.2857  0.5821  0.0261
 1309SOL    HW115563   0.596   3.800   1.498  0.9046 -0.7101 -0.9113
 1309SOL    HW215564   0.508   3.691   1.527 -1.1037  0.1053 -0.5760
 1310SOL     OW15565   3.174   1.705   9.884 -0.4593 -0.2261 -0.0974
 1310SOL    HW115566   3.198   1.797   9.882  1.8566 -0.8215  0.1825
 1310SOL    HW215567   3.175   1.686   9.978 -1.0225 -0.3844 -0.1273
 1311SOL     OW15568   2.649   4.174  10.816  0.0381 -0.3285 -0.0040
 1311SOL    HW115569   2.618   4.162  10.726  2.3708  2.8512 -1.2277
 1311SOL    HW215570   2.635   4.269  10.822 -2.5382 -0.9604  3.8682
 1312SOL     OW15571   1.174   2.364   5.323  0.6080 -0.4916  0.4542
 1312SOL    HW115572   1.133   2.352   5.408  0.1214  1.8892  0.5422
 1312SOL    HW215573   1.116   2.435   5.294  0.6694  0.6135  3.0441
 1313SOL     OW15574   1.749   3.822   8.805 -0.6860 -0.3624  0.1418
 1313SOL    HW115575   1.667   3.862   8.775 -0.9818 -1.2302 -0.2029
 1313SOL    HW215576   1.739   3.820   8.900  2.7517 -2.6179  0.4683
 1314SOL     OW15577   3.654   1.134   3.765 -0.5672  0.0112 -0.1767
 1314SOL    HW115578   3.617   1.110   3.850  0.4694  0.6793  0.4724
 1314SOL    HW215579   3.695   1.219   3.781 -1.6122  0.4792 -0.0385
 1315SOL     OW15580   0.438   1.745  11.808 -0.1884 -0.6347 -0.3586
 1315SOL    HW115581   0.378   1.676  11.782 -2.2130  0.9575  0.1108
 1315SOL    HW215582   0.514   1.695  11.839 -0.1817 -0.5881 -0.3004
 1316SOL     OW15583   2.974   1.170   0.419  0.1420 -0.4698 -0.3069
 1316SOL    HW115584   3.021   1.208   0.493 -1.6436  0.5524  0.2942
 1316SOL    HW215585   2.886   1.199   0.440 -1.2356 -2.0536 -3.8593
 1317SOL     OW15586   3.099   0.775  11.317  0.0516 -0.6051 -0.0763
 1317SOL    HW115587   3.054   0.693  11.335 -0.7583 -0.6652 -2.3250
 1317SOL    HW215588   3.024   0.833  11.303 -0.7592 -1.4458  0.8698
 1318SOL     OW15589   1.250   2.374  15.316  0.5199 -0.0525 -0.5981
 1318SOL    HW115590   1.263   2.451  15.371  2.5067  0.3160 -1.5792
 1318SOL    HW215591   1.314   2.393  15.247 -0.8396 -0.0690 -1.8692
 1319SOL     OW15592   3.298   4.240   8.978  0.3756 -0.7171  0.0207
 1319SOL    HW115593   3.346   4.234   9.060 -3.2396  0.2065  2.2026
 1319SOL    HW215594   3.250   4.157   8.983  1.8172 -1.5193  0.5583
 1320SOL     OW15595   4.088   1.336   6.236 -0.3423 -0.1769  0.3392
 1320SOL    HW115596   4.153   1.369   6.174 -0.7393  0.2718  0.1552
 1320SOL    HW215597   4.018   1.384   6.192 -0.0893  1.1687  1.3938
 1321SOL     OW15598   1.704   2.241   2.514 -0.3328 -0.6285  0.0665
 1321SOL    HW115599   1.687   2.326   2.553  0.8342 -0.4075  0.0784
 1321SOL    HW215600   1.650   2.183   2.569 -1.5144 -0.4801 -0.9367
 1322SOL     OW15601   4.278   4.321   7.502  0.2890  0.2224 -0.1270
 1322SOL    HW115602   4.333   4.245   7.523  0.1800 -0.2140 -1.4504
 1322SOL    HW215603   4.205   4.280   7.455  0.4193 -1.1447  0.8519
 1323SOL     OW15604   3.037   1.773   4.535 -0.3579 -1.1146 -0.8361
 1323SOL    HW115605   3.009   1.821   4.613  1.0467 -1.2359 -0.2753
 1323SOL    HW215606   3.072   1.846   4.484  0.8657 -0.4759  0.9466
 1324SOL     OW15607   0.549   0.878   6.243 -0.0442 -0.0608  0.3682
 1324SOL    HW115608   0.463   0.850   6.274 -0.5293  1.9522  0.8217
 1324SOL    HW215609   0.572   0.924   6.323  1.1167  1.4242 -0.8238
 1325SOL     OW15610   1.458   0.165  10.304 -0.3097 -0.2104  0.4235
 1325SOL    HW115611   1.366   0.145  10.287 -0.9941  2.0342  1.3960
 1325SOL    HW215612   1.475   0.244  10.252  0.3143 -0.1352  0.7420
 1326SOL     OW15613   2.721   4.514   6.597 -0.5954 -0.5471  0.4587
 1326SOL    HW115614   2.643   4.503   6.542 -1.2445  0.1826  1.2295
 1326SOL    HW215615   2.774   4.575   6.544 -1.8356 -1.3989 -1.7875
 1327SOL     OW15616   2.855   1.273   2.427  0.1386  0.5215 -0.5332
 1327SOL    HW115617   2.784   1.275   2.364  0.7206  0.7410 -1.1818
 1327SOL    HW215618   2.909   1.344   2.394  1.6626 -1.2488 -1.8871
 1328SOL     OW15619   3.347   3.643   7.893 -0.0782  0.2386 -0.4592
 1328SOL    HW115620   3.356   3.597   7.977 -1.2868 -1.0704 -1.0515
 1328SOL    HW215621   3.438   3.645   7.865  1.3285  1.2725  4.0942
 1329SOL     OW15622   4.325   2.248   6.499  0.2253 -0.2309 -0.8060
 1329SOL    HW115623   4.358   2.337   6.512  1.6295 -0.9800  0.7105
 1329SOL    HW215624   4.325   2.214   6.589  0.4647  0.9660 -0.3487
 1330SOL     OW15625   0.124   2.375   8.307  0.2097 -0.5978 -0.2167
 1330SOL    HW115626   0.174   2.456   8.321 -0.9693  0.0674  0.1085
 1330SOL    HW215627   0.112   2.391   8.213 -2.6562  1.3526  0.4953
 1331SOL     OW15628   3.767   2.934  14.320  0.6584 -0.3807  0.5607
 1331SOL    HW115629   3.854   2.894  14.328  0.3721 -1.0696  0.2053
 1331SOL    HW215630   3.760   2.996  14.392 -3.2422 -1.9094  1.4990
 1332SOL     OW15631   3.124   1.490   6.605  0.3279  0.9455 -0.4763
 1332SOL    HW115632   3.059   1.556   6.580 -0.3377  0.1501 -0.8323
 1332SOL    HW215633   3.076   1.411   6.628  0.0527  0.9556 -1.0380
 1333SOL     OW15634   2.591   2.939   1.481 -0.7556  0.0057 -0.4307
 1333SOL    HW115635   2.562   3.006   1.419  0.7599  2.2475  1.2951
 1333SOL    HW215636   2.530   2.943   1.554 -2.0007 -1.6720 -1.3729
 1334SOL     OW15637   1.417   2.412   8.489 -0.2892  0.2094 -0.2592
 1334SOL    HW115638   1.380   2.396   8.402 -0.0613 -3.2030  0.2685
 1334SOL    HW215639   1.482   2.474   8.458 -0.2245 -0.6790 -1.8992
 1335SOL     OW15640   1.518   2.418   4.314  0.3563  0.4160 -0.1154
 1335SOL    HW115641   1.457   2.488   4.335 -1.0013 -1.0608  0.8706
 1335SOL    HW215642   1.602   2.459   4.333  0.7161 -0.1806 -0.4171
 1336SOL     OW15643   0.855   2.207  12.209  0.0698  0.2008 -0.7481
 1336SOL    HW115644   0.931   2.245  12.165 -0.0064  1.3930  0.1260
 1336SOL    HW215645   0.793   2.280  12.201 -0.4203 -0.0465  0.6865
 1337SOL     OW15646   0.695   2.267  14.781  0.0702  0.2024  0.0802
 1337SOL    HW115647   0.604   2.287  14.805  0.8547  1.6027  1.9173
 1337SOL    HW215648   0.707   2.304  14.693 -0.4110  0.1569 -0.0027
 1338SOL     OW15649   3.124   0.671  14.178  0.3603 -0.9245 -0.0527
 1338SOL    HW115650   3.067   0.642  14.250  3.0628  0.6539  2.6883
 1338SOL    HW215651   3.099   0.601  14.118  1.2617 -1.0063 -0.3273
 1339SOL     OW15652   2.727   4.407  10.526 -0.0901 -0.5765  0.0336
 1339SOL    HW115653   2.691   4.471  10.464 -1.1690  0.3264  1.5784
 1339SOL    HW215654   2.757   4.334  10.472 -0.4971  0.0220 -1.0114
 1340SOL     OW15655   0.143   1.116   9.778  0.0888 -0.0127 -0.1268
 1340SOL    HW115656   0.081   1.150   9.842  0.7713 -0.1678  0.6157
 1340SOL    HW215657   0.207   1.093   9.846 -0.9001  0.6903  1.0268
 1341SOL     OW15658   0.325   2.631   5.458  0.6647 -0.2302  0.0894
 1341SOL    HW115659   0.264   2.704   5.458 -1.4226 -1.9671 -2.6927
 1341SOL    HW215660   0.286   2.582   5.386  0.6651  1.3953 -1.0099
 1342SOL     OW15661   2.027   0.195   2.246  0.3333 -0.0704  0.2023
 1342SOL    HW115662   2.105   0.142   2.231 -1.9754 -3.7128  1.1580
 1342SOL    HW215663   2.039   0.269   2.185  0.4358  0.9009  1.4040
 1343SOL     OW15664   3.665   3.674  11.641  0.1441 -0.5842  0.2861
 1343SOL    HW115665   3.723   3.647  11.570 -0.9240  1.0068 -1.2073
 1343SOL    HW215666   3.594   3.719  11.594  0.1060  0.5862  1.4848
 1344SOL     OW15667   1.096   0.448   0.374 -0.0824 -0.1808 -0.2201
 1344SOL    HW115668   1.118   0.356   0.390 -1.6726 -0.6962 -1.0649
 1344SOL    HW215669   1.088   0.436   0.279  0.0571  2.2847 -0.5409
 1345SOL     OW15670   0.436   2.535   5.043 -0.2480 -0.2380  0.1209
 1345SOL    HW115671   0.384   2.605   5.083  0.4771  0.8302 -0.8048
 1345SOL    HW215672   0.368   2.469   5.028  0.0357 -0.9857  2.1534
 1346SOL     OW15673   3.222   0.522   9.028 -0.0329  0.5316 -0.2225
 1346SOL    HW115674   3.143   0.534   8.975  0.0379 -2.1063 -0.9109
 1346SOL    HW215675   3.174   0.482   9.101  0.5013  0.9996  0.3770
 1347SOL     OW15676   2.598   2.412   7.698  0.0179  0.4622  0.1222
 1347SOL    HW115677   2.565   2.363   7.774 -1.1831  0.4445 -0.4180
 1347SOL    HW215678   2.657   2.348   7.659 -0.6244 -1.4518  2.2683
 1348SOL     OW15679   4.379   3.275   4.373 -0.2760 -0.4198  0.0240
 1348SOL    HW115680   4.392   3.257   4.467 -0.1675  0.2839  0.1416
 1348SOL    HW215681   4.409   3.366   4.370 -1.7904  0.1279  1.9802
 1349SOL     OW15682   1.200   4.529   7.794  0.2675  0.2499 -0.1901
 1349SOL    HW115683   1.231   4.439   7.783  1.1504  0.9124 -2.8991
 1349SOL    HW215684   1.272   4.562   7.740  0.6832  0.8235  0.7127
 1350SOL     OW15685   3.194   1.117  17.726  0.2988  0.0191  0.0811
 1350SOL    HW115686   3.122   1.171  17.696 -0.7935 -0.5301  1.6942
 1350SOL    HW215687   3.262   1.116  17.658  1.2362  1.0149  0.9982
 1351SOL     OW15688   3.641   0.662  12.438 -0.1587  0.5165 -0.0641
 1351SOL    HW115689   3.720   0.639  12.390  0.1485 -2.2307  1.6997
 1351SOL    HW215690   3.591   0.580  12.433  0.3024  0.1542  1.2335
 1352SOL     OW15691   2.451   4.544   4.940 -0.5597 -0.2553  0.2289
 1352SOL    HW115692   2.421   4.635   4.937  1.9972  0.5209 -1.6819
 1352SOL    HW215693   2.403   4.520   4.860 -1.4361  0.0476  0.6674
 1353SOL     OW15694   2.070   1.761   7.980 -0.3561  0.1645 -0.5445
 1353SOL    HW115695   2.057   1.696   8.049 -1.7511  0.5333 -0.4589
 1353SOL    HW215696   2.158   1.795   7.990 -0.0958 -1.2818  1.9579
 1354SOL     OW15697   2.364   0.808  10.901  0.3035  0.1423 -0.2333
 1354SOL    HW115698   2.398   0.786  10.987 -1.0958  0.9387  0.5283
 1354SOL    HW215699   2.428   0.874  10.876  0.8525 -1.1404 -2.1809
 1355SOL     OW15700   4.002   0.259  13.040  0.1054 -0.0176  0.3141
 1355SOL    HW115701   4.050   0.177  13.025 -0.0703  0.1073 -0.9586
 1355SOL    HW215702   3.918   0.235  13.001 -0.0868 -1.3052  1.5222
 1356SOL     OW15703   0.572   4.512   3.589  0.2184  0.4558 -1.3029
 1356SOL    HW115704   0.525   4.596   3.589  0.7275  0.7448 -0.6980
 1356SOL    HW215705   0.620   4.526   3.671 -0.1623 -0.8886 -0.8642
 1357SOL     OW15706   1.813   0.785  12.712 -0.6089 -0.1804  0.1110
 1357SOL    HW115707   1.725   0.817  12.693 -1.4558 -2.8320 -0.5490
 1357SOL    HW215708   1.856   0.870  12.720  0.3214 -0.5180 -1.2229
 1358SOL     OW15709   2.241   4.045   5.476  0.5555 -0.2283 -0.0974
 1358SOL    HW115710   2.275   4.076   5.392 -0.2679  1.1868  0.0848
 1358SOL    HW215711   2.155   4.014   5.447 -0.3616  0.4701  1.8645
 1359SOL     OW15712   3.973   3.612   8.303  0.3064 -0.2110 -0.1548
 1359SOL    HW115713   4.037   3.634   8.372 -0.5173  2.5183 -0.2800
 1359SOL    HW215714   3.987   3.680   8.237 -1.8585  1.1983  0.8161
 1360SOL     OW15715   0.779   1.915   2.618 -0.2705 -0.7485  0.2672
 1360SOL    HW115716   0.797   1.878   2.705 -1.3681  0.1771  0.8862
 1360SOL    HW215717   0.821   2.001   2.630 -1.6214 -0.0285 -0.2507
 1361SOL     OW15718   3.638   3.819  11.882  0.1956 -0.7135 -0.4622
 1361SOL    HW115719   3.614   3.732  11.916 -1.0625  0.4767  1.6919
 1361SOL    HW215720   3.649   3.799  11.789 -0.1226  2.0751 -1.0932
 1362SOL     OW15721   2.332   4.027  11.326 -0.4546 -0.3653  0.6158
 1362SOL    HW115722   2.272   4.100  11.313  0.9582  0.4228 -1.4559
 1362SOL    HW215723   2.413   4.073  11.301 -1.2953  1.3450  1.0210
 1363SOL     OW15724   0.706   1.021   0.411 -0.1503 -0.0300  0.3047
 1363SOL    HW115725   0.680   1.027   0.503 -0.2953  0.1592  0.2521
 1363SOL    HW215726   0.747   1.107   0.406 -2.1902  0.6874 -4.0279
 1364SOL     OW15727   0.980   1.123  16.654 -0.1556 -0.0357 -0.5300
 1364SOL    HW115728   1.057   1.152  16.604  1.0237 -0.3130  1.1373
 1364SOL    HW215729   0.918   1.195  16.646  0.2108  0.3468  0.0834
 1365SOL     OW15730   2.631   4.348   3.302 -0.4232 -0.1761 -0.6883
 1365SOL    HW115731   2.720   4.320   3.281  0.9903  1.3945  3.1986
 1365SOL    HW215732   2.645   4.375   3.393 -0.0722 -0.7866 -0.5550
 1366SOL     OW15733   4.490   2.805   3.448 -0.2742  0.1437 -0.0850
 1366SOL    HW115734   4.474   2.801   3.353  0.5135  1.0126 -0.2543
 1366SOL    HW215735   4.562   2.868   3.449  0.3728 -0.6056  0.1373
 1367SOL     OW15736   2.979   2.256  14.713  0.2141 -0.0607  0.1640
 1367SOL    HW115737   2.937   2.336  14.747 -2.5283 -0.5033 -2.1199
 1367SOL    HW215738   3.054   2.277  14.657  0.5031  0.7557  0.8461
 1368SOL     OW15739   0.202   4.507   5.978  0.7959 -0.3776  0.1307
 1368SOL    HW115740   0.252   4.458   6.043 -0.3085 -1.1222  0.4243
 1368SOL    HW215741   0.121   4.456   5.980  1.0228 -0.6748  1.5148
 1369SOL     OW15742   4.457   1.562   3.492 -0.5585  0.1067  0.3370
 1369SOL    HW115743   4.429   1.614   3.568  0.3843  1.8524 -0.5125
 1369SOL    HW215744   4.395   1.574   3.420 -2.4703 -1.8922  1.6579
 1370SOL     OW15745   0.499   2.675   6.123 -0.1139 -0.1568 -0.0570
 1370SOL    HW115746   0.506   2.602   6.186  1.0713 -1.3698 -1.5845
 1370SOL    HW215747   0.420   2.706   6.166 -0.9798 -0.1421 -1.6643
 1371SOL     OW15748   1.489   3.561   3.804  0.5867 -0.3606 -0.0737
 1371SOL    HW115749   1.396   3.576   3.788  0.9330  1.4848 -0.3467
 1371SOL    HW215750   1.524   3.648   3.823 -0.9282 -0.2418  2.3223
 1372SOL     OW15751   1.124   2.291  15.962 -0.7153 -0.4847 -0.4786
 1372SOL    HW115752   1.143   2.346  16.037 -1.6744 -0.9237  0.0924
 1372SOL    HW215753   1.124   2.202  15.996 -1.4714 -0.9287 -1.6223
 1373SOL     OW15754   3.815   3.450   3.719 -0.4711  0.3642 -0.2274
 1373SOL    HW115755   3.781   3.509   3.653 -1.1469  2.6495  2.1593
 1373SOL    HW215756   3.735   3.400   3.737  0.6382 -1.3801 -0.1388
 1374SOL     OW15757   2.551   3.421   8.317  0.2828 -0.0046  0.0409
 1374SOL    HW115758   2.562   3.420   8.412  0.2379  0.9400  0.0543
 1374SOL    HW215759   2.638   3.398   8.285  1.1080  1.8877  0.9288
 1375SOL     OW15760   2.190   0.628   4.561 -0.8348 -0.2198  0.0698
 1375SOL    HW115761   2.181   0.703   4.502 -3.4408  0.1872  1.0052
 1375SOL    HW215762   2.159   0.561   4.500 -0.0222  1.0374 -1.7506
 1376SOL     OW15763   1.064   0.653  15.362 -0.7529  0.1999 -0.7697
 1376SOL    HW115764   1.151   0.691  15.374 -0.8025 -0.3298  1.2176
 1376SOL    HW215765   1.073   0.566  15.400 -0.5181 -0.0268 -1.3422
 1377SOL     OW15766   1.130   3.987   7.772 -0.2711 -0.3691 -0.1128
 1377SOL    HW115767   1.094   4.075   7.788  1.7893  0.3649  0.5354
 1377SOL    HW215768   1.176   4.003   7.689  0.6879 -0.1429  0.4580
 1378SOL     OW15769   2.106   0.933   1.656 -0.0393 -0.6152  0.2827
 1378SOL    HW115770   2.026   0.981   1.639  1.6559  2.0692 -0.0387
 1378SOL    HW215771   2.091   0.857   1.599 -0.7257 -0.4446  0.2429
 1379SOL     OW15772   0.186   0.733  13.742 -0.2667 -0.3486  0.5916
 1379SOL    HW115773   0.180   0.725  13.837  0.2620 -3.5077  0.3415
 1379SOL    HW215774   0.272   0.694  13.726  1.4086  3.2059  0.8866
 1380SOL     OW15775   4.660   3.145   7.164  0.2717 -0.1527  0.0220
 1380SOL    HW115776   4.719   3.193   7.222  0.8996 -0.0661 -0.6933
 1380SOL    HW215777   4.626   3.077   7.222  0.5908 -1.3770 -1.2399
 1381SOL     OW15778   1.150   0.330   3.842  0.5733  0.1704  0.0053
 1381SOL    HW115779   1.157   0.294   3.931 -1.1038 -1.4970 -0.5569
 1381SOL    HW215780   1.231   0.302   3.800 -0.0531 -1.3476 -0.1877
 1382SOL     OW15781   0.769   3.218   3.502  0.1680 -0.4434 -0.2280
 1382SOL    HW115782   0.861   3.195   3.494  0.0116 -1.0142 -0.4161
 1382SOL    HW215783   0.766   3.229   3.597  2.5978  0.3895 -0.2438
 1383SOL     OW15784   2.776   4.043   4.387 -0.5349  0.1742  0.5205
 1383SOL    HW115785   2.844   4.067   4.324  1.2936 -0.5697  2.1947
 1383SOL    HW215786   2.812   3.959   4.415 -1.9201 -0.6419 -0.1457
 1384SOL     OW15787   3.914   0.493   4.417 -0.2299  0.3866 -0.1392
 1384SOL    HW115788   3.958   0.419   4.460 -1.1904 -0.0217  0.1207
 1384SOL    HW215789   3.949   0.573   4.457 -0.0047  0.3848 -0.3345
 1385SOL     OW15790   3.480   1.440   8.160 -0.2354  0.0977 -0.0685
 1385SOL    HW115791   3.433   1.453   8.243  0.5484 -0.5233  0.4773
 1385SOL    HW215792   3.434   1.369   8.116  0.6539 -0.5894  0.1128
 1386SOL     OW15793   1.118   1.222   9.159 -0.3060 -0.3486 -0.2579
 1386SOL    HW115794   1.064   1.297   9.135 -2.2506 -1.3610  1.0030
 1386SOL    HW215795   1.048   1.173   9.201  0.0326 -1.8092 -1.3872
 1387SOL     OW15796   1.144   4.193   6.864 -0.0247 -0.0850 -0.5048
 1387SOL    HW115797   1.195   4.195   6.945 -0.4642 -0.5550 -0.2178
 1387SOL    HW215798   1.053   4.175   6.888  0.4121 -2.1175 -0.3662
 1388SOL     OW15799   3.003   4.497  14.101 -0.9962 -0.5621 -0.0255
 1388SOL    HW115800   3.044   4.564  14.156 -1.0263 -0.5461 -0.0221
 1388SOL    HW215801   2.927   4.550  14.076 -0.5022 -0.2916 -0.9594
 1389SOL     OW15802   3.254   3.914   6.319 -0.1303  0.0894 -0.2341
 1389SOL    HW115803   3.190   3.976   6.355 -2.8175 -2.1635 -1.1107
 1389SOL    HW215804   3.341   3.945   6.345 -0.7594  2.2766 -0.7154
 1390SOL     OW15805   0.100   3.853  14.684  0.5983  0.3142  0.1682
 1390SOL    HW115806   0.141   3.865  14.769 -3.6116 -0.0370  2.2558
 1390SOL    HW215807   0.008   3.872  14.701 -0.1237 -1.5655 -1.6345
 1391SOL     OW15808   2.860   4.317   2.865  0.2750  0.2594  0.4199
 1391SOL    HW115809   2.884   4.383   2.930  0.9277  0.1593  0.2754
 1391SOL    HW215810   2.767   4.318   2.888  0.0023 -0.1626 -0.6283
 1392SOL     OW15811   2.603   2.008   3.070 -0.3925  0.3236 -0.0903
 1392SOL    HW115812   2.646   2.070   3.012 -0.1066 -0.3608 -0.6169
 1392SOL    HW215813   2.657   1.930   3.057 -0.8827 -0.2088  1.0473
 1393SOL     OW15814   0.906   3.250   4.269  0.1145 -0.2389  0.3115
 1393SOL    HW115815   0.860   3.176   4.309 -0.3928  0.2689  0.6569
 1393SOL    HW215816   0.848   3.268   4.195  1.6255 -0.2677 -0.8801
 1394SOL     OW15817   4.353   0.897   7.290  0.1534 -0.1696  0.3547
 1394SOL    HW115818   4.349   0.990   7.266 -0.5822 -0.8618 -2.1971
 1394SOL    HW215819   4.444   0.889   7.318  0.4462 -1.5475 -1.0328
 1395SOL     OW15820   2.976   0.533   8.908 -0.2584 -0.3445  0.3237
 1395SOL    HW115821   2.970   0.438   8.900 -1.4122 -0.2310 -0.1593
 1395SOL    HW215822   2.923   0.561   8.834  1.9081  1.4908 -0.5149
 1396SOL     OW15823   2.882   4.415   4.962 -0.3141  0.1156  0.2031
 1396SOL    HW115824   2.797   4.414   4.917  0.4807  2.8319 -1.3886
 1396SOL    HW215825   2.936   4.373   4.896 -2.4909  1.0305 -2.1756
 1397SOL     OW15826   0.515   0.280   7.600 -0.1011  0.2470  0.5126
 1397SOL    HW115827   0.498   0.356   7.656  1.1105  0.8506  0.0534
 1397SOL    HW215828   0.422   0.268   7.581  0.0184  0.6839 -0.3361
 1398SOL     OW15829   2.770   0.533   8.283  0.2712 -0.0092  0.0080
 1398SOL    HW115830   2.735   0.528   8.372  0.5859 -1.8320  0.0180
 1398SOL    HW215831   2.691   0.553   8.233  0.0039  2.8204  1.5605
 1399SOL     OW15832   4.695   2.779   9.966 -0.0959 -0.1774 -0.1937
 1399SOL    HW115833   4.639   2.844   9.923 -1.7519 -2.6116 -1.7916
 1399SOL    HW215834   4.681   2.799  10.058 -0.6946  0.6381 -0.4607
 1400SOL     OW15835   2.953   1.722   9.702  0.2147  0.3671  0.5922
 1400SOL    HW115836   3.005   1.729   9.783  1.7700 -2.5862 -0.1572
 1400SOL    HW215837   2.869   1.753   9.735  1.0032  3.3132 -0.1345
 1401SOL     OW15838   0.012   3.026   8.071 -0.3062  0.2618  0.0182
 1401SOL    HW115839   0.054   3.111   8.081  1.8889 -0.6181 -1.7325
 1401SOL    HW215840   4.698   3.033   8.152  0.7398  1.0481  0.6063
 1402SOL     OW15841   4.599   2.339   9.152 -0.1793 -0.9174 -0.3752
 1402SOL    HW115842   4.520   2.349   9.099  0.8382  1.1677 -1.4936
 1402SOL    HW215843   4.560   2.292   9.225 -0.6675 -0.0818 -0.0993
 1403SOL     OW15844   0.861   0.496   2.797  0.4093  0.1306 -0.2760
 1403SOL    HW115845   0.843   0.406   2.768  0.0014  0.2526 -0.4084
 1403SOL    HW215846   0.792   0.545   2.751 -0.9813 -0.5018  1.1219
 1404SOL     OW15847   0.319   3.997   3.341 -0.7579  0.4223 -0.2373
 1404SOL    HW115848   0.387   4.057   3.372  0.6501 -1.0012 -0.6377
 1404SOL    HW215849   0.367   3.916   3.328  0.3407  1.1561 -0.7238
 1405SOL     OW15850   1.604   3.217   9.284 -0.7224 -0.5647 -0.1989
 1405SOL    HW115851   1.606   3.130   9.324  0.3725 -1.3162 -1.8518
 1405SOL    HW215852   1.695   3.239   9.304 -0.6652 -3.0415  2.2815
 1406SOL     OW15853   3.896   1.025   2.373 -0.6543 -0.1270 -0.1094
 1406SOL    HW115854   3.897   1.097   2.435 -0.0229 -0.2062 -0.0263
 1406SOL    HW215855   3.883   0.945   2.425  0.1316 -1.4573 -1.9527
 1407SOL     OW15856   2.889   4.418   2.010 -0.2572  0.3305 -0.1770
 1407SOL    HW115857   2.927   4.492   2.058 -1.1285  0.7078 -0.0652
 1407SOL    HW215858   2.830   4.477   1.963 -1.0217  0.5369  1.0512
 1408SOL     OW15859   4.367   1.923   4.741  0.0171  0.1056  0.8474
 1408SOL    HW115860   4.317   1.841   4.736 -0.5321  0.5927 -2.1334
 1408SOL    HW215861   4.454   1.884   4.728  0.2766  1.6375 -1.9419
 1409SOL     OW15862   0.188   2.944   3.865 -0.0345  0.5467 -0.6749
 1409SOL    HW115863   0.130   2.879   3.825  1.8468  0.2500 -2.9124
 1409SOL    HW215864   0.216   2.910   3.950 -2.7554  1.7782  0.7086
 1410SOL     OW15865   0.623   4.736  10.856 -0.2884  0.4168 -0.4069
 1410SOL    HW115866   0.561   0.058  10.813 -0.6507 -1.1006 -1.9794
 1410SOL    HW215867   0.609   4.652  10.811 -0.1576  0.7695 -1.1074
 1411SOL     OW15868   4.142   2.203  11.888  0.5443 -0.2467  0.1054
 1411SOL    HW115869   4.156   2.111  11.912  0.1253 -0.4087 -0.2615
 1411SOL    HW215870   4.047   2.211  11.877  0.7249 -0.3559 -1.5456
 1412SOL     OW15871   0.197   0.485  14.854  0.3071 -0.4323 -0.4318
 1412SOL    HW115872   0.290   0.468  14.841  0.2503  0.7990 -2.4643
 1412SOL    HW215873   0.201   0.579  14.875  1.6149 -0.4252 -0.7140
 1413SOL     OW15874   4.276   2.365  17.117 -0.0034  0.3675 -0.0986
 1413SOL    HW115875   4.203   2.393  17.061 -0.7618  1.6809  1.5423
 1413SOL    HW215876   4.298   2.280  17.080 -1.2423 -0.8195  1.8770
 1414SOL     OW15877   1.911   4.176   8.013  0.0350  0.2781  0.2633
 1414SOL    HW115878   1.900   4.210   8.102 -0.0709 -0.9585  0.7274
 1414SOL    HW215879   1.955   4.258   7.990  0.9747 -0.0125  1.0009
 1415SOL     OW15880   4.648   4.073   6.665  0.0693  0.5682  0.4015
 1415SOL    HW115881   4.567   4.076   6.613 -0.4564 -1.8101  1.1055
 1415SOL    HW215882   4.649   4.160   6.707 -0.7503  0.8271 -0.0956
 1416SOL     OW15883   3.331   4.240   6.530  0.3367 -0.3280  0.2603
 1416SOL    HW115884   3.374   4.245   6.616 -0.4055  0.3025  0.6041
 1416SOL    HW215885   3.381   4.304   6.480 -1.6361 -1.8464 -3.5796
 1417SOL     OW15886   2.432   3.693   2.123  0.6601 -0.1715 -0.2982
 1417SOL    HW115887   2.447   3.632   2.195 -0.3903 -0.2570 -0.1520
 1417SOL    HW215888   2.431   3.775   2.172  0.1221 -0.2099 -0.2358
 1418SOL     OW15889   3.654   3.325   8.986 -0.4591  0.2331 -0.4817
 1418SOL    HW115890   3.722   3.280   8.937  0.3362 -0.1691  0.9916
 1418SOL    HW215891   3.687   3.414   8.977 -0.6858  0.1187 -2.3310
 1419SOL     OW15892   0.139   0.416   3.226 -0.6229 -0.4911 -0.3262
 1419SOL    HW115893   0.167   0.324   3.230 -3.1656 -1.2574 -0.7334
 1419SOL    HW215894   0.166   0.447   3.313 -0.0103  1.3047 -1.1639
 1420SOL     OW15895   4.083   4.031   1.273 -0.1183  0.0474  0.3397
 1420SOL    HW115896   4.044   4.001   1.191  0.1180  0.3047  0.1353
 1420SOL    HW215897   4.059   3.955   1.327 -3.7744  0.0887 -1.2348
 1421SOL     OW15898   2.044   2.606   5.582  0.2677 -0.0005  0.3598
 1421SOL    HW115899   2.134   2.591   5.553 -0.9450 -2.2350 -2.1901
 1421SOL    HW215900   2.041   2.702   5.587 -2.1321 -0.0634 -0.3229
 1422SOL     OW15901   4.029   0.816   7.526 -0.8845  0.2035 -0.1770
 1422SOL    HW115902   4.104   0.822   7.585  0.2132  1.4206 -1.6948
 1422SOL    HW215903   4.057   0.875   7.457 -2.4648 -0.0771 -1.0678
 1423SOL     OW15904   2.983   1.425  14.242 -0.1928 -0.3243  0.0982
 1423SOL    HW115905   2.939   1.441  14.158 -1.0432  3.5260  1.2740
 1423SOL    HW215906   3.055   1.370  14.213 -0.4092  0.2576 -1.5835
 1424SOL     OW15907   0.640   4.580   6.630 -0.1405  0.4691  0.0533
 1424SOL    HW115908   0.631   4.493   6.668 -0.3670  0.4302 -0.0909
 1424SOL    HW215909   0.693   4.631   6.691 -0.8172  0.6584  0.4770
 1425SOL     OW15910   4.526   4.028   5.984 -0.3949  0.1254 -0.4568
 1425SOL    HW115911   4.616   3.998   5.969 -1.2394 -2.2457 -0.6721
 1425SOL    HW215912   4.479   3.946   5.995  0.3788 -0.2267  0.2207
 1426SOL     OW15913   3.938   3.187   1.535  0.3298 -0.3825  0.0490
 1426SOL    HW115914   3.911   3.174   1.626 -1.9825  2.4391 -0.2282
 1426SOL    HW215915   4.005   3.254   1.546 -0.2242  0.0339  0.8765
 1427SOL     OW15916   0.356   3.967   1.829  0.8906  0.7475 -0.2357
 1427SOL    HW115917   0.423   3.898   1.833  1.9625  2.0452  3.2062
 1427SOL    HW215918   0.394   4.038   1.880  2.2053 -0.8609  1.0491
 1428SOL     OW15919   3.026   3.802   1.983 -0.5444 -0.0585 -0.5702
 1428SOL    HW115920   3.112   3.768   1.960 -0.1857 -1.3596  2.7588
 1428SOL    HW215921   3.048   3.875   2.041  1.4863  0.0804 -1.5203
 1429SOL     OW15922   1.791   3.632   8.211 -0.0552  0.1065 -0.5792
 1429SOL    HW115923   1.854   3.667   8.274 -1.3197  0.7873  0.3185
 1429SOL    HW215924   1.784   3.538   8.225 -1.9327  0.0845 -1.5700
 1430SOL     OW15925   1.750   1.345   3.425  0.6687  0.2798  0.1877
 1430SOL    HW115926   1.834   1.303   3.443  0.8574  0.4878 -0.2132
 1430SOL    HW215927   1.692   1.270   3.437  0.4426  0.7746  2.2677
 1431SOL     OW15928   2.851   2.277   9.255  0.5759 -0.0107  0.5478
 1431SOL    HW115929   2.759   2.294   9.275  0.5983  0.6353  0.0810
 1431SOL    HW215930   2.843   2.209   9.188 -1.7029  2.1383 -1.3411
 1432SOL     OW15931   0.033   4.575  10.164  0.5608  0.5774 -0.1939
 1432SOL    HW115932   0.102   4.582  10.098  0.4822 -0.8646 -0.4427
 1432SOL    HW215933   0.077   4.510  10.220  1.4832  1.3624  0.0074
 1433SOL     OW15934   3.577   1.175   8.341  0.2285  0.1360  0.1080
 1433SOL    HW115935   3.600   1.236   8.271  1.2572  0.0398  0.3598
 1433SOL    HW215936   3.589   1.086   8.308  0.0614 -0.8845  2.7808
 1434SOL     OW15937   2.110   3.954   9.178  0.1452 -0.2494 -0.1457
 1434SOL    HW115938   2.021   3.951   9.214  0.3422 -0.6547  0.3015
 1434SOL    HW215939   2.110   4.047   9.153  0.3916 -0.6947 -1.7755
 1435SOL     OW15940   2.267   3.923   7.772 -0.2668 -0.1015  0.0458
 1435SOL    HW115941   2.248   4.011   7.738  2.3413  0.2780 -0.4199
 1435SOL    HW215942   2.343   3.949   7.825 -1.0070  2.4260 -0.1451
 1436SOL     OW15943   3.703   0.327  12.086  0.4159  0.1367 -0.8333
 1436SOL    HW115944   3.702   0.420  12.108 -0.8016 -0.3924  1.2845
 1436SOL    HW215945   3.611   0.299  12.088  0.8395 -1.2643 -1.0110
 1437SOL     OW15946   0.561   3.673  17.162  0.3432 -0.1400 -0.2184
 1437SOL    HW115947   0.501   3.602  17.187 -0.4373 -0.1194 -2.0077
 1437SOL    HW215948   0.631   3.614  17.134  0.7430 -0.1842  0.9019
 1438SOL     OW15949   4.373   2.899   9.679 -0.2075 -0.8997  0.7562
 1438SOL    HW115950   4.335   2.811   9.680  1.1393 -1.4934 -1.5169
 1438SOL    HW215951   4.421   2.897   9.596 -0.2903 -2.7105  0.7603
 1439SOL     OW15952   2.994   3.489   0.526  0.3711  0.1010  0.1063
 1439SOL    HW115953   3.064   3.518   0.584 -0.8489  2.4089  0.4166
 1439SOL    HW215954   2.933   3.562   0.528  0.6378  0.4287 -3.4756
 1440SOL     OW15955   0.270   0.234   8.527  0.6006  0.6262  0.3893
 1440SOL    HW115956   0.278   0.158   8.584 -0.4714  0.3039  0.1000
 1440SOL    HW215957   0.176   0.253   8.535  0.0378 -1.6855 -0.7708
 1441SOL     OW15958   0.596   0.892   1.733 -0.6869 -0.0237 -0.7757
 1441SOL    HW115959   0.514   0.932   1.762  0.3575  0.7243  1.1481
 1441SOL    HW215960   0.607   0.923   1.644  2.1063  0.9381 -0.0921
 1442SOL     OW15961   0.522   0.582   0.235  0.7699 -0.4278 -0.4499
 1442SOL    HW115962   0.496   0.653   0.294  0.2498 -0.8893 -0.1171
 1442SOL    HW215963   0.445   0.564   0.181  1.2033  0.9101 -1.4965
 1443SOL     OW15964   1.010   3.090  11.771  0.3366 -0.1408  0.2733
 1443SOL    HW115965   0.992   3.162  11.711  2.4038 -2.0401 -2.6300
 1443SOL    HW215966   1.100   3.115  11.790  0.3968  0.5239 -0.8906
 1444SOL     OW15967   2.949   2.721   6.292 -0.0472  0.0641 -0.7215
 1444SOL    HW115968   2.926   2.663   6.219  0.4471 -1.5833  0.4267
 1444SOL    HW215969   2.918   2.803   6.254  2.6216  2.6403  2.6234
 1445SOL     OW15970   3.267   4.074   8.117  0.0177  0.1349 -0.2907
 1445SOL    HW115971   3.306   4.027   8.190  0.1146  0.4194 -0.1588
 1445SOL    HW215972   3.254   4.004   8.053 -0.6271  0.5039 -0.5708
 1446SOL     OW15973   4.195   3.583   3.143 -0.0286 -0.2222  0.4898
 1446SOL    HW115974   4.219   3.537   3.223  1.1146  0.0013  0.2714
 1446SOL    HW215975   4.135   3.528   3.093 -0.0854 -1.5492  2.0365
 1447SOL     OW15976   1.851   1.987   3.128  0.0405  0.3008 -0.3836
 1447SOL    HW115977   1.760   2.017   3.138 -0.4376 -1.2793 -0.0657
 1447SOL    HW215978   1.860   1.916   3.191 -0.9366  0.0108 -0.5684
 1448SOL     OW15979   1.949   3.638  16.790 -0.1975 -0.3178  0.0116
 1448SOL    HW115980   1.952   3.549  16.825  2.4792  0.3530  1.4636
 1448SOL    HW215981   1.857   3.660  16.808  0.4092  1.8451  0.5044
 1449SOL     OW15982   0.009   0.400   4.708 -0.0998 -0.0343 -0.5025
 1449SOL    HW115983   0.002   0.362   4.795 -0.8722  0.2329 -0.4511
 1449SOL    HW215984   0.105   0.407   4.712 -0.1493  0.4045 -0.0611
 1450SOL     OW15985   2.449   1.197   5.851 -0.0611 -0.8758 -0.2582
 1450SOL    HW115986   2.402   1.113   5.854 -1.5515  0.0269  1.9773
 1450SOL    HW215987   2.433   1.234   5.938  4.0006 -0.4233  0.2923
 1451SOL     OW15988   4.705   2.418   8.840 -0.6339 -0.0644  0.0878
 1451SOL    HW115989   4.634   2.482   8.836 -0.1758  0.5038  1.1560
 1451SOL    HW215990   0.042   2.457   8.794 -0.7339 -1.2690 -1.1096
 1452SOL     OW15991   2.181   0.091   8.173  0.1916  0.1594  0.8704
 1452SOL    HW115992   2.212   0.146   8.245  1.5107  0.1351  0.3149
 1452SOL    HW215993   2.257   0.109   8.117 -0.0493 -1.6407 -0.0176
 1453SOL     OW15994   2.247   4.513   1.591 -0.0542 -0.6834  0.2499
 1453SOL    HW115995   2.167   4.460   1.596 -0.1928 -0.5907 -0.9890
 1453SOL    HW215996   2.220   4.597   1.628  2.5168 -0.1972  0.9973
 1454SOL     OW15997   0.894   2.608   7.345  0.0205  0.1493  0.2622
 1454SOL    HW115998   0.979   2.647   7.365  0.7583 -2.9305  3.1411
 1454SOL    HW215999   0.886   2.544   7.416 -1.3069 -0.1984 -0.1950
 1455SOL     OW16000   0.791   2.565   3.482  0.2163 -0.0433  0.0152
 1455SOL    HW116001   0.793   2.470   3.474  0.7059 -0.1496  1.4793
 1455SOL    HW216002   0.701   2.589   3.506 -0.5192 -0.0888 -2.7002
 1456SOL     OW16003   4.220   4.085   4.882 -0.1706 -0.0037 -0.8830
 1456SOL    HW116004   4.211   4.178   4.864 -0.1579  0.3317  0.7903
 1456SOL    HW216005   4.259   4.053   4.801  1.6937  2.5858 -1.0238
 1457SOL     OW16006   0.170   4.496   6.351  0.0660 -0.0585 -0.5903
 1457SOL    HW116007   0.189   4.471   6.441 -1.0919 -0.6544 -0.5171
 1457SOL    HW216008   0.142   4.587   6.365  2.4109  0.6666 -0.5592
 1458SOL     OW16009   2.580   1.882  12.500 -0.1311  0.0015 -0.4192
 1458SOL    HW116010   2.558   1.960  12.448  0.8285 -0.3799 -1.4030
 1458SOL    HW216011   2.532   1.904  12.580  1.7764 -1.1182  1.0211
 1459SOL     OW16012   4.101   0.550  16.467 -0.5976  0.1273  0.0754
 1459SOL    HW116013   4.100   0.550  16.371  0.3501 -0.0132  0.0655
 1459SOL    HW216014   4.019   0.597  16.481  0.0538  1.7875 -1.7145
 1460SOL     OW16015   1.482   2.625  10.844 -0.2315  0.4640 -0.0056
 1460SOL    HW116016   1.524   2.539  10.842 -0.1762  0.4845  0.2834
 1460SOL    HW216017   1.455   2.630  10.936  0.2190  2.5901  0.0120
 1461SOL     OW16018   0.734   2.227   7.622 -0.5167 -0.2372 -0.3010
 1461SOL    HW116019   0.705   2.200   7.535  1.3915 -0.4063 -0.8788
 1461SOL    HW216020   0.793   2.161   7.656 -0.3121  0.9277  1.6183
 1462SOL     OW16021   0.442   0.128   7.198 -0.3935  0.3040 -0.0172
 1462SOL    HW116022   0.371   0.189   7.182  1.8629  3.0688  0.4561
 1462SOL    HW216023   0.421   0.081   7.278 -2.8672 -0.3875 -1.0754
 1463SOL     OW16024   3.804   0.138   2.589  0.5035 -0.2837 -0.0125
 1463SOL    HW116025   3.734   0.198   2.562 -0.0585 -0.5903  0.7529
 1463SOL    HW216026   3.876   0.167   2.532  0.2981  0.3454  0.0443
 1464SOL     OW16027   2.509   4.597  12.544  0.0540  0.1546 -0.6843
 1464SOL    HW116028   2.499   4.571  12.453  2.0377  1.2238 -1.2122
 1464SOL    HW216029   2.564   4.675  12.545 -0.7998  0.7255  2.5602
 1465SOL     OW16030   1.605   4.561   0.798 -0.6120  0.0784  0.1383
 1465SOL    HW116031   1.519   4.601   0.791  0.5747  2.6383  0.0741
 1465SOL    HW216032   1.579   4.484   0.849  2.6410 -1.5965 -0.7247
 1466SOL     OW16033   3.473   2.805   2.183 -0.0483 -0.2534  0.0531
 1466SOL    HW116034   3.406   2.838   2.243 -0.0433  0.5545 -0.3921
 1466SOL    HW216035   3.527   2.762   2.250  1.1554  0.1439 -0.6679
 1467SOL     OW16036   0.025   0.889   2.702  0.4380  0.3639  0.4013
 1467SOL    HW116037   4.722   0.855   2.781  0.2316  2.0648  1.0312
 1467SOL    HW216038   0.042   0.803   2.664 -2.1953  0.7807 -1.6968
 1468SOL     OW16039   0.839   2.652   2.935 -0.1511  1.2910  0.0063
 1468SOL    HW116040   0.756   2.635   2.980  0.3616  1.2728  0.9532
 1468SOL    HW216041   0.836   2.601   2.854 -3.2668  0.1048  0.8466
 1469SOL     OW16042   1.192   1.032  14.646  0.2476 -0.1657 -0.0057
 1469SOL    HW116043   1.106   1.075  14.645 -1.5796 -3.8712  0.6192
 1469SOL    HW216044   1.162   0.942  14.634 -1.6798  0.6717 -1.6819
 1470SOL     OW16045   1.887   2.391  14.622 -0.1778 -0.1600  0.1532
 1470SOL    HW116046   1.915   2.472  14.664 -0.0993  1.1526 -2.4449
 1470SOL    HW216047   1.850   2.425  14.541  0.3890  0.3808  0.1273
 1471SOL     OW16048   2.208   2.322   1.841  0.7181 -0.2641  0.1174
 1471SOL    HW116049   2.188   2.330   1.747 -0.4947 -3.0092  0.1375
 1471SOL    HW216050   2.129   2.364   1.876  0.7911  1.5112 -1.8504
 1472SOL     OW16051   2.694   0.944  10.271  0.0435  0.3704  0.1045
 1472SOL    HW116052   2.632   0.878  10.239 -0.1134 -0.1879  1.5432
 1472SOL    HW216053   2.702   0.929  10.365  3.1786 -1.5019 -0.4628
 1473SOL     OW16054   3.736   4.432   7.665  0.0305 -0.3632  0.2117
 1473SOL    HW116055   3.714   4.525   7.668  1.6176  0.0264 -0.1167
 1473SOL    HW216056   3.716   4.416   7.758  2.7787 -0.0241  0.8781
 1474SOL     OW16057   3.666   2.038   7.682 -0.2223  0.4846 -0.6428
 1474SOL    HW116058   3.680   1.973   7.613 -0.4223  0.0886 -0.3059
 1474SOL    HW216059   3.753   2.077   7.676  0.5385 -1.0818  0.2352
 1475SOL     OW16060   1.670   4.403   6.692  0.0373  0.2128 -0.7789
 1475SOL    HW116061   1.674   4.433   6.601  2.1768 -1.4766 -1.2300
 1475SOL    HW216062   1.596   4.449   6.732  2.1733  2.2615  0.8071
 1476SOL     OW16063   2.965   1.462  12.522 -0.3019 -0.4963  0.0854
 1476SOL    HW116064   3.044   1.490  12.476  0.5534 -2.2870  0.4641
 1476SOL    HW216065   2.898   1.492  12.461  0.0013  0.0929  0.0360
 1477SOL     OW16066   0.816   0.216  17.731  0.5221  0.2211  0.0329
 1477SOL    HW116067   0.816   0.121  17.714  2.3054  0.1404  0.4824
 1477SOL    HW216068   0.830   0.221   0.081  0.4267  1.4216 -0.0215
 1478SOL     OW16069   0.171   3.202   5.918  0.2273 -0.2866 -0.0951
 1478SOL    HW116070   0.148   3.221   6.009  0.6747  1.2127 -0.2880
 1478SOL    HW216071   0.264   3.216   5.934  0.1966 -2.5458  2.1697
 1479SOL     OW16072   2.250   2.313   8.995  0.3049  0.2376 -0.3024
 1479SOL    HW116073   2.221   2.260   9.069 -2.0788 -0.1883 -1.5201
 1479SOL    HW216074   2.267   2.399   9.035  1.6930  0.7923 -2.1114
 1480SOL     OW16075   3.076   2.471   8.684  0.1585  0.1650 -0.3661
 1480SOL    HW116076   3.085   2.410   8.611  3.8736  0.8259 -0.4827
 1480SOL    HW216077   3.164   2.469   8.722  0.3633 -0.9708 -0.9206
 1481SOL     OW16078   4.221   3.430   8.676 -0.1369  0.2685  0.2891
 1481SOL    HW116079   4.309   3.398   8.693 -0.6936 -1.4930 -0.1334
 1481SOL    HW216080   4.173   3.347   8.667 -0.9219  0.3930  3.4190
 1482SOL     OW16081   3.804   4.579   6.431  0.5119 -0.1927 -0.1524
 1482SOL    HW116082   3.824   4.671   6.412  1.4429 -0.0814  1.4106
 1482SOL    HW216083   3.883   4.530   6.409  0.9586  0.7422 -0.6367
 1483SOL     OW16084   1.439   2.159   6.429  0.3010 -0.1697  0.3641
 1483SOL    HW116085   1.496   2.130   6.358  3.3997  0.1032  2.7640
 1483SOL    HW216086   1.412   2.245   6.396 -0.8895 -0.1231  1.4835
 1484SOL     OW16087   0.535   0.174  15.672  0.3843 -0.6081 -0.5668
 1484SOL    HW116088   0.577   0.250  15.712  1.9878 -2.3957  1.1387
 1484SOL    HW216089   0.615   0.127  15.647 -1.1630 -3.8956  0.7124
 1485SOL     OW16090   4.276   0.355   4.918  0.0644  0.0458 -0.6859
 1485SOL    HW116091   4.292   0.320   4.831  0.8742  2.0159 -1.3228
 1485SOL    HW216092   4.326   0.294   4.971 -0.2069  0.9610  0.6437
 1486SOL     OW16093   1.813   2.142   2.285 -0.4415  0.2958 -0.1889
 1486SOL    HW116094   1.897   2.188   2.278 -1.6075  2.0878 -2.3555
 1486SOL    HW216095   1.783   2.191   2.362  2.4987  1.1837  0.4061
 1487SOL     OW16096   3.080   0.796   4.266  0.2792 -0.4839  0.9816
 1487SOL    HW116097   2.991   0.778   4.238  0.5757  1.4190 -1.1552
 1487SOL    HW216098   3.098   0.882   4.228  0.0257 -0.9152 -0.1182
 1488SOL     OW16099   3.855   2.771   9.334  0.4987 -0.1752 -0.2404
 1488SOL    HW116100   3.935   2.806   9.372  0.2874  0.7996 -0.6737
 1488SOL    HW216101   3.842   2.683   9.368  1.4710 -1.1449 -2.3628
 1489SOL     OW16102   0.503   0.976   3.147 -0.3216  0.0272  0.4254
 1489SOL    HW116103   0.556   0.907   3.107 -1.1589 -0.1281 -0.4208
 1489SOL    HW216104   0.512   1.043   3.080  1.2374 -0.6578 -0.0390
 1490SOL     OW16105   0.063   1.182   6.519 -0.2337 -0.3506 -0.1144
 1490SOL    HW116106   0.062   1.210   6.428  1.8174  1.0453  0.2920
 1490SOL    HW216107   0.126   1.110   6.512 -0.5443 -0.4197 -2.0995
 1491SOL     OW16108   3.552   4.283   9.806  0.2366 -0.2626  0.2083
 1491SOL    HW116109   3.593   4.368   9.793  1.2594 -1.0641 -1.6975
 1491SOL    HW216110   3.471   4.310   9.763  0.9651 -0.4490 -1.2574
 1492SOL     OW16111   2.985   3.075   7.860  1.0050  0.1814 -0.4059
 1492SOL    HW116112   2.949   3.080   7.948 -0.2369  1.1900 -0.9714
 1492SOL    HW216113   2.922   3.021   7.812 -0.1151  0.6540  0.5475
 1493SOL     OW16114   1.678   0.246   9.475 -0.3165  0.7400 -0.0319
 1493SOL    HW116115   1.762   0.221   9.513  0.2768  1.7586 -0.6668
 1493SOL    HW216116   1.698   0.339   9.489 -2.0051  1.0293  0.4799
 1494SOL     OW16117   4.223   4.006  11.403  0.0205 -0.0502  0.3673
 1494SOL    HW116118   4.304   4.008  11.454  0.8785  3.4469 -1.1642
 1494SOL    HW216119   4.191   3.923  11.439 -0.2559  0.5948  1.6226
 1495SOL     OW16120   4.347   4.556   8.085 -0.1770 -0.1460 -0.6825
 1495SOL    HW116121   4.335   4.474   8.133  2.6563  0.2525  0.7092
 1495SOL    HW216122   4.255   4.582   8.079  0.3990  1.5188 -2.5717
 1496SOL     OW16123   4.389   2.269  10.313  0.0531 -0.5236 -0.6025
 1496SOL    HW116124   4.427   2.263  10.401  0.1473 -0.4124 -0.6351
 1496SOL    HW216125   4.429   2.350  10.281 -2.1538 -0.1832 -2.5387
 1497SOL     OW16126   0.142   3.320  11.454  0.1193 -0.7556 -0.3591
 1497SOL    HW116127   0.089   3.278  11.521  1.5340 -1.5174  0.2620
 1497SOL    HW216128   0.169   3.392  11.511  1.1212 -1.6159  0.2373
 1498SOL     OW16129   1.546   0.401   3.304  0.7704 -0.3470  0.1624
 1498SOL    HW116130   1.596   0.322   3.281  0.7373 -0.0970 -0.7965
 1498SOL    HW216131   1.561   0.439   3.217 -1.2236  0.6581  0.2691
 1499SOL     OW16132   1.094   3.204  13.986  0.2653  0.3448  0.1728
 1499SOL    HW116133   1.093   3.161  13.901  0.8264 -1.2297  0.9781
 1499SOL    HW216134   1.184   3.238  13.993  0.6910 -0.9319  0.7649
 1500SOL     OW16135   3.256   3.374   4.439 -0.3085 -0.9352  0.1676
 1500SOL    HW116136   3.242   3.292   4.392  0.8139 -0.2655 -1.3636
 1500SOL    HW216137   3.218   3.359   4.526 -0.2967  0.6481  0.4402
 1501SOL     OW16138   0.674   4.463   9.236 -0.3810 -0.3146 -0.9788
 1501SOL    HW116139   0.746   4.440   9.177 -0.0262  0.9253 -1.0340
 1501SOL    HW216140   0.709   4.419   9.313  0.0876  0.6276 -0.6516
 1502SOL     OW16141   3.957   1.940   8.056  0.6985  0.5076 -0.6651
 1502SOL    HW116142   3.902   1.949   8.134  1.8605  3.2219 -0.1855
 1502SOL    HW216143   3.924   1.857   8.020  0.3545  0.5528 -0.4547
 1503SOL     OW16144   1.388   0.415   8.235 -0.0646  0.6309 -0.0215
 1503SOL    HW116145   1.315   0.367   8.196  1.4109 -1.6520  0.0292
 1503SOL    HW216146   1.402   0.365   8.316  0.6016 -0.1354 -0.6084
 1504SOL     OW16147   3.335   1.265   2.476 -0.4214 -0.9377 -0.7650
 1504SOL    HW116148   3.260   1.243   2.421 -0.8599  2.0451 -1.3776
 1504SOL    HW216149   3.386   1.185   2.470 -0.7011 -1.1548 -0.2809
 1505SOL     OW16150   3.126   0.053   3.611 -0.7834  0.5676 -0.5355
 1505SOL    HW116151   3.067   0.105   3.556 -1.1284  0.0540 -0.6526
 1505SOL    HW216152   3.193   0.032   3.545  0.1458 -0.4152  0.7326
 1506SOL     OW16153   2.354   0.572  16.840  0.5000  0.4931 -0.1875
 1506SOL    HW116154   2.269   0.613  16.854 -0.4662 -1.5807  0.0499
 1506SOL    HW216155   2.401   0.638  16.891  0.8085 -0.3668  0.6500
 1507SOL     OW16156   0.560   3.518  14.134  0.5043  0.4749  0.0234
 1507SOL    HW116157   0.599   3.594  14.178 -3.0123  1.0584  2.2002
 1507SOL    HW216158   0.467   3.541  14.136  0.3164 -0.3672  1.2594
 1508SOL     OW16159   0.404   4.318   5.800 -0.1244 -0.0941  0.2310
 1508SOL    HW116160   0.448   4.258   5.860 -0.8220  0.3758  1.2224
 1508SOL    HW216161   0.447   4.400   5.824  1.4337 -0.9367  0.3021
 1509SOL     OW16162   0.282   4.181   2.665 -0.0394  0.0859 -0.5095
 1509SOL    HW116163   0.348   4.204   2.600  0.0176 -0.7268 -0.7440
 1509SOL    HW216164   0.274   4.087   2.648 -0.3061 -0.1377  0.8989
 1510SOL     OW16165   3.313   2.039   7.313 -0.3097  0.6777 -0.1607
 1510SOL    HW116166   3.310   2.054   7.407 -1.5003 -0.1790 -0.0597
 1510SOL    HW216167   3.319   1.943   7.315 -1.8050  0.6065  0.7818
 1511SOL     OW16168   3.114   0.176   7.902  0.2020 -0.1160 -1.1630
 1511SOL    HW116169   3.135   0.087   7.929  0.5304 -0.3249 -2.1053
 1511SOL    HW216170   3.072   0.197   7.985 -2.2369 -0.2545 -2.3541
 1512SOL     OW16171   2.403   1.046   1.998 -0.3531 -0.5861 -0.2504
 1512SOL    HW116172   2.483   0.994   1.998 -0.0925 -0.1827  0.1267
 1512SOL    HW216173   2.368   1.033   2.086  0.5849  0.2172  0.2452
 1513SOL     OW16174   3.377   0.996   8.144  0.0825 -0.1310  0.0700
 1513SOL    HW116175   3.460   0.963   8.180  0.3473  1.3297  0.8124
 1513SOL    HW216176   3.335   0.912   8.124 -0.9968 -0.3139  3.0433
 1514SOL     OW16177   3.180   3.559   2.765 -0.2848  0.3600 -0.0548
 1514SOL    HW116178   3.126   3.639   2.769 -1.0628 -0.1377 -0.6126
 1514SOL    HW216179   3.220   3.562   2.852 -1.8959 -1.1791  0.7479
 1515SOL     OW16180   4.102   3.850  12.477  0.1984  0.3151 -0.0020
 1515SOL    HW116181   4.043   3.916  12.442  3.1757  2.3380 -1.2038
 1515SOL    HW216182   4.049   3.802  12.541 -0.8385  1.1342 -0.2651
 1516SOL     OW16183   2.728   1.944   3.422 -0.2855 -0.0036 -0.1467
 1516SOL    HW116184   2.708   1.907   3.336  1.6562 -0.8186 -0.2487
 1516SOL    HW216185   2.711   1.866   3.474  1.3892  0.1337  0.6015
 1517SOL     OW16186   3.477   2.235  12.321 -0.0530 -0.2632 -0.0568
 1517SOL    HW116187   3.567   2.219  12.292 -0.4362 -0.1175 -1.3125
 1517SOL    HW216188   3.473   2.211  12.414  2.6049  0.4415  0.2487
 1518SOL     OW16189   3.782   0.066   2.171 -0.2565  0.1494 -0.5287
 1518SOL    HW116190   3.739   4.726   2.209  0.0807  0.5700  0.7019
 1518SOL    HW216191   3.724   0.090   2.098 -1.0081 -1.5762 -0.4937
 1519SOL     OW16192   1.614   2.730  14.191 -0.3384 -0.0482  0.4242
 1519SOL    HW116193   1.563   2.697  14.265 -2.1059 -0.1693 -0.8334
 1519SOL    HW216194   1.544   2.756  14.131 -0.4474 -0.0995  0.5290
 1520SOL     OW16195   0.659   0.248   9.055 -0.7774  0.1183  0.4420
 1520SOL    HW116196   0.674   0.163   9.095  0.8158  0.4032  0.4528
 1520SOL    HW216197   0.674   0.218   8.965  0.9314  0.8811  0.4897
 1521SOL     OW16198   1.453   2.534   9.508  0.2669  0.0532 -0.0250
 1521SOL    HW116199   1.491   2.454   9.544  1.2888  0.3392 -0.4492
 1521SOL    HW216200   1.522   2.538   9.442  1.9078  1.8202  1.7652
 1522SOL     OW16201   1.272   3.540  11.678  0.1517 -0.0876 -0.0217
 1522SOL    HW116202   1.259   3.634  11.663  0.3618 -0.0747 -0.1148
 1522SOL    HW216203   1.243   3.518  11.589  0.8473 -0.3957 -0.1648
 1523SOL     OW16204   1.299   1.770   2.954  0.2252 -0.6657 -0.1295
 1523SOL    HW116205   1.367   1.821   2.910  0.9141  0.3450  2.0827
 1523SOL    HW216206   1.342   1.767   3.040  2.8680  3.1635 -1.3506
 1524SOL     OW16207   0.587   2.735  14.136  0.0095 -0.6816 -0.5557
 1524SOL    HW116208   0.588   2.647  14.172 -0.4704  0.2757  1.8128
 1524SOL    HW216209   0.601   2.715  14.043 -1.7496  2.8064 -1.5610
 1525SOL     OW16210   3.211   3.016   9.503  0.8391  0.4617 -0.2281
 1525SOL    HW116211   3.267   2.983   9.432  0.7662 -0.7778  0.3000
 1525SOL    HW216212   3.252   2.976   9.579  1.4548 -1.3108 -1.4773
 1526SOL     OW16213   1.553   1.078  17.558 -0.3470 -0.3204  0.1251
 1526SOL    HW116214   1.514   1.000  17.597 -1.9753 -0.0373 -0.9569
 1526SOL    HW216215   1.534   1.144  17.624  0.8540 -0.0391  0.1923
 1527SOL     OW16216   2.035   0.002   4.545 -0.2598  0.8400  0.1500
 1527SOL    HW116217   2.013   4.647   4.528 -0.2423  1.0519 -1.0411
 1527SOL    HW216218   2.040   0.040   4.457 -1.0942  2.3301  0.7374
 1528SOL     OW16219   3.347   0.497   3.696 -0.1813 -0.3493 -0.2219
 1528SOL    HW116220   3.256   0.501   3.726 -1.0165 -2.1962 -2.5571
 1528SOL    HW216221   3.389   0.464   3.776  0.5943 -0.6015 -0.7378
 1529SOL     OW16222   3.984   3.992   5.026  0.2016  0.3304 -0.1216
 1529SOL    HW116223   4.052   3.930   5.001 -0.1966 -0.0628 -0.2422
 1529SOL    HW216224   4.035   4.064   5.063  1.9964 -1.0778  0.1525
 1530SOL     OW16225   4.290   3.170   3.847  0.3126 -0.2864  0.9238
 1530SOL    HW116226   4.291   3.095   3.787  0.0254  0.8412 -0.4759
 1530SOL    HW216227   4.196   3.183   3.862  0.1582 -2.2617  1.7133
 1531SOL     OW16228   1.381   3.679   9.331 -0.1410 -0.0292 -0.2727
 1531SOL    HW116229   1.426   3.747   9.381 -0.1676  0.2848 -0.6779
 1531SOL    HW216230   1.419   3.696   9.244  0.3148 -0.1297 -0.0973
 1532SOL     OW16231   1.565   1.320   9.015  0.0795  0.2824 -0.2413
 1532SOL    HW116232   1.501   1.345   9.081 -2.3306 -2.3683 -1.5816
 1532SOL    HW216233   1.634   1.275   9.063  0.1564 -0.3388 -0.9272
 1533SOL     OW16234   2.331   0.282   3.217  0.5861  0.2787  0.6006
 1533SOL    HW116235   2.397   0.352   3.215 -0.0170  0.8652  1.2459
 1533SOL    HW216236   2.346   0.242   3.131 -0.6188 -0.9249  0.9519
 1534SOL     OW16237   3.618   4.495   5.065  0.0065 -0.5900  0.2797
 1534SOL    HW116238   3.606   4.589   5.077  0.2735 -0.4137 -0.9204
 1534SOL    HW216239   3.556   4.487   4.993  0.5307 -0.1359 -0.2157
 1535SOL     OW16240   1.762   4.585   9.686 -0.0294  0.3199 -0.3035
 1535SOL    HW116241   1.787   4.495   9.663 -0.5929  0.4443 -1.4266
 1535SOL    HW216242   1.850   4.616   9.707 -0.2351  0.4737  0.3311
 1536SOL     OW16243   2.249   1.303   7.612  0.5202  0.1789  0.3812
 1536SOL    HW116244   2.187   1.371   7.639 -0.7976 -0.2942 -1.3722
 1536SOL    HW216245   2.329   1.355   7.613  1.0936 -0.6521 -2.0264
 1537SOL     OW16246   4.307   2.771  11.538 -0.0438 -0.8567 -0.1146
 1537SOL    HW116247   4.364   2.694  11.538  1.0693 -0.0209  1.5262
 1537SOL    HW216248   4.223   2.740  11.571 -0.2838 -0.9012 -0.7645
 1538SOL     OW16249   2.592   0.553   0.692  0.1793 -0.0213 -0.3736
 1538SOL    HW116250   2.607   0.517   0.605 -0.9546  0.1230 -0.6303
 1538SOL    HW216251   2.681   0.569   0.724 -0.4871  1.6802  0.6653
 1539SOL     OW16252   2.803   3.295  15.643  0.3092  0.3355  0.1617
 1539SOL    HW116253   2.841   3.359  15.583 -2.8280  2.7670  0.8018
 1539SOL    HW216254   2.714   3.327  15.657  0.2094  0.6347 -1.1134
 1540SOL     OW16255   4.647   4.069   3.922  0.2045  0.6811  0.6962
 1540SOL    HW116256   4.589   4.064   3.998 -0.0375 -0.1433  0.4593
 1540SOL    HW216257   4.674   4.160   3.915 -0.8014  0.9881  0.8676
 1541SOL     OW16258   3.795   1.090   8.714 -0.1727 -0.0276  0.0389
 1541SOL    HW116259   3.731   1.020   8.704 -0.9668  0.7275 -0.1353
 1541SOL    HW216260   3.812   1.079   8.808 -1.5013 -0.7001  0.2008
 1542SOL     OW16261   2.475   2.414   5.026  0.1673  0.0843 -0.5677
 1542SOL    HW116262   2.399   2.428   4.970  0.8081  2.1421 -0.9361
 1542SOL    HW216263   2.527   2.491   5.005 -0.0084  0.4832  0.4764
 1543SOL     OW16264   0.156   3.485   0.517 -0.5076  0.0693  0.1816
 1543SOL    HW116265   0.222   3.475   0.586  1.7285 -4.9510 -2.6812
 1543SOL    HW216266   0.203   3.488   0.434 -0.1795  0.5882  0.3855
 1544SOL     OW16267   2.485   1.938   4.599  0.1539 -0.0422 -0.0789
 1544SOL    HW116268   2.451   1.854   4.568 -1.2745  1.1185 -1.6662
 1544SOL    HW216269   2.574   1.918   4.626 -0.1012 -0.4588  0.4431
 1545SOL     OW16270   1.617   2.389  17.539 -0.1359  0.0918 -0.1292
 1545SOL    HW116271   1.632   2.395  17.445  1.3152 -2.1482 -0.0412
 1545SOL    HW216272   1.535   2.438  17.546  0.6096  1.7406 -2.7283
 1546SOL     OW16273   1.389   3.450   2.588 -0.0161 -0.5019  0.1127
 1546SOL    HW116274   1.412   3.413   2.503  1.1799  0.1259  0.1621
 1546SOL    HW216275   1.373   3.362   2.624  0.5967 -0.1597  1.2139
 1547SOL     OW16276   2.373   3.597  17.137  0.4256  0.3113 -0.1659
 1547SOL    HW116277   2.328   3.565  17.059  0.3058  0.0152  0.0276
 1547SOL    HW216278   2.303   3.646  17.178 -0.6009 -1.8565  0.6766
 1548SOL     OW16279   1.895   3.123   5.151 -0.9772 -0.1864 -0.0446
 1548SOL    HW116280   1.909   3.071   5.231  3.6651  2.0174  0.5847
 1548SOL    HW216281   1.939   3.066   5.089  0.7520  0.8986  0.1972
 1549SOL     OW16282   4.620   3.923  17.738 -0.3406 -0.1654  0.7232
 1549SOL    HW116283   4.611   3.922   0.089  1.2330  0.6335  0.8717
 1549SOL    HW216284   4.639   3.833  17.713  0.6106  0.1941  0.1559
 1550SOL     OW16285   0.639   2.126   6.976 -0.0752  0.2032 -0.5117
 1550SOL    HW116286   0.722   2.079   6.977  1.2139  2.4517 -0.9765
 1550SOL    HW216287   0.572   2.065   6.944 -1.1225  0.5451  1.0214
 1551SOL     OW16288   0.296   0.023   6.020 -0.7490  0.1778 -0.0294
 1551SOL    HW116289   0.322   0.006   6.111  2.2675 -0.4888 -1.0190
 1551SOL    HW216290   0.251   4.678   5.998  2.1687 -0.9692 -1.8824
 1552SOL     OW16291   1.711   4.277  10.718  0.2918 -0.4348 -0.6918
 1552SOL    HW116292   1.720   4.202  10.659 -3.2834 -0.4721 -1.2019
 1552SOL    HW216293   1.696   4.338  10.645  0.2296  0.3487 -0.0204
 1553SOL     OW16294   3.737   3.934   0.330  0.2008  0.2282 -0.4172
 1553SOL    HW116295   3.794   3.986   0.387 -0.0266 -0.7437  0.7051
 1553SOL    HW216296   3.756   3.976   0.246  1.6769 -0.1030 -0.2568
 1554SOL     OW16297   1.632   3.405   6.916  0.1431  0.2460 -0.4248
 1554SOL    HW116298   1.720   3.430   6.888  0.6852 -0.7971  0.3386
 1554SOL    HW216299   1.649   3.341   6.985  2.1268  0.8284 -0.3781
 1555SOL     OW16300   3.996   1.913  16.424  0.8197 -0.1502 -0.0924
 1555SOL    HW116301   4.068   1.853  16.406 -0.1875 -1.1883 -0.6768
 1555SOL    HW216302   3.924   1.856  16.450  0.1535  1.2519  1.1339
 1556SOL     OW16303   4.276   2.226   4.149  0.0184 -0.0061  0.2798
 1556SOL    HW116304   4.362   2.241   4.189  0.6639  0.2326 -1.1927
 1556SOL    HW216305   4.231   2.311   4.149  0.3634  0.1774  0.2894
 1557SOL     OW16306   1.349   1.489  15.538 -0.0007  0.5108  0.1941
 1557SOL    HW116307   1.364   1.516  15.447  2.7412 -0.8791  0.2150
 1557SOL    HW216308   1.258   1.459  15.539  0.8215 -1.8229  3.7639
 1558SOL     OW16309   4.078   2.914  13.975 -0.0441 -0.5843 -0.1633
 1558SOL    HW116310   4.117   2.969  14.044 -0.7753 -0.2284 -0.0369
 1558SOL    HW216311   4.138   2.914  13.900 -0.6972 -3.9127 -0.6714
 1559SOL     OW16312   2.545   3.231   2.757  0.4555 -0.1939 -0.2091
 1559SOL    HW116313   2.640   3.222   2.749  0.5707  0.0855  0.8040
 1559SOL    HW216314   2.533   3.208   2.849 -0.7177  0.6763 -0.1407
 1560SOL     OW16315   4.405   2.313  16.673 -0.1213  0.5870  0.4499
 1560SOL    HW116316   4.369   2.397  16.644  2.3249  1.5457  0.2844
 1560SOL    HW216317   4.326   2.270  16.707  0.0142 -0.4679 -0.5592
 1561SOL     OW16318   4.278   1.544  15.343 -0.1861  0.8446  0.0650
 1561SOL    HW116319   4.234   1.529  15.427 -0.4722 -0.5411 -0.3263
 1561SOL    HW216320   4.245   1.632  15.325 -3.3070 -0.2045  0.4633
 1562SOL     OW16321   2.469   3.238   2.312  0.3898 -0.1045 -0.8217
 1562SOL    HW116322   2.380   3.219   2.343  0.6364  0.7555  0.3741
 1562SOL    HW216323   2.465   3.333   2.315 -0.2044 -0.1722  0.4354
 1563SOL     OW16324   3.464   2.276   3.579  0.8679 -0.0006 -0.1571
 1563SOL    HW116325   3.495   2.275   3.670  0.5240  2.9110 -0.0193
 1563SOL    HW216326   3.495   2.190   3.549  1.1134  0.0699 -0.1099
 1564SOL     OW16327   3.862   4.464  14.246 -0.4893 -0.4871 -0.0072
 1564SOL    HW116328   3.782   4.449  14.297 -0.4636  4.4896  1.5485
 1564SOL    HW216329   3.854   4.392  14.184 -0.2082  0.9925 -1.7893
 1565SOL     OW16330   2.700   3.363  13.096  0.2619 -0.4075  0.4180
 1565SOL    HW116331   2.705   3.271  13.121 -0.1319 -0.7669 -0.8370
 1565SOL    HW216332   2.782   3.371  13.047  0.2383 -0.4482  0.3727
 1566SOL     OW16333   2.261   1.511  13.809 -0.2658  0.0639  0.2723
 1566SOL    HW116334   2.284   1.601  13.832 -0.5949  0.8038 -2.2903
 1566SOL    HW216335   2.235   1.475  13.894 -1.6217 -0.2910 -0.2946
 1567SOL     OW16336   2.829   0.386   2.522  0.0771  0.0656 -0.2029
 1567SOL    HW116337   2.902   0.360   2.578 -0.0343 -1.6145 -0.8276
 1567SOL    HW216338   2.792   0.457   2.574  2.4064  0.2742  1.1636
 1568SOL     OW16339   2.292   4.270   2.253 -0.5853  0.1614  0.0197
 1568SOL    HW116340   2.245   4.273   2.169  2.5115  0.1054 -1.7346
 1568SOL    HW216341   2.368   4.324   2.231 -0.3805 -0.3568 -0.5501
 1569SOL     OW16342   2.532   0.699  13.032 -0.4906  0.1325 -0.1898
 1569SOL    HW116343   2.608   0.642  13.029  1.1231  2.2663  0.1978
 1569SOL    HW216344   2.481   0.668  13.107  2.1283  0.1488  1.5895
 1570SOL     OW16345   1.550   1.885  11.652 -0.2701  0.3140 -0.5238
 1570SOL    HW116346   1.601   1.804  11.650 -0.6227  0.0809 -0.0652
 1570SOL    HW216347   1.563   1.917  11.741  0.2554  1.8144 -1.1330
 1571SOL     OW16348   1.234   3.990  15.608 -0.3032 -0.7378 -0.5886
 1571SOL    HW116349   1.225   4.013  15.700  2.6876  0.3546 -0.5671
 1571SOL    HW216350   1.319   3.945  15.606 -0.1741 -0.5046 -0.3784
 1572SOL     OW16351   2.653   2.290  16.224 -0.3696  0.2423 -0.8627
 1572SOL    HW116352   2.635   2.215  16.280 -1.3634  1.0325 -0.1443
 1572SOL    HW216353   2.715   2.248  16.163 -0.3209  2.3829 -2.2980
 1573SOL     OW16354   2.140   1.637   4.957 -0.4641  0.3797 -0.3484
 1573SOL    HW116355   2.167   1.652   4.867  0.0513 -0.4824 -0.3309
 1573SOL    HW216356   2.074   1.705   4.971  2.2724  3.5171 -2.6623
 1574SOL     OW16357   3.958   3.842  15.173  0.0006 -0.8175  0.1982
 1574SOL    HW116358   4.015   3.830  15.248 -2.8114  0.9760  2.6512
 1574SOL    HW216359   4.017   3.889  15.114  1.6867 -1.0775  1.7132
 1575SOL     OW16360   0.656   4.239   0.850  0.0357  0.0718  0.2391
 1575SOL    HW116361   0.606   4.167   0.889  1.1481 -0.8385 -0.0413
 1575SOL    HW216362   0.646   4.200   0.764  0.2374  0.4941  0.0227
 1576SOL     OW16363   0.192   2.604  12.013 -0.2204  0.4147  0.2724
 1576SOL    HW116364   0.151   2.585  11.928  1.9885 -1.7396 -0.3093
 1576SOL    HW216365   0.148   2.542  12.072 -0.8220 -0.7629 -1.4002
 1577SOL     OW16366   0.916   2.210   6.252  0.2858  0.4983  0.0726
 1577SOL    HW116367   0.840   2.267   6.248 -0.5795 -0.7214 -0.6429
 1577SOL    HW216368   0.883   2.126   6.221 -1.2630  0.9358  0.5674
 1578SOL     OW16369   0.416   2.557  17.555 -0.3606 -0.0976  0.2864
 1578SOL    HW116370   0.328   2.587  17.535 -0.3234  0.5198  1.0187
 1578SOL    HW216371   0.464   2.574  17.474 -1.0747 -2.1573 -0.5741
 1579SOL     OW16372   2.702   1.085   7.664  0.2740  0.1820 -0.0677
 1579SOL    HW116373   2.633   1.128   7.612  0.3969  0.1905 -0.2250
 1579SOL    HW216374   2.754   1.046   7.593 -1.3329  0.8847 -1.6454
 1580SOL     OW16375   0.260   1.870  15.380 -0.0960  0.4590 -0.0588
 1580SOL    HW116376   0.191   1.807  15.361 -0.0109  0.6239 -0.8990
 1580SOL    HW216377   0.221   1.921  15.452 -1.0769  1.7392 -1.5102
 1581SOL     OW16378   0.659   0.730   2.891  0.0057  0.4482 -0.8830
 1581SOL    HW116379   0.672   0.823   2.868 -1.3738  0.5034 -1.4127
 1581SOL    HW216380   0.681   0.695   2.805  1.2186 -2.2518  0.5360
 1582SOL     OW16381   0.926   3.501   3.698 -0.3521 -0.2594 -0.5998
 1582SOL    HW116382   0.885   3.579   3.735 -0.1295 -0.2757 -0.3179
 1582SOL    HW216383   0.925   3.507   3.602  1.4516 -2.3183 -0.7589
 1583SOL     OW16384   2.781   3.341   6.708 -0.0795 -0.4162 -0.1195
 1583SOL    HW116385   2.740   3.275   6.653 -1.4317  0.6703 -0.4426
 1583SOL    HW216386   2.706   3.377   6.755  0.1233  2.2786 -1.8150
 1584SOL     OW16387   3.173   3.545  10.868 -0.0724  0.5562  0.8216
 1584SOL    HW116388   3.184   3.515  10.958 -1.2538 -0.2122  0.7075
 1584SOL    HW216389   3.084   3.577  10.855 -1.1511 -2.4560  0.8376
 1585SOL     OW16390   0.845   3.852   3.206 -0.3285  0.6154 -0.0681
 1585SOL    HW116391   0.863   3.944   3.186 -0.0056  0.4457 -0.5432
 1585SOL    HW216392   0.922   3.826   3.257  1.5721  0.9907 -2.7676
 1586SOL     OW16393   0.614   2.623   6.835 -0.3324 -0.0959  0.2279
 1586SOL    HW116394   0.597   2.543   6.784 -0.7814 -0.1728  0.5016
 1586SOL    HW216395   0.677   2.588   6.898  1.0353 -1.0194 -1.6692
 1587SOL     OW16396   3.023   4.685   4.544 -0.1451 -0.2037  0.8216
 1587SOL    HW116397   3.060   4.620   4.484 -0.7106 -2.8462  3.3640
 1587SOL    HW216398   3.077   0.024   4.521 -2.0015  2.0103  3.8777
 1588SOL     OW16399   0.522   2.486   0.257  0.3398  0.5616 -0.1166
 1588SOL    HW116400   0.589   2.555   0.259  2.7463 -1.7892 -0.0974
 1588SOL    HW216401   0.479   2.514   0.177 -0.8288 -1.2764 -0.1211
 1589SOL     OW16402   3.817   2.701   6.192  0.7673  0.1436 -0.0152
 1589SOL    HW116403   3.738   2.742   6.227  0.2213  0.0578 -1.1497
 1589SOL    HW216404   3.781   2.613   6.178 -1.1430  1.2189 -1.7926
 1590SOL     OW16405   2.594   1.566   2.392  0.4336 -0.0289  0.2120
 1590SOL    HW116406   2.597   1.582   2.486 -1.8797 -0.1478  0.3010
 1590SOL    HW216407   2.578   1.472   2.387 -1.4366  0.2471  0.9371
 1591SOL     OW16408   2.794   0.204  14.506  0.2627 -0.5807 -0.4038
 1591SOL    HW116409   2.825   0.114  14.498 -0.5702 -1.0367  1.6138
 1591SOL    HW216410   2.784   0.206  14.601  0.0404 -3.4573 -0.3795
 1592SOL     OW16411   3.001   1.767   8.594  0.1266 -0.0195  0.2005
 1592SOL    HW116412   2.976   1.852   8.630  1.8194  0.2598  0.7228
 1592SOL    HW216413   3.094   1.756   8.615 -0.4774  0.4681  3.0766
 1593SOL     OW16414   4.053   1.418   1.854 -0.4289  0.3404  0.8506
 1593SOL    HW116415   4.000   1.422   1.933 -2.5842  0.0731 -0.5758
 1593SOL    HW216416   4.027   1.328   1.832 -0.4593  0.2753  1.1553
 1594SOL     OW16417   1.955   3.091   1.752 -0.3410 -0.5368 -0.0419
 1594SOL    HW116418   2.000   3.014   1.786  0.6556 -0.2041 -0.6160
 1594SOL    HW216419   2.032   3.146   1.738 -0.2603  0.1947  3.2900
 1595SOL     OW16420   3.138   2.629  11.609  0.0414 -0.0371  0.1428
 1595SOL    HW116421   3.065   2.578  11.572  1.4300 -1.9497  0.0156
 1595SOL    HW216422   3.201   2.563  11.639  1.1448  0.3754 -1.3002
 1596SOL     OW16423   2.016   0.709  10.263  0.0254 -0.2667  0.0146
 1596SOL    HW116424   1.977   0.696  10.349 -0.7108  1.0899 -0.1010
 1596SOL    HW216425   2.078   0.780  10.279  0.1960 -0.4711  0.2552
 1597SOL     OW16426   3.812   4.649   9.603 -0.2777 -0.2183 -0.2114
 1597SOL    HW116427   3.844   4.736   9.578 -0.3435 -0.6247 -1.6686
 1597SOL    HW216428   3.889   4.608   9.643  0.3799  1.0892 -0.1348
 1598SOL     OW16429   4.311   1.567   1.980 -0.3360  0.2929 -0.1483
 1598SOL    HW116430   4.256   1.598   1.908 -0.5804  2.1336  0.8257
 1598SOL    HW216431   4.271   1.480   1.988  1.6763 -0.6511 -0.3885
 1599SOL     OW16432   4.347   1.755  11.931  0.5622 -0.3448  0.0306
 1599SOL    HW116433   4.348   1.660  11.945  2.0514 -0.3254  0.0129
 1599SOL    HW216434   4.441   1.766  11.939  0.5969 -1.3448  0.8587
 1600SOL     OW16435   4.058   2.603   3.082 -0.2314 -0.1726  0.0577
 1600SOL    HW116436   3.985   2.665   3.079 -1.0974 -1.1938 -0.2371
 1600SOL    HW216437   4.070   2.600   2.987 -0.3444  1.2641 -0.0033
 1601SOL     OW16438   0.702   4.730   9.138  0.5409 -0.0926  0.0215
 1601SOL    HW116439   0.796   4.719   9.156  1.0998  2.0874 -1.4899
 1601SOL    HW216440   0.672   4.668   9.204 -0.6596 -0.2147 -0.6499
 1602SOL     OW16441   0.473   0.181   3.041  0.3206 -0.0010  0.4584
 1602SOL    HW116442   0.568   0.190   3.043  0.3949 -0.7464  0.5876
 1602SOL    HW216443   0.449   0.183   2.949  0.4649 -0.1609  0.4172
 1603SOL     OW16444   1.842   3.652  12.503 -0.1287  0.7280  0.8760
 1603SOL    HW116445   1.833   3.603  12.585  0.1723 -0.0158  0.4566
 1603SOL    HW216446   1.933   3.643  12.476 -1.0871 -4.3204 -0.6891
 1604SOL     OW16447   0.986   4.643   9.478 -0.0365  0.3433 -0.1318
 1604SOL    HW116448   1.044   4.567   9.483 -1.0637 -0.3550  1.3866
 1604SOL    HW216449   0.912   4.606   9.527  0.8602 -0.9862  0.2227
 1605SOL     OW16450   1.104   3.023  13.806 -0.5924 -0.0989 -0.6399
 1605SOL    HW116451   1.193   2.991  13.788  0.8552  4.2882 -1.3254
 1605SOL    HW216452   1.070   3.043  13.719  1.1053  0.2729 -1.2257
 1606SOL     OW16453   2.324   3.734   4.141 -0.6326 -0.1752 -0.9832
 1606SOL    HW116454   2.408   3.710   4.102 -0.3707  4.0374 -3.1297
 1606SOL    HW216455   2.326   3.821   4.099  0.5167  0.7192  0.9349
 1607SOL     OW16456   1.748   3.874  13.146  0.2542 -0.1621  0.1309
 1607SOL    HW116457   1.831   3.916  13.121 -0.8064  2.3410  0.8659
 1607SOL    HW216458   1.683   3.925  13.098 -0.0825  0.0122  0.7718
 1608SOL     OW16459   1.923   2.446   4.116  0.3203 -0.4533 -0.2372
 1608SOL    HW116460   1.960   2.364   4.083 -1.1763 -1.0420 -0.4475
 1608SOL    HW216461   1.838   2.442   4.074 -0.9666 -0.0235  2.3001
 1609SOL     OW16462   0.923   1.549   4.237 -0.9043 -0.4777 -0.5452
 1609SOL    HW116463   0.979   1.482   4.197  0.6534  0.5962 -0.1389
 1609SOL    HW216464   0.970   1.544   4.320  0.9405  1.0337 -1.5025
 1610SOL     OW16465   1.414   1.274  17.260  0.2247  0.2353 -0.1762
 1610SOL    HW116466   1.437   1.363  17.232  1.5548 -0.7423 -2.1772
 1610SOL    HW216467   1.462   1.226  17.193  0.2526  0.3217 -0.2184
 1611SOL     OW16468   4.044   1.862   2.028  0.6086  0.1535 -0.5919
 1611SOL    HW116469   4.001   1.908   1.956 -0.8045 -0.2204  0.0099
 1611SOL    HW216470   4.085   1.940   2.067 -1.3376  0.0062  1.7554
 1612SOL     OW16471   2.616   1.249   9.257  0.3107 -0.1266 -0.7857
 1612SOL    HW116472   2.606   1.314   9.327 -0.0031  0.1034 -1.0486
 1612SOL    HW216473   2.698   1.266   9.212  0.6999 -1.7563 -0.6915
 1613SOL     OW16474   2.935   2.570   5.228  0.4204  0.2539  0.1867
 1613SOL    HW116475   2.869   2.639   5.240  0.9259  0.6538  0.7191
 1613SOL    HW216476   2.888   2.505   5.177  2.1249  0.6784 -1.9510
 1614SOL     OW16477   4.689   1.208  14.774  0.1142  0.8825  0.0136
 1614SOL    HW116478   4.617   1.173  14.721 -0.7766  1.7334  0.6552
 1614SOL    HW216479   4.640   1.211  14.856 -2.2318  1.2746 -1.3942
 1615SOL     OW16480   1.115   2.530  10.817  0.6207  0.3711 -0.0939
 1615SOL    HW116481   1.028   2.506  10.785  0.9391  0.8425 -1.3058
 1615SOL    HW216482   1.117   2.482  10.900 -0.6701  0.7067  0.1336
 1616SOL     OW16483   2.923   1.925   4.758  0.1907  0.6667  0.4015
 1616SOL    HW116484   2.903   2.008   4.802 -0.0033 -0.2714  2.0520
 1616SOL    HW216485   3.007   1.917   4.804 -0.2138 -2.8387  0.4706
 1617SOL     OW16486   3.825   2.441   3.545 -0.6333  0.1135 -0.3394
 1617SOL    HW116487   3.879   2.443   3.466 -2.1138  0.1519 -1.3647
 1617SOL    HW216488   3.802   2.348   3.541 -1.2501  0.3277 -1.8656
 1618SOL     OW16489   1.089   2.276   6.487  0.0039 -0.0105 -0.2003
 1618SOL    HW116490   1.091   2.338   6.414  0.5513  0.3833  0.1527
 1618SOL    HW216491   1.074   2.191   6.446  2.0290 -1.2040  1.5277
 1619SOL     OW16492   4.441   0.008  10.731  0.0970  0.3659 -0.4533
 1619SOL    HW116493   4.422   0.027  10.639 -1.8693 -2.2323 -0.6047
 1619SOL    HW216494   4.356   4.732  10.773 -0.3165  0.4839 -1.2708
 1620SOL     OW16495   4.243   2.206   6.757 -0.3090  0.3408 -0.0915
 1620SOL    HW116496   4.246   2.282   6.815  2.5932  0.9833 -1.0902
 1620SOL    HW216497   4.268   2.138   6.819 -1.4026  1.5848  1.7321
 1621SOL     OW16498   1.512   3.933   5.163 -0.0800 -0.2608 -0.2678
 1621SOL    HW116499   1.501   4.020   5.202 -0.5033 -0.8493  0.9310
 1621SOL    HW216500   1.523   3.956   5.071 -0.3411  1.3706  0.1138
 1622SOL     OW16501   3.160   4.511   8.468  0.2223 -0.0103  0.0024
 1622SOL    HW116502   3.208   4.586   8.432  0.1717 -0.0590 -0.1697
 1622SOL    HW216503   3.081   4.557   8.498  0.3946 -0.0841  0.5641
 1623SOL     OW16504   3.955   3.910   6.596  0.3798 -0.2428  0.4272
 1623SOL    HW116505   4.023   3.843   6.602  0.8680  0.2109 -0.0233
 1623SOL    HW216506   3.883   3.852   6.621  0.2985 -1.2846 -2.1810
 1624SOL     OW16507   1.884   2.636   8.634  0.6841 -0.1527 -0.0719
 1624SOL    HW116508   1.957   2.620   8.575  0.4303  2.5958 -1.1203
 1624SOL    HW216509   1.870   2.544   8.655  0.5446 -0.4468 -1.4190
 1625SOL     OW16510   0.750   0.940   4.146 -0.1891  0.5512 -0.6751
 1625SOL    HW116511   0.761   0.894   4.063  0.5742 -0.6555  0.0887
 1625SOL    HW216512   0.724   0.866   4.201  0.7037  0.4553 -0.3795
 1626SOL     OW16513   1.591   0.837   3.421  0.5412  0.1493  0.2450
 1626SOL    HW116514   1.644   0.778   3.474 -1.8257 -0.2954  2.1373
 1626SOL    HW216515   1.502   0.803   3.429  0.0916  1.0864 -0.7362
 1627SOL     OW16516   0.392   0.861   4.483  0.0668  0.1356  0.4311
 1627SOL    HW116517   0.354   0.822   4.404  0.3298 -1.2997  1.0176
 1627SOL    HW216518   0.416   0.775   4.516 -1.6876 -0.1640  0.9461
 1628SOL     OW16519   4.709   1.795   3.137 -0.9809  0.2429  0.1772
 1628SOL    HW116520   4.733   1.760   3.223 -1.4678  0.5569  0.4363
 1628SOL    HW216521   4.631   1.845   3.163 -0.2231  0.9120  1.1770
 1629SOL     OW16522   1.001   3.566  14.576  0.0795 -0.2826 -0.1761
 1629SOL    HW116523   0.920   3.581  14.526  0.4100  0.3553 -0.5201
 1629SOL    HW216524   0.979   3.485  14.622  0.8270  0.3501  1.2907
 1630SOL     OW16525   3.536   4.572   6.479 -0.3145 -0.5021  0.1602
 1630SOL    HW116526   3.628   4.591   6.464 -0.0120 -1.9946  0.1304
 1630SOL    HW216527   3.507   4.663   6.489  0.0536 -0.3981  0.2552
 1631SOL     OW16528   4.499   3.626  10.690  0.5190 -0.2341 -0.4208
 1631SOL    HW116529   4.489   3.655  10.599 -2.2528  0.3646  0.0840
 1631SOL    HW216530   4.440   3.685  10.738  1.6819  0.1683  0.5379
 1632SOL     OW16531   1.484   0.993  16.990  0.0104 -0.7747  0.1569
 1632SOL    HW116532   1.501   1.087  16.980  0.5950 -0.9020 -0.0117
 1632SOL    HW216533   1.544   0.961  16.922 -1.0706  1.3236 -1.7939
 1633SOL     OW16534   1.550   3.905   4.402 -0.0938 -0.3737  0.1685
 1633SOL    HW116535   1.465   3.944   4.424  0.5199  0.0559  1.8504
 1633SOL    HW216536   1.539   3.933   4.311  2.4701 -0.4907 -0.1622
 1634SOL     OW16537   3.648   4.005  12.546  0.2999  0.3139 -0.1482
 1634SOL    HW116538   3.705   4.005  12.468  2.1643 -1.6400  1.2183
 1634SOL    HW216539   3.563   4.018  12.503 -2.3763 -1.0650  4.7694
 1635SOL     OW16540   4.301   3.464   3.349  0.0712 -0.7530  0.4925
 1635SOL    HW116541   4.385   3.500   3.321 -1.1414 -0.4073 -2.6668
 1635SOL    HW216542   4.330   3.391   3.404  2.3500  0.6569  1.1871
 1636SOL     OW16543   4.235   0.443   0.337 -0.0272  0.0919  0.0857
 1636SOL    HW116544   4.173   0.416   0.405  2.9712 -2.1830  1.9103
 1636SOL    HW216545   4.190   0.410   0.258  0.4260 -0.3125 -0.0073
 1637SOL     OW16546   4.683   2.794   0.830 -0.1614 -0.5993  0.2075
 1637SOL    HW116547   4.598   2.760   0.802  0.9108 -1.4464 -1.9787
 1637SOL    HW216548   4.657   2.867   0.887 -0.8578  1.5865 -2.9196
 1638SOL     OW16549   2.393   4.003   2.264 -0.3663  0.1975 -0.2734
 1638SOL    HW116550   2.478   4.035   2.235 -0.2779  0.3728  0.1821
 1638SOL    HW216551   2.349   4.088   2.275 -0.6333  0.0263 -0.0065
 1639SOL     OW16552   1.899   3.081   2.674  0.2131  0.4548  0.4690
 1639SOL    HW116553   1.907   2.991   2.705 -1.3857  0.3199  0.5308
 1639SOL    HW216554   1.939   3.127   2.748  1.2500 -0.3758  0.4156
 1640SOL     OW16555   0.100   1.080   5.724 -0.6746 -0.2459 -0.2071
 1640SOL    HW116556   0.072   1.077   5.633  0.6007 -1.7990 -0.5284
 1640SOL    HW216557   0.041   1.011   5.753 -1.7079  0.0108 -1.6919
 1641SOL     OW16558   4.638   0.432   9.441 -0.6454 -0.2466 -0.1948
 1641SOL    HW116559   4.689   0.374   9.384  0.5120  0.0559  0.5345
 1641SOL    HW216560   4.700   0.505   9.441 -2.6557  1.4554 -2.2832
 1642SOL     OW16561   3.344   3.350  16.675 -0.4551 -0.5673  0.2949
 1642SOL    HW116562   3.388   3.397  16.603  0.4565 -2.5389 -0.4398
 1642SOL    HW216563   3.260   3.394  16.664 -0.5236 -0.5593  0.8964
 1643SOL     OW16564   1.263   3.167   8.673 -0.8421  0.1863 -0.2484
 1643SOL    HW116565   1.310   3.188   8.753  1.1115  0.0845 -1.3721
 1643SOL    HW216566   1.307   3.085   8.653 -0.0568  0.5846 -0.1378
 1644SOL     OW16567   0.776   1.214   3.123 -0.0791  0.4696  0.2936
 1644SOL    HW116568   0.745   1.204   3.213  1.1369 -1.2082  0.5039
 1644SOL    HW216569   0.695   1.226   3.073 -0.2130  1.6292  0.7824
 1645SOL     OW16570   2.339   4.670   5.901 -0.2473 -0.4453  0.6469
 1645SOL    HW116571   2.256   4.630   5.928  0.0144 -2.5847 -1.7296
 1645SOL    HW216572   2.392   4.590   5.895  0.5212  0.1444 -0.6203
 1646SOL     OW16573   4.387   0.218   8.031  0.0218  0.5293 -0.3309
 1646SOL    HW116574   4.381   0.207   8.125 -1.1889 -0.0227 -0.4741
 1646SOL    HW216575   4.414   0.310   8.023 -1.2294  0.8370 -0.9954
 1647SOL     OW16576   4.674   4.154  17.133  0.0541 -0.1238  0.0257
 1647SOL    HW116577   4.666   4.109  17.218  1.7417 -0.8427 -0.1924
 1647SOL    HW216578   4.615   4.101  17.078  1.2313  0.1037 -1.4491
 1648SOL     OW16579   3.714   2.266   9.686  0.2102  0.7336  0.1355
 1648SOL    HW116580   3.655   2.339   9.706 -0.3630  0.2086  0.3704
 1648SOL    HW216581   3.744   2.242   9.774 -1.6444 -0.5892  0.4063
 1649SOL     OW16582   3.125   0.134   2.565 -0.6140 -0.1387 -0.7550
 1649SOL    HW116583   3.216   0.156   2.582 -0.9106  1.7116 -1.5876
 1649SOL    HW216584   3.131   0.106   2.473 -0.3918  0.7959 -1.0170
 1650SOL     OW16585   0.287   2.688   6.287 -0.0766  0.3088  0.0559
 1650SOL    HW116586   0.241   2.609   6.315 -0.6598  0.6266 -0.0256
 1650SOL    HW216587   0.230   2.764   6.297  0.4955  0.7757 -0.1916
 1651SOL     OW16588   1.794   0.230   9.087 -0.3757  0.3114 -0.1578
 1651SOL    HW116589   1.782   0.312   9.038 -0.9007  0.8384  0.8539
 1651SOL    HW216590   1.841   0.268   9.161 -0.1074 -0.0579 -0.1402
 1652SOL     OW16591   3.543   4.608   8.040  0.4898  0.2783  0.2947
 1652SOL    HW116592   3.532   4.536   7.978 -1.1344 -0.2416  1.1822
 1652SOL    HW216593   3.549   4.683   7.981  0.3321  0.3164  0.3281
 1653SOL     OW16594   2.565   0.872   8.955 -0.4297  0.1762  0.3552
 1653SOL    HW116595   2.610   0.790   8.978  0.2614  0.3449 -0.3897
 1653SOL    HW216596   2.519   0.902   9.033 -0.4224  1.6270 -0.1952
 1654SOL     OW16597   3.158   4.348   9.378  0.6137 -0.0896  0.2265
 1654SOL    HW116598   3.163   4.443   9.390 -2.3095  0.0536  0.4580
 1654SOL    HW216599   3.196   4.315   9.460 -1.7636 -0.6604  1.1177
 1655SOL     OW16600   0.964   3.942   6.836 -0.0895 -0.6594  0.5883
 1655SOL    HW116601   0.956   3.991   6.754  2.0776  1.1265  1.4462
 1655SOL    HW216602   0.919   3.862   6.811  0.9534 -0.7508 -0.9742
 1656SOL     OW16603   4.568   3.083  16.067 -0.7108  0.1284 -0.1197
 1656SOL    HW116604   4.617   3.012  16.109 -1.9000  0.5863  2.0881
 1656SOL    HW216605   4.477   3.053  16.061 -0.7459  0.3193 -0.5267
 1657SOL     OW16606   0.264   3.682   5.466 -0.4268  0.1289 -0.0747
 1657SOL    HW116607   0.275   3.672   5.371 -0.6115 -1.9767  0.1161
 1657SOL    HW216608   0.172   3.671   5.488  0.1168 -0.5544  1.8229
 1658SOL     OW16609   0.956   3.453   4.482 -0.0717  0.2243 -0.0577
 1658SOL    HW116610   0.910   3.394   4.422  0.3664 -1.4405  1.2377
 1658SOL    HW216611   0.918   3.539   4.467 -2.8484 -0.8533  0.6722
 1659SOL     OW16612   1.274   1.296   4.392 -0.3257  0.3628  0.2624
 1659SOL    HW116613   1.225   1.375   4.372 -2.1422 -0.9372 -0.3655
 1659SOL    HW216614   1.201   1.247   4.429  1.7547 -2.3156  0.7795
 1660SOL     OW16615   2.623   2.912  10.230  0.5661 -0.5090  0.8199
 1660SOL    HW116616   2.541   2.960  10.238 -0.0004 -1.1703 -0.9926
 1660SOL    HW216617   2.621   2.877  10.141  1.3048  1.2247  0.1373
 1661SOL     OW16618   1.745   1.003   4.464  1.0611 -0.0483 -0.0125
 1661SOL    HW116619   1.788   1.070   4.518  0.2671 -0.4317  1.0855
 1661SOL    HW216620   1.685   1.054   4.410  1.3342 -1.6983 -1.8721
 1662SOL     OW16621   0.362   2.500   0.488 -0.3053  0.2955 -0.3262
 1662SOL    HW116622   0.403   2.488   0.402 -0.7194  0.4314 -0.5425
 1662SOL    HW216623   0.285   2.442   0.484 -2.0489  2.5629  0.1099
 1663SOL     OW16624   1.279   3.720   1.545 -0.0469 -0.1507 -0.1535
 1663SOL    HW116625   1.286   3.814   1.530  1.9349 -0.2039  0.4037
 1663SOL    HW216626   1.240   3.719   1.632  0.4500  0.8731  0.0821
 1664SOL     OW16627   0.114   1.109   8.560 -0.2731  0.0443  0.2753
 1664SOL    HW116628   0.078   1.176   8.618  2.7369  2.0725 -0.1674
 1664SOL    HW216629   0.082   1.146   8.477  1.7988 -0.0890 -0.5776
 1665SOL     OW16630   1.370   1.668  16.807 -0.3936  0.0571  0.2599
 1665SOL    HW116631   1.423   1.722  16.749 -2.4273  3.0199  1.1540
 1665SOL    HW216632   1.292   1.721  16.826 -2.2690 -2.3323 -0.7621
 1666SOL     OW16633   1.594   2.117   5.793  0.2827 -0.6794  0.2514
 1666SOL    HW116634   1.679   2.073   5.787 -0.3355 -1.6666 -1.5280
 1666SOL    HW216635   1.559   2.067   5.866  0.1435  1.6161  1.7492
 1667SOL     OW16636   2.558   0.924   0.539  0.1626  0.1501 -0.6263
 1667SOL    HW116637   2.573   1.014   0.510 -2.4838  2.0040  3.6936
 1667SOL    HW216638   2.647   0.890   0.551  0.3917  0.3768 -1.7577
 1668SOL     OW16639   2.428   4.000   8.403  0.0735 -0.3323 -0.2926
 1668SOL    HW116640   2.447   3.926   8.461 -1.3062 -0.0105  0.5849
 1668SOL    HW216641   2.462   3.967   8.320 -0.0624 -3.0262  0.7125
 1669SOL     OW16642   3.880   1.380   8.442  0.1852 -0.3657 -0.0246
 1669SOL    HW116643   3.811   1.398   8.506  1.4232 -1.7077  1.6539
 1669SOL    HW216644   3.947   1.334   8.491  1.1817  0.9002 -0.2035
 1670SOL     OW16645   1.930   2.619  15.007  0.6200  0.1641 -0.0697
 1670SOL    HW116646   1.922   2.607  14.912  1.4326  0.1994 -0.1404
 1670SOL    HW216647   1.870   2.692  15.021 -1.4888 -1.6171  0.1397
 1671SOL     OW16648   1.625   0.587   6.691  0.2172 -0.6425 -0.2105
 1671SOL    HW116649   1.677   0.524   6.742 -0.0804 -0.9331 -0.2634
 1671SOL    HW216650   1.540   0.545   6.679 -1.0883  1.9413  0.0584
 1672SOL     OW16651   4.554   4.307  11.782  0.1122 -0.3674 -0.2280
 1672SOL    HW116652   4.468   4.281  11.748 -1.6923  3.4943  1.3295
 1672SOL    HW216653   4.531   4.304  11.875  2.0923 -0.0709  0.2718
 1673SOL     OW16654   4.328   3.565   2.582 -0.2984 -0.0099  0.0004
 1673SOL    HW116655   4.358   3.549   2.493  0.8697 -1.9467  0.7487
 1673SOL    HW216656   4.307   3.477   2.613  0.8238 -0.3795 -0.2848
 1674SOL     OW16657   1.197   3.489  11.412  0.2375  0.2630  0.3463
 1674SOL    HW116658   1.217   3.554  11.344 -0.2937  0.7146  0.6238
 1674SOL    HW216659   1.252   3.419  11.377 -1.0057 -0.7253  0.3448
 1675SOL     OW16660   3.073   4.038   2.075  0.4097 -0.2652 -0.3961
 1675SOL    HW116661   2.981   4.060   2.088  0.2702  0.8422 -3.3154
 1675SOL    HW216662   3.110   4.123   2.052  0.7288  0.1160  1.5093
 1676SOL     OW16663   4.268   1.306   8.747 -0.1218 -0.2988 -0.3991
 1676SOL    HW116664   4.247   1.320   8.654 -4.8284  1.1164  0.8965
 1676SOL    HW216665   4.182   1.305   8.788  0.2471 -0.5151  0.3690
 1677SOL     OW16666   2.580   0.532  14.383 -0.0734 -0.0590 -0.2286
 1677SOL    HW116667   2.533   0.452  14.358 -1.1333  0.4024  0.2751
 1677SOL    HW216668   2.643   0.547  14.313  0.3661  1.3919  0.4732
 1678SOL     OW16669   2.884   3.605  16.368 -0.0770 -0.1580  0.0333
 1678SOL    HW116670   2.883   3.668  16.296  2.4705 -0.4794 -0.2531
 1678SOL    HW216671   2.835   3.660  16.431 -0.0962 -1.5105  1.2032
 1679SOL     OW16672   0.233   1.764  10.805  0.3991  0.6696  0.2352
 1679SOL    HW116673   0.245   1.724  10.719  1.7529  2.7862 -0.5481
 1679SOL    HW216674   0.316   1.809  10.819 -0.4182  2.3158 -0.1232
 1680SOL     OW16675   4.325   0.726   6.055  0.2665  0.4811  0.2150
 1680SOL    HW116676   4.270   0.755   6.128  1.2700  0.5876  0.9353
 1680SOL    HW216677   4.319   0.631   6.056  0.2674  0.5060  2.2912
 1681SOL     OW16678   0.215   0.410   6.370 -0.3988  0.1074  0.0579
 1681SOL    HW116679   0.254   0.369   6.293 -1.0643  0.7796 -0.6416
 1681SOL    HW216680   0.279   0.389   6.438  0.3034  1.7695 -0.0771
 1682SOL     OW16681   2.439   1.389  15.153  0.5467  0.5480  0.6095
 1682SOL    HW116682   2.399   1.320  15.099  1.2100  1.0510 -0.5210
 1682SOL    HW216683   2.448   1.461  15.091  0.0617 -1.0755 -1.3668
 1683SOL     OW16684   1.540   1.737  14.403 -0.0993 -0.3679  0.3525
 1683SOL    HW116685   1.518   1.685  14.481 -1.7651  1.0277  0.8166
 1683SOL    HW216686   1.618   1.787  14.426  0.9573 -1.9290  0.1848
 1684SOL     OW16687   3.052   3.837   3.871 -0.0033 -0.1726  0.0758
 1684SOL    HW116688   3.143   3.843   3.844 -0.9685  0.0512 -3.1024
 1684SOL    HW216689   3.060   3.827   3.966 -0.0355 -0.0700  0.0891
 1685SOL     OW16690   1.774   3.781   2.247  0.0243  0.2723  0.1724
 1685SOL    HW116691   1.855   3.743   2.212 -1.3967 -0.8630 -1.8808
 1685SOL    HW216692   1.716   3.705   2.251 -0.7569  0.7246 -2.7424
 1686SOL     OW16693   2.952   3.511  11.282 -0.3702 -0.3567  0.2225
 1686SOL    HW116694   3.029   3.455  11.275 -0.7379 -0.8957  0.4684
 1686SOL    HW216695   2.886   3.443  11.269 -3.8537  2.8926  0.8592
 1687SOL     OW16696   3.955   1.415   5.615 -0.2307 -0.2006  0.1491
 1687SOL    HW116697   4.011   1.346   5.651 -2.4807 -0.7493  2.5688
 1687SOL    HW216698   3.906   1.368   5.548 -0.1832  0.5747 -0.4350
 1688SOL     OW16699   2.395   3.816  15.969  0.1351 -0.9856  0.0747
 1688SOL    HW116700   2.489   3.818  15.951  0.5157 -3.7457  1.8474
 1688SOL    HW216701   2.391   3.912  15.967 -1.6716 -1.0657  0.0458
 1689SOL     OW16702   4.381   3.066   8.338  0.3104  0.4427  0.7618
 1689SOL    HW116703   4.388   2.972   8.318 -0.6807  0.4631  0.3497
 1689SOL    HW216704   4.300   3.093   8.296  2.1260  1.7282 -1.9295
 1690SOL     OW16705   3.603   1.617   0.964  0.0358 -0.0510 -0.2338
 1690SOL    HW116706   3.565   1.668   0.893 -0.1383 -1.1763 -0.9314
 1690SOL    HW216707   3.604   1.529   0.927  0.8316  1.4061 -3.6578
 1691SOL     OW16708   0.835   2.493  15.149 -0.6279 -0.2088  0.4690
 1691SOL    HW116709   0.861   2.415  15.100  2.0896  1.1249 -0.2026
 1691SOL    HW216710   0.820   2.454  15.235  0.1051 -3.5827 -0.9022
 1692SOL     OW16711   1.160   1.531   5.159  0.3037  0.0099  0.1630
 1692SOL    HW116712   1.111   1.461   5.201  1.4959 -1.2863 -0.6122
 1692SOL    HW216713   1.180   1.583   5.237 -0.4715 -1.4922  1.3661
 1693SOL     OW16714   3.192   3.503   2.494 -0.8785  0.0798  0.1751
 1693SOL    HW116715   3.260   3.437   2.507 -0.1928  1.2421  2.4410
 1693SOL    HW216716   3.209   3.551   2.575  1.3143  0.7945 -0.7211
 1694SOL     OW16717   2.820   4.029   9.338 -0.0739 -0.6483  0.9385
 1694SOL    HW116718   2.805   3.961   9.404 -0.1654 -1.8219 -0.2953
 1694SOL    HW216719   2.777   4.104   9.380  1.7399  1.4739 -1.0333
 1695SOL     OW16720   3.528   4.471   5.377  0.5137 -0.0231  0.5906
 1695SOL    HW116721   3.571   4.469   5.292 -1.2924 -0.0495 -0.3216
 1695SOL    HW216722   3.537   4.378   5.399 -0.4119 -0.6233 -1.5776
 1696SOL     OW16723   0.170   4.476   6.639  0.1086  0.0188 -0.2248
 1696SOL    HW116724   0.142   4.419   6.711 -1.4082  1.9626  0.7262
 1696SOL    HW216725   0.088   4.525   6.638 -0.3629 -0.7661 -0.4422
 1697SOL     OW16726   3.202   1.982  14.243 -0.1906  0.1068  0.3374
 1697SOL    HW116727   3.235   1.927  14.313  0.2429  2.6308  2.1170
 1697SOL    HW216728   3.154   2.046  14.296 -0.8490 -0.1065 -0.0040
 1698SOL     OW16729   4.619   3.808   9.955  0.0323  0.2730  0.2369
 1698SOL    HW116730   4.684   3.857   9.904  1.9543 -1.2803  1.1674
 1698SOL    HW216731   4.643   3.825  10.046  0.5321 -2.2107  0.5600
 1699SOL     OW16732   1.608   0.130  13.371 -0.2734 -0.0812  0.8705
 1699SOL    HW116733   1.531   0.104  13.423  0.1831  0.0434  1.6084
 1699SOL    HW216734   1.567   0.189  13.308  2.0573  1.1154  0.5066
 1700SOL     OW16735   2.334   3.013  16.965 -0.0189 -0.1374  0.0947
 1700SOL    HW116736   2.331   3.108  16.950 -1.8810 -0.1787  0.2522
 1700SOL    HW216737   2.279   2.980  16.894  1.5943  2.1557 -2.2297
 1701SOL     OW16738   1.386   4.561   8.169  0.0224 -0.0695 -0.1298
 1701SOL    HW116739   1.401   4.650   8.136  0.0043 -0.7005 -1.8338
 1701SOL    HW216740   1.473   4.525   8.153  0.7137  0.8632  1.4685
 1702SOL     OW16741   0.556   4.005   2.964 -0.0100 -0.1507 -0.0331
 1702SOL    HW116742   0.619   4.008   2.892 -0.6711  0.9728 -0.5683
 1702SOL    HW216743   0.567   4.094   2.997 -0.0418 -1.1336  2.6212
 1703SOL     OW16744   1.646   2.869   7.415  0.1092  0.3546 -0.2349
 1703SOL    HW116745   1.601   2.939   7.463 -1.9031 -0.9998 -0.1678
 1703SOL    HW216746   1.607   2.881   7.329  0.9692  0.0534 -0.6609
 1704SOL     OW16747   0.924   4.082   9.728  0.1879 -0.4274 -0.0345
 1704SOL    HW116748   0.934   4.148   9.797  3.3290 -0.0197 -0.8838
 1704SOL    HW216749   0.951   4.004   9.776 -1.1505 -1.2873 -0.6954
 1705SOL     OW16750   1.398   2.447   6.381 -0.3561 -0.0201 -0.1476
 1705SOL    HW116751   1.315   2.458   6.428 -0.4456  4.3955 -1.2761
 1705SOL    HW216752   1.430   2.536   6.393 -0.6413 -0.1493  1.5722
 1706SOL     OW16753   4.034   1.453  10.700 -0.2100  0.3802  0.2430
 1706SOL    HW116754   3.960   1.441  10.640  0.2474  1.0754 -0.4700
 1706SOL    HW216755   4.019   1.543  10.728 -0.2534  0.4629 -0.0472
 1707SOL     OW16756   3.116   1.147   6.405 -0.2549  0.0803 -0.5925
 1707SOL    HW116757   3.047   1.201   6.366 -0.8287  1.4227  2.2762
 1707SOL    HW216758   3.066   1.138   6.486 -1.5887 -0.6711 -1.4979
 1708SOL     OW16759   4.293   3.663  12.482 -0.6677 -0.3585  0.3966
 1708SOL    HW116760   4.249   3.732  12.432  1.1725 -0.8025 -1.8774
 1708SOL    HW216761   4.342   3.723  12.538  0.3793 -1.3750  0.5905
 1709SOL     OW16762   4.422   4.434  16.113  0.2411  0.6930  0.3087
 1709SOL    HW116763   4.472   4.424  16.193 -0.1934  0.1146  0.5126
 1709SOL    HW216764   4.371   4.511  16.139  0.0473  0.5558  0.3328
 1710SOL     OW16765   0.216   1.416   8.225  0.2490  0.4470 -0.4017
 1710SOL    HW116766   0.249   1.506   8.216  0.5427  0.4670  0.9463
 1710SOL    HW216767   0.140   1.436   8.281  1.0061  1.5431  0.2357
 1711SOL     OW16768   1.044   1.376   4.094  0.6450 -0.0602  0.1628
 1711SOL    HW116769   1.048   1.361   4.000  0.9549  0.8062  0.0409
 1711SOL    HW216770   1.040   1.286   4.125  1.1266  0.4412  1.6935
 1712SOL     OW16771   4.705   2.996   2.546  0.5214  0.2021  0.3403
 1712SOL    HW116772   0.022   3.024   2.619  1.0312  0.6012 -0.1902
 1712SOL    HW216773   4.679   3.072   2.495 -2.8008 -1.6458 -0.7525
 1713SOL     OW16774   2.535   3.445   5.210  0.2306 -0.5989 -0.7602
 1713SOL    HW116775   2.527   3.399   5.126  0.0408  0.5870 -1.3823
 1713SOL    HW216776   2.569   3.530   5.183 -0.3743 -0.9041 -2.4973
 1714SOL     OW16777   2.553   3.831  15.407 -0.2557 -0.4355  0.1746
 1714SOL    HW116778   2.493   3.760  15.387 -2.4664  0.8621  2.2432
 1714SOL    HW216779   2.555   3.820  15.502 -0.1292 -3.6109 -0.2039
 1715SOL     OW16780   3.533   1.582   7.434  1.2444  0.2510 -0.4816
 1715SOL    HW116781   3.543   1.487   7.428 -3.1295 -0.2148 -0.3887
 1715SOL    HW216782   3.578   1.592   7.518 -0.5313 -0.8716  0.5949
 1716SOL     OW16783   1.569   4.297   0.932 -0.2342  0.1632  0.4296
 1716SOL    HW116784   1.513   4.314   1.007  0.7507  0.8821  1.0123
 1716SOL    HW216785   1.533   4.213   0.905 -1.8982  1.3553 -0.9833
 1717SOL     OW16786   2.646   0.543   7.357  0.5144 -0.1431 -0.2629
 1717SOL    HW116787   2.659   0.636   7.376  2.9088 -0.3710 -0.7291
 1717SOL    HW216788   2.561   0.540   7.313  0.2788  0.3633  0.1659
 1718SOL     OW16789   4.016   4.300   5.158  0.1140  0.3487  0.1810
 1718SOL    HW116790   3.953   4.340   5.098 -0.3913  0.4719  0.7979
 1718SOL    HW216791   4.026   4.375   5.217 -0.3939  1.2470 -0.8664
 1719SOL     OW16792   4.647   3.772   4.024 -0.3186 -0.2065  0.8810
 1719SOL    HW116793   4.696   3.852   4.041 -0.0425  0.3493 -2.5218
 1719SOL    HW216794   4.569   3.812   3.986 -0.6524 -1.1653  0.5561
 1720SOL     OW16795   2.819   2.014   2.012 -0.1415 -0.0267  0.5007
 1720SOL    HW116796   2.914   2.024   2.015 -0.4110  2.6366  0.3405
 1720SOL    HW216797   2.792   2.015   2.104 -1.8456  0.2578 -0.0060
 1721SOL     OW16798   0.092   2.349  17.048 -0.3216 -0.1114  0.5167
 1721SOL    HW116799   0.101   2.281  17.114 -0.0586 -0.4066  0.1760
 1721SOL    HW216800   0.002   2.327  17.022  0.4785 -1.3937 -1.1744
 1722SOL     OW16801   1.431   1.802   5.245  0.5791  0.1912  0.4810
 1722SOL    HW116802   1.361   1.758   5.292 -1.6161  0.2745 -2.6806
 1722SOL    HW216803   1.511   1.750   5.247  0.8409  0.5717  0.0826
 1723SOL     OW16804   0.899   2.448   4.978  0.5569 -0.3191  0.2177
 1723SOL    HW116805   0.825   2.454   5.039  2.1437  1.2284  1.9822
 1723SOL    HW216806   0.887   2.358   4.948  2.4651 -0.5171  0.0749
 1724SOL     OW16807   4.208   0.539   2.030  0.4499  0.1811  0.4810
 1724SOL    HW116808   4.113   0.547   2.021  0.7746  2.5148 -0.8418
 1724SOL    HW216809   4.219   0.470   2.095  1.1459 -1.4426 -1.3754
 1725SOL     OW16810   0.950   3.762   5.813  0.2080 -0.3249 -0.1164
 1725SOL    HW116811   0.895   3.812   5.874  0.0780 -1.2142  0.5059
 1725SOL    HW216812   0.993   3.708   5.880 -2.1281  0.1409  1.7428
 1726SOL     OW16813   1.944   4.001   9.746 -0.3509 -0.0201  0.6657
 1726SOL    HW116814   1.984   4.063   9.807  1.2114 -0.8712  0.5127
 1726SOL    HW216815   1.888   3.933   9.783 -0.1977  1.5218  3.7370
 1727SOL     OW16816   2.693   3.795   1.528 -0.4888  0.0435  0.0612
 1727SOL    HW116817   2.769   3.739   1.543 -1.1096 -1.3937 -2.1705
 1727SOL    HW216818   2.733   3.870   1.484 -1.7708  0.6265 -0.1248
 1728SOL     OW16819   4.423   3.344  10.859 -0.2046 -0.0226 -0.4422
 1728SOL    HW116820   4.479   3.303  10.925 -1.0631 -1.5827 -0.6816
 1728SOL    HW216821   4.476   3.423  10.846 -0.2920  0.3734  1.6353
 1729SOL     OW16822   1.153   2.928   4.171 -0.2846  0.0275 -0.0342
 1729SOL    HW116823   1.234   2.974   4.151 -1.1287  1.3303 -0.4507
 1729SOL    HW216824   1.135   2.971   4.255 -0.2033 -2.2801  1.1520
 1730SOL     OW16825   2.977   0.546   3.487 -0.2945 -0.0498  0.3180
 1730SOL    HW116826   2.891   0.507   3.477  1.1260 -2.6901 -1.6796
 1730SOL    HW216827   2.953   0.638   3.475 -1.2624 -0.0005  2.7716
 1731SOL     OW16828   1.287   1.241   7.073  0.7465  0.5867  0.0633
 1731SOL    HW116829   1.303   1.146   7.073  1.4488  0.7118 -1.9181
 1731SOL    HW216830   1.192   1.239   7.089  0.2103  0.5835 -3.1635
 1732SOL     OW16831   1.792   4.673  15.980  0.5051  0.1923 -0.0576
 1732SOL    HW116832   1.821   0.013  16.029  0.7848 -0.1708  0.3407
 1732SOL    HW216833   1.737   4.691  15.904  0.4437  1.2603  0.2485
 1733SOL     OW16834   1.862   3.526  16.311 -0.4045  0.1262  0.1524
 1733SOL    HW116835   1.846   3.436  16.339 -3.6458  1.0842  1.3824
 1733SOL    HW216836   1.882   3.564  16.396  0.4867  1.5665 -0.6947
 1734SOL     OW16837   2.390   3.129  16.163  0.1647 -0.2555 -0.5621
 1734SOL    HW116838   2.440   3.078  16.227 -0.5415 -0.3816 -0.1088
 1734SOL    HW216839   2.437   3.212  16.168 -0.6803  0.2502 -0.9947
 1735SOL     OW16840   1.851   0.895   2.306  0.1520 -0.1922 -0.1073
 1735SOL    HW116841   1.871   0.954   2.234 -0.3244 -0.9839 -0.8826
 1735SOL    HW216842   1.756   0.897   2.319  0.2771 -0.8711  0.9405
 1736SOL     OW16843   2.196   0.975   9.647  0.5858 -0.0731 -0.3247
 1736SOL    HW116844   2.264   0.916   9.678 -0.1988  0.3473  2.1372
 1736SOL    HW216845   2.125   0.947   9.705 -0.7193 -0.0823 -1.9044
 1737SOL     OW16846   2.720   4.735  12.213 -0.5806  0.2715 -0.3830
 1737SOL    HW116847   2.805   4.699  12.236 -0.5617  0.7564  0.2906
 1737SOL    HW216848   2.698   0.045  12.293  1.6713  1.8059 -0.6707
 1738SOL     OW16849   0.288   3.562   7.932  0.0312  1.1190  0.0390
 1738SOL    HW116850   0.332   3.593   8.011 -1.9534 -2.3277  2.5187
 1738SOL    HW216851   0.202   3.540   7.969  0.4279 -2.0462 -0.9456
 1739SOL     OW16852   1.476   4.450   8.537  0.5398  0.0925  0.0387
 1739SOL    HW116853   1.404   4.499   8.498 -0.5904 -0.3557  1.5521
 1739SOL    HW216854   1.553   4.468   8.483  1.7981 -0.6476  1.5953
 1740SOL     OW16855   3.171   3.384   7.232 -0.1186 -0.2424 -0.4065
 1740SOL    HW116856   3.241   3.320   7.247 -0.2339 -0.8291 -2.3974
 1740SOL    HW216857   3.124   3.357   7.154  1.6725 -0.8927 -1.2613
 1741SOL     OW16858   4.729   3.455   9.162 -0.3353  0.4931  0.1752
 1741SOL    HW116859   0.016   3.478   9.072  0.6659 -1.1267  0.0357
 1741SOL    HW216860   4.635   3.435   9.157 -0.3511  0.7996 -0.7623
 1742SOL     OW16861   2.347   0.315   0.211  0.0466 -0.0122  0.0218
 1742SOL    HW116862   2.432   0.279   0.187 -0.9660 -3.0285  0.9330
 1742SOL    HW216863   2.283   0.247   0.188 -0.2157  0.1321  0.3153
 1743SOL     OW16864   2.037   0.867   7.941 -0.0588  0.2620 -0.0234
 1743SOL    HW116865   2.046   0.866   8.036  1.0992  0.9790 -0.1238
 1743SOL    HW216866   2.058   0.960   7.933  0.7245  0.0085 -0.9286
 1744SOL     OW16867   2.809   1.138  13.898 -0.2476 -0.3617 -0.1182
 1744SOL    HW116868   2.739   1.112  13.957  0.3317 -2.8780 -0.5707
 1744SOL    HW216869   2.829   1.056  13.854 -0.1718 -0.2219 -0.3435
 1745SOL     OW16870   2.735   1.151   4.182 -0.0897 -0.5907  0.1845
 1745SOL    HW116871   2.781   1.094   4.121  0.7134 -0.2503  0.4760
 1745SOL    HW216872   2.793   1.126   4.255  0.7990  0.7763 -0.0616
 1746SOL     OW16873   3.330   1.486  14.144  0.0060 -0.0676  0.0375
 1746SOL    HW116874   3.408   1.431  14.151  0.6478  0.8760  0.2783
 1746SOL    HW216875   3.279   1.441  14.076 -0.6353 -0.2033  0.6177
 1747SOL     OW16876   3.336   2.857   6.815  0.7815 -0.2191  0.3603
 1747SOL    HW116877   3.414   2.818   6.854  0.1166 -1.4641  0.4512
 1747SOL    HW216878   3.313   2.776   6.770  1.0711 -0.3964  0.5281
 1748SOL     OW16879   1.119   2.812   0.146  0.1721  0.6007  0.6181
 1748SOL    HW116880   1.033   2.798   0.188 -0.1302  0.7417  0.0464
 1748SOL    HW216881   1.122   2.907   0.150 -0.0863  0.6095  0.6591
 1749SOL     OW16882   4.407   1.949   2.856  0.1616  0.1020 -0.2406
 1749SOL    HW116883   4.315   1.974   2.865  0.4352  1.1763 -0.4398
 1749SOL    HW216884   4.397   1.857   2.834 -0.3450  0.1849 -0.3415
 1750SOL     OW16885   0.159   1.952   4.776  0.3044  0.3261 -0.8028
 1750SOL    HW116886   0.181   1.872   4.824  0.3149  1.6258  1.3729
 1750SOL    HW216887   0.181   2.019   4.841 -0.1602 -1.8519  1.5778
 1751SOL     OW16888   2.471   3.462   3.516  0.3385 -0.1996 -0.5684
 1751SOL    HW116889   2.543   3.520   3.540  0.8255 -0.2686 -1.8854
 1751SOL    HW216890   2.405   3.531   3.529  1.0957 -0.4152  4.5740
 1752SOL     OW16891   1.117   4.317   6.516 -0.1093  0.1649  0.3897
 1752SOL    HW116892   1.086   4.391   6.464 -1.0911 -0.5247 -0.0145
 1752SOL    HW216893   1.139   4.359   6.599 -0.3689  0.9607  0.0498
 1753SOL     OW16894   2.684   2.819   3.258 -0.1512  0.6188 -0.0284
 1753SOL    HW116895   2.763   2.804   3.309 -0.3490  0.9380  0.3672
 1753SOL    HW216896   2.671   2.726   3.240  1.4136  0.3136  0.4295
 1754SOL     OW16897   4.070   2.801   3.815 -0.3833 -0.6905  0.0299
 1754SOL    HW116898   4.086   2.716   3.856  1.7637 -0.5091 -0.4027
 1754SOL    HW216899   4.159   2.827   3.792 -0.8688  0.0331 -1.0463
 1755SOL     OW16900   2.952   1.227   1.601 -0.5305  0.4981  0.5063
 1755SOL    HW116901   2.931   1.192   1.514  0.3956 -0.9685  0.8703
 1755SOL    HW216902   2.922   1.155   1.657  0.1456 -0.1462  0.0381
 1756SOL     OW16903   0.752   4.727  11.885 -0.4688 -0.0070  0.5170
 1756SOL    HW116904   0.758   0.079  11.849  0.5471  0.7920  2.6689
 1756SOL    HW216905   0.844   4.700  11.884 -1.0893 -1.9844 -3.0194
 1757SOL     OW16906   2.696   2.355   7.120 -0.2824  0.3775  0.3828
 1757SOL    HW116907   2.763   2.365   7.188 -1.3543  1.1421  1.3240
 1757SOL    HW216908   2.623   2.313   7.165 -0.7263  1.4541  0.6744
 1758SOL     OW16909   1.281   0.648   1.733  0.3618 -0.1832  0.5053
 1758SOL    HW116910   1.331   0.728   1.749  1.3863 -0.0692 -3.2670
 1758SOL    HW216911   1.344   0.618   1.668 -1.0237  0.7083 -1.2482
 1759SOL     OW16912   3.487   3.147   8.679 -0.1021  0.2719 -0.3464
 1759SOL    HW116913   3.554   3.109   8.736  0.1522  0.3281 -0.6071
 1759SOL    HW216914   3.452   3.224   8.723 -0.9863 -0.1723 -0.2650
 1760SOL     OW16915   1.854   1.005   5.226 -0.0456  0.5690  0.4480
 1760SOL    HW116916   1.949   1.007   5.221 -0.1134 -0.3731 -1.3961
 1760SOL    HW216917   1.837   0.987   5.318  1.2670  3.3200  1.1979
 1761SOL     OW16918   2.739   1.486   6.245 -0.2601  0.3207  0.3030
 1761SOL    HW116919   2.736   1.498   6.150  0.6948  0.6997  0.3208
 1761SOL    HW216920   2.648   1.481   6.272  0.1055  1.0666  1.6466
 1762SOL     OW16921   1.533   0.395   8.518 -0.2304 -0.5563  0.5148
 1762SOL    HW116922   1.579   0.355   8.592 -1.3502 -1.4545  0.7282
 1762SOL    HW216923   1.511   0.483   8.550  1.1458  0.5371 -1.5594
 1763SOL     OW16924   1.480   1.748   7.274 -0.1065  0.0872  0.0580
 1763SOL    HW116925   1.429   1.687   7.221  0.7816  0.5110 -1.2824
 1763SOL    HW216926   1.428   1.829   7.275  2.3873  1.6696  1.2383
 1764SOL     OW16927   1.812   4.327  13.104  0.1670 -0.2589  0.0789
 1764SOL    HW116928   1.733   4.361  13.063  1.4844  0.9455 -1.4415
 1764SOL    HW216929   1.876   4.393  13.079 -0.0149  0.2394  0.9326
 1765SOL     OW16930   4.427   1.694   7.235 -0.2731  0.0888  0.0895
 1765SOL    HW116931   4.417   1.756   7.163  2.9872 -0.0135 -0.4523
 1765SOL    HW216932   4.521   1.686   7.249 -0.2535 -1.1414 -0.7114
 1766SOL     OW16933   3.969   0.074   9.823  0.6774 -0.4737  0.1759
 1766SOL    HW116934   3.957   0.107   9.734  0.4298 -2.4325 -0.5202
 1766SOL    HW216935   4.035   0.006   9.815  0.3269 -1.1612  3.0304
 1767SOL     OW16936   3.924   3.646  17.423  0.1579 -0.3037  0.3960
 1767SOL    HW116937   3.917   3.609  17.510  2.6831 -1.5607  0.0591
 1767SOL    HW216938   4.018   3.665  17.416  0.8775 -3.2791  2.2823
 1768SOL     OW16939   3.292   3.753   1.927 -0.4436  1.1560  0.5603
 1768SOL    HW116940   3.367   3.798   1.889  0.4763 -0.6422  0.2259
 1768SOL    HW216941   3.333   3.667   1.938 -0.6937  0.6226 -2.6284
 1769SOL     OW16942   4.735   3.173   9.568 -0.2220  0.0124 -0.0661
 1769SOL    HW116943   0.060   3.100   9.562  2.2218  2.1223 -0.6213
 1769SOL    HW216944   4.673   3.155   9.497 -0.4126 -1.4726  0.4751
 1770SOL     OW16945   2.905   1.236   3.764 -0.0166 -0.2106 -0.2221
 1770SOL    HW116946   2.843   1.308   3.780 -0.3586 -0.0965 -2.1349
 1770SOL    HW216947   2.952   1.274   3.689  3.2326 -1.9512  0.9142
 1771SOL     OW16948   2.593   4.082   9.091  0.1473 -0.4839  0.1842
 1771SOL    HW116949   2.506   4.077   9.129  0.7407  1.9667  1.8017
 1771SOL    HW216950   2.614   4.175   9.090  0.2923 -0.5176  0.0065
 1772SOL     OW16951   1.164   3.816   9.759  0.1469  0.4922  0.6731
 1772SOL    HW116952   1.222   3.878   9.715 -0.6612 -0.6655 -2.0203
 1772SOL    HW216953   1.138   3.762   9.684  3.6364  0.4600 -0.4950
 1773SOL     OW16954   3.625   0.128   1.965  0.1333 -0.1976 -0.2198
 1773SOL    HW116955   3.592   0.204   1.917  1.4236  0.8732  0.5813
 1773SOL    HW216956   3.608   0.059   1.901  1.3511 -2.0035  1.3843
 1774SOL     OW16957   4.106   3.400   8.403  0.1523  0.2287 -0.0407
 1774SOL    HW116958   4.037   3.383   8.467 -0.1665  0.2306 -0.3767
 1774SOL    HW216959   4.056   3.463   8.350 -3.1116 -0.8714  1.7278
 1775SOL     OW16960   3.364   3.040   1.995 -0.4147 -0.2595  0.1266
 1775SOL    HW116961   3.436   3.016   1.937  0.7944  0.1882  1.4338
 1775SOL    HW216962   3.402   3.039   2.083  0.0456 -0.8005 -0.0813
 1776SOL     OW16963   0.613   1.271   3.599  0.1501 -0.0451  0.2512
 1776SOL    HW116964   0.609   1.302   3.690 -2.4081  1.8921 -0.5031
 1776SOL    HW216965   0.698   1.300   3.568 -0.1258 -0.2549 -0.7117
 1777SOL     OW16966   4.525   3.331   5.380 -0.1249 -0.4775 -0.1222
 1777SOL    HW116967   4.543   3.238   5.367  0.0898 -0.8010  2.4514
 1777SOL    HW216968   4.487   3.331   5.467 -0.1523 -1.0364 -0.1385
 1778SOL     OW16969   1.930   4.701   3.453  0.3145 -0.0725 -0.2501
 1778SOL    HW116970   1.984   4.721   3.377  1.0846 -1.2149  0.0029
 1778SOL    HW216971   1.864   4.653   3.403  0.9545  0.0258 -1.1873
 1779SOL     OW16972   2.498   1.636  13.423 -0.8853  0.4029  0.4786
 1779SOL    HW116973   2.472   1.719  13.463 -1.3044 -0.1178  1.2917
 1779SOL    HW216974   2.486   1.585  13.503 -1.2807 -1.0121 -0.4790
 1780SOL     OW16975   1.543   2.321  14.701  0.0589 -0.5340 -0.0935
 1780SOL    HW116976   1.597   2.345  14.776 -1.4416  0.2657  0.7377
 1780SOL    HW216977   1.484   2.261  14.746 -0.2679 -0.0670  0.1006
 1781SOL     OW16978   4.117   1.054   2.804  0.2351  0.0036  0.2221
 1781SOL    HW116979   4.168   1.128   2.838 -0.3831  0.9107 -0.7882
 1781SOL    HW216980   4.164   1.038   2.721 -0.6539 -3.3932  0.3770
 1782SOL     OW16981   1.817   4.155   0.924 -0.7267  0.1843 -0.0115
 1782SOL    HW116982   1.786   4.219   0.988 -0.7947 -2.5865  2.7082
 1782SOL    HW216983   1.822   4.213   0.847 -1.5500 -0.5659 -0.6317
 1783SOL     OW16984   3.961   3.985   0.832 -0.0154 -0.2450 -0.2509
 1783SOL    HW116985   3.895   3.917   0.849 -0.1721 -0.1047 -0.3008
 1783SOL    HW216986   4.037   3.957   0.884  1.4284  0.6047 -1.9161
 1784SOL     OW16987   3.776   1.395   6.296  0.4224 -0.3138 -0.5367
 1784SOL    HW116988   3.686   1.420   6.317 -0.0096 -1.4626 -1.0422
 1784SOL    HW216989   3.797   1.442   6.215  1.3534 -1.0220 -0.7117
 1785SOL     OW16990   1.208   2.581  16.033 -0.0492  0.3589  0.0385
 1785SOL    HW116991   1.221   2.562  16.126  2.2286 -1.7490 -0.6791
 1785SOL    HW216992   1.208   2.676  16.035 -0.9801  0.3715 -0.7119
 1786SOL     OW16993   1.537   3.743   3.232  0.3814 -0.1392 -0.0875
 1786SOL    HW116994   1.506   3.674   3.173  1.3086 -1.8923  1.4668
 1786SOL    HW216995   1.464   3.747   3.293  0.3699  1.3594 -0.2090
 1787SOL     OW16996   2.613   3.973   6.263 -0.2787  0.7212  0.0929
 1787SOL    HW116997   2.679   3.956   6.197 -0.1409 -0.1695  0.4597
 1787SOL    HW216998   2.673   4.000   6.333  0.7883 -0.6894 -0.2933
 1788SOL     OW16999   4.284   2.437   4.929 -0.6412 -0.7151 -0.6265
 1788SOL    HW117000   4.260   2.345   4.942 -0.8551 -0.7214 -1.0417
 1788SOL    HW217001   4.288   2.445   4.833  1.3753 -0.0826 -0.4778
 1789SOL     OW17002   0.248   4.557   8.144 -0.0535  1.1685 -0.1787
 1789SOL    HW117003   0.185   4.534   8.075  0.3626 -0.4609 -0.0268
 1789SOL    HW217004   0.195   4.592   8.215  1.4013 -0.7757  1.8634
 1790SOL     OW17005   1.074   4.628   7.338  0.6320 -0.1759  0.3084
 1790SOL    HW117006   0.994   4.669   7.303  0.3601 -0.6070  0.4204
 1790SOL    HW217007   1.046   4.538   7.356  3.5084 -1.2013 -0.4421
 1791SOL     OW17008   1.411   1.776   7.813 -0.4931 -0.8210  0.2219
 1791SOL    HW117009   1.356   1.705   7.846 -0.0076  0.1610  3.1716
 1791SOL    HW217010   1.406   1.756   7.720  1.2734 -1.0646  0.1787
 1792SOL     OW17011   2.149   2.635   9.488 -0.1683  0.2145 -0.6093
 1792SOL    HW117012   2.076   2.639   9.549 -0.5638 -0.3118 -1.0477
 1792SOL    HW217013   2.204   2.700   9.531  1.1449 -0.6357 -0.9916
 1793SOL     OW17014   2.442   3.527   8.077  0.1779 -0.1918 -0.1018
 1793SOL    HW117015   2.477   3.481   8.154 -3.1118 -0.7840  1.0242
 1793SOL    HW217016   2.467   3.619   8.089 -0.1786 -0.2356  1.0130
 1794SOL     OW17017   4.573   4.604   3.471 -0.4059  0.1025  0.3093
 1794SOL    HW117018   4.517   4.543   3.422  1.9041 -2.0726  0.3762
 1794SOL    HW217019   4.523   4.680   3.499 -2.2980 -0.3552 -1.8098
 1795SOL     OW17020   1.895   0.406   3.990 -0.2051  0.1915 -0.0468
 1795SOL    HW117021   1.845   0.487   3.981  0.6216  0.7023 -0.0100
 1795SOL    HW217022   1.838   0.348   3.940  0.4965  0.4462 -1.1318
 1796SOL     OW17023   4.047   2.196   8.030  0.6900  0.1707 -0.7176
 1796SOL    HW117024   4.000   2.114   8.045  0.9695  0.2021  0.3604
 1796SOL    HW217025   3.986   2.256   7.989  1.2286  2.1106  1.3350
 1797SOL     OW17026   0.643   2.370   5.105 -0.4423  0.4068  0.4575
 1797SOL    HW117027   0.603   2.294   5.064  0.9512  0.8636 -1.7231
 1797SOL    HW217028   0.575   2.437   5.111  0.3721  1.1001  2.1070
 1798SOL     OW17029   4.671   0.102  17.735 -0.9393 -0.1399 -0.1987
 1798SOL    HW117030   4.611   0.043   0.036 -0.7482  0.8087  1.2693
 1798SOL    HW217031   4.626   0.186  17.731  0.6574  0.8677  2.9585
 1799SOL     OW17032   4.611   3.646   5.974 -0.2911 -0.2173  0.2204
 1799SOL    HW117033   4.685   3.660   5.916 -1.0042  0.7521 -0.4545
 1799SOL    HW217034   4.541   3.666   5.912 -0.2783  0.1291  0.3155
 1800SOL     OW17035   2.271   1.670  12.970  0.2966  0.3838 -0.3142
 1800SOL    HW117036   2.319   1.599  12.928 -1.6170 -0.2778 -1.3653
 1800SOL    HW217037   2.333   1.687  13.042 -3.2906  1.3664  2.5378
 1801SOL     OW17038   1.620   0.506  14.594  0.2617  0.0979  0.3731
 1801SOL    HW117039   1.566   0.538  14.522 -1.6470  1.1829  2.2734
 1801SOL    HW217040   1.621   0.578  14.657  1.3527 -0.4220  0.9512
 1802SOL     OW17041   1.123   0.385   8.122  0.2590  0.4769 -0.1101
 1802SOL    HW117042   1.069   0.378   8.044 -1.3536 -0.0649  1.0438
 1802SOL    HW217043   1.104   0.307   8.175  2.8358 -0.2222 -0.1947
 1803SOL     OW17044   1.823   0.365  16.441 -0.5911  0.3786 -0.3371
 1803SOL    HW117045   1.811   0.451  16.482 -0.7306  0.8071 -1.2613
 1803SOL    HW217046   1.917   0.360  16.455 -0.9053 -0.6215  1.4216
 1804SOL     OW17047   1.561   1.433   7.398  0.0260 -0.3883 -0.0278
 1804SOL    HW117048   1.594   1.379   7.470  0.7507 -0.9084 -0.7449
 1804SOL    HW217049   1.620   1.508   7.397 -0.3205 -0.1121 -0.0892
 1805SOL     OW17050   3.751   4.024   6.406  0.3177  0.3871 -0.1897
 1805SOL    HW117051   3.824   4.029   6.468  0.9153 -0.2532 -0.8480
 1805SOL    HW217052   3.677   3.980   6.448  1.0155 -0.6384 -0.0544
 1806SOL     OW17053   1.604   1.114   3.496 -0.0541  0.2255 -0.0835
 1806SOL    HW117054   1.613   1.025   3.463  0.4216  0.4133 -0.4625
 1806SOL    HW217055   1.630   1.103   3.588  0.9350  0.9990 -0.2718
 1807SOL     OW17056   1.438   2.379   5.348  0.2855  0.2802 -0.8226
 1807SOL    HW117057   1.346   2.383   5.320  0.3004 -1.1491 -1.0966
 1807SOL    HW217058   1.436   2.308   5.413  0.2426  1.5478  0.5579
 1808SOL     OW17059   3.714   2.719   8.638 -0.2478  0.7978 -0.7163
 1808SOL    HW117060   3.766   2.736   8.559  1.4434  1.5880  0.5906
 1808SOL    HW217061   3.630   2.748   8.603 -0.1578  1.2439 -0.5584
 1809SOL     OW17062   4.570   4.107  10.011  0.3422 -0.0485 -0.5837
 1809SOL    HW117063   4.608   4.194   9.994 -0.4672  0.0954 -1.7135
 1809SOL    HW217064   4.630   4.063   9.950  1.7581  0.5664  0.3504
 1810SOL     OW17065   2.237   4.067  15.477 -0.0345  0.1292 -0.0377
 1810SOL    HW117066   2.187   3.990  15.503 -0.7177  0.3094 -0.8242
 1810SOL    HW217067   2.221   4.054  15.383 -1.4222  1.2479  0.0424
 1811SOL     OW17068   3.319   0.900  11.474  0.1130  0.2030 -0.3656
 1811SOL    HW117069   3.352   0.926  11.388  0.3964 -1.0664 -0.6434
 1811SOL    HW217070   3.250   0.842  11.442  1.1539 -0.4417 -1.4373
 1812SOL     OW17071   1.985   1.254  11.782  0.2569 -0.3071 -0.0321
 1812SOL    HW117072   2.015   1.200  11.709  0.0354 -1.0370  0.4187
 1812SOL    HW217073   2.061   1.261  11.840  0.7743  0.4774 -0.7969
 1813SOL     OW17074   0.830   1.284  14.845 -0.3460 -0.5387  0.3792
 1813SOL    HW117075   0.769   1.352  14.815 -1.1315 -1.6983 -0.6726
 1813SOL    HW217076   0.846   1.238  14.763 -2.1458  0.2997 -0.4378
 1814SOL     OW17077   3.337   1.706   4.711  0.1635  0.2108 -0.1930
 1814SOL    HW117078   3.405   1.714   4.778 -0.1938 -1.0805  0.3304
 1814SOL    HW217079   3.295   1.792   4.721 -0.2804 -0.3155  2.5813
 1815SOL     OW17080   2.465   0.718   4.445 -0.3687  0.9377  0.2330
 1815SOL    HW117081   2.557   0.744   4.440 -0.5043  1.3741  0.0283
 1815SOL    HW217082   2.470   0.637   4.495  1.0251  1.0368  0.2705
 1816SOL     OW17083   0.659   3.693   9.019  0.3425  0.5568 -0.5975
 1816SOL    HW117084   0.720   3.620   9.027 -1.6487 -0.9190  0.9975
 1816SOL    HW217085   0.604   3.669   9.093  0.1345  0.9518 -0.6249
 1817SOL     OW17086   3.460   0.369   7.819  0.3971 -0.7863 -0.4911
 1817SOL    HW117087   3.483   0.284   7.856  1.4387 -0.3017 -0.0282
 1817SOL    HW217088   3.543   0.392   7.779  1.9498 -0.7307  2.7424
 1818SOL     OW17089   4.021   3.622   4.372 -0.4845  0.4606 -0.2183
 1818SOL    HW117090   4.081   3.591   4.304 -1.7421 -2.1013 -0.1828
 1818SOL    HW217091   4.025   3.553   4.439 -0.7966 -0.0314 -0.7029
 1819SOL     OW17092   1.789   2.015   3.972  0.8013  0.6831  0.3047
 1819SOL    HW117093   1.777   2.012   4.067  0.8937 -0.0025  0.2884
 1819SOL    HW217094   1.701   2.045   3.950  0.2340 -0.6282  0.8135
 1820SOL     OW17095   3.083   3.093   6.118  0.0458 -0.0732  0.8020
 1820SOL    HW117096   3.017   3.041   6.164 -0.2431  1.5160  2.1903
 1820SOL    HW217097   3.114   3.029   6.054 -0.3928 -1.8295  2.3777
 1821SOL     OW17098   3.147   2.089  16.532 -0.6120  0.0316  0.0539
 1821SOL    HW117099   3.139   2.184  16.536 -0.7283  0.0812 -1.3284
 1821SOL    HW217100   3.059   2.071  16.564 -0.5217 -1.3527 -0.4958
 1822SOL     OW17101   0.768   0.993  13.312 -0.0184  0.2415  0.0065
 1822SOL    HW117102   0.840   1.027  13.259  1.1717 -2.3289 -0.0202
 1822SOL    HW217103   0.776   0.901  13.287 -2.3603 -0.2010  0.8793
 1823SOL     OW17104   2.128   0.987   7.089  0.6096 -0.1948  0.4795
 1823SOL    HW117105   2.187   1.048   7.133  1.3358  0.1143 -0.9616
 1823SOL    HW217106   2.171   0.976   7.005  1.3829  0.9592  0.7350
 1824SOL     OW17107   1.155   4.565   5.034 -0.2694  0.1949  0.3644
 1824SOL    HW117108   1.162   4.586   4.940 -0.7144 -1.2999  0.0102
 1824SOL    HW217109   1.097   4.490   5.026  0.3565 -0.2926  0.4277
 1825SOL     OW17110   1.475   2.266   9.520  0.1850  0.6136 -0.1983
 1825SOL    HW117111   1.381   2.263   9.537  0.1285 -2.1279 -0.9129
 1825SOL    HW217112   1.486   2.230   9.432 -0.4628 -0.3026  0.0916
 1826SOL     OW17113   0.942   2.597  13.041  0.3943 -0.3290  0.6304
 1826SOL    HW117114   0.957   2.652  13.118  0.3066 -0.1344  0.5087
 1826SOL    HW217115   0.910   2.514  13.077 -2.7802 -0.0851 -1.6459
 1827SOL     OW17116   0.674   1.157  10.567  0.0669 -0.0821 -0.2632
 1827SOL    HW117117   0.738   1.211  10.521 -0.0105  0.0078 -0.2632
 1827SOL    HW217118   0.686   1.193  10.655 -1.0402 -1.5882  0.5130
 1828SOL     OW17119   4.363   3.095  13.277 -0.4317  0.1296  0.2823
 1828SOL    HW117120   4.436   3.152  13.300  0.0731 -0.8843  1.1879
 1828SOL    HW217121   4.417   3.024  13.242 -0.4528 -0.6718  1.8723
 1829SOL     OW17122   3.999   2.321   6.082  0.6364  0.4119  0.4864
 1829SOL    HW117123   3.967   2.272   6.005 -2.9234 -0.0921  2.2774
 1829SOL    HW217124   4.061   2.378   6.036 -0.1868  0.8352 -0.1282
 1830SOL     OW17125   1.504   3.819   2.448 -0.1062  0.1549  0.2157
 1830SOL    HW117126   1.592   3.790   2.422 -0.1444 -0.4417  0.7293
 1830SOL    HW217127   1.511   3.914   2.456  1.4420 -0.0822  1.9926
 1831SOL     OW17128   3.221   4.289   7.383 -0.6252  0.2412  0.4184
 1831SOL    HW117129   3.304   4.328   7.409 -0.7919 -0.2009  1.6297
 1831SOL    HW217130   3.160   4.352   7.422 -1.3554 -0.5730  0.5889
 1832SOL     OW17131   4.285   4.720  14.983 -0.5019  0.0533 -0.1830
 1832SOL    HW117132   4.254   0.009  14.896  1.0009 -1.4156 -1.1595
 1832SOL    HW217133   4.228   0.033  15.041 -0.4347  2.1539 -1.9229
 1833SOL     OW17134   2.175   0.423   0.854 -0.0155 -0.5444 -0.3724
 1833SOL    HW117135   2.146   0.474   0.778  3.2077  3.0383  0.7890
 1833SOL    HW217136   2.116   0.348   0.846  1.0348 -1.6770  2.2738
 1834SOL     OW17137   4.266   1.618   4.275 -0.8360 -0.5128 -0.1299
 1834SOL    HW117138   4.319   1.697   4.267 -2.1088  0.3265 -0.4098
 1834SOL    HW217139   4.269   1.596   4.182  0.1572  0.9293 -0.4448
 1835SOL     OW17140   2.125   0.592  15.950  0.0182  0.1605 -0.4074
 1835SOL    HW117141   2.216   0.586  15.921  0.4066  1.2568  0.5833
 1835SOL    HW217142   2.073   0.605  15.870  0.0024 -3.0087 -0.8915
 1836SOL     OW17143   4.219   2.020   8.621  0.4242 -0.1493 -0.2178
 1836SOL    HW117144   4.267   1.971   8.554  1.5204 -0.2709  0.6519
 1836SOL    HW217145   4.232   1.969   8.701 -2.1398  0.0964  0.3577
 1837SOL     OW17146   3.078   3.874   7.364  0.6663  0.0330 -0.3708
 1837SOL    HW117147   3.089   3.785   7.331 -0.1835 -0.1412 -0.1837
 1837SOL    HW217148   3.135   3.927   7.308 -1.7120  0.4874 -2.3544
 1838SOL     OW17149   2.777   2.379   0.961 -0.3810 -0.1135  0.1434
 1838SOL    HW117150   2.829   2.335   0.894  0.7972 -1.4009  1.8963
 1838SOL    HW217151   2.830   2.459   0.961 -2.2446  1.1097 -2.3725
 1839SOL     OW17152   4.638   4.604   7.184 -0.3457  0.1236 -0.6137
 1839SOL    HW117153   4.554   4.569   7.214  0.0013 -1.0878 -1.0414
 1839SOL    HW217154   4.650   4.543   7.111 -1.9841 -0.8972 -0.0042
 1840SOL     OW17155   0.004   4.435   4.396  0.4781 -0.6451  0.9490
 1840SOL    HW117156   4.675   4.436   4.326  1.2687 -0.5227  0.2081
 1840SOL    HW217157   0.049   4.519   4.383 -0.6685 -0.0666  0.6635
 1841SOL     OW17158   0.388   1.505   3.867  0.1628  0.1496 -0.2196
 1841SOL    HW117159   0.359   1.547   3.786  0.1047  0.9864  0.2294
 1841SOL    HW217160   0.403   1.580   3.924  1.0160 -0.8969  0.9414
 1842SOL     OW17161   1.288   1.993  10.914 -0.1029 -0.3530  0.5875
 1842SOL    HW117162   1.307   1.954  10.829 -0.2999  0.8728 -0.0245
 1842SOL    HW217163   1.371   1.989  10.961  0.8080  1.5959 -0.8712
 1843SOL     OW17164   3.756   0.254  13.249 -0.6570 -0.2636 -0.2862
 1843SOL    HW117165   3.786   0.266  13.159  5.1104 -2.0084  1.4722
 1843SOL    HW217166   3.661   0.257  13.234 -0.7836 -0.2134  0.5394
 1844SOL     OW17167   0.362   0.830   8.041  0.6046  0.0388  0.5269
 1844SOL    HW117168   0.390   0.914   8.077  0.5540 -0.3171  1.3934
 1844SOL    HW217169   0.373   0.764   8.109  0.2229  0.6114  1.1387
 1845SOL     OW17170   1.391   2.019   4.897 -0.2824  0.1307  0.0411
 1845SOL    HW117171   1.433   2.101   4.871 -1.3399  1.5431  2.7056
 1845SOL    HW217172   1.412   2.002   4.989 -0.0417  1.0895  0.1672
 1846SOL     OW17173   0.816   2.468   4.005  0.6803  0.0420  0.0448
 1846SOL    HW117174   0.899   2.419   4.009  0.6731  0.1272  1.3045
 1846SOL    HW217175   0.827   2.527   4.080  0.8092 -1.5812  1.2994
 1847SOL     OW17176   2.289   2.940   3.082  0.3387  0.1907  0.3749
 1847SOL    HW117177   2.381   2.916   3.069  0.2788  0.0690  0.1798
 1847SOL    HW217178   2.288   3.026   3.040  2.5105  0.8618  1.7099
 1848SOL     OW17179   0.882   2.512  15.924 -0.1788 -0.1034 -0.2085
 1848SOL    HW117180   0.896   2.605  15.939  2.2683 -0.4528 -0.3189
 1848SOL    HW217181   0.936   2.465  15.987  1.0348 -0.0479 -1.2046
 1849SOL     OW17182   0.592   0.637  17.677  0.8797  0.7803  0.4528
 1849SOL    HW117183   0.607   0.654   0.026  1.6825 -0.5877  0.5768
 1849SOL    HW217184   0.645   0.563  17.648 -0.6066  0.3000 -1.0588
 1850SOL     OW17185   3.087   2.095   6.489 -0.1578 -0.6610 -0.3445
 1850SOL    HW117186   3.034   2.131   6.417 -0.4167  1.6737  0.9987
 1850SOL    HW217187   3.176   2.104   6.455 -0.3103 -0.0672 -0.6022
 1851SOL     OW17188   1.684   4.465   6.418  0.0318  0.0868  0.0673
 1851SOL    HW117189   1.590   4.456   6.430  0.1173 -0.0874  0.6237
 1851SOL    HW217190   1.714   4.400   6.355  1.0921 -0.1133  0.7605
 1852SOL     OW17191   0.847   2.952   6.594 -0.6385 -0.6973 -0.0726
 1852SOL    HW117192   0.871   3.032   6.640 -1.3308  0.6180 -2.0064
 1852SOL    HW217193   0.858   2.968   6.500  2.7623 -0.2891  0.3784
 1853SOL     OW17194   2.079   2.099  11.679  0.3147 -0.6482  0.4880
 1853SOL    HW117195   2.131   2.115  11.758  0.5812  0.9751 -0.0027
 1853SOL    HW217196   1.994   2.089  11.720  0.0313 -0.4344 -0.0486
 1854SOL     OW17197   0.897   0.520   5.305  0.4040  0.1243  0.2739
 1854SOL    HW117198   0.817   0.500   5.354  0.3215 -1.6019 -0.5692
 1854SOL    HW217199   0.932   0.432   5.320 -0.5156 -0.8954 -3.5834
 1855SOL     OW17200   0.003   4.681   2.283 -0.1317 -0.5112  0.4910
 1855SOL    HW117201   0.049   4.606   2.320 -0.1817 -1.3144 -1.0658
 1855SOL    HW217202   4.700   4.717   2.363 -1.8815  1.5177 -1.2656
 1856SOL     OW17203   3.176   1.196  14.622  0.2332 -0.7659  0.1007
 1856SOL    HW117204   3.227   1.116  14.628  2.3562  0.4171 -2.1902
 1856SOL    HW217205   3.106   1.157  14.570 -0.2609 -2.1713  1.8298
 1857SOL     OW17206   3.917   1.655   4.998  0.3619  0.1165  0.3646
 1857SOL    HW117207   3.926   1.615   4.911 -0.0821  0.8864 -0.0343
 1857SOL    HW217208   4.007   1.686   5.009  0.9357 -1.6690  0.6252
 1858SOL     OW17209   1.274   0.652   3.996  0.3048 -0.2863 -0.0709
 1858SOL    HW117210   1.206   0.709   4.030 -0.2585 -0.8796 -0.2203
 1858SOL    HW217211   1.282   0.594   4.071  0.2504 -2.4650 -1.7262
 1859SOL     OW17212   2.860   3.735  17.322  0.3597  0.5857 -0.0070
 1859SOL    HW117213   2.827   3.819  17.292 -0.1849  1.0222  1.7751
 1859SOL    HW217214   2.811   3.719  17.404  0.2195 -1.9862 -0.5893
 1860SOL     OW17215   3.985   0.776   8.402  0.2891  0.7821  0.4475
 1860SOL    HW117216   3.898   0.796   8.436 -0.7969 -1.6117 -0.9831
 1860SOL    HW217217   3.996   0.834   8.326 -0.9237 -1.1330 -1.1805
 1861SOL     OW17218   2.906   3.325  10.963 -0.1771 -0.0720 -0.2148
 1861SOL    HW117219   2.833   3.349  11.021 -0.0294  1.3561 -0.6089
 1861SOL    HW217220   2.977   3.297  11.020  1.4325  2.3812 -0.9875
 1862SOL     OW17221   4.699   2.614   6.154 -0.4717 -0.0933 -0.4226
 1862SOL    HW117222   0.029   2.613   6.085 -0.2935 -0.1191 -0.2508
 1862SOL    HW217223   4.655   2.694   6.126  0.8037  0.4940 -0.7360
 1863SOL     OW17224   1.253   0.233   2.622  0.3205  0.2667  0.4708
 1863SOL    HW117225   1.194   0.261   2.691  0.0545  1.1636 -0.1240
 1863SOL    HW217226   1.304   0.164   2.665  0.9210  0.1655 -0.4042
 1864SOL     OW17227   4.526   4.285   4.546  0.2175 -0.5759  0.0311
 1864SOL    HW117228   4.495   4.239   4.468  0.1976  3.1987 -2.2112
 1864SOL    HW217229   4.517   4.380   4.531 -0.9701 -0.3846  1.9948
 1865SOL     OW17230   3.987   0.664   2.765  0.2849 -0.0965 -0.4448
 1865SOL    HW117231   4.040   0.630   2.692 -0.0694 -0.3639 -0.5720
 1865SOL    HW217232   4.045   0.733   2.799  1.1730 -1.0905  0.0387
 1866SOL     OW17233   1.564   0.875  12.630 -0.0994 -0.0479  0.2176
 1866SOL    HW117234   1.576   0.910  12.541  0.8401 -2.8672 -0.7647
 1866SOL    HW217235   1.513   0.948  12.664 -1.4905 -0.6013 -0.7119
 1867SOL     OW17236   0.668   1.474  14.695 -0.1892 -0.1434  0.4536
 1867SOL    HW117237   0.667   1.519  14.611  1.4509 -0.9865 -0.0235
 1867SOL    HW217238   0.587   1.423  14.699 -0.8453  1.0413  2.3707
 1868SOL     OW17239   1.373   3.065  16.269 -0.3473  0.1948  1.1553
 1868SOL    HW117240   1.327   3.112  16.339  0.2780  2.5266 -0.0338
 1868SOL    HW217241   1.354   3.117  16.192 -0.6126  0.8185  1.6422
 1869SOL     OW17242   3.440   0.008   9.542  0.4008 -0.6573 -0.3284
 1869SOL    HW117243   3.473   0.091   9.509 -1.5859 -0.3183 -1.4573
 1869SOL    HW217244   3.446   0.026   9.636  1.3454  0.3201 -0.5801
 1870SOL     OW17245   0.636   0.115   1.731  0.0318 -0.4179 -0.3765
 1870SOL    HW117246   0.660   0.109   1.639  0.0154  0.5195 -0.4328
 1870SOL    HW217247   0.560   0.173   1.729 -1.7205 -2.6321  0.6331
 1871SOL     OW17248   1.018   3.295  10.432  0.3836  0.7236  0.4875
 1871SOL    HW117249   1.056   3.217  10.472 -1.5883  0.4388  1.8678
 1871SOL    HW217250   0.950   3.249  10.382 -0.2188  0.5519  1.4534
 1872SOL     OW17251   3.355   2.666   6.042  0.3625  0.1860 -0.5393
 1872SOL    HW117252   3.285   2.619   5.997  0.6640 -0.3524 -0.4449
 1872SOL    HW217253   3.416   2.592   6.046  1.7892  1.5517  3.3794
 1873SOL     OW17254   0.863   1.957  15.276  0.2003  0.1371 -0.8112
 1873SOL    HW117255   0.824   2.040  15.301  0.4926  0.4879 -1.5075
 1873SOL    HW217256   0.866   1.973  15.182  0.4865 -2.6433 -1.2830
 1874SOL     OW17257   4.418   2.303   8.323 -0.3188  0.6268  0.3048
 1874SOL    HW117258   4.387   2.387   8.291  0.6016 -0.2279 -2.7847
 1874SOL    HW217259   4.333   2.262   8.340  0.8560 -1.2003  1.8144
 1875SOL     OW17260   2.178   4.660   9.899  0.2215 -0.2465  0.1109
 1875SOL    HW117261   2.201   4.567   9.908 -0.9555 -0.6140 -0.6596
 1875SOL    HW217262   2.242   4.697   9.959 -1.4795  0.3743  1.5721
 1876SOL     OW17263   2.432   2.443   2.688 -0.5561  0.0848 -0.1847
 1876SOL    HW117264   2.510   2.498   2.689  0.0200 -0.7637  1.1194
 1876SOL    HW217265   2.383   2.466   2.609 -1.2535  2.8142  1.0555
 1877SOL     OW17266   3.017   1.576   7.675 -0.0731  0.1531  0.0658
 1877SOL    HW117267   3.095   1.563   7.622  0.7435  1.7603  0.8779
 1877SOL    HW217268   2.967   1.496   7.657  0.7600 -0.7929  1.8999
 1878SOL     OW17269   1.043   0.256   6.761 -0.0436 -0.3177 -0.1527
 1878SOL    HW117270   1.074   0.344   6.781  1.5608 -1.1509  1.0386
 1878SOL    HW217271   1.016   0.265   6.669 -1.6001  0.7011  0.4219
 1879SOL     OW17272   2.409   0.372   8.379 -0.0504  0.0226 -0.4564
 1879SOL    HW117273   2.412   0.467   8.393 -0.4704  0.1262 -1.0609
 1879SOL    HW217274   2.501   0.345   8.368  0.2698  1.4630 -1.2910
 1880SOL     OW17275   0.651   3.362   6.229 -0.8034  0.2473  0.4704
 1880SOL    HW117276   0.732   3.360   6.177 -0.5279 -2.8930  1.0622
 1880SOL    HW217277   0.679   3.352   6.320  1.7643 -2.6655 -0.6509
 1881SOL     OW17278   4.354   2.369   2.184  0.3301 -0.1739  0.3264
 1881SOL    HW117279   4.430   2.424   2.169 -0.7756  0.3392 -3.2804
 1881SOL    HW217280   4.396   2.287   2.156  0.0189  0.8562 -3.1158
 1882SOL     OW17281   4.708   3.520   2.548  0.3226  0.6573  0.3629
 1882SOL    HW117282   4.692   3.538   2.455 -0.0794  0.2873  0.3626
 1882SOL    HW217283   4.646   3.575   2.595 -0.7454  2.2117 -2.8538
 1883SOL     OW17284   1.904   0.807   5.919  0.1221 -0.0718 -0.4942
 1883SOL    HW117285   1.962   0.749   5.869 -0.4330 -0.3696 -0.7983
 1883SOL    HW217286   1.837   0.747   5.951  2.0548 -2.5527 -1.0520
 1884SOL     OW17287   0.465   3.672  12.435  0.1436 -0.0604 -0.3986
 1884SOL    HW117288   0.482   3.582  12.405  1.7022 -0.2516  0.9974
 1884SOL    HW217289   0.479   3.664  12.530 -1.0856 -1.4826 -0.3377
 1885SOL     OW17290   1.426   4.307   1.148  0.6714 -0.1624 -0.0678
 1885SOL    HW117291   1.386   4.360   1.218  0.0345  0.2313 -0.7320
 1885SOL    HW217292   1.349   4.270   1.105  0.6017 -0.0551 -0.0370
 1886SOL     OW17293   3.681   3.817   8.167 -0.1210  0.0203  0.1303
 1886SOL    HW117294   3.763   3.866   8.168 -0.4843  0.6394 -0.2891
 1886SOL    HW217295   3.609   3.872   8.199 -0.8677 -0.3956 -0.8550
 1887SOL     OW17296   0.782   3.544   8.449  0.5144  0.0378 -0.1095
 1887SOL    HW117297   0.775   3.636   8.473 -0.2518 -0.5846  2.1257
 1887SOL    HW217298   0.703   3.512   8.492  2.1759 -0.3300  2.6817
 1888SOL     OW17299   1.424   2.504   5.715  0.2136 -0.4409  0.4137
 1888SOL    HW117300   1.420   2.555   5.634 -1.5206 -0.2643  0.6127
 1888SOL    HW217301   1.518   2.489   5.725  0.4869  1.3281  0.5270
 1889SOL     OW17302   0.516   1.188   2.945 -0.9828  0.2968 -0.1830
 1889SOL    HW117303   0.543   1.124   2.878  0.9933 -2.2023  2.9606
 1889SOL    HW217304   0.545   1.269   2.903  1.4205 -0.9023 -0.9004
 1890SOL     OW17305   4.292   2.076   4.381 -0.2224 -0.1140 -0.0650
 1890SOL    HW117306   4.218   2.024   4.411 -0.9619 -0.0535 -1.7982
 1890SOL    HW217307   4.257   2.128   4.309 -0.5196  1.9474  1.5637
 1891SOL     OW17308   3.383   3.289  16.933 -0.6954  0.3777  0.3872
 1891SOL    HW117309   3.319   3.359  16.923  1.3715  2.3370  1.1384
 1891SOL    HW217310   3.370   3.265  16.841  2.0662  2.0567 -0.4350
 1892SOL     OW17311   0.877   4.033  17.474  0.1195  0.1745 -0.3840
 1892SOL    HW117312   0.828   4.030  17.556  0.0722 -0.3460 -0.4318
 1892SOL    HW217313   0.834   3.966  17.421  2.9208 -2.0294  0.1307
 1893SOL     OW17314   1.805   3.959   9.298 -0.1688  0.0295  0.4596
 1893SOL    HW117315   1.724   4.001   9.270 -1.1638 -1.4848  1.0607
 1893SOL    HW217316   1.798   3.877   9.248  1.6460  0.4770 -0.5082
 1894SOL     OW17317   3.327   0.934   0.137  0.3784  0.0497  0.4875
 1894SOL    HW117318   3.287   1.010   0.094 -0.9062 -0.5479  0.6093
 1894SOL    HW217319   3.299   0.950   0.227 -0.6935 -0.9298  0.3369
 1895SOL     OW17320   0.828   4.618   4.108  0.0450  0.0928  0.0393
 1895SOL    HW117321   0.897   4.674   4.072 -0.9277  1.6153  0.5749
 1895SOL    HW217322   0.828   4.636   4.202 -1.2360  2.1185 -0.3540
 1896SOL     OW17323   1.289   2.013   1.687  0.3220 -0.4960 -0.2383
 1896SOL    HW117324   1.356   1.975   1.744 -0.0316 -0.7188  0.0298
 1896SOL    HW217325   1.249   2.079   1.743  1.7304 -0.8025  1.1051
 1897SOL     OW17326   1.530   0.243   5.924 -0.1971 -0.3012 -0.2930
 1897SOL    HW117327   1.519   0.165   5.869 -1.0560  0.1514 -0.7628
 1897SOL    HW217328   1.621   0.219   5.942 -0.2703 -0.7314 -0.5028
 1898SOL     OW17329   3.709   2.025   6.506 -0.2759  0.0314  0.2660
 1898SOL    HW117330   3.792   2.066   6.481 -1.9688  3.2161 -0.1696
 1898SOL    HW217331   3.741   1.936   6.491 -0.0618  0.1307  0.1279
 1899SOL     OW17332   2.986   3.817   6.166 -0.6528 -0.2397  0.3826
 1899SOL    HW117333   3.025   3.899   6.135 -1.3152 -0.2155 -0.3780
 1899SOL    HW217334   2.905   3.810   6.115  0.4939  0.3310 -1.5228
 1900SOL     OW17335   1.225   2.122   2.957  0.3313 -0.4356 -0.0907
 1900SOL    HW117336   1.300   2.147   2.903 -0.4010 -1.8644 -1.8014
 1900SOL    HW217337   1.173   2.077   2.890 -1.2179  0.6699  0.3797
 1901SOL     OW17338   0.125   1.101   4.649 -0.0894  0.0213 -0.4346
 1901SOL    HW117339   0.179   1.179   4.664 -1.2933  0.6669  0.5535
 1901SOL    HW217340   0.160   1.042   4.715 -0.2191 -1.4445 -1.6855
 1902SOL     OW17341   0.920   4.681   2.522  0.0773 -0.9886 -0.1133
 1902SOL    HW117342   0.918   4.587   2.503 -1.0996 -0.9914  0.0190
 1902SOL    HW217343   1.007   4.699   2.557  0.6632 -3.7560 -0.0920
 1903SOL     OW17344   4.200   0.457  13.072  0.3600  0.2588 -0.2917
 1903SOL    HW117345   4.209   0.512  13.149 -0.1052  1.4584 -1.0864
 1903SOL    HW217346   4.120   0.414  13.102  0.6275 -0.1006 -0.0859
 1904SOL     OW17347   2.528   1.432   9.469 -0.2344 -0.0776  0.5138
 1904SOL    HW117348   2.509   1.467   9.556 -1.0849 -0.1174  0.3456
 1904SOL    HW217349   2.514   1.503   9.406  0.1957  0.7880  1.3846
 1905SOL     OW17350   4.125   1.167   5.446  0.1581  0.1828  0.2820
 1905SOL    HW117351   4.111   1.081   5.404  2.4465 -1.1235  2.2002
 1905SOL    HW217352   4.054   1.219   5.409 -2.2999 -3.3787 -0.0356
 1906SOL     OW17353   4.039   3.712   1.891 -0.4083  0.1435  0.4679
 1906SOL    HW117354   4.090   3.784   1.927  2.1542 -1.3213 -0.2646
 1906SOL    HW217355   3.953   3.726   1.931 -0.3855  2.4233 -0.3046
 1907SOL     OW17356   4.459   3.367   8.398  0.4376 -0.5113 -0.1592
 1907SOL    HW117357   4.419   3.329   8.319 -1.6764  0.9991  0.2125
 1907SOL    HW217358   4.461   3.286   8.449  2.2190 -0.3624  0.0213
 1908SOL     OW17359   3.825   1.830   7.539  0.5023  0.9934  0.2919
 1908SOL    HW117360   3.795   1.826   7.448 -1.1897  0.7633  0.8597
 1908SOL    HW217361   3.791   1.747   7.571  0.8610  1.2977  1.4622
 1909SOL     OW17362   1.851   3.176   6.977  0.6744 -0.0028  0.8076
 1909SOL    HW117363   1.862   3.081   6.965 -3.1670 -0.3855  0.2939
 1909SOL    HW217364   1.778   3.177   7.038 -0.5571 -1.5853 -0.6484
 1910SOL     OW17365   4.235   1.733   6.007 -0.0283 -0.2339  0.2718
 1910SOL    HW117366   4.200   1.705   5.923 -0.2121  0.1838  0.2068
 1910SOL    HW217367   4.296   1.801   5.980 -0.6652  0.2542  0.0443
 1911SOL     OW17368   2.618   2.943   3.790  0.5283  0.3746 -0.4667
 1911SOL    HW117369   2.590   2.866   3.740  2.5307  0.2998 -1.4650
 1911SOL    HW217370   2.710   2.956   3.769  0.9562 -1.9357 -0.0082
 1912SOL     OW17371   4.375   3.128   0.217  0.5753  0.1928 -0.6501
 1912SOL    HW117372   4.301   3.077   0.181  0.2136  1.4610 -1.7165
 1912SOL    HW217373   4.430   3.137   0.139  0.3160  0.6821 -0.7746
 1913SOL     OW17374   4.627   2.698   7.796  0.5006 -0.3713  0.7427
 1913SOL    HW117375   4.558   2.755   7.830 -0.0386 -0.3606 -0.3644
 1913SOL    HW217376   4.699   2.725   7.854  0.7690 -1.3649  0.8690
 1914SOL     OW17377   3.278   2.810   0.468 -0.0015  0.2976 -0.3010
 1914SOL    HW117378   3.281   2.839   0.376  2.1562  1.1506  0.0306
 1914SOL    HW217379   3.216   2.877   0.498 -0.9265  0.3267 -2.2814
 1915SOL     OW17380   2.793   3.260   5.039  0.3394  0.5962 -0.2251
 1915SOL    HW117381   2.867   3.262   5.099  0.0077 -1.4146  0.2538
 1915SOL    HW217382   2.731   3.207   5.089  0.2172 -0.1477 -1.1609
 1916SOL     OW17383   2.302   2.903   7.634 -0.6041 -0.2019  0.4000
 1916SOL    HW117384   2.275   2.902   7.726  1.2322  0.2965  0.9366
 1916SOL    HW217385   2.232   2.960   7.602 -0.4367 -1.0439 -1.4338
 1917SOL     OW17386   3.747   3.712   9.168  0.3419  0.1493  0.4267
 1917SOL    HW117387   3.783   3.634   9.125 -0.4125 -0.7832  1.5138
 1917SOL    HW217388   3.678   3.731   9.104  2.3770 -0.9516 -2.1135
 1918SOL     OW17389   1.283   2.296   5.796 -0.2821  0.2512 -0.0939
 1918SOL    HW117390   1.320   2.377   5.761  0.8600 -1.0208 -1.7831
 1918SOL    HW217391   1.229   2.338   5.863 -0.6943  3.7267 -2.5780
 1919SOL     OW17392   1.651   0.743   7.112 -0.4831  0.0598  0.3041
 1919SOL    HW117393   1.593   0.794   7.056  1.1880  2.1313  0.4641
 1919SOL    HW217394   1.718   0.797   7.156  0.4947  0.3970 -1.6207
 1920SOL     OW17395   3.184   0.087   2.305 -0.8942  0.2628  0.3463
 1920SOL    HW117396   3.221   0.175   2.300  1.8843 -0.8653  1.3689
 1920SOL    HW217397   3.139   0.087   2.220 -0.5772  1.8557  0.1635
 1921SOL     OW17398   3.549   1.288   8.980  0.3496  0.4790 -0.2375
 1921SOL    HW117399   3.455   1.294   8.996  0.6848  1.2707  1.4364
 1921SOL    HW217400   3.558   1.195   8.998 -0.6290  0.2322 -1.0259
 1922SOL     OW17401   4.618   4.520   6.633  0.2445  0.0224  0.0245
 1922SOL    HW117402   4.563   4.532   6.556  0.1448  2.3358  0.4482
 1922SOL    HW217403   4.567   4.463   6.691  1.0323 -1.8573 -1.1126
 1923SOL     OW17404   0.796   3.767   6.711  0.4198 -0.1409 -0.0593
 1923SOL    HW117405   0.794   3.806   6.624  1.6015 -1.5586 -0.7103
 1923SOL    HW217406   0.705   3.744   6.732  0.4731 -1.6258 -1.4672
 1924SOL     OW17407   0.888   1.525  11.854 -0.3573 -0.1661 -0.2980
 1924SOL    HW117408   0.796   1.526  11.830 -0.0728  0.0853 -1.4157
 1924SOL    HW217409   0.934   1.502  11.772 -0.2227  2.1302 -0.8635
 1925SOL     OW17410   0.401   3.298   7.553 -0.1078  0.0653 -0.5742
 1925SOL    HW117411   0.421   3.390   7.535  2.9950 -0.0171  2.4847
 1925SOL    HW217412   0.310   3.310   7.577 -0.0775  0.9439 -0.8868
 1926SOL     OW17413   0.680   3.419   1.891  0.4976 -0.5224  0.1534
 1926SOL    HW117414   0.657   3.486   1.956 -1.5292 -1.3779  0.3261
 1926SOL    HW217415   0.633   3.340   1.919  0.4532  0.0655  1.7429
 1927SOL     OW17416   3.803   1.201  12.356 -0.0845  0.0139  0.1147
 1927SOL    HW117417   3.731   1.223  12.414  0.6856  0.6687  0.8222
 1927SOL    HW217418   3.815   1.107  12.369 -1.5413  0.1913  2.5665
 1928SOL     OW17419   0.685   0.600  15.975 -0.3628 -0.0369  0.9321
 1928SOL    HW117420   0.726   0.559  16.051  0.1033 -0.8096  0.2673
 1928SOL    HW217421   0.635   0.664  16.025 -0.8096  0.4639 -0.1582
 1929SOL     OW17422   3.450   0.836   3.328 -0.1513 -0.2202  0.2048
 1929SOL    HW117423   3.422   0.744   3.321 -1.9341  0.1014  3.2039
 1929SOL    HW217424   3.457   0.850   3.422 -0.7538  0.2310  0.1825
 1930SOL     OW17425   0.694   0.615   8.706  0.1046 -0.6216  0.0466
 1930SOL    HW117426   0.722   0.703   8.733 -3.1392  0.0591  1.2191
 1930SOL    HW217427   0.716   0.560   8.781 -2.0416 -0.5387  0.7303
 1931SOL     OW17428   1.116   0.325   2.832  0.3140  0.3993 -0.2879
 1931SOL    HW117429   1.055   0.286   2.895  0.1261 -0.2506 -0.8734
 1931SOL    HW217430   1.149   0.399   2.883  0.0216  1.2158 -1.2876
 1932SOL     OW17431   1.171   3.333   7.969  0.0088  0.5603 -0.2720
 1932SOL    HW117432   1.210   3.250   7.942 -1.8149  0.2442 -1.9085
 1932SOL    HW217433   1.155   3.370   7.881  0.4335  2.8916  0.6208
 1933SOL     OW17434   3.610   0.879  16.759  0.2091  0.0565 -0.6921
 1933SOL    HW117435   3.526   0.888  16.804  0.0165  0.7075 -1.1870
 1933SOL    HW217436   3.621   0.787  16.783  0.6511  0.8116  2.0466
 1934SOL     OW17437   4.032   3.631   6.218 -0.4123 -0.1928  0.3366
 1934SOL    HW117438   4.091   3.585   6.159 -1.3859 -1.1631  0.1199
 1934SOL    HW217439   4.091   3.644   6.292 -1.3611 -0.4265  1.1374
 1935SOL     OW17440   3.986   1.020   3.726 -0.8448 -0.1872 -0.0787
 1935SOL    HW117441   4.027   1.081   3.665  0.0958 -0.4744  0.2765
 1935SOL    HW217442   3.955   0.943   3.677  0.5153 -0.3626 -0.6710
 1936SOL     OW17443   3.475   0.400   8.992  0.4074  0.3887  0.2800
 1936SOL    HW117444   3.479   0.374   8.901 -0.1523  0.1753  0.3206
 1936SOL    HW217445   3.382   0.420   9.001  0.0274 -0.4347 -2.0160
 1937SOL     OW17446   2.376   4.352   5.093 -0.1930  0.0315  0.0808
 1937SOL    HW117447   2.361   4.380   5.183  0.2470  0.5036  0.0030
 1937SOL    HW217448   2.402   4.435   5.054 -0.2322  0.2187  0.4604
 1938SOL     OW17449   1.658   1.070   8.077  0.0498  0.4249 -0.3467
 1938SOL    HW117450   1.629   1.154   8.112 -2.8868 -0.6649 -0.1825
 1938SOL    HW217451   1.572   1.031   8.058 -0.6261  1.1014  1.3634
 1939SOL     OW17452   0.297   3.309  12.665 -0.1463  0.2333  0.0406
 1939SOL    HW117453   0.272   3.393  12.702 -0.3461  0.2553 -0.1463
 1939SOL    HW217454   0.294   3.335  12.573  1.7634 -1.9398 -0.6410
 1940SOL     OW17455   3.759   4.279   6.333 -0.1518 -0.0462 -0.0522
 1940SOL    HW117456   3.683   4.337   6.339  1.2128  1.6616  0.6186
 1940SOL    HW217457   3.718   4.202   6.373  1.9313 -1.8071 -1.2915
 1941SOL     OW17458   3.115   3.205   4.946  0.0695 -0.0495  0.2257
 1941SOL    HW117459   3.115   3.109   4.938  0.6479  0.1375 -2.1703
 1941SOL    HW217460   3.205   3.232   4.928  0.5939 -0.7783  1.8086
 1942SOL     OW17461   1.015   4.635   5.500 -0.3137  0.5690 -0.1603
 1942SOL    HW117462   0.933   4.586   5.498 -0.2246  0.4389 -0.8873
 1942SOL    HW217463   1.033   4.613   5.591 -1.3872 -2.1483 -0.5813
 1943SOL     OW17464   1.398   0.547   2.911  0.2218 -0.1436 -0.0041
 1943SOL    HW117465   1.492   0.552   2.929  0.3028 -0.7764 -0.2578
 1943SOL    HW217466   1.402   0.503   2.826 -3.3721 -1.1686  0.3431
 1944SOL     OW17467   1.159   3.745   2.816 -0.0003  0.0825  0.5812
 1944SOL    HW117468   1.104   3.821   2.800 -0.6425 -0.7060 -0.9822
 1944SOL    HW217469   1.199   3.730   2.730 -1.8583  1.2575 -0.4672
 1945SOL     OW17470   0.527   1.990   5.246 -0.1086 -0.5548 -0.3278
 1945SOL    HW117471   0.549   1.998   5.339  0.0511  0.2156 -0.4310
 1945SOL    HW217472   0.601   1.935   5.221 -0.4147 -2.0712  2.1298
 1946SOL     OW17473   2.633   0.976   9.382 -0.2557  0.6482 -0.5365
 1946SOL    HW117474   2.633   1.048   9.319  0.1328  2.3263  1.3719
 1946SOL    HW217475   2.564   0.924   9.340 -1.3329  2.4892 -1.0524
 1947SOL     OW17476   3.026   3.864   9.240  0.4811 -0.0113  0.6149
 1947SOL    HW117477   3.017   3.933   9.305  1.2072  1.2342 -0.6039
 1947SOL    HW217478   3.013   3.789   9.297 -0.1478 -0.2314  0.1921
 1948SOL     OW17479   2.212   1.261   9.258  0.6896  0.5424 -0.2446
 1948SOL    HW117480   2.240   1.188   9.312  0.5602  0.1937 -0.6435
 1948SOL    HW217481   2.175   1.321   9.323  0.3375  0.5348 -0.4378
 1949SOL     OW17482   4.566   3.512   3.259  0.2124  0.3400 -0.2008
 1949SOL    HW117483   4.640   3.471   3.214  1.3177  0.2024  1.7514
 1949SOL    HW217484   4.584   3.606   3.258 -1.4999  0.6685 -0.6169
 1950SOL     OW17485   3.241   1.813   4.304  0.3873 -0.1182 -0.2624
 1950SOL    HW117486   3.170   1.876   4.306 -0.0391 -0.6142  0.0773
 1950SOL    HW217487   3.196   1.751   4.246 -2.4524  0.2811  1.5248
 1951SOL     OW17488   2.687   4.600   4.065 -0.1265  0.0333 -0.0589
 1951SOL    HW117489   2.752   4.604   4.135 -0.6092  0.8297  0.3419
 1951SOL    HW217490   2.735   4.539   4.009  0.1229  0.4439 -0.2934
 1952SOL     OW17491   0.992   0.319   4.594  0.2432 -0.4257 -0.6988
 1952SOL    HW117492   1.059   0.387   4.604 -1.3572  0.9333  0.7193
 1952SOL    HW217493   0.942   0.352   4.520 -0.1721  0.1324 -0.1756
 1953SOL     OW17494   3.103   2.217   9.779  0.1843  0.4538 -0.3998
 1953SOL    HW117495   3.057   2.291   9.819 -0.5463 -0.1870 -0.0401
 1953SOL    HW217496   3.028   2.170   9.742  1.4140 -2.1729  0.4663
 1954SOL     OW17497   2.165   1.750   3.850  0.5641  0.3513 -0.7170
 1954SOL    HW117498   2.139   1.663   3.882  0.8328  1.5052  2.5800
 1954SOL    HW217499   2.244   1.722   3.803 -0.0494 -0.5000 -1.2437
 1955SOL     OW17500   3.675   4.457  10.386  0.5902  0.1119  0.3958
 1955SOL    HW117501   3.612   4.467  10.315 -0.3957  1.9108  1.5204
 1955SOL    HW217502   3.620   4.405  10.444 -1.0722  2.1865  0.6640
 1956SOL     OW17503   3.670   3.912   3.874  0.2750  0.6704 -0.0570
 1956SOL    HW117504   3.759   3.879   3.884 -0.4355 -0.8809  1.2971
 1956SOL    HW217505   3.630   3.841   3.823 -1.8298  1.4525  0.4826
 1957SOL     OW17506   1.097   0.256   9.861  0.4154 -0.1393 -0.1038
 1957SOL    HW117507   1.077   0.301   9.943  0.8060 -0.9430  0.4346
 1957SOL    HW217508   1.189   0.277   9.848 -0.5379  2.5811 -2.3935
 1958SOL     OW17509   3.925   4.346   0.038 -0.5216 -0.1635  0.4875
 1958SOL    HW117510   3.902   4.276   0.100 -2.4966  1.2914  1.3959
 1958SOL    HW217511   3.840   4.351  17.739 -0.6411  0.1749  0.7565
 1959SOL     OW17512   1.921   2.764   4.751 -0.2213 -0.0651  0.3442
 1959SOL    HW117513   1.881   2.677   4.745 -1.0856  0.3432  0.1024
 1959SOL    HW217514   1.857   2.815   4.701  0.3639  0.4671  0.1430
 1960SOL     OW17515   3.431   2.454   5.231 -0.2768 -0.3857 -0.5820
 1960SOL    HW117516   3.497   2.418   5.171  0.9529  0.6793  0.1353
 1960SOL    HW217517   3.420   2.379   5.291 -0.3584  1.5277  1.7924
 1961SOL     OW17518   3.857   0.528   4.140  0.1540  0.3357  0.0718
 1961SOL    HW117519   3.895   0.597   4.085  2.1532 -2.0926 -1.6059
 1961SOL    HW217520   3.901   0.529   4.225  0.5704  1.1357 -0.1565
 1962SOL     OW17521   1.252   2.601  14.800 -0.6551 -0.0628 -0.0919
 1962SOL    HW117522   1.158   2.610  14.817 -0.4682  0.1516  0.7916
 1962SOL    HW217523   1.288   2.633  14.882  1.1288 -4.0027  0.6482
 1963SOL     OW17524   3.522   3.631   1.788  0.5910  0.1151 -0.1505
 1963SOL    HW117525   3.595   3.688   1.762  0.4410  0.0940 -0.6172
 1963SOL    HW217526   3.494   3.577   1.715  2.1355  2.0884 -2.2011
 1964SOL     OW17527   4.510   0.169   2.846 -0.4608  0.5108 -0.1535
 1964SOL    HW117528   4.554   0.112   2.783  2.2386  1.4562  0.8886
 1964SOL    HW217529   4.578   0.231   2.873  0.2471  0.5736 -2.1204
 1965SOL     OW17530   3.109   2.248   8.963  0.1022 -0.6578 -0.2321
 1965SOL    HW117531   3.052   2.307   8.914 -1.4346 -2.7547 -0.9521
 1965SOL    HW217532   3.077   2.158   8.958  1.4162 -1.2383  1.7474
 1966SOL     OW17533   4.179   1.456   3.636  0.0361 -0.2593  0.2777
 1966SOL    HW117534   4.256   1.407   3.607  0.4848 -1.2278  3.1789
 1966SOL    HW217535   4.186   1.532   3.577  0.3100 -1.0262 -0.6743
 1967SOL     OW17536   3.319   4.667   4.397 -0.3984  0.0692 -0.1231
 1967SOL    HW117537   3.315   4.682   4.303 -1.6243  1.3776  0.1378
 1967SOL    HW217538   3.256   4.730   4.431 -1.0267 -2.1062  2.8232
 1968SOL     OW17539   0.511   1.665   0.489  0.1884  0.6518  0.5662
 1968SOL    HW117540   0.554   1.669   0.404  0.3738 -1.5591  0.5610
 1968SOL    HW217541   0.496   1.759   0.500  1.5768  0.6256  2.6863
 1969SOL     OW17542   2.306   0.860  16.277 -0.8215  0.3260 -0.8084
 1969SOL    HW117543   2.252   0.913  16.336  0.0509 -2.4802  2.4857
 1969SOL    HW217544   2.264   0.774  16.287 -2.0931  0.7952 -2.1285
 1970SOL     OW17545   3.279   3.033  17.597 -0.0871 -0.0921  0.1527
 1970SOL    HW117546   3.274   2.981  17.517  2.3359 -1.1569  0.6916
 1970SOL    HW217547   3.349   2.982  17.639 -0.2828  1.6935  2.6209
 1971SOL     OW17548   3.925   2.036  14.455 -0.1760  0.3907 -0.0801
 1971SOL    HW117549   3.946   2.099  14.386  1.2737  0.7065  0.6468
 1971SOL    HW217550   3.889   1.959  14.410 -0.4923  0.3675  0.2142
 1972SOL     OW17551   3.216   3.271   9.452  0.2613  0.0805 -0.1486
 1972SOL    HW117552   3.226   3.179   9.478 -0.2189 -0.5020 -2.0746
 1972SOL    HW217553   3.132   3.292   9.493  1.5413  1.8154  1.6557
 1973SOL     OW17554   3.296   3.856   4.315 -0.1621  0.0157  0.3802
 1973SOL    HW117555   3.261   3.908   4.387 -1.7711  0.2957 -0.6113
 1973SOL    HW217556   3.327   3.933   4.267  1.0592  1.0361  2.8290
 1974SOL     OW17557   1.114   2.864   3.558 -0.1821 -0.5594 -0.2602
 1974SOL    HW117558   1.198   2.843   3.599 -1.4475  0.4655  2.8775
 1974SOL    HW217559   1.048   2.864   3.627  1.1694  2.1061  1.0355
 1975SOL     OW17560   2.636   3.254   1.510  0.0976  0.2588  0.0899
 1975SOL    HW117561   2.708   3.258   1.447  0.2497 -1.0714  0.1765
 1975SOL    HW217562   2.681   3.196   1.571 -0.5742 -3.5591 -2.9802
 1976SOL     OW17563   3.302   4.671  12.594  0.2779  0.2164 -0.3456
 1976SOL    HW117564   3.253   4.616  12.532 -1.1998  1.2770 -0.1158
 1976SOL    HW217565   3.242   4.674  12.668 -0.6494 -2.1363 -1.0022
 1977SOL     OW17566   0.754   0.347   1.242  0.7925 -0.0976 -0.4198
 1977SOL    HW117567   0.782   0.285   1.175 -1.8938 -2.5206  0.6942
 1977SOL    HW217568   0.837   0.348   1.291  1.6782  1.9729 -1.9782
 1978SOL     OW17569   3.576   1.872   6.054 -0.5885  0.4606  0.0473
 1978SOL    HW117570   3.585   1.900   5.963  0.7830  0.6975  0.2583
 1978SOL    HW217571   3.491   1.829   6.047 -1.2430  1.7429  0.1121
 1979SOL     OW17572   1.617   0.304  13.998 -0.3514  0.0690  0.2003
 1979SOL    HW117573   1.571   0.233  14.041  0.5821 -0.4930  0.2788
 1979SOL    HW217574   1.566   0.308  13.917  2.9902 -3.1159 -2.0683
 1980SOL     OW17575   1.394   2.210   1.476  0.0438 -0.1218  0.5528
 1980SOL    HW117576   1.318   2.268   1.485 -0.9584 -0.7985 -3.4545
 1980SOL    HW217577   1.455   2.253   1.537 -0.0093  0.1311  0.4267
 1981SOL     OW17578   2.977   0.617  16.211 -0.1139 -0.0354 -0.1229
 1981SOL    HW117579   2.927   0.659  16.141  1.1210 -0.9804 -1.5783
 1981SOL    HW217580   3.040   0.556  16.173 -0.2059 -0.7652  0.8940
 1982SOL     OW17581   3.029   2.204   1.281 -0.0506 -0.0868 -0.1377
 1982SOL    HW117582   3.081   2.232   1.206 -2.4672 -1.5990 -2.3619
 1982SOL    HW217583   3.101   2.184   1.341  1.0292 -0.1518 -1.4520
 1983SOL     OW17584   1.392   1.359  14.212 -0.4486  0.1918 -0.1693
 1983SOL    HW117585   1.450   1.315  14.274  0.2246  2.9506  1.1687
 1983SOL    HW217586   1.453   1.413  14.162  0.5294 -2.2964 -1.6263
 1984SOL     OW17587   0.992   4.543   8.455  0.9449 -0.1672  0.1001
 1984SOL    HW117588   1.039   4.470   8.496 -0.9578 -0.3431  2.0038
 1984SOL    HW217589   0.907   4.532   8.500  1.5016 -0.3380  1.1147
 1985SOL     OW17590   4.510   0.518   2.625  0.1395 -0.0492 -0.4765
 1985SOL    HW117591   4.522   0.460   2.549 -1.8320 -1.2137  0.1086
 1985SOL    HW217592   4.572   0.590   2.610  1.3819 -0.9780  0.1268
 1986SOL     OW17593   2.337   1.901   5.941 -0.1665 -0.4177  0.2398
 1986SOL    HW117594   2.355   1.981   5.893 -0.3034 -1.2811 -1.2569
 1986SOL    HW217595   2.409   1.850   5.902 -0.3740 -0.9770  0.5902
 1987SOL     OW17596   1.017   1.282   3.852  1.1568  0.1917 -0.0478
 1987SOL    HW117597   0.953   1.251   3.787  1.2154  0.8581 -0.4273
 1987SOL    HW217598   1.052   1.356   3.802  0.2286  1.2593  0.8702
 1988SOL     OW17599   1.135   1.803   1.905  0.1768  0.0503 -0.3054
 1988SOL    HW117600   1.136   1.711   1.931  0.9294 -0.1543 -1.0426
 1988SOL    HW217601   1.219   1.840   1.878  0.8371 -0.0512  1.5976
 1989SOL     OW17602   0.360   2.028   7.197 -0.6867 -0.1410 -0.1786
 1989SOL    HW117603   0.388   1.997   7.111  1.3355 -0.6290  0.6380
 1989SOL    HW217604   0.443   2.012   7.242 -1.8323 -1.4451  1.4798
 1990SOL     OW17605   4.066   4.059   2.487  0.7303  0.3740  0.0849
 1990SOL    HW117606   4.145   4.111   2.471  1.4747 -1.1456 -1.1621
 1990SOL    HW217607   4.107   3.982   2.525 -0.8943 -0.0395  1.0226
 1991SOL     OW17608   3.918   0.741  16.342 -0.5358  0.1320  0.7162
 1991SOL    HW117609   3.895   0.747  16.434  1.3632  0.4876  1.1636
 1991SOL    HW217610   3.832   0.712  16.313 -0.1257 -0.2404 -0.1454
 1992SOL     OW17611   4.046   2.937   3.111  0.3312 -0.0431 -0.2892
 1992SOL    HW117612   4.037   3.000   3.182  1.7594  1.0637 -1.0869
 1992SOL    HW217613   4.135   2.954   3.080  0.2818 -1.6227 -1.3522
 1993SOL     OW17614   2.428   2.437   2.232  0.3830 -0.3606 -0.1346
 1993SOL    HW117615   2.451   2.345   2.240  1.5696 -0.0198  0.4259
 1993SOL    HW217616   2.510   2.472   2.195 -1.2996  3.8460  0.1040
 1994SOL     OW17617   2.575   2.713   2.390 -0.4567  0.5578 -0.4322
 1994SOL    HW117618   2.518   2.785   2.418 -0.4894 -0.0143  0.9620
 1994SOL    HW217619   2.611   2.762   2.316  1.3898 -0.4267 -0.2005
 1995SOL     OW17620   1.135   3.657   1.768 -0.2918  0.5883 -0.6341
 1995SOL    HW117621   1.095   3.680   1.851  2.6956  1.3802  0.6023
 1995SOL    HW217622   1.137   3.561   1.770 -0.0429  0.5560 -2.0732
 1996SOL     OW17623   1.491   1.912   2.843 -0.2432  0.1063  0.3026
 1996SOL    HW117624   1.544   1.924   2.922 -0.2615  1.3145  0.1302
 1996SOL    HW217625   1.517   1.988   2.791 -2.8917  0.9483  0.2008
 1997SOL     OW17626   1.573   0.935   2.347  0.3290 -0.2030 -0.2422
 1997SOL    HW117627   1.505   0.956   2.411  0.3811 -0.6187 -0.0505
 1997SOL    HW217628   1.526   0.970   2.272  1.4464  0.1240 -0.7920
 1998SOL     OW17629   4.394   2.992   4.612 -0.3814  0.0900  0.3042
 1998SOL    HW117630   4.463   2.956   4.667 -0.3208 -0.4361 -0.1130
 1998SOL    HW217631   4.412   3.086   4.620  1.3979 -0.4251  2.2762
 1999SOL     OW17632   0.979   2.633   6.343 -0.3583 -0.0973  0.0884
 1999SOL    HW117633   1.045   2.675   6.288 -1.7403 -0.7531 -2.0561
 1999SOL    HW217634   0.897   2.643   6.295 -1.9562  0.0570  2.8410
 2000SOL     OW17635   2.543   2.929  17.605 -0.3525  0.0872  0.0082
 2000SOL    HW117636   2.483   2.976  17.664 -1.1792 -0.0119 -0.7606
 2000SOL    HW217637   2.529   2.975  17.523 -0.4698  0.3748  0.1876
 2001SOL     OW17638   3.794   2.953   5.429 -0.0881  0.6431  0.1418
 2001SOL    HW117639   3.768   2.928   5.341 -0.4830  0.9297  0.1769
 2001SOL    HW217640   3.721   2.930   5.487 -1.1688  0.9650 -1.1025
 2002SOL     OW17641   2.341   2.189   9.571  0.0110  0.2409 -0.0579
 2002SOL    HW117642   2.305   2.174   9.659  0.5096 -3.0404 -0.4163
 2002SOL    HW217643   2.434   2.198   9.595  0.1914  1.3716 -1.1905
 2003SOL     OW17644   2.247   2.012   8.262 -0.2444 -0.2564 -0.4378
 2003SOL    HW117645   2.212   2.033   8.349 -0.0295 -0.2700 -0.3461
 2003SOL    HW217646   2.279   1.922   8.272  1.1932  0.4971  2.0161
 2004SOL     OW17647   3.795   2.118   8.844 -0.0029  0.2523 -0.0360
 2004SOL    HW117648   3.853   2.143   8.772  2.3736 -0.2600  1.7085
 2004SOL    HW217649   3.726   2.185   8.840 -0.3634 -0.1336 -0.3327
 2005SOL     OW17650   3.754   2.841   5.193  0.0653  0.3897 -0.4203
 2005SOL    HW117651   3.672   2.805   5.160  0.1954  0.2887 -0.6354
 2005SOL    HW217652   3.816   2.779   5.154  0.6974  1.0848 -0.5127
 2006SOL     OW17653   1.210   0.323   7.792 -0.0781 -0.4902 -0.4260
 2006SOL    HW117654   1.148   0.305   7.722  0.3267  0.6123 -1.0622
 2006SOL    HW217655   1.170   0.399   7.835 -0.1689 -0.9081  0.2400
 2007SOL     OW17656   0.641   2.375   2.103 -0.1585 -0.3668 -0.6893
 2007SOL    HW117657   0.599   2.448   2.149 -2.9879 -1.3085 -1.7520
 2007SOL    HW217658   0.684   2.338   2.180  1.0282 -0.5513 -1.4516
 2008SOL     OW17659   2.454   4.634   9.728  0.0770  0.6637  0.5445
 2008SOL    HW117660   2.508   4.652   9.805  3.7616 -4.8926 -0.7033
 2008SOL    HW217661   2.436   4.722   9.694  0.5380  0.3837 -0.4196
 2009SOL     OW17662   4.643   3.754   3.267  0.1029 -0.6082 -0.0009
 2009SOL    HW117663   4.687   3.773   3.350  0.1404 -1.4155  0.1615
 2009SOL    HW217664   4.705   3.771   3.196  0.4502  1.5606  0.8165
 2010SOL     OW17665   3.269   4.565   3.781  0.1491 -0.1912  0.0466
 2010SOL    HW117666   3.224   4.639   3.740 -1.5439 -0.3609  1.6348
 2010SOL    HW217667   3.350   4.601   3.817 -0.3849 -0.8890  1.9510
 2011SOL     OW17668   4.543   2.140   4.487  0.3208 -0.5412  0.4992
 2011SOL    HW117669   4.451   2.121   4.470  0.4712  0.5044 -1.3813
 2011SOL    HW217670   4.539   2.232   4.513 -1.2676 -0.6301  0.5638
 2012SOL     OW17671   2.644   0.790   7.451  0.1595 -0.6738 -0.4252
 2012SOL    HW117672   2.643   0.757   7.541 -0.3577  0.0692 -0.1554
 2012SOL    HW217673   2.551   0.810   7.442  0.1416  0.3624  2.1116
 2013SOL     OW17674   0.456   2.009   6.514 -0.2050 -0.6613  0.0220
 2013SOL    HW117675   0.421   2.008   6.603 -0.0599 -3.3673  0.0616
 2013SOL    HW217676   0.492   2.097   6.510  1.8630 -1.4802  0.6449
 2014SOL     OW17677   4.573   1.685  12.876 -0.0647 -0.4314  0.1702
 2014SOL    HW117678   4.654   1.687  12.927 -0.6154  0.8758  1.0049
 2014SOL    HW217679   4.578   1.596  12.842 -2.1728  0.5139 -2.6010
 2015SOL     OW17680   2.655   2.112  11.073  0.3702  0.1212 -0.0595
 2015SOL    HW117681   2.702   2.184  11.115 -0.5165  0.5710  0.1580
 2015SOL    HW217682   2.651   2.146  10.984  2.1100 -3.3241 -1.4716
 2016SOL     OW17683   0.459   3.957  17.668  0.5759 -0.1367 -0.0152
 2016SOL    HW117684   0.424   4.044  17.687 -1.6021 -1.4148  1.7874
 2016SOL    HW217685   0.481   3.953  17.575  0.3968  1.6081 -0.1340
 2017SOL     OW17686   2.829   2.498  14.691 -0.4173  0.3934  0.1610
 2017SOL    HW117687   2.807   2.458  14.607  1.5575  0.6398 -0.4620
 2017SOL    HW217688   2.880   2.573  14.661 -0.6360  1.2934  2.0365
 2018SOL     OW17689   2.071   1.498   3.952 -0.1065  0.0464 -0.1943
 2018SOL    HW117690   2.029   1.416   3.923 -1.4400  0.4570  0.5582
 2018SOL    HW217691   2.007   1.535   4.013  0.3528  1.8353 -0.8178
 2019SOL     OW17692   3.461   3.293   4.063 -0.3009  0.4539 -0.3318
 2019SOL    HW117693   3.406   3.370   4.079  0.5995  1.1769 -0.6876
 2019SOL    HW217694   3.397   3.229   4.032  0.9164  0.3127 -2.5536
 2020SOL     OW17695   1.333   0.667   5.398  0.0577  0.1004  0.0808
 2020SOL    HW117696   1.338   0.598   5.464 -2.3308 -1.9958 -1.9410
 2020SOL    HW217697   1.256   0.660   5.343  0.9209  1.2687 -1.2610
 2021SOL     OW17698   2.739   1.350  13.775  0.0124  0.2885  0.1786
 2021SOL    HW117699   2.738   1.261  13.810  2.7318  0.3171  0.3187
 2021SOL    HW217700   2.785   1.387  13.850 -1.4065  2.0752  0.1737
 2022SOL     OW17701   0.467   1.398   5.475  0.5457 -0.2865 -0.5545
 2022SOL    HW117702   0.468   1.468   5.410  0.5808 -0.6146 -0.9056
 2022SOL    HW217703   0.462   1.459   5.549  0.4699  1.3737 -1.9223
 2023SOL     OW17704   1.220   2.911  13.081 -0.1702  0.4784 -0.1085
 2023SOL    HW117705   1.150   2.967  13.116 -1.9814 -1.3861 -0.7448
 2023SOL    HW217706   1.253   2.865  13.159 -0.2980  3.1760  1.5348
 2024SOL     OW17707   0.690   2.805   7.698  0.4510  0.5359  0.3010
 2024SOL    HW117708   0.722   2.756   7.774 -1.5170 -1.2017  0.0082
 2024SOL    HW217709   0.689   2.895   7.730 -0.2499  0.0761  1.5387
 2025SOL     OW17710   2.117   1.558  11.653 -0.0888  0.3713  0.0398
 2025SOL    HW117711   2.157   1.472  11.663 -0.7195  0.1246  0.4344
 2025SOL    HW217712   2.075   1.554  11.739  1.8458  0.6468  1.0061
 2026SOL     OW17713   1.339   3.288   3.974  0.1260 -0.6047  0.6621
 2026SOL    HW117714   1.410   3.321   3.918  0.1987 -0.1188  1.0413
 2026SOL    HW217715   1.272   3.346   3.939  0.0931 -0.9930  0.0765
 2027SOL     OW17716   0.263   0.534   6.847 -0.1908 -0.1287 -0.1925
 2027SOL    HW117717   0.309   0.538   6.931  1.7507  0.7216 -1.2967
 2027SOL    HW217718   0.324   0.573   6.784 -1.9004  1.0332 -1.1161
 2028SOL     OW17719   3.532   0.048   2.881 -0.0445  0.1092  0.2005
 2028SOL    HW117720   3.619   0.052   2.921 -0.4064  1.8392  0.8333
 2028SOL    HW217721   3.507   0.140   2.867  2.3072  1.2674  3.5158
 2029SOL     OW17722   3.593   1.947   5.778 -0.0317 -0.5676  0.0103
 2029SOL    HW117723   3.542   1.889   5.721  1.2349  1.0039 -2.7196
 2029SOL    HW217724   3.680   1.956   5.738 -0.2397 -0.4124 -0.4134
 2030SOL     OW17725   3.077   4.384   1.540  0.1132 -0.2526 -0.2053
 2030SOL    HW117726   2.993   4.339   1.536 -0.1884  0.1830  1.1271
 2030SOL    HW217727   3.052   4.473   1.566 -2.0332 -0.6039 -1.0971
 2031SOL     OW17728   0.762   3.701   4.485 -0.3685 -0.3960  0.0341
 2031SOL    HW117729   0.755   3.796   4.476  2.2177 -0.0857  1.1920
 2031SOL    HW217730   0.701   3.674   4.417 -0.7612  0.2747  0.1253
 2032SOL     OW17731   4.577   2.428   6.422  0.4407 -0.2829 -0.3516
 2032SOL    HW117732   4.547   2.344   6.389  3.8434 -1.6430 -0.0171
 2032SOL    HW217733   4.519   2.482   6.368  0.1304  0.1403  0.4008
 2033SOL     OW17734   4.040   3.639   1.241  0.5030 -0.0382 -0.0145
 2033SOL    HW117735   4.003   3.713   1.193  0.4756  0.7152  1.1643
 2033SOL    HW217736   3.990   3.639   1.323 -2.2275  1.6801 -1.6935
 2034SOL     OW17737   4.402   3.895   3.313  0.2915  0.7384 -0.6214
 2034SOL    HW117738   4.374   3.872   3.224 -0.5687  2.5093 -0.8053
 2034SOL    HW217739   4.495   3.875   3.308  0.1631  0.0443 -0.3403
 2035SOL     OW17740   1.381   4.573  13.323  0.0156  0.9528  0.2008
 2035SOL    HW117741   1.369   4.490  13.370 -0.9061 -0.0842 -1.8838
 2035SOL    HW217742   1.384   4.639  13.393  0.3043  1.2698 -0.1068
 2036SOL     OW17743   1.678   2.905   2.484 -0.2031  0.0837  0.2541
 2036SOL    HW117744   1.643   2.848   2.552  0.2723 -0.9708 -0.3789
 2036SOL    HW217745   1.723   2.844   2.425  0.1584  0.5608  0.0343
 2037SOL     OW17746   3.886   3.139   8.416  0.3008  0.4198 -0.3523
 2037SOL    HW117747   3.897   3.209   8.481  1.7734  0.3702 -0.5506
 2037SOL    HW217748   3.953   3.154   8.350 -0.8368 -0.4332 -1.6971
 2038SOL     OW17749   0.786   0.725  13.167 -0.1892  0.3023 -0.2923
 2038SOL    HW117750   0.761   0.649  13.114  0.0483  0.6685 -0.9278
 2038SOL    HW217751   0.876   0.705  13.193 -0.8901 -1.2440  0.9481
 2039SOL     OW17752   3.325   3.404   6.026  0.0565 -0.6689 -0.3269
 2039SOL    HW117753   3.351   3.486   5.984  2.0742 -1.4837 -0.6754
 2039SOL    HW217754   3.292   3.438   6.109 -1.2068  1.7452 -1.8186
 2040SOL     OW17755   4.726   2.754   1.916  0.0788  0.0563 -0.0052
 2040SOL    HW117756   4.668   2.769   1.842 -0.0096 -0.2434  0.0052
 2040SOL    HW217757   4.731   2.659   1.914  2.3639  0.2009 -0.6777
 2041SOL     OW17758   0.005   3.436   3.063  0.1253 -0.1210  0.1322
 2041SOL    HW117759   0.080   3.482   3.025 -1.0957  0.2700 -1.7832
 2041SOL    HW217760   4.735   3.355   3.011  1.0628 -0.1278  0.0268
 2042SOL     OW17761   1.806   2.955  16.136  0.1330 -0.1732  0.1932
 2042SOL    HW117762   1.800   2.940  16.042 -0.4673 -1.1888  0.3984
 2042SOL    HW217763   1.893   2.917  16.151  0.2048  0.1038  0.4754
 2043SOL     OW17764   4.077   3.379   7.891 -0.0476 -0.2306  0.0551
 2043SOL    HW117765   4.109   3.297   7.928 -0.5422 -0.0701  0.8461
 2043SOL    HW217766   4.125   3.375   7.808  0.4796  1.6011  0.2897
 2044SOL     OW17767   2.831   0.810   5.951  0.5559  0.9818  0.4715
 2044SOL    HW117768   2.751   0.787   5.998  0.9658  0.4709  0.9119
 2044SOL    HW217769   2.869   0.885   5.995  0.1641  1.3583  0.1662
 2045SOL     OW17770   3.911   3.782   3.920 -0.1802 -0.4676  0.1901
 2045SOL    HW117771   3.993   3.805   3.877 -0.2489  0.0253  0.3298
 2045SOL    HW217772   3.935   3.700   3.964  0.6015 -1.9773 -3.0339
 2046SOL     OW17773   4.299   3.826   3.557  0.5520  0.3553  0.0252
 2046SOL    HW117774   4.333   3.842   3.469 -1.0083  0.3652 -0.5613
 2046SOL    HW217775   4.379   3.850   3.604  0.3318  1.4586 -0.1671
 2047SOL     OW17776   3.244   1.908   8.415 -0.4376  0.5449 -0.0140
 2047SOL    HW117777   3.249   1.845   8.486 -0.1534  0.7682  0.1636
 2047SOL    HW217778   3.161   1.887   8.372  0.1483  0.1286 -0.9373
 2048SOL     OW17779   0.621   4.310   4.988  0.3735 -0.2909 -0.0569
 2048SOL    HW117780   0.559   4.381   5.001 -0.5954 -1.0376 -0.6199
 2048SOL    HW217781   0.631   4.274   5.076 -0.4859  1.3315  0.6922
 2049SOL     OW17782   1.240   4.510   9.396 -0.3402  0.0495  0.1773
 2049SOL    HW117783   1.306   4.481   9.461 -1.1714  1.6861  1.7478
 2049SOL    HW217784   1.278   4.595   9.373  0.1494  0.4748  2.5140
 2050SOL     OW17785   2.388   1.162   8.460 -0.2116  0.0394 -0.2779
 2050SOL    HW117786   2.311   1.218   8.447 -1.7500 -2.1038 -0.3396
 2050SOL    HW217787   2.420   1.194   8.545 -0.8303  2.2387 -0.8635
 2051SOL     OW17788   3.104   3.622  10.169  0.2647  0.4498  0.1849
 2051SOL    HW117789   3.195   3.627  10.202  0.7682 -0.7618 -1.0651
 2051SOL    HW217790   3.117   3.577  10.086 -0.9800  0.4071  0.0156
 2052SOL     OW17791   3.723   3.605   4.847  0.6723  0.4015 -0.0903
 2052SOL    HW117792   3.758   3.674   4.790  1.3639  1.4493  1.6189
 2052SOL    HW217793   3.774   3.632   4.923  0.5176 -1.0013  0.5045
 2053SOL     OW17794   3.206   0.789   3.912 -0.4953  0.0961 -0.0147
 2053SOL    HW117795   3.197   0.881   3.886  4.0909  0.3025 -0.8666
 2053SOL    HW217796   3.300   0.801   3.918 -0.2971 -0.8784 -1.2589
 2054SOL     OW17797   2.572   3.951   9.575  0.7860  0.0768 -0.9323
 2054SOL    HW117798   2.543   4.035   9.539  2.4933  0.6123 -1.0844
 2054SOL    HW217799   2.520   3.958   9.655  0.6742 -0.6393 -0.9440
 2055SOL     OW17800   2.173   4.152   3.716  0.4080 -0.0033  0.3058
 2055SOL    HW117801   2.200   4.244   3.717 -0.9707  0.4048  0.3890
 2055SOL    HW217802   2.254   4.107   3.739  1.5282  1.7806 -0.1177
 2056SOL     OW17803   1.305   2.090   2.500 -0.2741  0.0851 -0.2328
 2056SOL    HW117804   1.272   2.164   2.552 -1.3810 -0.0251 -0.7621
 2056SOL    HW217805   1.236   2.024   2.511  0.2044  0.1509  3.1154
 2057SOL     OW17806   0.019   3.369   8.375  0.4225  0.9113  0.2802
 2057SOL    HW117807   4.708   3.451   8.361  0.5680  0.7256 -1.3720
 2057SOL    HW217808   0.063   3.352   8.291  1.5345  0.4235  0.9628
 2058SOL     OW17809   4.270   2.321   2.796  0.7760 -0.7458 -0.0097
 2058SOL    HW117810   4.305   2.360   2.876 -1.4633 -0.7155  0.9702
 2058SOL    HW217811   4.216   2.392   2.760  1.3222  0.1783  1.0060
 2059SOL     OW17812   0.444   0.810   1.306  0.0454  0.2553  0.4682
 2059SOL    HW117813   0.422   0.728   1.352  2.2701 -0.7802 -0.3422
 2059SOL    HW217814   0.529   0.792   1.268 -0.6516 -1.7755 -0.1530
 2060SOL     OW17815   1.916   3.893   2.949  0.4949  0.1843 -0.0265
 2060SOL    HW117816   1.879   3.819   2.997  3.3709 -1.9658 -1.0718
 2060SOL    HW217817   1.841   3.948   2.930  0.0684 -0.4415 -0.1810
 2061SOL     OW17818   2.535   3.253   6.861  0.0173 -0.0194  0.3016
 2061SOL    HW117819   2.469   3.239   6.929  0.2804 -2.0290  0.1483
 2061SOL    HW217820   2.495   3.336   6.835  2.5609  1.4618  1.0660
 2062SOL     OW17821   4.455   4.041   6.416 -0.1241  0.6909 -0.0884
 2062SOL    HW117822   4.390   4.110   6.431  2.0161  2.3000  1.8824
 2062SOL    HW217823   4.413   3.963   6.452  0.6908  0.1898 -0.2136
 2063SOL     OW17824   0.456   4.025  15.190 -0.2757 -0.3515  0.1660
 2063SOL    HW117825   0.479   4.092  15.126  0.2167  0.0088  0.7264
 2063SOL    HW217826   0.440   4.082  15.266 -0.5062  1.5483 -1.3188
 2064SOL     OW17827   0.543   2.041   8.154 -0.0560 -0.2534  0.1539
 2064SOL    HW117828   0.607   2.056   8.223 -0.9630  2.2566  0.4591
 2064SOL    HW217829   0.471   1.998   8.200  1.2576 -1.9085  0.6440
 2065SOL     OW17830   2.818   1.643   2.806 -0.3818 -0.0067 -0.3733
 2065SOL    HW117831   2.779   1.722   2.770  1.5820  1.2154  0.1895
 2065SOL    HW217832   2.911   1.664   2.806 -0.4154  0.1457 -1.5208
 2066SOL     OW17833   1.709   3.878   1.954 -0.3622 -0.2197 -0.2383
 2066SOL    HW117834   1.676   3.870   2.043 -2.1776  3.7460 -0.5611
 2066SOL    HW217835   1.704   3.787   1.924  2.0522 -0.3865 -0.1589
 2067SOL     OW17836   3.389   3.844   3.183  0.0014  0.1345  0.5257
 2067SOL    HW117837   3.331   3.824   3.109 -1.9320  2.2306  1.4920
 2067SOL    HW217838   3.454   3.773   3.178 -2.1294 -1.8300  0.5096
 2068SOL     OW17839   1.896   1.748   6.498  0.5528 -0.0976  0.4372
 2068SOL    HW117840   1.952   1.696   6.440 -0.2849 -2.6813  1.9363
 2068SOL    HW217841   1.954   1.813   6.538 -0.3874  0.4342  0.9253
 2069SOL     OW17842   3.355   3.587  13.028  0.3967 -0.4612 -0.1087
 2069SOL    HW117843   3.410   3.508  13.022  1.7494  0.2597  3.2990
 2069SOL    HW217844   3.430   3.645  13.036  0.7399 -1.2481  2.2890
 2070SOL     OW17845   3.471   0.520   3.431 -0.5327  0.2450  0.0183
 2070SOL    HW117846   3.416   0.502   3.507  1.4920 -1.2094  1.1538
 2070SOL    HW217847   3.559   0.523   3.470  0.5140  1.2894 -2.4357
 2071SOL     OW17848   1.706   1.602   4.662  0.2507  0.6368  0.0624
 2071SOL    HW117849   1.644   1.674   4.646  0.3284  0.7682  0.3701
 2071SOL    HW217850   1.647   1.526   4.664  1.3136 -0.2124 -0.4968
 2072SOL     OW17851   3.919   4.618   3.996  0.8003  0.6264 -0.0799
 2072SOL    HW117852   3.929   4.525   4.020  0.1679  0.1855 -1.5792
 2072SOL    HW217853   3.840   4.633   4.047  0.6218 -0.3826 -0.0613
 2073SOL     OW17854   4.679   2.501   2.678  0.7009  0.5957  0.3119
 2073SOL    HW117855   0.021   2.446   2.678  1.4325  1.6472  2.2827
 2073SOL    HW217856   4.700   2.554   2.601 -0.3690  1.0077  0.3126
 2074SOL     OW17857   3.705   3.026   8.839 -0.7953 -0.4695 -0.0686
 2074SOL    HW117858   3.777   3.059   8.892 -2.0976 -0.0534  1.4319
 2074SOL    HW217859   3.751   3.017   8.756 -1.5167  1.7503 -0.7156
 2075SOL     OW17860   1.484   3.938   7.227  0.2277 -0.1696  0.5269
 2075SOL    HW117861   1.488   3.856   7.275 -0.3204 -0.2085  0.5039
 2075SOL    HW217862   1.475   4.005   7.294 -1.3067  0.7480 -0.6036
 2076SOL     OW17863   1.239   3.764   8.605  0.2235  0.3799 -0.5851
 2076SOL    HW117864   1.219   3.830   8.672 -1.3648 -0.3702 -0.3199
 2076SOL    HW217865   1.201   3.790   8.521 -1.3115 -0.8440 -0.2831
 2077SOL     OW17866   4.581   2.570   8.281  0.0642 -0.2772  0.3208
 2077SOL    HW117867   4.658   2.593   8.227 -0.1507  0.7680  0.4612
 2077SOL    HW217868   4.581   2.475   8.283 -1.4659 -0.3044 -0.9940
 2078SOL     OW17869   3.217   3.820   0.400 -0.2486  0.8313 -0.5339
 2078SOL    HW117870   3.170   3.762   0.460 -1.5761  3.2181  0.7321
 2078SOL    HW217871   3.295   3.771   0.377 -0.4756  0.5691 -0.7491
 2079SOL     OW17872   3.071   4.219  11.928  0.2058 -0.6288  0.3904
 2079SOL    HW117873   3.123   4.260  11.997 -0.2180 -0.2308  0.4734
 2079SOL    HW217874   3.114   4.264  11.855  0.3527 -0.0271  0.8468
 2080SOL     OW17875   2.104   0.344   3.610  0.5013  0.1245 -0.7465
 2080SOL    HW117876   2.090   0.286   3.535  0.3425  0.9309 -1.3393
 2080SOL    HW217877   2.021   0.392   3.611  2.1212  2.8542  1.5362
 2081SOL     OW17878   3.417   0.861   2.945 -0.3468 -0.4081 -0.4241
 2081SOL    HW117879   3.329   0.839   2.975  0.4737 -0.5477  1.9212
 2081SOL    HW217880   3.449   0.772   2.926  1.2007 -0.1493  0.9069
 2082SOL     OW17881   3.484   1.291   8.544  0.3846  0.0599  0.0695
 2082SOL    HW117882   3.565   1.319   8.587 -0.9781  3.6466  0.3235
 2082SOL    HW217883   3.524   1.240   8.474 -1.1170  0.7900 -1.3039
 2083SOL     OW17884   1.867   4.622   0.792 -0.0190  0.0875 -0.4906
 2083SOL    HW117885   1.864   4.660   0.880 -2.1701 -3.1302  0.8277
 2083SOL    HW217886   1.776   4.595   0.775  0.5413 -2.3422  0.3035
 2084SOL     OW17887   1.623   4.495   1.797  0.4173  0.2586 -0.5484
 2084SOL    HW117888   1.678   4.494   1.719  3.8506  0.2177  1.8733
 2084SOL    HW217889   1.545   4.546   1.775  1.8489  1.8552 -1.8501
 2085SOL     OW17890   0.809   2.365   7.217  0.2153  0.0337 -0.1516
 2085SOL    HW117891   0.809   2.395   7.126  2.1596 -1.9570 -0.8179
 2085SOL    HW217892   0.896   2.396   7.241  1.2029 -1.6693 -1.5522
 2086SOL     OW17893   2.141   4.715  12.943  0.6144  0.0644 -0.5198
 2086SOL    HW117894   2.168   4.654  13.011 -0.3012  2.2603  1.7789
 2086SOL    HW217895   2.100   0.045  12.998  1.2405  0.8096 -0.9546
 2087SOL     OW17896   3.170   3.900  11.831  0.2237 -0.3954  0.2263
 2087SOL    HW117897   3.189   3.821  11.780 -0.6304  1.1096 -2.4051
 2087SOL    HW217898   3.208   3.883  11.918 -1.2203 -1.6948  0.6107
 2088SOL     OW17899   2.714   3.028   6.813 -0.4068  0.4317  0.0144
 2088SOL    HW117900   2.723   3.034   6.718 -0.9240  0.0837 -0.0525
 2088SOL    HW217901   2.677   3.112   6.837 -3.8608 -0.9843 -0.4386
 2089SOL     OW17902   3.390   0.615   4.698 -0.5256 -1.1567 -0.8899
 2089SOL    HW117903   3.427   0.606   4.786 -1.4198 -0.6012 -0.4541
 2089SOL    HW217904   3.300   0.614   4.730 -0.1775  2.6729  0.2169
 2090SOL     OW17905   0.790   3.005   7.069  0.3946 -0.9321 -0.3005
 2090SOL    HW117906   0.833   2.931   7.112  1.1500  0.1551  0.7923
 2090SOL    HW217907   0.870   3.048   7.037  0.5314 -2.0853 -1.5102
 2091SOL     OW17908   3.773   3.337   6.639 -0.0410 -0.2925 -0.5591
 2091SOL    HW117909   3.717   3.288   6.699 -1.3452  1.2900 -0.4989
 2091SOL    HW217910   3.712   3.376   6.576 -0.7082  0.3527  0.4990
 2092SOL     OW17911   2.405   0.051   8.917  0.5766 -0.5463 -0.1681
 2092SOL    HW117912   2.327   0.016   8.874  0.1697 -2.8957  2.4758
 2092SOL    HW217913   2.468   4.716   8.911  0.7921 -0.4556  0.8831
 2093SOL     OW17914   0.248   2.318   4.747 -0.4150  0.5033 -0.0209
 2093SOL    HW117915   0.331   2.272   4.732 -1.0266  0.5935 -3.7071
 2093SOL    HW217916   0.207   2.279   4.669 -1.7333  1.6380  0.0987
 2094SOL     OW17917   0.819   1.025   2.358 -0.3693  0.0420  0.1895
 2094SOL    HW117918   0.889   0.960   2.346 -1.2107 -0.7507 -0.4854
 2094SOL    HW217919   0.866   1.106   2.376 -0.8502  0.6517 -1.3215
 2095SOL     OW17920   2.359   0.589   6.354 -0.2683  0.1080 -0.2671
 2095SOL    HW117921   2.434   0.559   6.302 -1.5011 -2.7057 -0.4304
 2095SOL    HW217922   2.316   0.504   6.362  1.5923 -0.9084 -0.9377
 2096SOL     OW17923   0.092   2.940   4.410  0.2373 -1.2856  0.0487
 2096SOL    HW117924   0.061   3.028   4.433 -1.6424 -2.1196  0.7994
 2096SOL    HW217925   0.013   2.891   4.433 -0.6082 -0.3384 -0.8296
 2097SOL     OW17926   3.074   0.964   2.324  0.6841 -0.0042 -0.2727
 2097SOL    HW117927   3.145   0.923   2.273  0.5778  1.9752 -2.0413
 2097SOL    HW217928   2.998   0.926   2.280 -1.0393 -0.4657  3.1267
 2098SOL     OW17929   1.521   4.397   3.048  0.0650 -0.1615 -0.2173
 2098SOL    HW117930   1.572   4.417   2.970  0.1215  2.4041  0.5047
 2098SOL    HW217931   1.582   4.344   3.099  0.7100  1.8306  1.0771
 2099SOL     OW17932   1.497   2.214   4.740  0.2628 -0.1630  0.0007
 2099SOL    HW117933   1.405   2.211   4.713  0.4133 -1.1150 -0.4030
 2099SOL    HW217934   1.502   2.303   4.775  0.5987 -0.0650 -0.2937
 2100SOL     OW17935   1.643   4.723  10.845 -0.4542  0.1111 -0.5608
 2100SOL    HW117936   1.633   4.631  10.871 -1.1542  0.1602 -0.6636
 2100SOL    HW217937   1.668   0.032  10.926  2.1487 -0.9534 -0.7506
 2101SOL     OW17938   1.115   1.521   3.734  0.3471  0.2612  0.1909
 2101SOL    HW117939   1.128   1.612   3.761 -0.8214  0.8868 -1.3164
 2101SOL    HW217940   1.058   1.537   3.659 -2.1060  0.8079  2.1411
 2102SOL     OW17941   0.340   3.112  15.188 -0.0017 -0.4810  0.5576
 2102SOL    HW117942   0.410   3.105  15.252 -1.3262 -2.7072  1.7902
 2102SOL    HW217943   0.297   3.194  15.212  2.3836  0.6352  0.9341
 2103SOL     OW17944   3.076   2.849   3.869 -0.2837  0.1379 -0.0226
 2103SOL    HW117945   3.132   2.778   3.838 -1.4114 -0.6873 -0.1606
 2103SOL    HW217946   3.093   2.838   3.962  0.4265 -0.3127 -0.2004
 2104SOL     OW17947   2.198   0.259   7.000  0.2216  0.1696 -0.1112
 2104SOL    HW117948   2.273   0.289   6.950  0.0086  0.1695 -0.4315
 2104SOL    HW217949   2.211   0.166   7.019 -0.9616  0.2691  1.2868
 2105SOL     OW17950   2.385   4.621   2.495  0.6098 -0.0317 -0.3139
 2105SOL    HW117951   2.344   4.585   2.574 -1.3909  3.0500  0.0400
 2105SOL    HW217952   2.345   4.708   2.500  1.4083  0.3506 -0.6834
 2106SOL     OW17953   2.961   1.640  12.747 -0.1386  0.6085  0.1363
 2106SOL    HW117954   2.967   1.578  12.675  0.6045 -1.8230  2.2752
 2106SOL    HW217955   2.963   1.720  12.695 -2.1632  0.5067 -0.0793
 2107SOL     OW17956   4.505   2.869  12.780 -0.3617 -0.2082 -0.1670
 2107SOL    HW117957   4.454   2.920  12.843 -3.0630 -2.8808 -0.2319
 2107SOL    HW217958   4.545   2.933  12.720  1.1433 -0.8708  0.1166
 2108SOL     OW17959   1.322   3.318   1.193  0.5293  0.1176 -0.1036
 2108SOL    HW117960   1.348   3.387   1.255  1.8742  2.0618 -2.8152
 2108SOL    HW217961   1.401   3.265   1.192  0.6987  0.3475  0.8422
 2109SOL     OW17962   0.211   3.828   8.199 -0.1283  0.3684  0.3473
 2109SOL    HW117963   0.284   3.884   8.225  1.8571 -2.1935  0.1378
 2109SOL    HW217964   0.255   3.744   8.201 -0.8607 -0.0100  0.5185
 2110SOL     OW17965   2.438   1.540   5.932  0.4438 -0.3596 -0.3899
 2110SOL    HW117966   2.433   1.487   5.853  0.8478 -0.0521 -0.6223
 2110SOL    HW217967   2.461   1.628   5.901 -0.0559 -0.1955 -0.2996
 2111SOL     OW17968   1.674   0.938   5.836  0.3887  0.4483 -0.1996
 2111SOL    HW117969   1.758   0.982   5.849 -0.2826  0.3362  4.5678
 2111SOL    HW217970   1.706   0.868   5.779 -1.0625 -1.2087  1.0203
 2112SOL     OW17971   2.524   2.080  10.171  0.0878  0.4134  0.1229
 2112SOL    HW117972   2.576   2.110  10.246  1.2889 -1.6731  0.1104
 2112SOL    HW217973   2.574   2.091  10.091  1.5476 -1.8208  0.7250
 2113SOL     OW17974   0.083   3.828   3.068  0.2232  0.0692  0.3311
 2113SOL    HW117975   0.161   3.877   3.093  0.4497 -0.2060  0.1595
 2113SOL    HW217976   0.126   3.751   3.032  0.3963  0.5963 -0.5859
 2114SOL     OW17977   1.668   3.097   2.292  0.3452  0.3203  0.0492
 2114SOL    HW117978   1.735   3.034   2.319 -0.6412 -0.4276  0.7419
 2114SOL    HW217979   1.598   3.070   2.351 -0.3931  0.1754 -0.8958
 2115SOL     OW17980   2.359   4.351   3.283 -0.3001  0.0547  0.3424
 2115SOL    HW117981   2.358   4.256   3.299  0.8248  0.5211  3.1540
 2115SOL    HW217982   2.452   4.365   3.268 -0.4879  0.7126 -0.2186
 2116SOL     OW17983   0.478   1.684   5.816  0.5477 -0.1546  0.8827
 2116SOL    HW117984   0.402   1.697   5.759  1.9312  1.2622 -0.6248
 2116SOL    HW217985   0.488   1.589   5.826 -1.7517 -0.6035 -1.1365
 2117SOL     OW17986   1.015   0.634   4.262  0.5628 -0.5548  0.0477
 2117SOL    HW117987   1.089   0.574   4.252  2.2340  1.4267  0.6295
 2117SOL    HW217988   1.049   0.713   4.220 -0.2743 -0.9608 -1.3788
 2118SOL     OW17989   2.823   2.441  10.076  0.2630  0.4784 -0.5913
 2118SOL    HW117990   2.830   2.450   9.981  2.4541 -3.2315 -0.7677
 2118SOL    HW217991   2.917   2.447  10.095  0.3665 -1.8524 -0.3826
 2119SOL     OW17992   1.693   0.292  13.715  0.2717  0.1037 -0.2472
 2119SOL    HW117993   1.756   0.242  13.663  1.6979 -0.0392  1.6400
 2119SOL    HW217994   1.708   0.382  13.686  0.0034  0.4955  0.8228
 2120SOL     OW17995   2.350   2.920   4.544  0.0302 -0.0734  0.3817
 2120SOL    HW117996   2.399   2.841   4.565  0.3464  0.5757  2.0562
 2120SOL    HW217997   2.261   2.888   4.527 -0.1080  1.5899 -2.1067
 2121SOL     OW17998   2.315   3.561   5.442 -0.4601 -0.7200  0.0910
 2121SOL    HW117999   2.236   3.519   5.406 -1.7990  1.2438  0.7158
 2121SOL    HW218000   2.348   3.597   5.360 -0.2422 -1.2117 -0.0336
 2122SOL     OW18001   2.297   2.402   3.507  0.1334 -0.6615 -0.1493
 2122SOL    HW118002   2.346   2.331   3.466 -1.7751 -1.5180 -0.9426
 2122SOL    HW218003   2.259   2.432   3.425 -0.5980 -1.7254 -0.2000
 2123SOL     OW18004   3.927   3.979   0.566 -0.0464 -0.2226 -0.2192
 2123SOL    HW118005   3.945   4.071   0.550 -0.9858  0.7503  4.4143
 2123SOL    HW218006   3.933   3.977   0.662 -0.5171 -1.2777 -0.2132
 2124SOL     OW18007   3.960   3.919   8.188 -0.1088  0.5243 -0.2603
 2124SOL    HW118008   4.020   3.988   8.215 -1.1220  0.2514  2.7612
 2124SOL    HW218009   3.910   3.928   8.269 -0.0368 -1.4608  0.0001
 2125SOL     OW18010   4.041   1.777   4.013 -0.0035 -0.3524  0.8182
 2125SOL    HW118011   4.120   1.723   4.006  1.3781  1.9737 -1.3390
 2125SOL    HW218012   3.972   1.711   4.006  1.4957 -1.8721  0.3611
 2126SOL     OW18013   4.070   2.308   7.371 -0.1669  0.0001 -0.3942
 2126SOL    HW118014   4.097   2.230   7.321  0.1534  0.5597 -1.0861
 2126SOL    HW218015   4.084   2.380   7.311 -0.0865  0.2663 -0.0541
 2127SOL     OW18016   1.914   1.304   1.673 -0.3345  0.3531  0.2958
 2127SOL    HW118017   1.950   1.220   1.701 -1.1756 -0.1027  0.0281
 2127SOL    HW218018   1.874   1.283   1.588 -1.0120 -0.6221  0.8479
 2128SOL     OW18019   0.878   2.004   7.019  0.2999  0.1873  0.2911
 2128SOL    HW118020   0.939   2.011   7.093  0.8780  1.7805 -0.3265
 2128SOL    HW218021   0.944   2.019   6.951 -0.3376 -0.1907 -0.3970
 2129SOL     OW18022   4.570   3.733  16.758  0.2190 -0.1817  0.1434
 2129SOL    HW118023   4.488   3.683  16.759  0.3893 -0.4362  1.3051
 2129SOL    HW218024   4.557   3.804  16.695 -0.7451  0.2043  0.7664
 2130SOL     OW18025   2.958   3.470   5.589  0.3749 -0.3024  0.2408
 2130SOL    HW118026   3.049   3.443   5.586  0.2833 -0.5899  0.0777
 2130SOL    HW218027   2.959   3.522   5.509  1.6879  0.9713  1.0925
 2131SOL     OW18028   1.595   1.612   3.822  0.7041 -0.7927 -0.0007
 2131SOL    HW118029   1.554   1.681   3.874  1.4422  0.3544 -0.9481
 2131SOL    HW218030   1.681   1.645   3.799  1.0074 -0.7112  1.2827
 2132SOL     OW18031   1.587   4.325   0.611 -0.5003 -0.1925  0.0532
 2132SOL    HW118032   1.599   4.233   0.634  1.7823  0.3836  1.2011
 2132SOL    HW218033   1.613   4.375   0.689  3.2541  0.8531 -1.9191
 2133SOL     OW18034   3.332   0.347   4.643  0.3718 -0.2865 -0.1559
 2133SOL    HW118035   3.249   0.350   4.691 -0.4906 -2.2421 -1.5172
 2133SOL    HW218036   3.356   0.439   4.650 -0.5246 -0.0455 -0.1852
 2134SOL     OW18037   4.470   3.472  17.360 -0.4025 -0.0286 -0.0936
 2134SOL    HW118038   4.559   3.490  17.391  0.2234 -3.3520  0.0758
 2134SOL    HW218039   4.443   3.559  17.331 -0.1247  0.3586  0.7994
 2135SOL     OW18040   2.587   0.565   4.865 -0.3633  0.3039 -0.0774
 2135SOL    HW118041   2.545   0.490   4.908 -2.4098  1.6570  0.2523
 2135SOL    HW218042   2.572   0.631   4.932 -0.3040  1.0416 -0.7928
 2136SOL     OW18043   2.730   3.477   2.924  0.4580 -0.4316  0.0180
 2136SOL    HW118044   2.759   3.396   2.965  0.9805  1.1544  2.7661
 2136SOL    HW218045   2.641   3.480   2.960 -0.0977 -1.4089 -1.2871
 2137SOL     OW18046   3.683   0.309   9.146  0.0041  0.4392  0.1921
 2137SOL    HW118047   3.737   0.262   9.083 -0.3796 -1.8566  1.5568
 2137SOL    HW218048   3.623   0.349   9.084 -1.9918 -0.2672  1.6621
 2138SOL     OW18049   0.176   1.850   5.444 -0.3008  0.4602  0.0892
 2138SOL    HW118050   0.184   1.768   5.492  0.1087 -0.4131 -1.4608
 2138SOL    HW218051   0.139   1.921   5.497  1.2660  0.7622  0.7627
 2139SOL     OW18052   4.723   0.835   3.852 -0.4717  0.0952 -0.2269
 2139SOL    HW118053   0.055   0.788   3.805  0.6080 -0.0270  1.4530
 2139SOL    HW218054   4.714   0.910   3.793 -0.1829  1.0542  0.9425
 2140SOL     OW18055   0.809   3.576   5.662  0.1503  0.0024  0.0719
 2140SOL    HW118056   0.841   3.631   5.734 -2.2977 -0.6857  1.6962
 2140SOL    HW218057   0.739   3.632   5.629  0.2483 -1.2997 -2.2629
 2141SOL     OW18058   1.480   4.473   9.585 -0.0737  0.1897  0.5211
 2141SOL    HW118059   1.513   4.562   9.587 -0.8145  0.5097 -1.9459
 2141SOL    HW218060   1.530   4.428   9.517 -0.6710  0.3558 -0.0244
 2142SOL     OW18061   3.592   1.520   2.426  0.2420  0.0085 -0.3098
 2142SOL    HW118062   3.517   1.473   2.462  0.2340 -0.8516 -1.4452
 2142SOL    HW218063   3.622   1.578   2.496 -1.7280 -0.3278  0.7795
 2143SOL     OW18064   3.344   3.945   2.139 -0.0362  0.1763  0.1195
 2143SOL    HW118065   3.347   3.897   2.056  0.8759 -0.2559  0.4029
 2143SOL    HW218066   3.251   3.968   2.139  0.2636  1.3509 -0.4836
 2144SOL     OW18067   1.226   2.110   7.511 -0.3037 -0.4347 -0.2236
 2144SOL    HW118068   1.193   2.193   7.479  0.6473 -0.9594 -2.5398
 2144SOL    HW218069   1.255   2.136   7.599  0.3131  1.0511 -0.8683
 2145SOL     OW18070   1.940   0.846  11.742 -0.2997 -0.2098 -0.1494
 2145SOL    HW118071   1.901   0.929  11.717 -0.3231  0.3082  1.6141
 2145SOL    HW218072   1.948   0.872  11.833 -0.6978  0.2856 -0.2538
 2146SOL     OW18073   2.534   2.730  17.308  0.4190 -0.9147  0.3608
 2146SOL    HW118074   2.602   2.756  17.247 -0.1798 -0.8600 -0.2905
 2146SOL    HW218075   2.462   2.785  17.277 -0.2237 -1.6028  0.6122
 2147SOL     OW18076   3.897   2.667  11.766 -0.0590  0.1685 -0.1339
 2147SOL    HW118077   3.814   2.628  11.793 -0.3269  0.5435 -0.4139
 2147SOL    HW218078   3.872   2.753  11.732 -2.1368  0.0484  1.1150
 2148SOL     OW18079   4.182   3.192   6.758 -0.2133  0.4605  0.0749
 2148SOL    HW118080   4.127   3.263   6.792 -1.0480  0.5577 -1.4935
 2148SOL    HW218081   4.194   3.223   6.669  3.0726  0.4365  0.5292
 2149SOL     OW18082   4.142   2.636   4.757 -0.0749  0.1680  0.1671
 2149SOL    HW118083   4.095   2.616   4.838  2.3086 -1.6274  1.1240
 2149SOL    HW218084   4.161   2.728   4.777 -0.0113  0.5222 -1.5521
 2150SOL     OW18085   0.613   1.655  10.403 -0.2741  0.3520 -0.1268
 2150SOL    HW118086   0.529   1.623  10.370 -0.4903 -0.0780  0.8417
 2150SOL    HW218087   0.652   1.572  10.429 -0.2089  0.8302  1.2913
 2151SOL     OW18088   4.328   3.833  10.036 -0.4101  0.1717 -0.3626
 2151SOL    HW118089   4.423   3.825  10.028 -0.7022 -1.7827 -1.8740
 2151SOL    HW218090   4.297   3.798   9.952 -0.2877 -2.2278  0.6091
 2152SOL     OW18091   3.237   4.331   3.024  0.2478 -0.0824  0.0510
 2152SOL    HW118092   3.263   4.309   2.935  0.0279  0.4066 -0.1362
 2152SOL    HW218093   3.232   4.426   3.015 -0.4149 -0.0269  0.9848
 2153SOL     OW18094   1.065   4.481  15.146  0.2396 -0.2779 -0.7170
 2153SOL    HW118095   1.051   4.557  15.089 -1.1484  0.0999  0.1291
 2153SOL    HW218096   1.135   4.434  15.101  1.5754  0.0741  1.0072
 2154SOL     OW18097   2.036   3.414   0.703 -0.0964  0.4124 -0.3617
 2154SOL    HW118098   2.105   3.453   0.756  1.9619 -1.9687 -1.2994
 2154SOL    HW218099   2.085   3.357   0.644 -2.6862 -1.6111 -0.5750
 2155SOL     OW18100   3.636   3.931  12.797  0.5459  0.3345 -0.1405
 2155SOL    HW118101   3.722   3.970  12.805  0.2896  0.7900  0.3832
 2155SOL    HW218102   3.632   3.965  12.708 -1.7795 -1.5507 -0.7895
 2156SOL     OW18103   0.414   0.361  16.648 -0.3983 -0.1889  0.5044
 2156SOL    HW118104   0.453   0.311  16.720 -2.0696 -1.9164  0.2080
 2156SOL    HW218105   0.332   0.395  16.684  0.4454  0.9126  1.4272
 2157SOL     OW18106   2.765   0.852  12.754 -0.1575  0.2004  0.2550
 2157SOL    HW118107   2.815   0.909  12.695 -1.6674  0.0063 -1.2243
 2157SOL    HW218108   2.750   0.918  12.822  0.6665 -0.4341  1.0598
 2158SOL     OW18109   0.021   2.396  17.714 -0.2098 -0.1180  0.2381
 2158SOL    HW118110   0.054   2.322  17.663  1.9040  1.1289 -0.1892
 2158SOL    HW218111   4.668   2.411  17.683  1.1655  1.8469 -2.7411
 2159SOL     OW18112   3.956   0.317  11.099  0.2543  0.1763 -0.2984
 2159SOL    HW118113   3.987   0.229  11.121 -0.0393 -0.1904 -1.3618
 2159SOL    HW218114   3.985   0.326  11.008 -0.9328 -1.3127 -0.8150
 2160SOL     OW18115   0.469   4.473   0.812  0.3776 -0.6441  0.1447
 2160SOL    HW118116   0.375   4.465   0.795 -0.0127 -1.3457  2.6551
 2160SOL    HW218117   0.495   4.382   0.826 -2.9959 -2.0511 -2.7522
 2161SOL     OW18118   0.840   1.069   9.083 -0.1256 -1.0302  0.1651
 2161SOL    HW118119   0.813   1.076   9.175  1.2981 -2.6224  0.7030
 2161SOL    HW218120   0.917   1.012   9.092  0.9058  0.4590  0.7260
 2162SOL     OW18121   4.643   3.652  17.584  0.0859  0.1265 -0.6928
 2162SOL    HW118122   4.591   3.582  17.624 -0.0022  0.6377  0.0928
 2162SOL    HW218123   4.587   3.685  17.514 -0.0355 -2.1234 -1.6423
 2163SOL     OW18124   1.828   1.898  12.892 -0.1253  0.0158 -0.3556
 2163SOL    HW118125   1.835   1.813  12.850 -1.6477  0.0922 -0.7508
 2163SOL    HW218126   1.917   1.907  12.927 -0.4476  0.5337  0.3380
 2164SOL     OW18127   2.444   4.658   4.432  0.0541 -0.1862 -0.1965
 2164SOL    HW118128   2.372   4.707   4.392 -1.1638 -0.5274  1.6060
 2164SOL    HW218129   2.516   4.705   4.390 -0.2137 -0.7809 -1.3077
 2165SOL     OW18130   2.975   3.945   3.503 -0.8455 -0.2320  0.1860
 2165SOL    HW118131   3.063   3.916   3.525 -1.4115 -0.6663  1.8640
 2165SOL    HW218132   2.987   3.958   3.408  1.7379  0.5057  0.6202
 2166SOL     OW18133   3.626   2.610   3.707  0.6355 -0.1816  0.3117
 2166SOL    HW118134   3.664   2.555   3.639  0.1425 -1.7120  1.2541
 2166SOL    HW218135   3.704   2.663   3.723  1.6955 -1.7950  0.4900
 2167SOL     OW18136   1.916   4.388   0.666  0.1420 -0.2122 -0.2974
 2167SOL    HW118137   1.895   4.469   0.713 -0.0026 -0.1123 -0.5318
 2167SOL    HW218138   1.960   4.431   0.592  0.1909  1.0647  0.4667
 2168SOL     OW18139   3.978   1.216   8.232  0.4765  0.4419  0.0027
 2168SOL    HW118140   3.907   1.246   8.175  0.3243  0.7065  0.3271
 2168SOL    HW218141   3.950   1.255   8.315 -1.6818  0.0879 -0.5556
 2169SOL     OW18142   0.964   3.106   3.007  0.2439 -0.1929 -0.2791
 2169SOL    HW118143   0.936   3.197   3.008  0.4869 -0.1433  1.0615
 2169SOL    HW218144   1.024   3.102   3.081 -0.6286 -0.8538  0.3953
 2170SOL     OW18145   4.077   4.043   0.319  0.0950 -0.2230 -0.5379
 2170SOL    HW118146   4.052   3.986   0.391  3.9896 -0.5009  0.6149
 2170SOL    HW218147   4.088   3.976   0.251  0.7092 -0.1451 -0.5143
 2171SOL     OW18148   1.817   1.137   2.989  0.2509 -0.4879 -0.1561
 2171SOL    HW118149   1.804   1.043   2.987  0.1253 -0.4640 -0.4991
 2171SOL    HW218150   1.902   1.145   3.034 -0.2412  0.0742  0.6868
 2172SOL     OW18151   3.966   4.456   3.316  0.2191  0.0524 -0.4387
 2172SOL    HW118152   3.997   4.541   3.285  0.2127  0.1898 -0.0745
 2172SOL    HW218153   3.909   4.430   3.245  1.5134 -0.2693 -1.3635
 2173SOL     OW18154   4.111   4.036   7.479 -0.0665 -0.4654 -0.3756
 2173SOL    HW118155   4.017   4.033   7.459 -0.1590  1.4652 -0.2568
 2173SOL    HW218156   4.135   3.943   7.475 -0.4213 -0.5375 -0.9371
 2174SOL     OW18157   3.428   1.481   6.095 -0.2161 -0.0540  0.7914
 2174SOL    HW118158   3.422   1.411   6.161 -0.3901 -0.3795  0.4261
 2174SOL    HW218159   3.380   1.553   6.136 -0.2059 -0.3052  1.2471
 2175SOL     OW18160   3.420   2.608  13.833  0.0918  0.3175 -0.4570
 2175SOL    HW118161   3.453   2.526  13.871  0.4675  0.9100  0.5134
 2175SOL    HW218162   3.462   2.670  13.894 -1.7065  1.1055 -0.0185
 2176SOL     OW18163   4.022   3.092   5.404 -0.1066 -0.0197 -0.2006
 2176SOL    HW118164   4.005   3.183   5.431  0.7709  0.1040 -0.0490
 2176SOL    HW218165   3.936   3.052   5.413 -0.3741  0.5925 -0.0223
 2177SOL     OW18166   1.027   1.336   7.490  0.0711 -0.2304 -0.0602
 2177SOL    HW118167   1.106   1.282   7.489  1.4265  1.7821 -0.1154
 2177SOL    HW218168   0.950   1.281   7.507 -0.5765  0.6816 -0.0642
 2178SOL     OW18169   4.236   3.773   4.750  0.5784  0.2093  0.1920
 2178SOL    HW118170   4.200   3.828   4.680 -1.6834 -2.1789 -0.5122
 2178SOL    HW218171   4.328   3.774   4.726  0.0983  1.5207 -1.5595
 2179SOL     OW18172   1.534   3.857   6.961 -0.2721  0.3311  0.2253
 2179SOL    HW118173   1.508   3.905   7.039  3.6528 -1.1316  2.4272
 2179SOL    HW218174   1.457   3.860   6.904 -0.2272 -3.2100  0.0025
 2180SOL     OW18175   4.324   4.580   3.263  0.1261  0.3381  0.0069
 2180SOL    HW118176   4.236   4.597   3.232 -0.4116 -0.7178  0.9555
 2180SOL    HW218177   4.308   4.572   3.357 -0.7904 -0.3685 -0.2117
 2181SOL     OW18178   2.949   3.985  12.003  0.4455  0.4081  0.2433
 2181SOL    HW118179   2.998   4.067  12.003 -0.7640  1.1409 -1.1299
 2181SOL    HW218180   3.008   3.934  11.947 -2.8228 -1.6946 -1.2721
 2182SOL     OW18181   4.486   2.209  16.424  0.2583  0.1094 -0.0399
 2182SOL    HW118182   4.410   2.218  16.367  2.0205 -0.0187 -2.4291
 2182SOL    HW218183   4.459   2.218  16.515  0.2063 -0.8597  0.0431
 2183SOL     OW18184   1.506   1.043   2.122  0.0271  0.3509 -0.8033
 2183SOL    HW118185   1.540   0.959   2.089 -0.4479 -0.7003  1.3441
 2183SOL    HW218186   1.438   1.053   2.056  0.3642 -0.1713 -1.2308
 2184SOL     OW18187   0.043   4.085   7.571 -0.1473 -0.3095 -0.0121
 2184SOL    HW118188   0.068   4.158   7.628 -2.0270  0.0544  0.3470
 2184SOL    HW218189   4.700   4.048   7.610 -0.0030  0.4030  0.9762
 2185SOL     OW18190   0.273   0.756   4.261 -0.9391  0.2930 -0.2642
 2185SOL    HW118191   0.236   0.810   4.192 -2.1238 -1.9579 -1.4106
 2185SOL    HW218192   0.313   0.689   4.205  0.6307  2.6733 -1.9931
 2186SOL     OW18193   1.310   2.186   2.003 -0.1071  0.6303 -0.4354
 2186SOL    HW118194   1.367   2.147   2.069  2.6117  2.2021 -1.8843
 2186SOL    HW218195   1.232   2.204   2.056  2.1027  1.7810  2.4194
 2187SOL     OW18196   3.495   1.295  12.210  0.3926  0.1488  0.4211
 2187SOL    HW118197   3.458   1.230  12.269  0.0050 -0.5798 -0.6275
 2187SOL    HW218198   3.584   1.301  12.243 -0.6796  0.0845  3.3027
 2188SOL     OW18199   1.138   4.279   4.775 -0.1457  0.1815  0.5186
 2188SOL    HW118200   1.192   4.358   4.780 -1.7537  1.2740  0.6026
 2188SOL    HW218201   1.065   4.295   4.835 -1.7594 -2.9485 -0.6119
 2189SOL     OW18202   1.616   0.363   3.040  0.0308  0.2692 -0.2798
 2189SOL    HW118203   1.542   0.309   3.067 -0.1939 -0.6952 -2.8115
 2189SOL    HW218204   1.604   0.378   2.946 -1.9119  3.0943  0.4242
 2190SOL     OW18205   2.982   1.501   2.302 -0.1877 -0.3112  0.8372
 2190SOL    HW118206   2.965   1.581   2.252  0.0926 -0.4385  0.5371
 2190SOL    HW218207   3.056   1.467   2.252  0.0833  1.7725 -0.1903
 2191SOL     OW18208   4.426   1.010   9.316  0.3050 -0.0156 -0.0710
 2191SOL    HW118209   4.413   0.999   9.222 -3.0740  2.1177  0.1313
 2191SOL    HW218210   4.491   0.942   9.329 -0.2717 -0.1991  1.8714
 2192SOL     OW18211   3.154   3.161   0.200 -0.7228  0.2368 -0.4182
 2192SOL    HW118212   3.143   3.102   0.274  0.6791  1.7323  0.9737
 2192SOL    HW218213   3.154   3.248   0.240 -0.5252  0.8069 -1.6482
 2193SOL     OW18214   3.714   2.579   5.418 -0.1833 -0.2887  0.5122
 2193SOL    HW118215   3.668   2.612   5.495 -0.6757  0.6522 -0.1813
 2193SOL    HW218216   3.693   2.486   5.419  0.9453 -0.5643 -1.1819
 2194SOL     OW18217   1.354   1.087   6.736  0.2882 -0.0767  0.7743
 2194SOL    HW118218   1.297   1.042   6.673 -0.9006  1.3013  0.8800
 2194SOL    HW218219   1.396   1.023   6.793  0.9852  0.1069  0.4759
 2195SOL     OW18220   4.551   3.168   9.364  0.0939  0.3542 -0.4483
 2195SOL    HW118221   4.524   3.188   9.274 -3.5059 -1.1039  0.3454
 2195SOL    HW218222   4.468   3.193   9.404  0.6218  0.3235  0.6772
 2196SOL     OW18223   2.404   4.502   4.656 -0.0586 -0.0050  0.3505
 2196SOL    HW118224   2.413   4.580   4.601  3.3913 -0.1289  0.7291
 2196SOL    HW218225   2.414   4.434   4.589 -0.1944  1.4756 -1.1846
 2197SOL     OW18226   1.828   4.200   6.972 -0.8439  0.1049  1.0299
 2197SOL    HW118227   1.752   4.177   6.918  0.3516 -0.4579 -0.4108
 2197SOL    HW218228   1.900   4.153   6.929  0.0062  0.4687  2.0663
 2198SOL     OW18229   0.770   4.205  12.607 -0.4929  0.5644 -0.2312
 2198SOL    HW118230   0.734   4.126  12.566  0.1431 -0.4992  1.2871
 2198SOL    HW218231   0.834   4.221  12.537  0.1626 -0.9317  0.0005
 2199SOL     OW18232   2.577   3.807   3.746 -0.3261  0.5031  0.0929
 2199SOL    HW118233   2.670   3.813   3.725 -0.6572  0.2086 -1.4320
 2199SOL    HW218234   2.577   3.741   3.816  0.1812  2.6576  2.1180
 2200SOL     OW18235   0.638   2.695  15.093 -0.1110  0.2741  0.3235
 2200SOL    HW118236   0.602   2.683  15.005 -0.4140 -0.6678  0.5712
 2200SOL    HW218237   0.704   2.625  15.102 -1.9482 -1.5895 -0.6712
 2201SOL     OW18238   3.104   1.089  15.445  0.1808  0.0488 -0.1945
 2201SOL    HW118239   3.093   0.999  15.477 -0.9116 -0.2302 -1.3508
 2201SOL    HW218240   3.017   1.100  15.407  0.6354  3.5578 -0.1317
 2202SOL     OW18241   4.724   2.050   2.555  0.3071 -0.3709  0.2048
 2202SOL    HW118242   0.060   2.113   2.557 -0.2330  0.2235  1.0318
 2202SOL    HW218243   4.735   2.017   2.644 -1.2716  0.6954  0.7957
 2203SOL     OW18244   3.528   4.166   4.740  0.0377  0.3176  0.0744
 2203SOL    HW118245   3.478   4.234   4.695  0.8269  0.2597 -0.8750
 2203SOL    HW218246   3.605   4.216   4.764 -0.9356  2.0717 -0.4948
 2204SOL     OW18247   2.730   3.754   9.262  0.4356  0.0225 -0.2427
 2204SOL    HW118248   2.642   3.790   9.251  0.8748  1.4276  0.8380
 2204SOL    HW218249   2.777   3.811   9.201  0.0794  1.0556  0.4504
 2205SOL     OW18250   0.655   3.582   5.163 -0.1432 -0.1062  0.0662
 2205SOL    HW118251   0.645   3.655   5.101  0.2359 -0.9193 -0.9413
 2205SOL    HW218252   0.704   3.628   5.231 -0.9328 -1.2747  1.4318
 2206SOL     OW18253   0.112   1.752   2.712 -0.0151  0.1380 -0.5892
 2206SOL    HW118254   0.074   1.825   2.760  0.1870  0.9640 -1.6846
 2206SOL    HW218255   0.115   1.683   2.778  2.5246 -1.3598 -2.2488
 2207SOL     OW18256   3.187   1.466  10.770  0.6976 -0.3019  0.1447
 2207SOL    HW118257   3.240   1.459  10.690  0.8385  0.2840  0.1851
 2207SOL    HW218258   3.149   1.380  10.783 -1.9927  0.9211  0.2774
 2208SOL     OW18259   0.218   2.723   4.918  0.4004 -0.0784  0.2986
 2208SOL    HW118260   0.180   2.806   4.888  2.3345  0.5921 -0.2797
 2208SOL    HW218261   0.154   2.689   4.980 -0.0868 -0.0295 -0.1709
 2209SOL     OW18262   4.185   2.147  16.738 -0.0157  0.0310  0.2854
 2209SOL    HW118263   4.150   2.161  16.650  0.5436 -2.0037 -0.2688
 2209SOL    HW218264   4.154   2.058  16.756 -0.1389 -0.2840 -1.4344
 2210SOL     OW18265   3.704   3.654  10.893  0.2591 -0.5977  0.2142
 2210SOL    HW118266   3.654   3.649  10.811  0.8071  3.4678 -0.3915
 2210SOL    HW218267   3.747   3.569  10.899 -2.5147 -2.1326 -1.8235
 2211SOL     OW18268   1.662   4.274   1.959  0.3826 -0.1861 -0.1897
 2211SOL    HW118269   1.615   4.336   1.903  2.1372  0.9912 -0.3328
 2211SOL    HW218270   1.584   4.233   1.996 -0.0865 -0.3310 -1.3346
 2212SOL     OW18271   3.888   1.184  13.235 -0.2663 -0.2855  0.0491
 2212SOL    HW118272   3.835   1.110  13.264 -1.7890  1.5664  1.9405
 2212SOL    HW218273   3.971   1.142  13.211 -1.8566 -2.4114 -1.7553
 2213SOL     OW18274   0.395   3.447   6.535  0.0117  0.1638  0.2090
 2213SOL    HW118275   0.401   3.368   6.483  0.6959  1.5529 -1.8091
 2213SOL    HW218276   0.304   3.453   6.567 -0.8799  0.1818 -2.3563
 2214SOL     OW18277   4.532   0.879   4.611 -0.0251 -0.3211 -0.1129
 2214SOL    HW118278   4.441   0.852   4.627 -0.4692  0.8335 -0.7450
 2214SOL    HW218279   4.527   0.972   4.591  1.1132 -0.3514 -0.5894
 2215SOL     OW18280   1.320   4.006   1.518  0.3704 -0.3176 -0.3112
 2215SOL    HW118281   1.343   4.096   1.538  1.7768 -0.7833  0.1828
 2215SOL    HW218282   1.394   3.976   1.465  0.5210  0.3842 -0.4951
 2216SOL     OW18283   0.828   1.281   0.548  0.3423 -0.6065  0.0341
 2216SOL    HW118284   0.735   1.304   0.543  0.5402  0.3935  1.0553
 2216SOL    HW218285   0.852   1.304   0.459 -1.9974  0.8944 -0.2264
 2217SOL     OW18286   1.605   0.789   1.478  0.6594  0.2082 -0.2522
 2217SOL    HW118287   1.550   0.860   1.512  2.4531  0.5663  1.8906
 2217SOL    HW218288   1.615   0.807   1.385  0.1095 -1.6761 -0.6747
 2218SOL     OW18289   2.482   1.615   2.867  0.4217 -0.5928  0.2530
 2218SOL    HW118290   2.473   1.625   2.772 -3.4977  1.1794  0.8217
 2218SOL    HW218291   2.476   1.708   2.886  1.2083 -0.5647  0.3545
 2219SOL     OW18292   4.359   1.613  17.208 -0.3963 -0.4621 -0.0002
 2219SOL    HW118293   4.314   1.696  17.218 -3.1687 -1.4780 -3.9097
 2219SOL    HW218294   4.381   1.624  17.115  1.4956 -1.3950  0.3377
 2220SOL     OW18295   3.599   3.123   4.229  0.1265 -0.6570  0.5960
 2220SOL    HW118296   3.571   3.195   4.173  1.7405  0.2670  0.9754
 2220SOL    HW218297   3.522   3.069   4.211 -0.7559  0.8041  0.0700
 2221SOL     OW18298   2.427   1.875  10.920 -1.0169  0.3729  0.5054
 2221SOL    HW118299   2.433   1.963  10.882  3.0285 -0.4663 -0.7860
 2221SOL    HW218300   2.415   1.894  11.013  0.3368  0.4323  0.6679
 2222SOL     OW18301   1.297   2.510   0.260  0.0314 -0.2302  0.6076
 2222SOL    HW118302   1.230   2.493   0.194  0.1408 -0.2321  0.4953
 2222SOL    HW218303   1.317   2.419   0.281 -0.4764 -0.5768 -0.4158
 2223SOL     OW18304   1.061   1.140   4.500 -0.6225  0.1075  0.1889
 2223SOL    HW118305   1.071   1.120   4.593  1.2658 -0.6519 -0.1686
 2223SOL    HW218306   1.061   1.051   4.465  0.1715 -0.6547  2.1361
 2224SOL     OW18307   4.159   2.511   6.598  0.5338 -0.0311 -0.0003
 2224SOL    HW118308   4.073   2.468   6.601  0.3487  0.3013 -0.4790
 2224SOL    HW218309   4.174   2.492   6.506  0.1894  1.2845 -0.3372
 2225SOL     OW18310   3.296   1.829   3.103 -0.3681 -0.0435 -0.1356
 2225SOL    HW118311   3.363   1.866   3.160 -2.0464  0.4304  1.5335
 2225SOL    HW218312   3.337   1.783   3.030  0.1505 -2.1267  1.4634
 2226SOL     OW18313   4.503   1.523  11.672 -0.4604  0.0814 -0.3572
 2226SOL    HW118314   4.566   1.463  11.632 -2.2165 -1.3743 -0.8972
 2226SOL    HW218315   4.544   1.510  11.758  1.0520 -1.1916 -1.2763
 2227SOL     OW18316   2.328   4.461   6.849 -0.8488  0.1629 -0.5412
 2227SOL    HW118317   2.305   4.548   6.817  1.5192  0.7866 -0.5143
 2227SOL    HW218318   2.237   4.436   6.867 -1.5915  0.5747 -3.8015
 2228SOL     OW18319   0.516   3.067   4.500  0.2926  0.0218  0.2088
 2228SOL    HW118320   0.511   2.972   4.516 -0.6668 -0.2268 -1.5986
 2228SOL    HW218321   0.537   3.103   4.587 -1.3380  1.0642  0.1763
 2229SOL     OW18322   0.504   2.298  15.197 -0.0853  0.2748  0.3103
 2229SOL    HW118323   0.478   2.333  15.112 -0.6450  2.2551  1.2935
 2229SOL    HW218324   0.453   2.217  15.193  1.5663 -0.7162 -0.9361
 2230SOL     OW18325   0.110   2.592   6.791  0.0105 -0.1168  0.0554
 2230SOL    HW118326   0.174   2.617   6.858 -1.0257  1.4980  0.4343
 2230SOL    HW218327   0.055   2.670   6.792  2.2759  1.4978 -0.7742
 2231SOL     OW18328   2.026   3.424   7.375  0.1384 -0.8997  0.1268
 2231SOL    HW118329   1.985   3.338   7.363  0.6076 -0.6225 -3.2563
 2231SOL    HW218330   2.085   3.405   7.448 -0.3721 -1.5557  0.3698
 2232SOL     OW18331   3.897   2.910  16.619  0.3001  0.0035  0.4714
 2232SOL    HW118332   3.857   2.836  16.572 -0.8819  0.3347  0.9569
 2232SOL    HW218333   3.910   2.978  16.553  0.4937 -0.1389  0.3632
 2233SOL     OW18334   1.312   2.804  13.303 -0.1330  0.4555 -0.7519
 2233SOL    HW118335   1.339   2.858  13.377  1.7132 -0.0298 -1.0627
 2233SOL    HW218336   1.382   2.739  13.297 -0.6008 -0.2233  1.0166
 2234SOL     OW18337   0.494   2.743   8.326 -0.2852  0.4485  0.0422
 2234SOL    HW118338   0.521   2.745   8.418  2.5261  0.9003 -0.7804
 2234SOL    HW218339   0.408   2.784   8.333 -0.5521  0.1160 -1.2544
 2235SOL     OW18340   4.432   3.430   9.975 -0.1904 -0.3448 -0.1188
 2235SOL    HW118341   4.510   3.436   9.919 -0.6886  1.3411 -0.6406
 2235SOL    HW218342   4.388   3.348   9.951 -1.1373  0.5593 -1.4846
 2236SOL     OW18343   2.050   4.323   5.416 -0.1630 -0.4186  0.0350
 2236SOL    HW118344   2.125   4.352   5.364  0.7913  0.1235  1.7250
 2236SOL    HW218345   2.069   4.360   5.502  1.7188 -3.9225  1.1533
 2237SOL     OW18346   0.736   2.883   2.656 -0.1306  0.1360 -0.6405
 2237SOL    HW118347   0.689   2.861   2.737  0.7158 -0.1123 -0.2140
 2237SOL    HW218348   0.819   2.915   2.693 -0.1656  1.1424 -1.4427
 2238SOL     OW18349   4.672   0.056   1.637  0.5339  0.0583 -0.1292
 2238SOL    HW118350   4.663   0.042   1.731 -3.3765  0.5979 -0.4326
 2238SOL    HW218351   4.622   0.137   1.631 -0.5637 -0.3950  3.1377
 2239SOL     OW18352   3.028   4.383  15.939 -0.2646 -0.3250 -0.5475
 2239SOL    HW118353   3.119   4.353  15.938  0.2834  1.4169 -1.7352
 2239SOL    HW218354   2.982   4.356  16.019 -1.0287 -0.8780 -1.1748
 2240SOL     OW18355   1.652   1.659  13.840 -0.7898  0.2591 -0.4049
 2240SOL    HW118356   1.586   1.687  13.903 -1.0435 -1.6383  0.1561
 2240SOL    HW218357   1.601   1.673  13.761 -0.0439  0.8548 -0.7855
 2241SOL     OW18358   0.659   0.042   7.611  0.3805  0.0445  0.2632
 2241SOL    HW118359   0.627   0.130   7.630  1.3345  0.0649  1.7853
 2241SOL    HW218360   0.585   0.008   7.560  1.6813 -0.6949 -1.1244
 2242SOL     OW18361   1.360   2.921   2.315 -0.4631  0.0369  0.4192
 2242SOL    HW118362   1.360   2.889   2.405 -2.5869  2.1186  1.1554
 2242SOL    HW218363   1.321   2.854   2.260 -0.1024  0.3936 -0.2832
 2243SOL     OW18364   0.352   3.484  10.615  0.3550  0.0310  0.3083
 2243SOL    HW118365   0.339   3.549  10.683  4.4672 -0.4243  1.5098
 2243SOL    HW218366   0.426   3.526  10.573 -2.1387 -0.2693 -4.4239
 2244SOL     OW18367   2.526   4.360   2.142 -0.8038  0.0764 -0.3632
 2244SOL    HW118368   2.569   4.311   2.072  0.7225  0.6095  0.2077
 2244SOL    HW218369   2.570   4.317   2.215  1.5053  2.1077 -0.5657
 2245SOL     OW18370   2.713   0.037   7.951  0.3912  0.1771  0.0218
 2245SOL    HW118371   2.627   0.023   7.911  0.6504 -0.3073 -0.3738
 2245SOL    HW218372   2.771   0.025   7.875  2.6308  2.6323  1.3381
 2246SOL     OW18373   0.094   1.536   2.206  0.3454  0.5587 -0.4617
 2246SOL    HW118374   0.176   1.491   2.182 -0.7679 -1.4089 -0.5859
 2246SOL    HW218375   0.023   1.494   2.158 -0.1619 -1.4442  2.0380
 2247SOL     OW18376   4.250   4.482   5.090 -0.3545 -0.1789  0.3028
 2247SOL    HW118377   4.277   4.477   5.182 -1.4042 -0.2456  0.5976
 2247SOL    HW218378   4.189   4.408   5.094 -0.2182 -0.4792 -3.0897
 2248SOL     OW18379   3.188   2.882   0.131  0.5728 -0.5327  0.0046
 2248SOL    HW118380   3.220   2.971   0.140 -1.6497  0.1355  1.2265
 2248SOL    HW218381   3.139   2.874   0.049 -0.6391 -0.1902  0.6942
 2249SOL     OW18382   3.941   3.132   0.221 -0.4029  0.3452 -0.1139
 2249SOL    HW118383   3.945   3.038   0.204 -2.9110 -0.1236  1.9056
 2249SOL    HW218384   3.859   3.153   0.176 -1.2683  0.4403  1.5090
 2250SOL     OW18385   2.760   4.679   8.776 -0.6777  0.1150  0.1455
 2250SOL    HW118386   2.690   4.631   8.820  0.7620 -1.6595  0.5216
 2250SOL    HW218387   2.835   4.622   8.796 -0.2765 -0.0187 -1.7192
 2251SOL     OW18388   4.172   3.735   2.149  0.8482 -0.5742 -0.7220
 2251SOL    HW118389   4.141   3.810   2.098 -0.6788  0.4375  1.7027
 2251SOL    HW218390   4.183   3.786   2.229 -0.1536 -2.7801  0.7931
 2252SOL     OW18391   3.569   2.641  11.676  0.0644 -0.4075 -0.1480
 2252SOL    HW118392   3.536   2.728  11.699 -1.0938 -0.0799 -3.0254
 2252SOL    HW218393   3.482   2.605  11.659 -0.7612  1.4626  0.0981
 2253SOL     OW18394   3.574   0.726   3.814  0.1295 -0.3378 -0.6349
 2253SOL    HW118395   3.591   0.756   3.904 -3.0378  0.1878 -0.2352
 2253SOL    HW218396   3.551   0.635   3.835 -1.8730  0.2857 -0.1363
 2254SOL     OW18397   1.348   0.264   3.434 -0.6350 -0.5202  0.1050
 2254SOL    HW118398   1.274   0.324   3.439 -0.1952  0.0368 -0.0580
 2254SOL    HW218399   1.412   0.320   3.390 -0.3035 -2.9735 -2.5567
 2255SOL     OW18400   3.766   3.794  11.119  0.0794 -0.1871 -0.2493
 2255SOL    HW118401   3.675   3.824  11.126  0.0453 -0.2677 -0.3480
 2255SOL    HW218402   3.770   3.757  11.031 -0.3907  1.8296 -1.1161
 2256SOL     OW18403   0.024   2.249   5.303  0.0022  0.8410 -0.1924
 2256SOL    HW118404   0.024   2.305   5.381 -2.6158  0.7657 -0.1482
 2256SOL    HW218405   0.113   2.212   5.308 -1.2463 -2.1820 -0.1860
 2257SOL     OW18406   4.031   1.841  13.387  0.2945  0.0069  0.0811
 2257SOL    HW118407   4.026   1.788  13.307  0.5778  1.5611 -0.9576
 2257SOL    HW218408   4.107   1.800  13.428  0.7988 -0.1158 -0.9756
 2258SOL     OW18409   2.298   1.715  16.040  0.2760  0.0739 -0.0186
 2258SOL    HW118410   2.341   1.648  16.092  0.3555  0.7905  0.8282
 2258SOL    HW218411   2.350   1.713  15.960 -1.9603 -0.5188 -1.4628
 2259SOL     OW18412   2.675   2.057  15.694  0.3190  0.3042  0.0568
 2259SOL    HW118413   2.663   2.141  15.739  1.7436 -0.3423  1.6366
 2259SOL    HW218414   2.738   2.012  15.751  0.3513  0.8048  0.4223
 2260SOL     OW18415   2.128   3.549  16.224  0.1521 -0.0408 -0.6845
 2260SOL    HW118416   2.171   3.570  16.307  2.0210 -0.3598 -1.5993
 2260SOL    HW218417   2.039   3.528  16.255  0.4089 -1.0543 -0.6318
 2261SOL     OW18418   4.675   4.378  15.380  0.5054 -0.9048 -0.7355
 2261SOL    HW118419   0.013   4.437  15.382 -0.1067 -0.1787  1.0576
 2261SOL    HW218420   4.650   4.364  15.472 -0.8535 -2.9043 -1.4021
 2262SOL     OW18421   2.025   1.987   4.296  0.7966  0.8242  0.3413
 2262SOL    HW118422   2.019   2.079   4.321 -1.8283  0.8755 -0.4430
 2262SOL    HW218423   1.934   1.966   4.318  0.2795  3.7014  0.8698
 2263SOL     OW18424   1.254   3.661  11.152 -0.2039 -0.0931 -0.1493
 2263SOL    HW118425   1.303   3.677  11.071 -1.2776 -1.5864 -1.1050
 2263SOL    HW218426   1.286   3.740  11.195  0.4341 -0.5133  0.1315
 2264SOL     OW18427   2.021   0.421   5.204 -0.0022  0.0276 -0.0060
 2264SOL    HW118428   2.039   0.343   5.151  1.4768  0.3881 -0.0140
 2264SOL    HW218429   2.011   0.380   5.290 -0.7111  4.0968  1.8311
 2265SOL     OW18430   4.150   3.304   9.267 -0.2032 -0.5991 -0.3903
 2265SOL    HW118431   4.175   3.289   9.176 -1.1936 -0.0105 -0.7576
 2265SOL    HW218432   4.198   3.240   9.319 -1.3273 -0.0816  1.2835
 2266SOL     OW18433   0.511   3.143   8.555 -0.2045 -0.1162  0.3881
 2266SOL    HW118434   0.481   3.173   8.642 -0.3158 -0.2313  0.3894
 2266SOL    HW218435   0.592   3.106   8.590 -0.8443 -0.7467  1.2004
 2267SOL     OW18436   0.374   3.171   0.213  0.3137 -0.2016  0.1969
 2267SOL    HW118437   0.355   3.141   0.302  0.2453  0.6570  0.4748
 2267SOL    HW218438   0.393   3.090   0.166  1.8738  0.1401  0.2574
 2268SOL     OW18439   1.976   0.584   6.214 -0.2138 -0.0661  0.2506
 2268SOL    HW118440   2.030   0.518   6.171  0.5021  0.5319  0.2153
 2268SOL    HW218441   1.916   0.524   6.258  1.8511 -1.2667  1.4410
 2269SOL     OW18442   2.106   2.026   2.808 -0.2378 -0.2912  0.1066
 2269SOL    HW118443   2.062   1.992   2.730 -0.3409 -1.2649  0.5926
 2269SOL    HW218444   2.092   2.121   2.803  0.9740 -0.0812  0.7450
 2270SOL     OW18445   2.962   1.266   9.514 -0.4954 -0.2102  0.3466
 2270SOL    HW118446   2.966   1.311   9.429 -0.7615 -0.3872  0.2414
 2270SOL    HW218447   3.049   1.292   9.545 -0.3333 -1.1172  0.6498
 2271SOL     OW18448   0.801   2.822   2.406 -0.1259 -0.5428  0.1875
 2271SOL    HW118449   0.767   2.859   2.487 -1.8507  0.5836 -1.0431
 2271SOL    HW218450   0.863   2.755   2.436 -1.1788 -1.4422  0.3494
 2272SOL     OW18451   2.593   3.715  11.746 -0.3703 -0.3547 -0.1888
 2272SOL    HW118452   2.590   3.808  11.767 -0.8373 -0.4743  0.2796
 2272SOL    HW218453   2.618   3.711  11.654 -0.8098  0.3012 -0.3384
 2273SOL     OW18454   2.018   0.549   5.840 -0.9312  0.9051  0.5531
 2273SOL    HW118455   2.041   0.509   5.923  0.9761  1.5158  0.3153
 2273SOL    HW218456   2.093   0.530   5.783 -0.4685  1.5325  0.9428
 2274SOL     OW18457   0.389   1.025  15.320 -0.1527  0.8355 -0.4193
 2274SOL    HW118458   0.430   1.111  15.311 -1.7824  1.4412 -2.0223
 2274SOL    HW218459   0.472   0.982  15.341 -1.0212 -0.3472  0.6163
 2275SOL     OW18460   0.922   1.726   2.198 -0.4252 -0.0874 -0.0049
 2275SOL    HW118461   0.857   1.712   2.267 -0.4555 -0.4259 -0.1041
 2275SOL    HW218462   0.992   1.664   2.218 -0.4983 -0.0012  0.5286
 2276SOL     OW18463   1.564   2.608   8.358  0.3279  0.0490  0.4763
 2276SOL    HW118464   1.577   2.606   8.263 -0.1493 -0.8712  0.4277
 2276SOL    HW218465   1.646   2.646   8.390  1.5615 -2.3632  0.1620
 2277SOL     OW18466   1.467   2.307   0.456 -0.0866  0.1101  0.3953
 2277SOL    HW118467   1.507   2.369   0.517  1.1949  1.0910 -1.4421
 2277SOL    HW218468   1.394   2.276   0.510  0.9207  0.7549  2.1388
 2278SOL     OW18469   0.235   1.680   5.683 -0.1962  1.4759  0.4765
 2278SOL    HW118470   0.198   1.636   5.606 -0.4566 -1.6657  2.3760
 2278SOL    HW218471   0.151   1.707   5.721 -0.2199  0.9818  0.7742
 2279SOL     OW18472   2.886   2.661   5.602  0.1548  0.1488  0.2108
 2279SOL    HW118473   2.939   2.590   5.566 -0.7533  0.4550 -1.7315
 2279SOL    HW218474   2.866   2.714   5.525  0.4330  0.8603  0.6253
 2280SOL     OW18475   1.391   0.925   2.890 -0.1407  0.2609  0.0844
 2280SOL    HW118476   1.374   0.885   2.976  1.6304 -1.1082 -0.1947
 2280SOL    HW218477   1.449   0.862   2.846 -0.1898 -0.2692  0.7822
 2281SOL     OW18478   1.794   3.786   6.433  0.3504  0.2043 -0.4889
 2281SOL    HW118479   1.872   3.834   6.463 -0.9797  1.1648  1.4241
 2281SOL    HW218480   1.730   3.803   6.502 -0.6934 -0.1966 -1.3759
 2282SOL     OW18481   1.881   4.069  11.364 -0.2309 -0.1840  0.3646
 2282SOL    HW118482   1.811   4.072  11.430 -1.6935 -1.0825 -1.1714
 2282SOL    HW218483   1.959   4.046  11.416 -0.2976 -1.5534 -0.1426
 2283SOL     OW18484   1.012   4.156   4.505 -0.2769  0.4656  1.0078
 2283SOL    HW118485   0.984   4.137   4.595 -0.8762  0.6717  0.8605
 2283SOL    HW218486   0.975   4.242   4.488 -0.3614  0.6926  2.2997
 2284SOL     OW18487   4.379   0.050   5.595 -0.0332  0.5113 -0.1908
 2284SOL    HW118488   4.439   0.122   5.576 -0.8096  0.4695 -2.6835
 2284SOL    HW218489   4.308   0.105   5.629  1.0198  1.9724 -0.3569
 2285SOL     OW18490   2.394   3.442   6.111 -0.8200  0.3338 -0.0186
 2285SOL    HW118491   2.397   3.511   6.044 -4.6231 -0.6112 -1.1270
 2285SOL    HW218492   2.483   3.415   6.085 -0.2041  0.6113  1.8056
 2286SOL     OW18493   0.392   4.365   6.987  0.2140  0.1072 -0.5303
 2286SOL    HW118494   0.433   4.381   6.902 -0.8004  1.3179 -0.7954
 2286SOL    HW218495   0.429   4.425   7.052  1.6291 -1.6480  0.2808
 2287SOL     OW18496   3.879   4.118   7.358  0.2560  0.4881  0.4373
 2287SOL    HW118497   3.811   4.058   7.389 -1.5187  2.3445  0.0786
 2287SOL    HW218498   3.895   4.079   7.272 -0.8242 -1.9258  1.3220
 2288SOL     OW18499   3.266   2.900   2.336 -0.3851  0.0750  1.3104
 2288SOL    HW118500   3.215   2.866   2.410 -3.4423  1.8724  0.0507
 2288SOL    HW218501   3.202   2.912   2.265 -0.9700  1.3309  2.0515
 2289SOL     OW18502   4.345   1.154  14.893  1.1164 -0.3605  0.9438
 2289SOL    HW118503   4.350   1.221  14.825 -0.0679 -0.3502  0.8612
 2289SOL    HW218504   4.324   1.079  14.837 -3.5071  0.8960  1.0082
 2290SOL     OW18505   1.711   0.599   8.640 -0.2304 -0.3840 -0.2514
 2290SOL    HW118506   1.688   0.691   8.654 -0.7298 -0.5180 -0.2026
 2290SOL    HW218507   1.783   0.613   8.578 -3.0489  0.4338 -3.3440
 2291SOL     OW18508   0.855   4.000  16.943 -0.3400  0.1574  0.0353
 2291SOL    HW118509   0.795   3.978  17.014  0.1556 -0.7298  0.1898
 2291SOL    HW218510   0.890   4.077  16.987  0.1973  0.8104 -1.5520
 2292SOL     OW18511   2.609   3.450   2.607  0.0263  0.0418 -0.2603
 2292SOL    HW118512   2.704   3.451   2.621 -0.3077  3.1997  1.9854
 2292SOL    HW218513   2.588   3.378   2.666  2.2404  0.5484  1.1551
 2293SOL     OW18514   1.687   4.039  13.878 -0.3738  0.1191  0.0051
 2293SOL    HW118515   1.772   4.006  13.907  0.7488  2.3877 -0.7285
 2293SOL    HW218516   1.710   4.069  13.790  0.3546  0.2664  0.2473
 2294SOL     OW18517   0.078   2.525  10.207 -0.3535  0.4110 -0.0338
 2294SOL    HW118518   0.109   2.519  10.298  3.8248 -1.4016 -1.5609
 2294SOL    HW218519   0.140   2.590  10.173 -0.8037 -0.1547 -1.9248
 2295SOL     OW18520   0.252   4.295   3.701 -0.3326  0.1908 -0.3030
 2295SOL    HW118521   0.162   4.318   3.724 -0.5771  0.7734 -1.8176
 2295SOL    HW218522   0.251   4.311   3.606  1.1995 -0.9851 -0.5087
 2296SOL     OW18523   2.635   4.246   1.809 -0.5263 -0.0614 -0.1242
 2296SOL    HW118524   2.557   4.283   1.768  0.2437  0.3817 -1.1891
 2296SOL    HW218525   2.622   4.153   1.788  0.0850  0.1808 -1.5515
 2297SOL     OW18526   0.950   0.236   5.643 -0.8334 -0.0542 -0.1535
 2297SOL    HW118527   0.890   0.268   5.710 -0.5539  1.8229 -0.7994
 2297SOL    HW218528   0.885   0.220   5.575  1.4974  0.3684 -2.4790
 2298SOL     OW18529   2.469   2.668  16.218 -0.1705 -0.0370  0.3269
 2298SOL    HW118530   2.463   2.751  16.265 -1.4004 -1.7784  3.2839
 2298SOL    HW218531   2.556   2.639  16.247  0.8991  1.0594 -1.8029
 2299SOL     OW18532   3.826   0.828   2.537 -0.3833 -0.6306  0.2084
 2299SOL    HW118533   3.756   0.839   2.601 -0.2883 -0.0392  0.2167
 2299SOL    HW218534   3.901   0.826   2.596 -0.6762 -0.3284  0.5872
 2300SOL     OW18535   3.041   0.175   0.998  0.1144  0.5616  0.3265
 2300SOL    HW118536   2.979   0.163   1.069  1.6924 -0.0653  1.5810
 2300SOL    HW218537   2.989   0.186   0.918 -0.5041  1.2363  0.8231
 2301SOL     OW18538   3.828   1.615   3.982  0.7258 -0.0550  0.5581
 2301SOL    HW118539   3.789   1.702   3.993  0.4881  0.2965 -2.7750
 2301SOL    HW218540   3.804   1.590   3.892 -0.3012  0.7279  0.6140
 2302SOL     OW18541   4.524   1.041  10.233 -0.7563 -0.3313 -0.2387
 2302SOL    HW118542   4.446   1.069  10.280 -0.4930 -0.8213  0.4844
 2302SOL    HW218543   4.591   1.063  10.297 -1.8740  0.2647  0.7129
 2303SOL     OW18544   3.627   3.148   1.073  0.1091  0.3286 -0.1640
 2303SOL    HW118545   3.667   3.174   0.990 -1.6206 -0.5378 -1.2571
 2303SOL    HW218546   3.672   3.065   1.090 -0.6071 -0.0358 -0.0490
 2304SOL     OW18547   0.240   3.273   4.077 -0.4100 -0.4632  0.6162
 2304SOL    HW118548   0.309   3.209   4.060 -0.7209 -0.3169 -1.1908
 2304SOL    HW218549   0.210   3.256   4.167 -0.0434  1.8991  1.1777
 2305SOL     OW18550   0.118   2.279  14.537 -0.3623  0.2806  0.4303
 2305SOL    HW118551   0.145   2.355  14.485  0.0355  0.2412  0.5840
 2305SOL    HW218552   0.023   2.291  14.540 -0.2560  1.3223 -0.1316
 2306SOL     OW18553   2.316   1.570   2.317 -0.1709  0.1059 -0.1075
 2306SOL    HW118554   2.411   1.559   2.317 -0.1550  0.2383  0.1099
 2306SOL    HW218555   2.322   1.665   2.307  0.0391  0.1427  0.3635
 2307SOL     OW18556   0.164   2.215   6.611  0.4208 -0.2333 -0.5726
 2307SOL    HW118557   0.225   2.288   6.626 -1.4282  1.2542 -0.3266
 2307SOL    HW218558   0.134   2.221   6.521 -0.1922  0.0375 -0.3493
 2308SOL     OW18559   3.913   3.853   1.133 -0.6643  0.1532 -0.5100
 2308SOL    HW118560   3.866   3.816   1.059 -1.3592  0.5737 -0.2730
 2308SOL    HW218561   3.847   3.875   1.198 -0.9683  0.1745 -0.8233
 2309SOL     OW18562   1.351   1.846   0.693 -0.2647  0.2219 -0.1989
 2309SOL    HW118563   1.402   1.925   0.712  1.1124 -0.4781 -0.9505
 2309SOL    HW218564   1.284   1.851   0.760 -1.3812 -0.2234 -1.2899
 2310SOL     OW18565   3.949   0.083   6.089  0.1849  0.2526  0.2511
 2310SOL    HW118566   4.038   0.062   6.115  0.9010  0.7809 -1.7848
 2310SOL    HW218567   3.900   0.070   6.171 -0.8801  0.0267 -0.4228
 2311SOL     OW18568   3.634   1.292  12.551  0.1614 -0.3614  0.0106
 2311SOL    HW118569   3.577   1.294  12.629  2.0797  3.7259  1.3001
 2311SOL    HW218570   3.720   1.314  12.586 -0.0369  1.1445 -0.4667
 2312SOL     OW18571   0.852   3.265   3.815  0.6901  0.7009  0.4525
 2312SOL    HW118572   0.885   3.346   3.775  0.4593  1.0755  1.0189
 2312SOL    HW218573   0.928   3.239   3.867  0.7334 -1.3414 -0.6697
 2313SOL     OW18574   3.261   1.505   4.983 -0.4507  0.0427 -0.2198
 2313SOL    HW118575   3.236   1.430   4.929  1.5408 -0.9323  0.1940
 2313SOL    HW218576   3.193   1.566   4.955 -1.2426 -0.3229  0.9059
 2314SOL     OW18577   3.608   0.922   8.251  0.1304  0.0076 -0.0301
 2314SOL    HW118578   3.627   0.889   8.339 -3.3293  0.9125  1.0679
 2314SOL    HW218579   3.654   0.857   8.198 -1.6244 -0.6908 -0.6935
 2315SOL     OW18580   2.700   3.249  10.360 -0.0130  0.3456  0.0862
 2315SOL    HW118581   2.743   3.287  10.284  0.1043 -0.3257 -0.1867
 2315SOL    HW218582   2.729   3.313  10.425 -1.0583  0.0201  0.8803
 2316SOL     OW18583   3.144   3.502   2.233 -0.3137 -0.8752  0.4394
 2316SOL    HW118584   3.152   3.514   2.328 -0.7746 -1.2955  0.5274
 2316SOL    HW218585   3.179   3.414   2.223  0.6429 -0.3918 -0.5444
 2317SOL     OW18586   0.535   1.318   5.088  0.3442  0.4900  0.0584
 2317SOL    HW118587   0.605   1.276   5.039  0.1882 -0.3050  0.5175
 2317SOL    HW218588   0.543   1.289   5.179  0.2769 -0.0902 -0.1183
 2318SOL     OW18589   1.299   3.271  10.645 -0.4072  0.0254 -0.4105
 2318SOL    HW118590   1.324   3.336  10.711  0.3194 -1.4863  0.8030
 2318SOL    HW218591   1.387   3.235  10.634 -0.1031  0.6543 -0.0792
 2319SOL     OW18592   0.071   3.085   0.346 -0.3922 -0.1457 -0.7268
 2319SOL    HW118593   0.055   3.025   0.274 -0.2164 -0.1998 -0.7196
 2319SOL    HW218594   0.163   3.068   0.368 -1.1989  0.2258  2.9953
 2320SOL     OW18595   4.479   3.430  14.452 -0.4580  0.1144  0.3207
 2320SOL    HW118596   4.546   3.391  14.508  1.5690  0.8170 -1.6390
 2320SOL    HW218597   4.433   3.487  14.514 -3.0426 -0.5112 -1.0202
 2321SOL     OW18598   2.755   1.875   5.750 -0.2544 -0.0263 -0.5325
 2321SOL    HW118599   2.747   1.913   5.662  2.1342  2.1282  0.1708
 2321SOL    HW218600   2.827   1.925   5.790  1.0590 -1.7027 -0.7988
 2322SOL     OW18601   0.732   3.130   5.535  0.3631 -0.8137 -0.4753
 2322SOL    HW118602   0.754   3.165   5.449  2.5533 -0.0565  0.4080
 2322SOL    HW218603   0.763   3.195   5.598  0.3320 -0.8859 -0.3844
 2323SOL     OW18604   1.633   1.769  12.684  0.7985 -0.0998  0.0788
 2323SOL    HW118605   1.663   1.843  12.632  0.3480 -0.9987 -1.4706
 2323SOL    HW218606   1.719   1.730  12.700 -0.7814 -2.9580  1.6777
 2324SOL     OW18607   1.417   1.655   2.111  0.0648 -0.0786  0.0275
 2324SOL    HW118608   1.468   1.617   2.182  1.2881  0.1005 -0.7549
 2324SOL    HW218609   1.403   1.579   2.053  2.5012 -0.8157  0.4325
 2325SOL     OW18610   3.757   3.136   7.340  0.2175  0.3228  0.2097
 2325SOL    HW118611   3.813   3.187   7.398  1.6401  0.3463 -1.2202
 2325SOL    HW218612   3.687   3.202   7.337 -1.5489 -1.5031  1.0955
 2326SOL     OW18613   2.757   0.443   4.361  0.0407 -0.2168 -0.3925
 2326SOL    HW118614   2.670   0.426   4.325  0.0594 -0.4489 -0.3261
 2326SOL    HW218615   2.822   0.436   4.292  1.0998 -1.5874  0.7639
 2327SOL     OW18616   1.010   0.776   7.157  0.5279 -0.2427 -0.3703
 2327SOL    HW118617   0.927   0.741   7.126  0.6071 -0.4095 -0.3988
 2327SOL    HW218618   1.029   0.837   7.086  1.9184 -1.0669 -0.7188
 2328SOL     OW18619   3.192   0.416  11.899 -0.2234  0.4901  0.1968
 2328SOL    HW118620   3.175   0.459  11.816 -1.4803  1.8876  1.1772
 2328SOL    HW218621   3.280   0.444  11.921  0.4980 -2.6721  1.3673
 2329SOL     OW18622   3.020   1.333   4.301  0.0980 -0.1047  0.0531
 2329SOL    HW118623   3.003   1.331   4.207 -2.0794 -0.6623  0.4632
 2329SOL    HW218624   2.968   1.260   4.334 -0.4895  0.2825 -0.0248
 2330SOL     OW18625   3.342   2.327   9.653 -0.1624  0.3444  0.0499
 2330SOL    HW118626   3.282   2.312   9.726 -0.7578  0.8444 -0.3362
 2330SOL    HW218627   3.369   2.237   9.635  1.2445  0.8388 -0.3502
 2331SOL     OW18628   4.562   3.597   7.525  0.0670  0.1761  0.0784
 2331SOL    HW118629   4.591   3.507   7.536  1.6225  0.6064 -0.6006
 2331SOL    HW218630   4.643   3.638   7.495  0.3281 -1.0234 -0.8623
 2332SOL     OW18631   1.433   3.114  14.579  0.3566  0.0661  0.2504
 2332SOL    HW118632   1.492   3.169  14.631 -0.9077  0.9958  0.7262
 2332SOL    HW218633   1.425   3.158  14.495 -0.2212  1.1869  0.8872
 2333SOL     OW18634   1.956   3.274   6.703  0.5466  0.1590  0.1980
 2333SOL    HW118635   1.906   3.210   6.753 -1.2946  0.5273 -1.1819
 2333SOL    HW218636   2.002   3.219   6.641  0.8305 -0.7299  1.2003
 2334SOL     OW18637   1.325   2.134   8.808  0.2789 -0.1516  0.3004
 2334SOL    HW118638   1.381   2.057   8.811  1.1796  0.4136 -2.3419
 2334SOL    HW218639   1.288   2.144   8.896 -0.2077 -2.2193  0.3185
 2335SOL     OW18640   0.284   3.142   4.792 -0.1296  0.1437  0.2886
 2335SOL    HW118641   0.361   3.140   4.735 -0.8135  0.0896 -0.6358
 2335SOL    HW218642   0.269   3.236   4.799  1.3480  0.4066 -0.0836
 2336SOL     OW18643   3.491   0.031  16.066 -0.0727  0.3063 -0.6654
 2336SOL    HW118644   3.498   4.672  16.067  0.1426  0.3178 -1.4559
 2336SOL    HW218645   3.548   0.049  16.141 -1.3011  0.3224  0.2712
 2337SOL     OW18646   1.845   2.774  11.249 -0.5404 -0.5544 -0.2432
 2337SOL    HW118647   1.767   2.829  11.238 -1.3402 -1.7854 -0.8248
 2337SOL    HW218648   1.904   2.817  11.187  1.6118 -0.4697  1.8928
 2338SOL     OW18649   4.205   2.727   7.812 -0.0443  0.1035 -0.4796
 2338SOL    HW118650   4.161   2.660   7.865  0.7133 -1.2358 -1.5298
 2338SOL    HW218651   4.267   2.668   7.768 -0.1118 -0.3644  0.0486
 2339SOL     OW18652   4.627   0.429  11.157  0.6283 -0.5782 -0.5151
 2339SOL    HW118653   4.616   0.508  11.210 -0.3128 -2.0209  1.4404
 2339SOL    HW218654   4.714   0.394  11.178  1.2976  0.2077 -1.9850
 2340SOL     OW18655   1.100   3.091   0.175  0.2076 -0.3158 -0.3160
 2340SOL    HW118656   1.164   3.143   0.126  1.0865 -0.8427  0.2778
 2340SOL    HW218657   1.038   3.157   0.205 -0.2906 -0.5457 -0.8489
 2341SOL     OW18658   0.144   4.405   0.462  0.5879 -0.5691 -0.1889
 2341SOL    HW118659   0.198   4.484   0.466 -0.7518  0.3414 -0.2242
 2341SOL    HW218660   0.208   4.357   0.515 -3.1853 -2.9153  2.2535
 2342SOL     OW18661   3.929   1.780   1.701  0.3026  0.2841  0.7950
 2342SOL    HW118662   3.870   1.734   1.641  1.5083 -1.1673  0.7196
 2342SOL    HW218663   3.874   1.793   1.778 -1.8262 -1.5935 -0.4197
 2343SOL     OW18664   2.565   0.171   6.946  0.1197  0.3812 -0.1610
 2343SOL    HW118665   2.590   0.134   7.031  0.9253  0.4061 -0.3923
 2343SOL    HW218666   2.521   0.251   6.974  0.5428  0.3852  0.4927
 2344SOL     OW18667   3.609   3.006   3.807 -0.7926 -0.3671 -0.3891
 2344SOL    HW118668   3.578   2.930   3.856 -3.8125  2.0193  1.4017
 2344SOL    HW218669   3.694   2.972   3.779  0.1638  1.9676 -0.3343
 2345SOL     OW18670   3.459   2.008   3.210  0.0124  0.8565  0.3964
 2345SOL    HW118671   3.506   2.025   3.128 -0.2633  1.9335  0.4622
 2345SOL    HW218672   3.398   2.082   3.203 -0.3347  0.5434  0.1385
 2346SOL     OW18673   4.042   4.476   7.735  0.0376 -0.9015 -0.3192
 2346SOL    HW118674   3.997   4.479   7.650 -0.3293  0.8612 -0.0643
 2346SOL    HW218675   4.123   4.426   7.723  0.5059 -0.5682  1.3935
 2347SOL     OW18676   0.151   1.346   5.722  0.2620 -0.1207 -0.0842
 2347SOL    HW118677   0.126   1.254   5.734 -0.6453  0.2078  0.5384
 2347SOL    HW218678   0.084   1.383   5.664  0.4206  0.1246 -0.1083
 2348SOL     OW18679   2.069   1.545   8.141  0.1770 -0.5495 -0.0984
 2348SOL    HW118680   2.018   1.465   8.132 -1.7318  0.5269  1.2381
 2348SOL    HW218681   2.140   1.526   8.079  0.5383  0.9137 -0.1202
 2349SOL     OW18682   0.116   4.568   5.295  0.4510  0.6061  0.3147
 2349SOL    HW118683   0.037   4.619   5.310  0.2830  0.2013  0.8279
 2349SOL    HW218684   0.115   4.525   5.381 -0.6726  0.6332  0.3165
 2350SOL     OW18685   1.812   2.030   9.890  0.5010 -0.3426  0.5176
 2350SOL    HW118686   1.856   2.022   9.974 -0.9265 -1.9117  1.1163
 2350SOL    HW218687   1.860   1.970   9.834 -0.1302 -2.5901  2.3938
 2351SOL     OW18688   1.193   0.909  13.236 -0.0243  0.3035  0.1052
 2351SOL    HW118689   1.187   0.866  13.321 -1.4471 -1.5316 -0.9089
 2351SOL    HW218690   1.288   0.920  13.238 -0.0200 -0.0073  1.7454
 2352SOL     OW18691   1.928   3.392  12.354 -0.2263 -0.2182 -0.0917
 2352SOL    HW118692   1.984   3.379  12.430 -1.5041 -2.2398  0.4887
 2352SOL    HW218693   1.952   3.308  12.315 -1.9163 -1.0847  0.7423
 2353SOL     OW18694   2.950   3.433   2.613  0.0620 -1.0064  0.3158
 2353SOL    HW118695   3.032   3.436   2.563 -1.1123 -1.8582 -1.6543
 2353SOL    HW218696   2.947   3.525   2.639 -0.6342 -1.1754  0.8241
 2354SOL     OW18697   3.176   3.614   6.157 -0.3521  0.2687  0.4699
 2354SOL    HW118698   3.132   3.599   6.074 -0.8658  0.5016  0.7015
 2354SOL    HW218699   3.127   3.688   6.193 -2.7825 -1.8033  1.3389
 2355SOL     OW18700   4.503   1.902   7.518 -0.5628  0.4395 -0.0625
 2355SOL    HW118701   4.468   1.957   7.588  1.9045  1.5051  0.3688
 2355SOL    HW218702   4.435   1.836   7.529  0.0400 -0.0064  0.9914
 2356SOL     OW18703   3.092   2.295   5.077 -0.4752  0.3275  0.6283
 2356SOL    HW118704   3.040   2.369   5.106 -0.3952  1.1556 -1.3517
 2356SOL    HW218705   3.159   2.283   5.145 -0.5368  0.6857  0.7514
 2357SOL     OW18706   3.451   2.724   3.487  0.0624 -0.0440 -0.0387
 2357SOL    HW118707   3.534   2.726   3.535 -1.4961 -1.2439  2.6467
 2357SOL    HW218708   3.465   2.638   3.447  1.8986  0.5533 -0.7322
 2358SOL     OW18709   2.741   2.802   8.598 -0.6304 -0.6228 -0.2348
 2358SOL    HW118710   2.679   2.857   8.646 -0.3066 -0.8411  0.4409
 2358SOL    HW218711   2.827   2.842   8.611 -0.4116 -0.6819 -1.4966
 2359SOL     OW18712   4.486   4.244  17.365  0.6622 -0.7808  0.3930
 2359SOL    HW118713   4.561   4.298  17.339 -0.7589  0.1604 -1.7419
 2359SOL    HW218714   4.445   4.307  17.424  0.1710  0.2065 -0.9852
 2360SOL     OW18715   1.969   0.563  15.108 -0.2667  0.1117  0.3293
 2360SOL    HW118716   1.936   0.497  15.168  0.5535 -1.2332 -0.6893
 2360SOL    HW218717   1.992   0.513  15.029 -0.4988 -0.3890  0.5848
 2361SOL     OW18718   2.118   1.027   5.228  0.6446 -0.0725 -0.0820
 2361SOL    HW118719   2.145   1.006   5.138  0.7736  2.5524 -0.6497
 2361SOL    HW218720   2.188   0.985   5.277 -0.8007  0.5518  2.4790
 2362SOL     OW18721   1.052   3.927   5.219 -0.3199  0.2510  0.1885
 2362SOL    HW118722   1.144   3.934   5.242 -0.4394  2.5018 -0.0907
 2362SOL    HW218723   1.049   3.831   5.221 -2.3274  0.3055  0.1293
 2363SOL     OW18724   1.275   1.801  13.450  0.5820  0.3824 -0.7895
 2363SOL    HW118725   1.237   1.888  13.433 -1.7183 -0.6640 -1.0608
 2363SOL    HW218726   1.269   1.751  13.369  2.1573  0.0265 -0.6805
 2364SOL     OW18727   2.702   3.628  17.535  0.3570 -0.0364 -0.4694
 2364SOL    HW118728   2.738   3.539  17.532  3.3302  1.2627 -2.9332
 2364SOL    HW218729   2.747   3.657  17.614 -0.5260  0.4090 -0.1291
 2365SOL     OW18730   4.241   3.923   8.503 -0.2277  0.1007  0.6573
 2365SOL    HW118731   4.285   3.849   8.543  2.6526  0.6671 -1.4574
 2365SOL    HW218732   4.200   3.964   8.579 -0.6531  0.5969  0.1600
 2366SOL     OW18733   0.554   2.823   4.584 -0.1874 -0.1955  0.2711
 2366SOL    HW118734   0.588   2.733   4.587  1.4878  0.4316 -0.0583
 2366SOL    HW218735   0.465   2.804   4.616 -0.0113 -0.4177  0.6390
 2367SOL     OW18736   3.979   1.758   6.241  0.0215 -0.5807  0.2444
 2367SOL    HW118737   3.966   1.673   6.198  0.5712 -0.9651  0.8527
 2367SOL    HW218738   4.059   1.780   6.193 -0.5246 -0.5811 -0.6769
 2368SOL     OW18739   0.185   2.338   3.830 -0.1042  0.4284  0.0908
 2368SOL    HW118740   0.092   2.341   3.852  0.3033  0.1031  1.8577
 2368SOL    HW218741   0.176   2.385   3.747 -1.4238  0.7520  0.4228
 2369SOL     OW18742   1.257   1.574   7.928  0.2213  0.2291 -0.2880
 2369SOL    HW118743   1.219   1.491   7.956 -2.9417  0.8993 -2.5841
 2369SOL    HW218744   1.180   1.631   7.920  0.3431  0.6011  1.1597
 2370SOL     OW18745   1.551   4.579   7.421 -0.5277 -0.3810  0.0245
 2370SOL    HW118746   1.555   4.484   7.409  2.3545 -0.1669 -0.6602
 2370SOL    HW218747   1.457   4.598   7.421 -0.5197 -0.3393 -0.0770
 2371SOL     OW18748   2.217   4.074   6.337 -0.4422  0.4665  0.1667
 2371SOL    HW118749   2.195   4.002   6.397  2.3548  0.5464  1.3030
 2371SOL    HW218750   2.136   4.094   6.290 -2.0310 -1.7030  1.9696
 2372SOL     OW18751   1.847   0.353   6.070  0.6961  0.0309  0.6171
 2372SOL    HW118752   1.924   0.297   6.067  1.5824  1.2865 -0.4379
 2372SOL    HW218753   1.791   0.324   6.142 -1.3054 -2.0365 -1.7732
 2373SOL     OW18754   0.440   1.957  13.228 -0.5847  0.1487  0.3368
 2373SOL    HW118755   0.505   1.925  13.291 -2.2198 -0.0015  1.9480
 2373SOL    HW218756   0.492   1.981  13.151  0.3411  1.7730  1.4532
 2374SOL     OW18757   4.684   0.968   4.161  0.1696 -0.0363  0.0700
 2374SOL    HW118758   4.700   1.029   4.088  0.1388  1.0049  0.9266
 2374SOL    HW218759   0.035   0.961   4.201  0.9573  1.8079 -1.3240
 2375SOL     OW18760   3.244   3.714   6.901  0.3053 -0.5801 -0.3132
 2375SOL    HW118761   3.206   3.655   6.837 -1.2815 -1.2043  1.1954
 2375SOL    HW218762   3.302   3.658   6.952  0.9517 -0.6714 -1.1571
 2376SOL     OW18763   0.840   1.726   1.175  0.1721 -0.2589  0.5403
 2376SOL    HW118764   0.897   1.783   1.226  0.0138  0.1964  0.2057
 2376SOL    HW218765   0.794   1.794   1.125 -1.5556 -2.5219 -0.9563
 2377SOL     OW18766   0.221   0.910   4.011  0.3627  0.6765  0.2870
 2377SOL    HW118767   0.256   0.841   3.954  0.0406  2.7180 -2.4123
 2377SOL    HW218768   0.133   0.924   3.977  0.1789  0.8863  0.8481
 2378SOL     OW18769   2.435   3.073  10.733 -0.0093 -0.2922  0.0528
 2378SOL    HW118770   2.386   3.001  10.771  0.2756  0.0083  0.9770
 2378SOL    HW218771   2.434   3.039  10.643 -1.2121  1.3764 -0.5726
 2379SOL     OW18772   0.573   3.594   2.083  0.2128  0.2994  0.1728
 2379SOL    HW118773   0.510   3.662   2.105 -0.4551 -1.7332  4.5789
 2379SOL    HW218774   0.623   3.599   2.164  1.9830 -3.1027 -0.6943
 2380SOL     OW18775   0.261   0.257   4.105  0.1263  0.6291 -0.6061
 2380SOL    HW118776   0.207   0.233   4.180  0.4224  0.0138 -0.5878
 2380SOL    HW218777   0.214   0.335   4.077  0.0137  0.0996 -1.8849
 2381SOL     OW18778   0.290   1.247   3.254  0.3361 -0.1244 -0.6896
 2381SOL    HW118779   0.225   1.207   3.312 -0.6915  0.1479 -1.6677
 2381SOL    HW218780   0.260   1.237   3.164 -2.2503 -0.5619  0.2375
 2382SOL     OW18781   2.036   1.363   6.488  0.0282  0.0078 -0.0657
 2382SOL    HW118782   2.025   1.308   6.410 -1.4154  0.3219 -0.0899
 2382SOL    HW218783   2.073   1.442   6.447 -0.0517  0.6590  1.1219
 2383SOL     OW18784   1.813   1.869   2.398  0.3555 -0.8253 -0.0632
 2383SOL    HW118785   1.792   1.936   2.334 -3.2533 -0.5690  1.3997
 2383SOL    HW218786   1.733   1.877   2.450 -0.6618 -0.9522 -1.6162
 2384SOL     OW18787   3.639   4.439   1.501 -0.0922 -0.3667  0.4934
 2384SOL    HW118788   3.683   4.510   1.548  0.8445 -0.8044  0.2816
 2384SOL    HW218789   3.665   4.461   1.412  0.6647  0.9582  1.0456
 2385SOL     OW18790   0.143   3.349   6.893  0.4049  0.1348  0.5448
 2385SOL    HW118791   0.237   3.329   6.900  0.2878 -0.2169  1.0656
 2385SOL    HW218792   0.108   3.262   6.912 -0.1653 -0.9481 -5.3313
 2386SOL     OW18793   4.031   1.092   4.495  0.1922  0.5232  0.0913
 2386SOL    HW118794   4.004   1.083   4.404 -0.6649 -2.7801  0.6691
 2386SOL    HW218795   4.071   1.009   4.522  0.2383 -0.1475 -2.0857
 2387SOL     OW18796   3.245   1.033   4.504  0.2468 -0.4595 -0.2166
 2387SOL    HW118797   3.339   1.013   4.504  0.4283  0.4275  1.0916
 2387SOL    HW218798   3.251   1.107   4.443  0.9023  1.3739  2.0683
 2388SOL     OW18799   4.335   3.016  12.928 -0.2851  0.4197 -0.3311
 2388SOL    HW118800   4.244   3.025  12.956 -0.5951 -1.0504 -0.8774
 2388SOL    HW218801   4.345   3.091  12.871  0.1450  1.1305  0.6745
 2389SOL     OW18802   3.031   4.697   8.077  0.2990 -0.7599 -0.2542
 2389SOL    HW118803   2.956   4.733   8.125 -0.4894 -0.1629 -1.9257
 2389SOL    HW218804   3.029   4.602   8.091 -1.1077 -0.6622  0.2651
 2390SOL     OW18805   4.456   0.486   0.815 -0.4193  0.2791 -0.7312
 2390SOL    HW118806   4.415   0.429   0.880 -0.7623 -0.0265 -1.2206
 2390SOL    HW218807   4.407   0.567   0.824 -0.3520  0.3276 -0.8014
 2391SOL     OW18808   3.722   0.670  13.191  0.0893  0.6769 -0.0562
 2391SOL    HW118809   3.805   0.632  13.221  0.0428  0.3710 -0.3188
 2391SOL    HW218810   3.697   0.625  13.110 -1.3741 -0.0408  0.8193
 2392SOL     OW18811   0.952   2.518   5.292  0.3626 -0.0636 -0.2163
 2392SOL    HW118812   0.877   2.460   5.278 -0.4845  1.1405 -0.7052
 2392SOL    HW218813   0.920   2.580   5.358  1.4859  0.3208 -0.0275
 2393SOL     OW18814   0.174   2.623  17.448  0.3182 -0.4249 -0.3544
 2393SOL    HW118815   0.216   2.593  17.367  3.2182 -0.8826  1.3178
 2393SOL    HW218816   0.081   2.600  17.440 -0.1298  1.6576 -1.0896
 2394SOL     OW18817   1.852   1.530   4.407 -0.7504 -0.0610  0.1767
 2394SOL    HW118818   1.926   1.586   4.386  0.8793 -2.1226  0.4329
 2394SOL    HW218819   1.838   1.563   4.495  1.2552  1.9421 -0.2565
 2395SOL     OW18820   1.359   0.714   5.928 -0.4147 -0.7308  0.5454
 2395SOL    HW118821   1.425   0.661   5.883  0.5819  0.3182  0.7607
 2395SOL    HW218822   1.395   0.714   6.017  1.0214  1.4562 -0.0297
 2396SOL     OW18823   0.934   1.904   3.664 -0.0561  0.5670 -0.5781
 2396SOL    HW118824   0.859   1.958   3.638  0.3800  1.5041  0.1161
 2396SOL    HW218825   0.891   1.869   3.742  1.1559 -1.2678 -0.7573
 2397SOL     OW18826   3.904   1.725  11.324 -0.2838 -0.2063  0.2525
 2397SOL    HW118827   3.999   1.738  11.326 -0.3123  0.0660 -0.2251
 2397SOL    HW218828   3.910   1.660  11.255  0.7014  2.4198 -2.1428
 2398SOL     OW18829   1.608   4.170   6.798  0.1101 -0.1289  0.2178
 2398SOL    HW118830   1.622   4.251   6.749  0.4108 -0.4485 -0.2254
 2398SOL    HW218831   1.579   4.113   6.726 -1.9245  1.2054 -0.0065
 2399SOL     OW18832   1.056   2.504  17.293  0.1308  0.2049 -0.0600
 2399SOL    HW118833   1.029   2.589  17.258  1.2314  0.0953 -1.1569
 2399SOL    HW218834   0.984   2.479  17.352  0.1444 -1.7507 -0.8800
 2400SOL     OW18835   2.195   2.581   6.035  0.5437  0.3088 -0.5125
 2400SOL    HW118836   2.267   2.602   5.975 -0.8829  1.4289 -1.8547
 2400SOL    HW218837   2.220   2.626   6.115 -2.1831 -0.4864  0.7773
 2401SOL     OW18838   4.019   4.708  15.968  0.1731  0.8099  0.1060
 2401SOL    HW118839   3.951   4.705  15.900  1.0411  0.1835 -0.7377
 2401SOL    HW218840   3.970   4.692  16.048 -0.1484 -0.6653 -0.3891
 2402SOL     OW18841   0.403   2.534   3.481 -0.0542 -0.2055  0.2223
 2402SOL    HW118842   0.413   2.606   3.543  2.8466 -1.5764  1.3135
 2402SOL    HW218843   0.451   2.463   3.523 -0.0125 -0.6804 -0.6467
 2403SOL     OW18844   2.918   3.919   0.787  0.7432 -0.7074 -0.7469
 2403SOL    HW118845   3.009   3.924   0.815  0.3991 -0.4724  0.3193
 2403SOL    HW218846   2.913   3.969   0.705 -0.3146 -3.2069 -2.2175
 2404SOL     OW18847   3.875   3.286   9.663 -0.2032  0.1649 -0.0028
 2404SOL    HW118848   3.934   3.290   9.739  0.9416 -2.6609 -0.7651
 2404SOL    HW218849   3.848   3.195   9.669  0.5282 -0.2825 -3.4645
 2405SOL     OW18850   2.841   2.148   3.545  0.5170 -0.1602 -0.6868
 2405SOL    HW118851   2.793   2.079   3.500 -1.4311 -0.0067  1.1361
 2405SOL    HW218852   2.915   2.097   3.578  0.6383 -0.0083 -0.7237
 2406SOL     OW18853   4.298   0.534   7.231 -0.3879  0.2773  0.0870
 2406SOL    HW118854   4.226   0.481   7.264  0.8006 -2.8793 -2.4108
 2406SOL    HW218855   4.241   0.581   7.171 -0.9348  1.6200  1.6466
 2407SOL     OW18856   1.603   3.635  17.285 -0.0524  0.6704  0.3084
 2407SOL    HW118857   1.634   3.587  17.361 -0.3223  1.9600  1.2351
 2407SOL    HW218858   1.522   3.682  17.305  0.2106  2.4334 -2.7193
 2408SOL     OW18859   2.729   3.713   6.070  0.3593 -0.1092  0.0783
 2408SOL    HW118860   2.753   3.671   5.987  0.8312 -0.8994  0.6092
 2408SOL    HW218861   2.720   3.635   6.125  0.9836 -0.2236  0.0147
 2409SOL     OW18862   1.264   2.017   5.190 -0.4091  0.3187  0.2909
 2409SOL    HW118863   1.326   1.953   5.227 -0.3933  0.6326  0.8015
 2409SOL    HW218864   1.198   2.026   5.259  0.3182 -0.3044  1.0777
 2410SOL     OW18865   0.345   3.783   2.077 -0.1187 -0.2883 -0.1949
 2410SOL    HW118866   0.285   3.787   2.152 -0.8201  0.3945 -0.8038
 2410SOL    HW218867   0.332   3.871   2.043  0.0521  0.2895  1.2401
 2411SOL     OW18868   3.449   1.052   6.202 -0.5164  0.0069  0.2799
 2411SOL    HW118869   3.404   0.993   6.141  1.0682 -1.4116  0.4978
 2411SOL    HW218870   3.376   1.112   6.220 -0.8239  0.4011 -2.2593
 2412SOL     OW18871   1.195   1.327  14.717 -0.0603  0.1724 -0.2592
 2412SOL    HW118872   1.248   1.380  14.777 -0.6749 -1.1298  1.4180
 2412SOL    HW218873   1.113   1.342  14.764 -1.0100  0.5214 -2.0013
 2413SOL     OW18874   2.129   1.522   7.697 -0.3056 -0.2973 -0.2545
 2413SOL    HW118875   2.034   1.512   7.691 -0.6309  2.1251  0.7523
 2413SOL    HW218876   2.135   1.610   7.659 -0.6484  0.1883  0.8146
 2414SOL     OW18877   1.572   2.153   3.039  0.3849 -0.0969 -0.2645
 2414SOL    HW118878   1.528   2.233   3.065  0.5578 -0.3519  0.8151
 2414SOL    HW218879   1.545   2.087   3.103  1.6967  1.1082  1.5026
 2415SOL     OW18880   4.658   3.428   0.672  0.5009  0.6419  0.2187
 2415SOL    HW118881   4.722   3.476   0.621 -1.2784  0.5185 -2.1162
 2415SOL    HW218882   4.615   3.379   0.602  0.5204  0.0271  0.6299
 2416SOL     OW18883   2.267   1.107   0.871 -0.1024  0.3470  0.0238
 2416SOL    HW118884   2.287   1.181   0.814 -3.3656 -0.0685 -1.6512
 2416SOL    HW218885   2.173   1.104   0.854 -0.6507 -0.2434  3.0148
 2417SOL     OW18886   3.172   0.087   0.273  0.5389  0.5221 -0.0100
 2417SOL    HW118887   3.120   0.013   0.243 -0.7298  1.3023  0.2538
 2417SOL    HW218888   3.108   0.123   0.335  1.0346  1.4526 -0.0268
 2418SOL     OW18889   4.729   0.572   4.177  0.5166  0.6648 -0.0914
 2418SOL    HW118890   4.705   0.603   4.265 -0.4271  0.4305 -0.2689
 2418SOL    HW218891   4.647   0.592   4.132  0.2409 -0.7393 -0.2170
 2419SOL     OW18892   2.990   1.893  13.017 -0.4523  0.7667 -0.2221
 2419SOL    HW118893   3.038   1.811  13.027 -1.0764  0.3472 -0.6269
 2419SOL    HW218894   3.039   1.943  12.952  0.0374 -2.0463 -2.0217
 2420SOL     OW18895   2.870   0.621   7.186  0.1382  0.0731  0.1804
 2420SOL    HW118896   2.837   0.640   7.098 -1.0672  0.8083  0.7922
 2420SOL    HW218897   2.795   0.591   7.238 -0.3510  1.0130  0.0217
 2421SOL     OW18898   3.374   1.629   4.440  0.3956  0.1982 -0.2466
 2421SOL    HW118899   3.380   1.653   4.533 -2.2395  2.2320 -0.5954
 2421SOL    HW218900   3.346   1.707   4.392 -1.4253 -1.8225 -2.4300
 2422SOL     OW18901   1.363   2.273  14.138  0.1130 -0.0422 -0.2896
 2422SOL    HW118902   1.362   2.297  14.045 -0.9633 -0.3696 -0.3686
 2422SOL    HW218903   1.269   2.260  14.152  0.6587 -4.7705 -0.9088
 2423SOL     OW18904   0.436   0.693  13.665  0.4490 -0.3647 -0.2013
 2423SOL    HW118905   0.503   0.625  13.657  0.4566 -0.4970  0.9167
 2423SOL    HW218906   0.462   0.752  13.594 -0.2041 -0.0193 -0.1539
 2424SOL     OW18907   2.133   1.015  16.484  0.3655  0.1548 -0.2184
 2424SOL    HW118908   2.067   0.986  16.420  0.5811 -0.2443 -0.2591
 2424SOL    HW218909   2.066   1.027  16.551 -1.2377  1.6795 -2.0826
 2425SOL     OW18910   1.552   4.231   5.004 -0.0347  0.5578 -0.0236
 2425SOL    HW118911   1.552   4.157   4.943 -0.6859  0.7156 -0.2134
 2425SOL    HW218912   1.538   4.301   4.940 -0.1605  0.0446 -0.5587
 2426SOL     OW18913   2.942   1.406   8.680 -0.0107 -0.0174  0.2272
 2426SOL    HW118914   2.907   1.318   8.697  0.3769 -0.3611 -0.7204
 2426SOL    HW218915   2.871   1.440   8.626 -0.4702  1.2459  1.6445
 2427SOL     OW18916   1.641   1.600   7.892  0.1331  0.4895  0.2083
 2427SOL    HW118917   1.674   1.618   7.804 -0.3842  1.1584  0.1503
 2427SOL    HW218918   1.569   1.662   7.901 -1.0091 -0.9645  1.2426
 2428SOL     OW18919   0.224   1.219   4.158 -0.6824 -0.1856 -0.4050
 2428SOL    HW118920   0.250   1.243   4.069  0.4513 -2.9687 -0.8197
 2428SOL    HW218921   0.131   1.239   4.162 -0.4861  0.7526 -0.6134
 2429SOL     OW18922   2.489   3.393   1.335  0.0867 -0.0632  0.4216
 2429SOL    HW118923   2.510   3.339   1.410  0.1179  0.2658  0.6483
 2429SOL    HW218924   2.575   3.432   1.321 -0.1630  0.4524  0.3073
 2430SOL     OW18925   0.558   3.779   1.822  0.4789 -0.2768 -0.0065
 2430SOL    HW118926   0.607   3.817   1.749 -0.9267 -0.9712 -1.3088
 2430SOL    HW218927   0.608   3.697   1.829  0.2012 -0.7970 -4.0759
 2431SOL     OW18928   0.918   3.584   3.397  0.4018  0.4516  0.3705
 2431SOL    HW118929   0.911   3.659   3.455  0.0236  0.4648  0.3100
 2431SOL    HW218930   0.985   3.623   3.341 -0.2721  1.7453  0.4561
 2432SOL     OW18931   2.770   2.161   7.608  0.1184  0.3150  0.1751
 2432SOL    HW118932   2.794   2.110   7.685  0.3183 -0.5557 -0.4612
 2432SOL    HW218933   2.702   2.111   7.562  2.4168 -2.2797 -0.3796
 2433SOL     OW18934   4.550   4.671   6.184 -0.4394  0.1024 -0.3647
 2433SOL    HW118935   4.641   4.663   6.213  0.3753 -1.6852 -3.3644
 2433SOL    HW218936   4.513   4.736   6.243 -0.2760  0.8956 -1.1308
 2434SOL     OW18937   1.540   0.610   5.745  0.3597 -0.0781 -0.2123
 2434SOL    HW118938   1.606   0.599   5.814 -0.8090 -0.2238  0.8617
 2434SOL    HW218939   1.593   0.667   5.688 -0.4383  0.1819 -0.6978
 2435SOL     OW18940   0.647   2.925   0.959  0.4398 -0.0027  0.6902
 2435SOL    HW118941   0.565   2.909   0.912  2.0496 -2.8069 -1.1296
 2435SOL    HW218942   0.690   2.987   0.901 -0.8022  1.8412  1.7226
 2436SOL     OW18943   3.863   3.049  12.886 -0.1313  0.0321  0.4101
 2436SOL    HW118944   3.929   3.015  12.826  1.4316 -1.2292  2.8532
 2436SOL    HW218945   3.847   2.973  12.941 -0.6286 -0.2554 -0.1298
 2437SOL     OW18946   1.219   1.254  16.578  0.2921  0.3310  0.1474
 2437SOL    HW118947   1.313   1.256  16.594  0.5143 -1.8791 -0.9373
 2437SOL    HW218948   1.211   1.324  16.513  0.0750 -0.4813 -0.6952
 2438SOL     OW18949   3.633   1.912   9.674  0.3717 -0.0625 -0.0719
 2438SOL    HW118950   3.713   1.941   9.718 -0.5822  2.1254  0.1920
 2438SOL    HW218951   3.622   1.825   9.714  1.1716 -0.9997 -1.8697
 2439SOL     OW18952   4.313   1.222  10.329 -0.4528  0.3913  0.4066
 2439SOL    HW118953   4.258   1.208  10.406 -1.3816  1.0277 -0.1457
 2439SOL    HW218954   4.338   1.314  10.343 -0.1335  0.3170  0.3381
 2440SOL     OW18955   3.176   2.719   6.441  0.9511  0.0057  0.6862
 2440SOL    HW118956   3.093   2.705   6.396  0.6187  0.3156  1.2109
 2440SOL    HW218957   3.215   2.631   6.440 -0.7777 -0.7438 -1.0783
 2441SOL     OW18958   2.212   2.051   3.075 -0.4909  0.2373  0.3092
 2441SOL    HW118959   2.153   2.023   3.005  0.4936  0.6108 -0.6484
 2441SOL    HW218960   2.271   2.111   3.030 -1.2148  0.3992 -0.4247
 2442SOL     OW18961   0.041   1.682   2.443  0.2523 -0.0750 -0.1213
 2442SOL    HW118962   4.727   1.752   2.402  0.4431 -0.1102 -0.4116
 2442SOL    HW218963   0.052   1.716   2.531  0.0869 -0.6812  0.1390
 2443SOL     OW18964   4.241   1.425   8.474  0.0309  0.0051 -0.2453
 2443SOL    HW118965   4.259   1.460   8.387  0.3639  1.4876  0.4262
 2443SOL    HW218966   4.218   1.509   8.514 -1.2502  0.1981 -1.3777
 2444SOL     OW18967   1.353   0.009   5.029  0.6796  0.0858 -0.1300
 2444SOL    HW118968   1.300   4.666   5.028  0.5241  0.1805  0.4369
 2444SOL    HW218969   1.384   0.014   4.939 -2.6540  0.7578 -1.2193
 2445SOL     OW18970   1.364   2.182  14.844  0.6623 -0.1792  0.4456
 2445SOL    HW118971   1.411   2.153  14.922 -0.1766 -1.1286  0.5874
 2445SOL    HW218972   1.286   2.202  14.895  0.4613 -0.9525  0.4456
 2446SOL     OW18973   0.741   1.228   9.806 -0.0855  1.0216 -0.0389
 2446SOL    HW118974   0.692   1.214   9.887  0.5419 -1.1956 -0.0451
 2446SOL    HW218975   0.793   1.304   9.831 -1.7072  1.6479  1.4358
 2447SOL     OW18976   3.794   3.890  17.400  0.3399  0.1650 -0.4722
 2447SOL    HW118977   3.826   3.940  17.325  3.1383 -1.6531 -0.4825
 2447SOL    HW218978   3.832   3.802  17.393  0.9364  0.2831  1.2296
 2448SOL     OW18979   0.111   3.739  15.487  0.8487 -0.1283  0.2385
 2448SOL    HW118980   0.166   3.744  15.408 -0.5149 -0.8480 -0.7643
 2448SOL    HW218981   0.047   3.806  15.463 -0.6238 -1.5783  0.1850
 2449SOL     OW18982   0.240   0.511   4.472 -0.0530 -0.1472  0.3014
 2449SOL    HW118983   0.267   0.484   4.384  1.6977 -0.1858  0.8526
 2449SOL    HW218984   0.321   0.543   4.510 -0.9659  0.8116  1.4116
 2450SOL     OW18985   4.024   4.082   8.667 -0.7035 -0.3314 -0.3532
 2450SOL    HW118986   4.082   4.040   8.731  0.1381 -0.5250 -1.2446
 2450SOL    HW218987   3.958   4.120   8.726 -1.6457  0.7518 -2.1167
 2451SOL     OW18988   1.410   2.150   5.528 -0.1118 -0.3447 -0.2159
 2451SOL    HW118989   1.433   2.181   5.616 -0.9021 -0.7219  0.1135
 2451SOL    HW218990   1.480   2.091   5.501  1.4398  1.2487  0.3128
 2452SOL     OW18991   0.661   2.760   8.847  0.4247  0.0926 -0.0628
 2452SOL    HW118992   0.608   2.791   8.920 -0.4154  1.7130 -1.3609
 2452SOL    HW218993   0.740   2.728   8.890 -0.2029  0.2369  1.1775
 2453SOL     OW18994   3.150   2.528   5.931  0.1477  0.5785 -0.2876
 2453SOL    HW118995   3.117   2.444   5.963 -0.4414  1.0459  0.3311
 2453SOL    HW218996   3.062   2.566   5.937 -0.2513 -0.4119  0.1885
 2454SOL     OW18997   2.298   0.924  15.981  0.2200  0.9410  0.2765
 2454SOL    HW118998   2.381   0.952  16.018  0.2437 -1.0875  1.7617
 2454SOL    HW218999   2.274   0.887  16.065 -0.8617  1.2804  0.1168
 2455SOL     OW19000   2.420   0.858   9.221 -0.5830 -0.1767  0.5880
 2455SOL    HW119001   2.354   0.892   9.281 -0.8823  1.3901 -0.6375
 2455SOL    HW219002   2.363   0.842   9.145 -0.0770  0.9438 -0.0326
 2456SOL     OW19003   2.311   3.076   8.969 -0.5300  0.3254  0.6914
 2456SOL    HW119004   2.263   3.108   8.893 -0.2353 -0.7149  0.0621
 2456SOL    HW219005   2.364   3.152   8.992 -0.2541  0.6370 -0.9946
 2457SOL     OW19006   2.882   4.286   3.279 -0.1405 -0.1491 -0.0474
 2457SOL    HW119007   2.938   4.209   3.267  0.3216  0.2841 -0.6745
 2457SOL    HW219008   2.953   4.348   3.295 -0.1188 -0.4238  0.8993
 2458SOL     OW19009   1.226   0.957  17.115  0.0099  0.1778  0.4417
 2458SOL    HW119010   1.312   0.935  17.078 -0.0779 -0.8605  0.8387
 2458SOL    HW219011   1.244   1.044  17.151 -0.4769  0.6696 -0.5064
 2459SOL     OW19012   4.115   2.680  11.935 -0.2025  0.1839  0.1848
 2459SOL    HW119013   4.044   2.667  11.872 -1.4150 -0.1656  1.6334
 2459SOL    HW219014   4.151   2.591  11.936 -0.6371  0.0152  0.6941
 2460SOL     OW19015   2.036   3.704   1.818  0.4583 -0.0890  0.0382
 2460SOL    HW119016   2.100   3.760   1.775  0.5192 -2.2563 -2.7262
 2460SOL    HW219017   2.032   3.637   1.750  2.1618  0.3259 -0.4607
 2461SOL     OW19018   1.020   3.803   5.542  0.0827  0.5178  0.0485
 2461SOL    HW119019   1.094   3.864   5.546  0.7302 -0.1957 -1.2594
 2461SOL    HW219020   0.999   3.788   5.634  1.2185 -1.4614 -0.0103
 2462SOL     OW19021   4.216   1.812   6.737  0.0476 -0.1974  0.1976
 2462SOL    HW119022   4.159   1.836   6.811  0.5390 -3.3226  1.5709
 2462SOL    HW219023   4.154   1.837   6.668 -0.0230  1.0689  0.7283
 2463SOL     OW19024   1.812   1.724   8.333  0.2177  0.1644 -0.0596
 2463SOL    HW119025   1.771   1.785   8.395  0.8671 -1.1086  1.6091
 2463SOL    HW219026   1.760   1.646   8.352  0.0350  0.8062  2.1381
 2464SOL     OW19027   3.070   1.224   8.491  0.5125 -0.2633 -0.4611
 2464SOL    HW119028   3.013   1.172   8.548 -1.7083  1.4453 -1.1221
 2464SOL    HW219029   3.041   1.310   8.522 -0.2548  0.0667 -2.1222
 2465SOL     OW19030   0.685   2.142   7.363  0.0428  0.1655  0.2177
 2465SOL    HW119031   0.739   2.191   7.301 -0.1555  0.7807  0.5296
 2465SOL    HW219032   0.608   2.199   7.357  0.3711  0.3077 -2.3988
 2466SOL     OW19033   0.030   0.174   2.687  0.0380  0.2344  0.2029
 2466SOL    HW119034   0.077   0.252   2.717  3.4109 -2.1911  1.1912
 2466SOL    HW219035   0.077   0.115   2.745 -0.1811  1.2676  1.4535
 2467SOL     OW19036   0.284   3.730   6.562 -0.1742 -0.0438  0.0482
 2467SOL    HW119037   0.209   3.766   6.609 -0.5800 -1.1566  0.2609
 2467SOL    HW219038   0.253   3.640   6.567  0.0502 -0.1464 -0.4209
 2468SOL     OW19039   1.633   0.958  14.647  0.7620  0.7440 -0.1729
 2468SOL    HW119040   1.690   0.997  14.713  0.2778  1.7321 -0.3253
 2468SOL    HW219041   1.572   1.033  14.651 -0.0440  0.0240  1.1151
 2469SOL     OW19042   2.766   1.103   9.612 -0.6070  0.8660 -0.3656
 2469SOL    HW119043   2.704   1.074   9.546  0.8990  0.1829 -1.4887
 2469SOL    HW219044   2.828   1.158   9.565  1.2548 -1.7651 -1.0180
 2470SOL     OW19045   1.570   4.150   9.246 -0.5078  0.1270  0.1659
 2470SOL    HW119046   1.506   4.087   9.212  0.6046 -1.6588  1.3492
 2470SOL    HW219047   1.590   4.195   9.164  1.4045  0.8432  1.0368
 2471SOL     OW19048   1.110   0.374  10.118  0.6084 -0.2051 -0.4988
 2471SOL    HW119049   1.086   0.446  10.059 -1.3543  0.3589  0.9987
 2471SOL    HW219050   1.120   0.415  10.204  0.2032 -0.5465 -0.2889
 2472SOL     OW19051   4.588   4.117   3.419 -0.1993 -0.1762 -1.0985
 2472SOL    HW119052   4.594   4.078   3.506 -0.7639  2.8452  0.3249
 2472SOL    HW219053   4.682   4.134   3.412  0.2252 -1.1714  2.4384
 2473SOL     OW19054   2.441   1.339   2.005 -0.2172  0.0672  0.3948
 2473SOL    HW119055   2.442   1.247   2.030  1.0111  0.6955  2.6189
 2473SOL    HW219056   2.350   1.359   1.986  0.2220  1.9298  0.1672
 2474SOL     OW19057   1.217   3.892   5.959  0.0778  0.0015 -0.3977
 2474SOL    HW119058   1.307   3.904   5.929 -0.5245  1.4906 -1.6507
 2474SOL    HW219059   1.248   3.900   6.049  1.0050  3.3890 -0.9988
 2475SOL     OW19060   4.008   0.354   8.192  0.5352 -0.3835 -0.1678
 2475SOL    HW119061   4.025   0.363   8.098 -0.3281  0.1062 -0.2819
 2475SOL    HW219062   4.002   0.260   8.212 -0.4543 -0.2445  0.2028
 2476SOL     OW19063   1.211   3.787   2.210 -0.2656 -0.1499  0.4143
 2476SOL    HW119064   1.204   3.700   2.250 -0.7357 -1.2550 -2.0500
 2476SOL    HW219065   1.152   3.760   2.140  0.5944  1.7265 -1.0567
 2477SOL     OW19066   2.581   4.337   2.395 -0.0015 -0.1860 -0.3506
 2477SOL    HW119067   2.614   4.424   2.416  2.5753 -1.0310 -0.8709
 2477SOL    HW219068   2.649   4.278   2.430 -0.7388 -0.3313  0.8387
 2478SOL     OW19069   1.031   4.277   5.456 -0.3293  0.6296  0.0762
 2478SOL    HW119070   0.938   4.299   5.449 -0.1455  1.9975  1.8139
 2478SOL    HW219071   1.069   4.330   5.527 -0.0028 -0.0291  0.3885
 2479SOL     OW19072   3.897   3.561   7.955  0.1951 -0.2948  0.3412
 2479SOL    HW119073   3.938   3.623   8.015  0.6306  0.9152 -1.1790
 2479SOL    HW219074   3.970   3.505   7.928  1.1889  0.5772  1.2184
 2480SOL     OW19075   2.587   2.830   5.689  0.3494  0.2776  0.3780
 2480SOL    HW119076   2.504   2.832   5.736 -0.7246  0.9156 -1.5312
 2480SOL    HW219077   2.621   2.767   5.752  1.8993  1.2283  0.4965
 2481SOL     OW19078   2.659   0.892  16.748 -0.1276 -0.0940  0.0021
 2481SOL    HW119079   2.688   0.804  16.725  1.6568  0.5551 -0.2325
 2481SOL    HW219080   2.714   0.948  16.693 -0.9372  2.1334  1.4762
 2482SOL     OW19081   3.386   1.910   4.066  0.0141  0.3334 -0.0877
 2482SOL    HW119082   3.417   2.000   4.074  1.8641 -0.2193 -0.9548
 2482SOL    HW219083   3.365   1.885   4.156 -2.8374 -0.2976 -0.9431
 2483SOL     OW19084   0.993   4.145   3.374 -0.3933  0.2702 -0.6858
 2483SOL    HW119085   0.933   4.162   3.446  0.2414  0.0058 -0.1007
 2483SOL    HW219086   1.017   4.236   3.356 -0.8412  0.7601  1.2037
 2484SOL     OW19087   4.346   2.541   6.259 -0.5441 -0.0304  0.0644
 2484SOL    HW119088   4.334   2.632   6.234 -0.4538 -0.4811 -1.5814
 2484SOL    HW219089   4.260   2.499   6.257 -0.9574  0.6661  2.3245
 2485SOL     OW19090   2.838   1.054   6.110 -0.4550  0.1668 -0.0859
 2485SOL    HW119091   2.885   1.112   6.170 -0.5215  1.5821 -1.3904
 2485SOL    HW219092   2.825   1.105   6.029 -0.7139  0.0153 -0.1380
 2486SOL     OW19093   3.487   3.534  11.857  0.3067  0.0481 -0.2504
 2486SOL    HW119094   3.575   3.542  11.893 -0.3388 -0.0375  1.3550
 2486SOL    HW219095   3.488   3.439  11.844 -1.7551  0.1562 -1.2827
 2487SOL     OW19096   3.541   3.256   1.894  0.9247 -0.1254 -0.2659
 2487SOL    HW119097   3.471   3.296   1.843  0.1630 -0.3259  0.6199
 2487SOL    HW219098   3.486   3.211   1.959  1.3207  1.1313  0.9424
 2488SOL     OW19099   2.766   4.584  17.128  0.2609 -0.0013 -0.4231
 2488SOL    HW119100   2.851   4.546  17.146  0.5823  0.4594 -0.9493
 2488SOL    HW219101   2.757   4.585  17.032 -3.5716  0.6460 -0.0782
 2489SOL     OW19102   1.962   2.980   8.049 -0.1101 -0.8002  0.3829
 2489SOL    HW119103   1.927   2.909   8.103  0.8743  1.6258  4.1625
 2489SOL    HW219104   2.038   3.010   8.098  1.9185 -0.9894 -2.5817
 2490SOL     OW19105   0.294   3.078  16.914  0.2955  0.0257  0.1181
 2490SOL    HW119106   0.335   3.016  16.853  1.4134 -0.8808  1.7909
 2490SOL    HW219107   0.352   3.059  16.988  1.4276 -2.7026 -1.4586
 2491SOL     OW19108   3.929   2.285  10.428 -0.5921 -0.3886  0.5148
 2491SOL    HW119109   3.992   2.276  10.499  0.6479 -0.7935 -0.6320
 2491SOL    HW219110   3.945   2.374  10.398 -0.3783 -0.2766  0.9722
 2492SOL     OW19111   3.206   0.916   7.169  0.7330  0.4819 -0.2555
 2492SOL    HW119112   3.292   0.895   7.133  0.1822 -0.1077 -1.2402
 2492SOL    HW219113   3.165   0.977   7.108  0.1032 -1.2267 -1.5279
 2493SOL     OW19114   2.148   0.736  16.826 -0.7810  0.1801  0.1315
 2493SOL    HW119115   2.194   0.820  16.834  1.1539 -0.9325  0.4533
 2493SOL    HW219116   2.132   0.743  16.732  0.8267 -1.0568 -0.2289
 2494SOL     OW19117   1.182   2.914   6.005 -0.3228  0.0397  0.2931
 2494SOL    HW119118   1.160   2.881   6.092 -0.1147  0.0618  0.3528
 2494SOL    HW219119   1.237   2.848   5.963 -1.7059 -1.6323  1.1073
 2495SOL     OW19120   0.599   0.138  13.258  0.0359 -0.7059  0.1742
 2495SOL    HW119121   0.544   0.206  13.298 -2.1501 -0.6107 -2.9988
 2495SOL    HW219122   0.617   0.185  13.177  2.3838 -0.0773  1.0668
 2496SOL     OW19123   0.998   0.767   4.776  0.5655 -0.0695  0.2975
 2496SOL    HW119124   1.093   0.783   4.784  0.3583  2.0796 -1.4959
 2496SOL    HW219125   0.962   0.805   4.856 -1.7438 -1.0800 -0.2758
 2497SOL     OW19126   1.190   3.128   3.185 -0.3710  0.0110 -0.0911
 2497SOL    HW119127   1.222   3.163   3.268 -0.6796 -1.3967  0.6189
 2497SOL    HW219128   1.246   3.162   3.115  1.3016  0.1786  1.3160
 2498SOL     OW19129   3.315   0.854   5.414  0.7838  0.1499  0.0193
 2498SOL    HW119130   3.337   0.767   5.382  0.2842  0.3039 -0.7479
 2498SOL    HW219131   3.219   0.857   5.406  0.6937 -2.5219 -0.0809
 2499SOL     OW19132   1.230   1.455   8.978 -0.4414  0.1671 -0.8832
 2499SOL    HW119133   1.135   1.468   8.984 -0.5137 -0.0720 -1.5687
 2499SOL    HW219134   1.259   1.546   8.974  0.7056 -0.1246  0.8335
 2500SOL     OW19135   0.235   3.868  15.189 -0.2551  0.9318 -0.2206
 2500SOL    HW119136   0.173   3.939  15.203 -1.4043 -0.3358  1.0843
 2500SOL    HW219137   0.318   3.916  15.192 -0.3266  0.9258  2.3071
 2501SOL     OW19138   0.078   1.924   6.468  0.1573 -0.1027  0.3674
 2501SOL    HW119139   4.720   1.911   6.475  0.6576 -2.4793  2.5623
 2501SOL    HW219140   0.092   1.993   6.534  2.4161  1.1415 -1.4273
 2502SOL     OW19141   2.843   4.244  11.255 -0.2441  0.1316 -0.4790
 2502SOL    HW119142   2.866   4.332  11.283  0.8220 -0.5721  0.8606
 2502SOL    HW219143   2.891   4.195  11.323 -0.6497  1.6861  0.9323
 2503SOL     OW19144   2.346   4.520  12.305 -0.0881  0.0389  0.0266
 2503SOL    HW119145   2.281   4.478  12.361 -1.4118  1.9847 -0.0292
 2503SOL    HW219146   2.291   4.512  12.227 -0.7801 -3.3795  0.8711
 2504SOL     OW19147   3.845   2.909   3.724 -0.7095 -0.4623  0.1673
 2504SOL    HW119148   3.935   2.887   3.746  0.2130  2.7110 -0.4234
 2504SOL    HW219149   3.831   2.869   3.638  0.3701  1.0185 -0.6933
 2505SOL     OW19150   2.080   1.857   2.016  0.1719  0.0833 -0.3379
 2505SOL    HW119151   2.086   1.838   2.109 -1.1297 -1.9421 -0.6817
 2505SOL    HW219152   2.138   1.934   2.016 -0.5926  0.6590  0.9258
 2506SOL     OW19153   3.473   4.244   2.357 -0.5252  0.3397 -0.2056
 2506SOL    HW119154   3.455   4.303   2.430  0.7596  2.0364 -1.2785
 2506SOL    HW219155   3.556   4.271   2.317 -0.3631 -0.7305 -0.6098
 2507SOL     OW19156   0.242   0.667   4.879 -0.4176 -0.1081  0.3643
 2507SOL    HW119157   0.284   0.717   4.809  0.5765  0.1451  1.1470
 2507SOL    HW219158   0.156   0.709   4.887 -0.8187 -0.5790 -1.5912
 2508SOL     OW19159   0.303   2.676   5.748  0.1930 -0.1153 -0.0695
 2508SOL    HW119160   0.315   2.640   5.660 -0.5881  0.3852 -0.3732
 2508SOL    HW219161   0.302   2.771   5.734 -2.4401  0.0490  1.3369
 2509SOL     OW19162   3.650   0.142   1.150  0.5014  0.4442  0.2051
 2509SOL    HW119163   3.742   0.168   1.158  0.4000  0.2023  2.0863
 2509SOL    HW219164   3.617   0.222   1.109  0.1632 -0.5983 -1.5478
 2510SOL     OW19165   0.419   2.375   2.757 -0.7312  0.2471 -0.2141
 2510SOL    HW119166   0.454   2.442   2.698  0.5033 -0.0464  0.2004
 2510SOL    HW219167   0.332   2.364   2.717 -0.3434  0.1978 -1.0376
 2511SOL     OW19168   0.356   4.602  10.938 -0.2183  0.3297  0.3941
 2511SOL    HW119169   0.260   4.602  10.932 -0.1993 -2.3322  0.4912
 2511SOL    HW219170   0.374   4.693  10.912 -4.3283  1.2755  0.7543
 2512SOL     OW19171   3.526   4.334   9.455 -0.2426  0.1198  0.6323
 2512SOL    HW119172   3.593   4.401   9.472  0.6452 -0.1262 -1.8780
 2512SOL    HW219173   3.458   4.370   9.512  0.4483  2.0668  0.2445
 2513SOL     OW19174   2.350   2.802   4.839 -0.4317 -0.1836  0.6865
 2513SOL    HW119175   2.353   2.776   4.747  0.5479  0.0932  0.6416
 2513SOL    HW219176   2.433   2.848   4.849 -0.8224  0.6754 -0.0709
 2514SOL     OW19177   0.818   3.266   5.308 -0.1778  0.5277 -0.0109
 2514SOL    HW119178   0.896   3.225   5.269  0.0532  0.6583  0.3156
 2514SOL    HW219179   0.766   3.275   5.228  0.8503  3.0679 -0.3927
 2515SOL     OW19180   4.561   1.171   6.666  0.6216  0.5601 -0.3459
 2515SOL    HW119181   4.590   1.242   6.609  0.8727  0.3694 -0.4562
 2515SOL    HW219182   4.629   1.103   6.674 -1.1140 -1.2681 -1.1491
 2516SOL     OW19183   0.607   1.988  10.182 -0.0339  0.1738 -0.5483
 2516SOL    HW119184   0.643   1.903  10.159  0.6469 -0.1019  1.5681
 2516SOL    HW219185   0.566   2.026  10.103 -0.3123 -4.8597 -2.8247
 2517SOL     OW19186   2.285   2.451   2.462 -0.2101 -0.8440  0.3346
 2517SOL    HW119187   2.331   2.472   2.380 -0.1584  0.0629  0.5961
 2517SOL    HW219188   2.299   2.357   2.477 -2.4791 -1.2821 -0.2653
 2518SOL     OW19189   2.701   2.325   2.450  0.3023  0.1011  0.4969
 2518SOL    HW119190   2.619   2.282   2.475 -1.0200  1.9056 -0.7521
 2518SOL    HW219191   2.682   2.377   2.372  0.2189  0.5137  0.7946
 2519SOL     OW19192   1.537   1.226   0.026 -0.4649  0.0880 -0.1741
 2519SOL    HW119193   1.558   1.163   0.095  1.6849  0.7867 -0.1715
 2519SOL    HW219194   1.460   1.266   0.067 -0.9372 -0.9896 -0.0085
 2520SOL     OW19195   3.962   1.807   7.090  0.4807 -0.8444  0.2915
 2520SOL    HW119196   3.937   1.720   7.060 -2.0661  0.2231 -0.6852
 2520SOL    HW219197   3.920   1.859   7.022 -0.7184 -1.3006  0.6934
 2521SOL     OW19198   1.901   3.055   0.397  0.7307  0.4461 -0.1503
 2521SOL    HW119199   1.813   3.066   0.362 -0.2658 -0.5511  2.0388
 2521SOL    HW219200   1.905   3.145   0.431 -1.2916  0.6517 -0.4503
 2522SOL     OW19201   4.109   0.824   2.562 -0.8287  0.2720  0.3303
 2522SOL    HW119202   4.143   0.782   2.483  2.8167  0.4727  1.8124
 2522SOL    HW219203   4.176   0.889   2.580  1.8235 -1.8113 -2.0468
 2523SOL     OW19204   2.381   1.150   3.749 -0.1028  0.7078 -0.2613
 2523SOL    HW119205   2.427   1.234   3.752 -0.6801  0.9739  1.1585
 2523SOL    HW219206   2.355   1.135   3.840 -0.9586  0.2086 -0.5844
 2524SOL     OW19207   0.278   4.385  10.719 -0.1934  0.8576 -0.2860
 2524SOL    HW119208   0.331   4.436  10.657 -1.0013 -0.7888 -2.3167
 2524SOL    HW219209   0.244   4.456  10.773 -0.3269  0.9024 -0.4294
 2525SOL     OW19210   4.442   0.675   2.023  0.3154  0.0916  0.2521
 2525SOL    HW119211   4.358   0.634   2.003  1.3120 -2.0208  0.4286
 2525SOL    HW219212   4.423   0.755   2.072 -0.8895  0.1782 -0.3754
 2526SOL     OW19213   3.002   3.722   8.749 -0.2077 -0.2464  0.1542
 2526SOL    HW119214   3.084   3.733   8.702 -0.2682 -0.6649 -0.0531
 2526SOL    HW219215   3.033   3.687   8.833 -0.2504  0.9665  0.6733
 2527SOL     OW19216   4.309   4.134   3.679  0.1549 -0.3745  0.7206
 2527SOL    HW119217   4.228   4.144   3.728 -0.4454  1.4953 -0.6756
 2527SOL    HW219218   4.272   4.140   3.590  2.2250 -0.1542 -0.1350
 2528SOL     OW19219   3.001   0.312   2.738  0.2161  0.0357  0.0561
 2528SOL    HW119220   3.063   0.385   2.737  0.4753 -0.1984 -1.7762
 2528SOL    HW219221   3.053   0.240   2.703  0.0006 -1.0071  1.8987
 2529SOL     OW19222   3.980   0.241  15.888  0.0995  0.0069  0.3700
 2529SOL    HW119223   4.062   0.292  15.881  0.6636 -1.1372 -1.1880
 2529SOL    HW219224   3.974   0.217  15.980 -3.3576 -2.5404 -0.5314
 2530SOL     OW19225   4.487   0.875   0.628  0.3356 -0.1178 -0.0860
 2530SOL    HW119226   4.473   0.924   0.709 -0.6747 -0.5517  0.0072
 2530SOL    HW219227   4.456   0.941   0.567  0.7405  0.0771 -0.0780
 2531SOL     OW19228   2.551   1.211   8.695 -0.1347 -0.0649 -0.1935
 2531SOL    HW119229   2.558   1.231   8.788 -0.7017  0.7228 -0.3222
 2531SOL    HW219230   2.614   1.140   8.680  1.6653  1.4329  0.2272
 2532SOL     OW19231   3.424   3.314   3.408 -0.1364  0.1578  0.1943
 2532SOL    HW119232   3.366   3.305   3.332 -0.2637  1.6570  0.0987
 2532SOL    HW219233   3.479   3.389   3.384  1.6670 -1.5971 -1.0686
 2533SOL     OW19234   2.865   1.555   6.898 -0.6694 -0.2301  0.0183
 2533SOL    HW119235   2.869   1.550   6.802 -2.4483  1.4802 -0.1604
 2533SOL    HW219236   2.796   1.621   6.907  0.7869  1.4053 -0.9643
 2534SOL     OW19237   1.556   4.620  11.186 -0.2159  0.0750 -0.2558
 2534SOL    HW119238   1.647   4.591  11.176 -0.8115 -1.3129 -1.5807
 2534SOL    HW219239   1.561   4.714  11.201  1.3140  0.5070 -3.4901
 2535SOL     OW19240   2.364   4.734  10.070  0.0347  0.0450 -0.6291
 2535SOL    HW119241   2.459   4.729  10.061  0.1786  0.4849  0.6468
 2535SOL    HW219242   2.362   0.067  10.136 -4.4240 -1.2988  0.6690
 2536SOL     OW19243   4.612   4.215  12.103 -0.2881  0.9770  0.3043
 2536SOL    HW119244   4.541   4.154  12.122  0.2499 -0.1974 -1.5262
 2536SOL    HW219245   4.687   4.161  12.079 -0.6141  1.2969 -1.3833
 2537SOL     OW19246   0.673   0.350  16.913 -0.3650  1.2067 -0.1736
 2537SOL    HW119247   0.753   0.297  16.908 -1.9319 -1.0618 -1.3018
 2537SOL    HW219248   0.704   0.424  16.964  0.2177  0.0574  1.1600
 2538SOL     OW19249   3.178   3.693   1.620 -0.0658  0.1887 -0.3214
 2538SOL    HW119250   3.100   3.660   1.666  2.3814 -0.3295  3.4670
 2538SOL    HW219251   3.241   3.714   1.689  0.8642 -0.9842 -0.8235
 2539SOL     OW19252   3.223   2.462  12.618 -0.1788  0.2931 -0.0997
 2539SOL    HW119253   3.153   2.519  12.587 -0.8515 -0.2438  0.4457
 2539SOL    HW219254   3.289   2.497  12.559  1.5407  0.5598  1.9657
 2540SOL     OW19255   1.533   0.513   6.328 -0.3555  0.3880 -0.5560
 2540SOL    HW119256   1.517   0.521   6.234  2.6130  0.6053 -1.0376
 2540SOL    HW219257   1.456   0.557   6.365 -1.2520  0.1493 -2.1402
 2541SOL     OW19258   4.546   0.642   3.989  0.0876  0.6665 -0.6822
 2541SOL    HW119259   4.598   0.719   3.965 -0.9897  1.9746  1.2125
 2541SOL    HW219260   4.474   0.682   4.038  1.4316  1.8433  0.3604
 2542SOL     OW19261   3.574   3.771  15.107 -0.6225  0.0829  0.1030
 2542SOL    HW119262   3.613   3.722  15.035 -1.2285 -1.0005  0.5044
 2542SOL    HW219263   3.565   3.859  15.071  0.8851  0.5766  0.9278
 2543SOL     OW19264   1.267   3.597   3.042 -0.0808  0.0587  0.1478
 2543SOL    HW119265   1.231   3.612   2.955  2.4947 -0.4765 -0.9893
 2543SOL    HW219266   1.323   3.522   3.023  0.2256  0.1562  0.6656
 2544SOL     OW19267   1.248   2.799  15.101 -0.0185 -0.1030 -0.1853
 2544SOL    HW119268   1.332   2.755  15.087 -0.5307 -1.3968  0.7570
 2544SOL    HW219269   1.205   2.744  15.167 -2.6013  2.2427  0.0740
 2545SOL     OW19270   1.044   3.973  16.713  0.5713  0.3170  0.1481
 2545SOL    HW119271   0.971   3.983  16.773 -0.3133  0.5934 -0.9646
 2545SOL    HW219272   1.067   4.065  16.719 -2.3469  0.9798  0.7764
 2546SOL     OW19273   3.193   3.273  17.710  0.0945 -0.0131 -0.0678
 2546SOL    HW119274   3.206   3.200  17.650  1.3656 -0.0835  0.2929
 2546SOL    HW219275   3.187   3.231   0.051  2.0178  1.1736  0.6432
 2547SOL     OW19276   1.357   4.337   2.744  0.5848  0.0566  0.2113
 2547SOL    HW119277   1.411   4.323   2.666  0.2945 -3.1319  0.5966
 2547SOL    HW219278   1.356   4.433   2.740 -0.6597  0.0200 -0.5678
 2548SOL     OW19279   1.822   3.219   7.371 -0.2359  0.0185  0.5341
 2548SOL    HW119280   1.873   3.146   7.406 -2.7546 -0.6368  2.8710
 2548SOL    HW219281   1.797   3.268   7.450 -0.6443 -0.8323  0.9328
 2549SOL     OW19282   0.932   2.317   3.287  0.1889  0.5529 -0.2505
 2549SOL    HW119283   0.970   2.286   3.204  0.6361  0.9633 -0.1980
 2549SOL    HW219284   1.014   2.362   3.309  0.8947 -0.0422 -1.6583
 2550SOL     OW19285   0.785   2.267   3.540 -0.6209 -0.6829 -0.1982
 2550SOL    HW119286   0.832   2.262   3.456  1.2129  1.1887  0.7092
 2550SOL    HW219287   0.751   2.178   3.538  1.1085 -1.3974  2.6955
 2551SOL     OW19288   2.104   3.717   2.324  0.1732  0.5207 -0.2376
 2551SOL    HW119289   2.090   3.700   2.231 -0.8112 -2.7838  0.5206
 2551SOL    HW219290   2.067   3.634   2.353  1.2942  0.2524  0.4029
 2552SOL     OW19291   3.225   0.280   6.785  0.1385 -0.0205  0.0278
 2552SOL    HW119292   3.177   0.224   6.723  0.3816 -0.6134  0.3765
 2552SOL    HW219293   3.304   0.300   6.734 -1.0029 -0.2614 -1.8534
 2553SOL     OW19294   4.014   1.196  14.396  0.2925  0.1610 -0.9591
 2553SOL    HW119295   3.981   1.256  14.463 -0.0077  0.0670 -1.0195
 2553SOL    HW219296   4.065   1.139  14.453 -0.3265  2.3465  1.8255
 2554SOL     OW19297   1.993   3.472   2.747 -0.1289 -0.1543 -0.4574
 2554SOL    HW119298   1.958   3.515   2.669 -1.6564 -1.7103 -0.6299
 2554SOL    HW219299   2.024   3.552   2.791 -0.1233 -1.0698  1.2153
 2555SOL     OW19300   3.765   1.453   3.755  0.0669 -0.1775 -0.0865
 2555SOL    HW119301   3.805   1.427   3.672 -1.7222  1.0441 -1.3196
 2555SOL    HW219302   3.678   1.469   3.719 -0.5260 -3.2445 -0.0178
 2556SOL     OW19303   4.365   2.107  14.914 -0.1718 -0.4396 -0.2582
 2556SOL    HW119304   4.322   2.034  14.869 -1.6483 -1.5420  2.9445
 2556SOL    HW219305   4.426   2.129  14.843  0.3915 -0.5290  0.1969
 2557SOL     OW19306   3.407   0.194   5.925 -0.1378  0.3866 -0.0411
 2557SOL    HW119307   3.467   0.143   5.981  0.6536  0.0000 -1.2508
 2557SOL    HW219308   3.446   0.173   5.840 -2.1650 -0.2634 -0.7917
 2558SOL     OW19309   2.630   0.342   1.153 -0.5820 -0.8455  0.3063
 2558SOL    HW119310   2.567   0.312   1.087 -2.6710 -1.5336  2.6073
 2558SOL    HW219311   2.591   0.301   1.230 -1.7034 -0.5112 -0.0771
 2559SOL     OW19312   1.025   3.547   6.434  0.2626  0.2475 -0.2996
 2559SOL    HW119313   1.067   3.522   6.351 -0.6394  0.5331 -0.8449
 2559SOL    HW219314   0.997   3.635   6.410  0.6267  0.5509  0.3892
 2560SOL     OW19315   4.039   0.114  13.377 -0.3712  0.0024 -0.1722
 2560SOL    HW119316   4.019   0.103  13.284  0.8700 -1.7783 -0.2250
 2560SOL    HW219317   3.966   0.167  13.410  2.1921  1.3409  3.3081
 2561SOL     OW19318   0.750   1.062   7.093 -0.5719  0.2675  0.1223
 2561SOL    HW119319   0.798   1.059   7.011 -1.6201 -1.3332 -0.4346
 2561SOL    HW219320   0.673   1.118   7.083  0.0802  0.9841 -0.8867
 2562SOL     OW19321   1.237   0.080   7.969  0.7013  0.5505 -0.2432
 2562SOL    HW119322   1.230   0.171   7.938  0.8945  0.8006  0.4368
 2562SOL    HW219323   1.195   0.026   7.903 -0.7525  1.5503 -0.1343
 2563SOL     OW19324   3.574   0.215   4.761 -0.4597  0.4176 -0.3820
 2563SOL    HW119325   3.610   0.275   4.696 -0.2505  0.1906 -0.4753
 2563SOL    HW219326   3.497   0.176   4.720  0.0818 -0.6138 -0.4301
 2564SOL     OW19327   1.938   4.670   1.354 -0.1324 -0.0783  0.4456
 2564SOL    HW119328   1.971   0.023   1.346  0.7348 -0.3698  0.6485
 2564SOL    HW219329   1.976   4.624   1.278  0.6085  1.1504  0.0656
 2565SOL     OW19330   1.054   0.843   4.491 -0.3153 -0.0754 -0.3782
 2565SOL    HW119331   1.136   0.817   4.532 -0.8910 -0.7008  0.4043
 2565SOL    HW219332   1.047   0.773   4.425 -0.4741  1.0537 -1.5625
 2566SOL     OW19333   4.689   4.221   0.740 -0.0738 -0.2431  0.1121
 2566SOL    HW119334   4.671   4.196   0.649 -0.6569  0.1330  0.1274
 2566SOL    HW219335   0.011   4.154   0.775 -1.5252 -0.5312  1.9477
 2567SOL     OW19336   1.160   2.480   5.038 -0.1197  0.2653 -0.0678
 2567SOL    HW119337   1.166   2.416   5.109  3.1962 -0.4484 -1.0074
 2567SOL    HW219338   1.069   2.463   5.015  0.0564 -1.2053  0.3369
 2568SOL     OW19339   1.966   1.847   5.562  1.0051  0.1573 -0.4815
 2568SOL    HW119340   1.962   1.942   5.575 -0.6269  0.2189 -1.3838
 2568SOL    HW219341   2.020   1.820   5.636 -1.1342  0.5036  1.2366
 2569SOL     OW19342   2.918   2.569  15.503 -0.1040  0.0301 -0.3962
 2569SOL    HW119343   2.829   2.556  15.470  0.0731  0.4515 -1.0340
 2569SOL    HW219344   2.964   2.574  15.420 -2.0273 -3.0806 -1.6577
 2570SOL     OW19345   0.654   3.654   0.195  0.2335 -0.2714 -0.1232
 2570SOL    HW119346   0.570   3.685   0.162  0.8161  1.5348  0.0738
 2570SOL    HW219347   0.633   3.564   0.218  2.2621 -0.4220  1.1861
 2571SOL     OW19348   2.710   0.300   7.535  0.2687  0.4120 -0.0721
 2571SOL    HW119349   2.671   0.377   7.493  2.8892  1.4527 -0.6067
 2571SOL    HW219350   2.793   0.294   7.488 -0.4596  2.0243 -1.5824
 2572SOL     OW19351   0.815   4.215   3.582 -0.1619 -0.1851 -0.2191
 2572SOL    HW119352   0.749   4.184   3.644 -1.4155  1.6389 -0.6459
 2572SOL    HW219353   0.891   4.230   3.639  0.8242  1.0531 -1.8807
 2573SOL     OW19354   4.526   3.953   3.700 -0.4720  0.5511  0.1150
 2573SOL    HW119355   4.447   4.006   3.688 -1.8718 -1.0516  2.2746
 2573SOL    HW219356   4.552   3.974   3.790 -0.5905 -0.6976  0.4341
 2574SOL     OW19357   1.008   2.969   8.198 -0.0262  0.0307 -0.3183
 2574SOL    HW119358   0.942   2.900   8.202 -1.7877  1.5645 -2.5389
 2574SOL    HW219359   0.949   3.045   8.194  0.7661  0.4417 -4.2803
 2575SOL     OW19360   3.679   1.611  15.978 -0.5099  0.4132 -0.1997
 2575SOL    HW119361   3.606   1.659  15.937  0.0866  0.9595 -0.6244
 2575SOL    HW219362   3.703   1.666  16.053  0.2615  0.1984 -0.2994
 2576SOL     OW19363   1.015   1.816  11.914  0.0031  0.6425  0.2766
 2576SOL    HW119364   1.041   1.780  11.998 -1.0333  1.2181  0.8534
 2576SOL    HW219365   0.989   1.734  11.873 -1.6557  1.5544 -0.5370
 2577SOL     OW19366   3.848   2.463  13.169 -0.0255 -0.3501  0.0548
 2577SOL    HW119367   3.900   2.444  13.247  0.3616  0.5135  0.0070
 2577SOL    HW219368   3.905   2.523  13.122 -1.4040 -0.1616 -1.3876
 2578SOL     OW19369   0.559   2.662   1.803  0.0751 -0.2727 -0.1646
 2578SOL    HW119370   0.605   2.679   1.886  1.2071  0.3095 -0.9035
 2578SOL    HW219371   0.468   2.657   1.832  0.3275  1.2655  0.8822
 2579SOL     OW19372   0.329   2.896   6.718 -0.2636 -0.4946  0.6618
 2579SOL    HW119373   0.338   2.829   6.785 -1.4381 -2.4524 -1.1326
 2579SOL    HW219374   0.417   2.926   6.697 -0.2627 -2.0156 -1.4982
 2580SOL     OW19375   0.167   4.028   7.330 -0.2644 -0.1176 -0.1062
 2580SOL    HW119376   0.226   4.099   7.306 -1.5080  1.5474  1.7163
 2580SOL    HW219377   0.136   4.062   7.414 -0.8980 -1.6661  0.2820
 2581SOL     OW19378   1.693   2.036   1.026 -0.2970 -0.1826  0.7959
 2581SOL    HW119379   1.726   2.125   1.011 -0.8963  0.2359  1.9680
 2581SOL    HW219380   1.752   2.011   1.097  1.3288  0.6175 -0.2759
 2582SOL     OW19381   3.743   1.083   4.546  0.1654 -0.0788  0.4874
 2582SOL    HW119382   3.737   1.178   4.554  1.4936 -0.2667  3.5518
 2582SOL    HW219383   3.833   1.070   4.514 -0.5444 -0.7513 -1.2065
 2583SOL     OW19384   3.466   3.825  11.525  0.3952  0.2124 -0.1160
 2583SOL    HW119385   3.391   3.883  11.531 -0.1402 -0.4750 -0.2138
 2583SOL    HW219386   3.502   3.832  11.437 -1.2603 -1.4613 -0.9248
 2584SOL     OW19387   2.175   3.781  10.686  0.0243  0.1244 -0.7560
 2584SOL    HW119388   2.210   3.695  10.710  3.5827  1.5714 -0.7264
 2584SOL    HW219389   2.170   3.828  10.769 -1.4132  0.7297 -1.1965
 2585SOL     OW19390   3.159   0.274   4.214 -0.5283 -0.2064 -0.4486
 2585SOL    HW119391   3.246   0.279   4.174 -0.1553 -1.8592  0.1552
 2585SOL    HW219392   3.126   0.364   4.209  0.1292  0.0739  0.1757
 2586SOL     OW19393   1.930   3.852  11.680 -0.3950  0.2345 -0.2032
 2586SOL    HW119394   1.946   3.935  11.724 -1.8867  0.9943 -1.0870
 2586SOL    HW219395   1.998   3.847  11.612  1.0216  1.6220  1.1096
 2587SOL     OW19396   3.365   2.078   7.635 -0.3712 -0.3434  0.1879
 2587SOL    HW119397   3.337   2.038   7.717  0.3707  2.4653  1.8104
 2587SOL    HW219398   3.458   2.068   7.653 -0.0192  2.3753 -0.1235
 2588SOL     OW19399   0.391   0.510   2.174 -0.1922  0.0014 -0.3019
 2588SOL    HW119400   0.456   0.580   2.169 -0.6387  0.5734  1.7390
 2588SOL    HW219401   0.421   0.448   2.108  3.7883 -0.2335  1.7872
 2589SOL     OW19402   3.746   3.241   7.733 -0.3117  0.0164 -0.0470
 2589SOL    HW119403   3.823   3.255   7.678  0.1588 -1.1187  0.3127
 2589SOL    HW219404   3.735   3.146   7.721 -0.4796 -0.0793  0.8252
 2590SOL     OW19405   1.504   4.247   4.546  0.0239  0.4325 -0.0739
 2590SOL    HW119406   1.440   4.201   4.599 -0.0560 -1.2440 -1.6473
 2590SOL    HW219407   1.573   4.182   4.557  0.3766  1.2591  2.4924
 2591SOL     OW19408   1.507   3.718   9.815  0.6608  0.2282  0.3814
 2591SOL    HW119409   1.491   3.668   9.735  0.8241  0.9383 -0.1030
 2591SOL    HW219410   1.438   3.678   9.867 -0.6185  0.5824 -1.0591
 2592SOL     OW19411   2.521   1.607   0.898  0.2127  0.2861  0.1825
 2592SOL    HW119412   2.489   1.690   0.861  0.7198  1.2233  1.8502
 2592SOL    HW219413   2.568   1.649   0.970 -0.3093  0.2002  0.5729
 2593SOL     OW19414   1.465   4.393   2.222  0.0536  0.4239 -0.0416
 2593SOL    HW119415   1.557   4.381   2.244  0.1180  1.9356  0.5074
 2593SOL    HW219416   1.458   4.487   2.207 -2.0481  0.1434 -0.9326
 2594SOL     OW19417   2.492   0.744   6.539  0.5178  0.3914 -1.0205
 2594SOL    HW119418   2.415   0.715   6.489  0.0513 -0.4232  0.1552
 2594SOL    HW219419   2.452   0.806   6.599 -0.2462  0.2342 -1.3660
 2595SOL     OW19420   4.297   2.737   5.320  0.5444  0.2166 -0.2846
 2595SOL    HW119421   4.283   2.796   5.394  0.8999  1.1589 -0.9689
 2595SOL    HW219422   4.221   2.744   5.263 -0.2942  1.2183  0.9487
 2596SOL     OW19423   0.991   1.452   4.953  0.2150 -0.6681  0.3215
 2596SOL    HW119424   1.075   1.470   4.996  0.9904 -1.8426 -0.7210
 2596SOL    HW219425   0.927   1.506   4.999 -0.2980 -1.1625  0.1811
 2597SOL     OW19426   2.960   3.300   4.522 -0.1707 -0.6145  0.0340
 2597SOL    HW119427   2.881   3.295   4.468  0.0643  0.1491 -0.3748
 2597SOL    HW219428   2.992   3.210   4.508 -0.7229 -0.9729  1.0723
 2598SOL     OW19429   3.310   2.699   7.606  0.8109 -0.0271  0.2756
 2598SOL    HW119430   3.366   2.754   7.661  0.1383  0.9171  0.0074
 2598SOL    HW219431   3.221   2.728   7.627  0.3939 -0.0698 -1.4247
 2599SOL     OW19432   0.988   2.819   9.921 -0.0996 -0.1443 -0.2292
 2599SOL    HW119433   0.901   2.779   9.921  0.1144 -0.6043  0.2009
 2599SOL    HW219434   0.960   2.910   9.920  3.3145  0.9717  2.8454
 2600SOL     OW19435   4.067   3.778   7.358  0.1625 -0.6223 -0.3712
 2600SOL    HW119436   4.037   3.690   7.379  1.0444 -1.1396 -1.2681
 2600SOL    HW219437   3.996   3.809   7.303  0.6653  1.9214  0.4228
 2601SOL     OW19438   3.598   0.469   6.768  0.1362  0.2297 -0.2930
 2601SOL    HW119439   3.593   0.504   6.679 -2.4898 -0.1031 -0.2731
 2601SOL    HW219440   3.529   0.524   6.805  0.9631  0.8824  0.2834
 2602SOL     OW19441   0.503   3.365   8.355 -0.4623  0.2451  0.1206
 2602SOL    HW119442   0.533   3.429   8.419 -2.1620 -1.4372  2.6033
 2602SOL    HW219443   0.493   3.287   8.410  1.6808 -1.5846 -2.0923
 2603SOL     OW19444   1.369   0.374   7.408  0.0514 -0.0010 -0.7109
 2603SOL    HW119445   1.395   0.348   7.497 -0.3547 -0.6864 -0.7888
 2603SOL    HW219446   1.412   0.459   7.401 -1.4048  1.1084  3.6513
 2604SOL     OW19447   4.320   1.817  14.024  0.0564  0.5746 -0.3620
 2604SOL    HW119448   4.398   1.865  14.053  2.3434 -1.7456 -2.7270
 2604SOL    HW219449   4.320   1.812  13.928  3.6856  1.9773 -0.4243
 2605SOL     OW19450   4.525   3.818   7.988  0.2345  0.2366  0.2650
 2605SOL    HW119451   4.512   3.826   8.082  1.4396 -0.1302  0.4608
 2605SOL    HW219452   4.594   3.753   7.974 -0.7477 -0.6848 -0.2571
 2606SOL     OW19453   2.747   1.841   5.406  0.4247  0.1620 -0.4342
 2606SOL    HW119454   2.746   1.934   5.428  1.4600  0.1518 -0.3774
 2606SOL    HW219455   2.659   1.811   5.428  1.2106  0.1263  2.6415
 2607SOL     OW19456   1.032   3.140   6.990  0.0258  0.2144 -0.1136
 2607SOL    HW119457   1.124   3.161   6.971 -0.3640  2.2751  0.2466
 2607SOL    HW219458   0.987   3.208   7.040  0.7138  0.2322  0.4885
 2608SOL     OW19459   1.113   2.406   6.237 -0.1866  0.1116  0.6516
 2608SOL    HW119460   1.059   2.468   6.285 -0.1059  1.8396 -1.5253
 2608SOL    HW219461   1.040   2.344   6.232  0.5986 -0.7862  0.3885
 2609SOL     OW19462   0.075   2.300   7.320  0.7527  0.0603 -0.6883
 2609SOL    HW119463   0.154   2.349   7.342  0.7878 -1.1801  1.9062
 2609SOL    HW219464   0.019   2.378   7.323 -1.7215 -1.7060 -0.4068
 2610SOL     OW19465   1.244   3.265   5.798  0.3035 -0.0963 -0.4305
 2610SOL    HW119466   1.219   3.338   5.741 -0.9000  1.0910  1.6536
 2610SOL    HW219467   1.338   3.251   5.792  0.4605  1.5481 -1.9020
 2611SOL     OW19468   3.281   2.274   6.811  0.3550 -0.1998 -0.2449
 2611SOL    HW119469   3.268   2.230   6.895  1.3214 -0.3334 -0.1679
 2611SOL    HW219470   3.349   2.221   6.769  0.0418 -0.8448  0.0607
 2612SOL     OW19471   0.528   2.077   9.913 -0.1628  0.2388  0.4060
 2612SOL    HW119472   0.462   2.079   9.843  0.0083  1.2855  0.2729
 2612SOL    HW219473   0.586   2.138   9.867 -0.7779  0.5811  0.0674
 2613SOL     OW19474   0.194   1.150   2.703 -0.5847 -0.3396  0.0225
 2613SOL    HW119475   0.202   1.121   2.612 -1.7989  0.7505 -0.4284
 2613SOL    HW219476   0.162   1.066   2.735 -0.4240  0.8118  3.2384
 2614SOL     OW19477   3.746   2.973   7.685 -0.5819 -0.5564  0.2643
 2614SOL    HW119478   3.715   2.884   7.673  2.7514 -1.9595  2.1350
 2614SOL    HW219479   3.841   2.974   7.674 -0.5175 -2.0488  0.7203
 2615SOL     OW19480   2.136   1.629   8.664 -0.4847 -0.0301  0.5671
 2615SOL    HW119481   2.052   1.633   8.711  0.6919 -0.1401  2.6660
 2615SOL    HW219482   2.110   1.636   8.572 -0.3501 -0.5744  0.4943
 2616SOL     OW19483   3.441   3.909  15.361 -1.1544 -0.4342  0.2376
 2616SOL    HW119484   3.525   3.900  15.317 -0.8636 -0.6675  0.8302
 2616SOL    HW219485   3.465   3.921  15.453 -2.9780 -0.8476  0.7620
 2617SOL     OW19486   0.270   1.587   5.177 -0.1286 -0.5116 -0.2107
 2617SOL    HW119487   0.321   1.522   5.129  1.2958  0.6965 -0.3377
 2617SOL    HW219488   0.344   1.634   5.214 -2.4112  1.4068  1.9347
 2618SOL     OW19489   0.134   4.450   4.060 -0.1267  0.2763  0.3125
 2618SOL    HW119490   0.106   4.541   4.054 -1.0319 -0.0728 -0.8778
 2618SOL    HW219491   0.092   4.408   3.985 -0.5653  0.3084  0.5362
 2619SOL     OW19492   3.404   2.742  10.446  0.2961 -0.2044  0.3041
 2619SOL    HW119493   3.441   2.828  10.427 -0.4361 -0.2005 -1.1097
 2619SOL    HW219494   3.329   2.744  10.387 -0.0779 -0.4286  0.7763
 2620SOL     OW19495   4.497   1.229  16.031 -0.6114 -0.4992 -0.2686
 2620SOL    HW119496   4.548   1.309  16.020 -0.4490 -0.8267 -1.8669
 2620SOL    HW219497   4.466   1.235  16.122 -1.0931  1.8540 -0.6099
 2621SOL     OW19498   1.725   0.151   4.685 -0.3961 -0.1373 -0.7651
 2621SOL    HW119499   1.738   0.068   4.731  0.6189  0.1395 -0.5526
 2621SOL    HW219500   1.717   0.122   4.594 -0.4246 -0.4425 -0.6654
 2622SOL     OW19501   3.737   0.142   7.516  0.0876 -0.4530 -0.7417
 2622SOL    HW119502   3.711   0.181   7.433 -0.6698  0.9650  0.1596
 2622SOL    HW219503   3.820   0.104   7.487  0.9328 -0.6256  1.8611
 2623SOL     OW19504   4.004   4.465   4.580 -0.1676 -0.4422 -0.5124
 2623SOL    HW119505   4.023   4.489   4.671 -1.0005 -0.5280 -0.3169
 2623SOL    HW219506   3.919   4.509   4.573  0.9182  1.1917 -3.2993
 2624SOL     OW19507   2.432   4.318   1.653  0.2229  0.0348  0.2796
 2624SOL    HW119508   2.357   4.377   1.651  0.1581 -0.0436  0.4084
 2624SOL    HW219509   2.398   4.238   1.614  2.2680  0.3367 -2.0859
 2625SOL     OW19510   1.210   0.316  11.279  0.4178 -0.1374  0.2693
 2625SOL    HW119511   1.187   0.365  11.200 -2.2549 -0.2226  0.9861
 2625SOL    HW219512   1.279   0.363  11.325 -1.4146 -0.8216  3.6682
 2626SOL     OW19513   0.179   1.121   7.020 -0.1790 -0.1041 -0.2146
 2626SOL    HW119514   0.182   1.207   6.977 -2.2261  0.4375  0.7615
 2626SOL    HW219515   0.092   1.099   6.987 -0.6478  0.4632  0.6823
 2627SOL     OW19516   4.430   0.198   0.973 -0.0421  0.1316 -0.7211
 2627SOL    HW119517   4.515   0.205   1.017 -0.0917  2.4995 -1.0098
 2627SOL    HW219518   4.455   0.120   0.924 -1.2026 -1.0040  0.4661
 2628SOL     OW19519   0.299   0.160  11.545 -0.6377  0.3069  0.0676
 2628SOL    HW119520   0.330   0.246  11.517 -0.2371  0.9786  2.5131
 2628SOL    HW219521   0.292   0.172  11.640 -0.6333 -1.3454  0.2792
 2629SOL     OW19522   3.648   0.856   4.052 -0.0344 -0.1538 -0.1179
 2629SOL    HW119523   3.669   0.831   4.141 -1.4316 -1.0873 -0.0489
 2629SOL    HW219524   3.710   0.928   4.040 -0.7328  0.6778  1.2351
 2630SOL     OW19525   4.431   3.722   5.760  0.2680  0.3653  0.0187
 2630SOL    HW119526   4.347   3.750   5.723 -0.3821  0.3199  1.4628
 2630SOL    HW219527   4.492   3.773   5.706  1.5019 -1.4805 -0.3513
 2631SOL     OW19528   1.181   4.539   9.826 -0.3038  0.1639  0.5933
 2631SOL    HW119529   1.127   4.602   9.874 -1.3311 -0.0482 -0.2815
 2631SOL    HW219530   1.198   4.599   9.753  0.3949  1.6752  2.0023
 2632SOL     OW19531   2.489   0.364   9.854 -0.2886 -0.1368 -0.2381
 2632SOL    HW119532   2.584   0.365   9.854 -0.2924 -0.3621 -1.5741
 2632SOL    HW219533   2.468   0.409   9.773 -0.2469  0.9776  0.3750
 2633SOL     OW19534   2.824   3.181   4.792  0.2606  0.4551  0.0842
 2633SOL    HW119535   2.877   3.109   4.826  0.0724 -0.0928 -0.7846
 2633SOL    HW219536   2.804   3.212   4.880 -1.9391 -1.7355  0.3652
 2634SOL     OW19537   1.884   0.642   4.712  0.0029 -0.4539  0.2748
 2634SOL    HW119538   1.821   0.623   4.782 -0.0830  1.5373  0.7627
 2634SOL    HW219539   1.939   0.564   4.709  0.7186  0.0645 -0.1735
 2635SOL     OW19540   0.091   3.655  10.996  0.0617 -0.7435  0.0274
 2635SOL    HW119541   4.734   3.658  11.018 -0.6233 -1.5889 -2.7607
 2635SOL    HW219542   0.128   3.733  11.038 -0.8188 -1.5032  2.2303
 2636SOL     OW19543   2.260   4.190   1.461 -0.1723 -0.8899  0.0614
 2636SOL    HW119544   2.197   4.125   1.493  1.2474 -1.5604  1.4912
 2636SOL    HW219545   2.287   4.147   1.380  1.7169 -0.1094  0.2834
 2637SOL     OW19546   1.610   3.140   6.263  0.4572  0.7118  0.5371
 2637SOL    HW119547   1.617   3.206   6.332 -1.6090  1.5223 -0.0476
 2637SOL    HW219548   1.621   3.198   6.188 -0.1057 -1.2549 -1.0582
 2638SOL     OW19549   2.978   2.041  14.095 -0.0608 -0.0941 -0.3976
 2638SOL    HW119550   2.973   2.117  14.152  1.7311  0.5964 -1.1743
 2638SOL    HW219551   3.038   1.987  14.146  1.5325  1.5838 -0.5182
 2639SOL     OW19552   4.164   3.236   6.021  0.6335  0.1102  0.2696
 2639SOL    HW119553   4.083   3.214   5.974 -0.0406  0.9895  1.0019
 2639SOL    HW219554   4.186   3.152   6.060  2.3094  0.9469  1.1305
 2640SOL     OW19555   3.918   3.023   8.682 -0.3109 -0.2740  0.2363
 2640SOL    HW119556   3.923   3.062   8.595 -2.9203 -1.3006 -0.3672
 2640SOL    HW219557   4.000   3.052   8.723 -0.5858  1.9523 -0.7902
 2641SOL     OW19558   4.172   4.472  15.093 -0.0517  0.1162  0.1564
 2641SOL    HW119559   4.222   4.404  15.047  0.7742 -0.4918  1.9439
 2641SOL    HW219560   4.228   4.548  15.077 -0.0182  0.2245  0.8174
 2642SOL     OW19561   3.142   3.439   8.618 -0.6167 -0.2158 -0.3327
 2642SOL    HW119562   3.204   3.458   8.547 -2.2404  1.7044 -1.2642
 2642SOL    HW219563   3.154   3.345   8.631  1.5096  0.0534 -0.4413
 2643SOL     OW19564   3.294   4.293   3.289  0.6634 -0.0523  0.1692
 2643SOL    HW119565   3.376   4.337   3.311 -0.5767  1.3464  1.9689
 2643SOL    HW219566   3.282   4.311   3.196 -0.4730  1.1558  0.5635
 2644SOL     OW19567   1.563   2.190  15.008  0.0466  0.2479 -0.1203
 2644SOL    HW119568   1.644   2.236  14.987  1.1221  0.2118  3.9469
 2644SOL    HW219569   1.603   2.107  15.035  0.9799  0.7816  0.1131
 2645SOL     OW19570   0.651   1.924  11.512  0.2132 -0.2700  0.3934
 2645SOL    HW119571   0.655   1.969  11.596  0.3599  0.8680 -0.2085
 2645SOL    HW219572   0.559   1.900  11.522  0.3544 -1.1131 -0.3750
 2646SOL     OW19573   2.979   3.033   5.363  0.1000  0.6035  0.1821
 2646SOL    HW119574   3.050   2.975   5.390  1.2586  1.9432  0.0553
 2646SOL    HW219575   2.964   3.079   5.446 -0.9351 -0.9843  0.8591
 2647SOL     OW19576   1.546   3.929   7.558  0.1113 -0.1611  0.0755
 2647SOL    HW119577   1.533   3.866   7.629 -1.3249 -0.3151 -0.3247
 2647SOL    HW219578   1.619   3.888   7.512 -0.4426 -0.3643 -0.6258
 2648SOL     OW19579   4.234   2.299   5.388  0.8911 -0.3166 -0.1170
 2648SOL    HW119580   4.319   2.265   5.363  0.8983 -0.1512 -0.3123
 2648SOL    HW219581   4.191   2.216   5.408 -2.3060  1.6286  1.2737
 2649SOL     OW19582   1.143   0.499   8.889 -0.1986  0.2552  0.5952
 2649SOL    HW119583   1.201   0.570   8.916  2.7282 -1.8163 -0.2359
 2649SOL    HW219584   1.194   0.430   8.846  1.0864  0.8086  1.2136
 2650SOL     OW19585   1.110   0.656  10.186 -0.1552 -0.3079  0.6288
 2650SOL    HW119586   1.099   0.739  10.141  0.9447  0.1763  1.2391
 2650SOL    HW219587   1.027   0.616  10.163 -1.1764  0.8777  2.2361
 2651SOL     OW19588   1.253   3.358   0.377 -0.3316  0.1936 -0.8356
 2651SOL    HW119589   1.173   3.404   0.400 -1.0713 -3.2266  3.5102
 2651SOL    HW219590   1.265   3.394   0.289 -0.4997  0.6372 -0.6766
 2652SOL     OW19591   0.322   2.576   2.550 -0.0732 -0.0399  0.6055
 2652SOL    HW119592   0.370   2.507   2.504  1.6997  0.3425  1.8974
 2652SOL    HW219593   0.303   2.637   2.479  0.4428 -0.0716  0.4414
 2653SOL     OW19594   2.867   0.037   2.245  0.5040  0.4525  0.6335
 2653SOL    HW119595   2.778   0.061   2.221  0.5768 -1.1532 -1.3698
 2653SOL    HW219596   2.876   0.049   2.339  0.6823  0.9838  0.5480
 2654SOL     OW19597   3.922   0.191   3.618 -0.1202  0.2062 -0.3176
 2654SOL    HW119598   3.872   0.130   3.673  1.2550  0.7256  1.5243
 2654SOL    HW219599   3.931   0.271   3.669  2.9006 -2.4844  3.4053
 2655SOL     OW19600   3.353   1.142   9.586 -0.0309 -0.4618  0.0154
 2655SOL    HW119601   3.445   1.126   9.569  0.4867  0.0616  2.2914
 2655SOL    HW219602   3.302   1.075   9.539  0.6199  0.7913 -2.4765
 2656SOL     OW19603   0.511   3.970   5.821  0.1202  0.0864 -0.2059
 2656SOL    HW119604   0.494   3.879   5.847 -0.7519 -0.0751 -1.2989
 2656SOL    HW219605   0.487   3.967   5.728  0.0669  1.3880 -0.2236
 2657SOL     OW19606   2.202   1.730   7.156 -0.1440  0.1053  0.4974
 2657SOL    HW119607   2.221   1.720   7.250  0.2308  0.8800  0.4998
 2657SOL    HW219608   2.126   1.675   7.135  0.9005 -1.8305  1.7684
 2658SOL     OW19609   3.081   1.839   5.482 -0.0976 -0.0605  0.5649
 2658SOL    HW119610   3.020   1.852   5.409  0.1927  2.8573  0.8213
 2658SOL    HW219611   3.087   1.923   5.529 -0.3569 -0.9094  2.1012
 2659SOL     OW19612   0.132   4.165  11.973 -0.3353 -1.5112  0.0966
 2659SOL    HW119613   0.086   4.241  12.010 -0.6103 -1.2277 -0.8267
 2659SOL    HW219614   0.173   4.125  12.050 -3.4917 -0.6535  2.2322
 2660SOL     OW19615   4.226   3.745   0.338 -0.6299  0.5616 -0.6862
 2660SOL    HW119616   4.197   3.721   0.426 -0.6644 -2.3362 -1.5044
 2660SOL    HW219617   4.222   3.663   0.290 -0.4353  0.3062 -0.2730
 2661SOL     OW19618   2.588   4.210   8.652 -0.2456 -0.0730  0.2673
 2661SOL    HW119619   2.576   4.130   8.703  1.4305  0.3761  1.3633
 2661SOL    HW219620   2.507   4.256   8.673  0.6605  2.1513 -1.1086
 2662SOL     OW19621   1.906   2.327   7.708  0.0522 -0.2136 -0.1920
 2662SOL    HW119622   1.824   2.287   7.678 -1.0055  0.2056  2.1511
 2662SOL    HW219623   1.955   2.356   7.630 -0.1812  0.0597 -0.2386
 2663SOL     OW19624   3.943   4.006   3.038 -0.0479  0.1110 -1.0585
 2663SOL    HW119625   3.878   4.023   3.106  0.3450 -0.6655 -0.4901
 2663SOL    HW219626   3.993   3.939   3.084  0.0779 -1.7651 -3.8860
 2664SOL     OW19627   4.584   3.749  11.149 -0.4541  0.0144 -0.5297
 2664SOL    HW119628   4.546   3.835  11.130 -1.8684 -0.9480 -2.0938
 2664SOL    HW219629   4.510   3.709  11.195  0.5843 -1.6879 -0.3191
 2665SOL     OW19630   0.999   1.977   5.805  0.2272 -0.5232  0.5685
 2665SOL    HW119631   1.076   1.968   5.861 -2.1670 -0.4160  3.8246
 2665SOL    HW219632   0.969   2.066   5.823 -1.5481 -0.6484 -1.7749
 2666SOL     OW19633   0.406   4.368   9.218  0.5225 -0.5928  0.0063
 2666SOL    HW119634   0.368   4.454   9.231  0.4789 -0.8554  1.5640
 2666SOL    HW219635   0.499   4.389   9.231  0.5516 -2.3253  2.6613
 2667SOL     OW19636   1.759   4.718   2.240  0.3103  0.1526 -0.2064
 2667SOL    HW119637   1.776   0.050   2.176  2.7966  0.4686  0.7876
 2667SOL    HW219638   1.836   4.714   2.297  0.1616 -0.0756 -0.0204
 2668SOL     OW19639   3.978   4.384  10.391 -0.3783  0.3494  0.1751
 2668SOL    HW119640   3.950   4.383  10.483 -0.7018 -1.0068  0.0557
 2668SOL    HW219641   3.890   4.414  10.368 -0.6392 -0.3505  0.2475
 2669SOL     OW19642   1.481   1.177   8.385 -0.4536 -0.1917  0.9164
 2669SOL    HW119643   1.526   1.229   8.451 -1.6161  0.1272  1.4554
 2669SOL    HW219644   1.503   1.087   8.412 -1.7118 -0.4668  1.0172
 2670SOL     OW19645   4.039   0.211  15.403 -0.5027  0.3298  0.4574
 2670SOL    HW119646   4.094   0.275  15.448  0.3702 -0.4156  0.4355
 2670SOL    HW219647   3.982   0.164  15.464  1.5574 -1.7757  0.7444
 2671SOL     OW19648   4.490   3.862   4.990 -0.0104  0.0933 -0.0144
 2671SOL    HW119649   4.491   3.956   4.972  4.1707 -0.3988 -2.2762
 2671SOL    HW219650   4.579   3.836   5.014 -0.1862 -2.1453 -1.8395
 2672SOL     OW19651   3.961   2.137   2.631  0.2217 -0.1114 -0.2930
 2672SOL    HW119652   4.047   2.098   2.645  1.0426  1.2858 -1.4655
 2672SOL    HW219653   3.973   2.179   2.546  0.8988  1.1250  0.4046
 2673SOL     OW19654   0.850   0.461   4.063 -0.6573  0.1466  0.1584
 2673SOL    HW119655   0.900   0.441   4.142  0.0488  1.1811 -0.0296
 2673SOL    HW219656   0.779   0.397   4.074 -0.0350 -0.2571  1.7835
 2674SOL     OW19657   0.943   2.410  15.386 -0.2945  0.1567 -0.3116
 2674SOL    HW119658   0.914   2.326  15.420 -3.2839  0.7052 -1.4484
 2674SOL    HW219659   1.025   2.419  15.433  1.4964  1.2537 -3.6056
 2675SOL     OW19660   3.197   0.159   4.469 -0.2189 -0.0821 -0.0107
 2675SOL    HW119661   3.250   0.222   4.517  1.0196 -1.2667  0.1788
 2675SOL    HW219662   3.207   0.198   4.382 -0.6113  0.3387  0.1372
 2676SOL     OW19663   3.064   2.577  15.241  0.4803  0.1493  0.4678
 2676SOL    HW119664   3.157   2.566  15.263  0.8412 -1.4788 -1.8951
 2676SOL    HW219665   3.060   2.536  15.155 -2.2681 -0.1858  0.7602
 2677SOL     OW19666   4.102   1.050   9.616 -0.0463  0.5405 -0.0153
 2677SOL    HW119667   4.125   1.099   9.695  0.6963  1.6803 -0.9393
 2677SOL    HW219668   4.061   0.973   9.657 -1.6775  1.4643  0.1169
 2678SOL     OW19669   1.783   2.190   5.570  0.3466 -0.1695  0.0126
 2678SOL    HW119670   1.837   2.152   5.640 -0.0247  2.0757  1.5280
 2678SOL    HW219671   1.760   2.277   5.603 -1.1985 -1.1195  1.4489
 2679SOL     OW19672   4.460   3.078   6.336  0.4963  0.0054 -0.1446
 2679SOL    HW119673   4.488   3.021   6.264  1.8481  0.4342  0.0311
 2679SOL    HW219674   4.536   3.137   6.337 -0.6758  1.4970  0.9004
 2680SOL     OW19675   3.267   3.471  11.128  0.1582 -0.4804  0.6953
 2680SOL    HW119676   3.303   3.546  11.175  2.6696 -0.9982 -0.4121
 2680SOL    HW219677   3.348   3.425  11.105 -0.2902 -1.1904  0.5412
 2681SOL     OW19678   1.057   0.617  13.197  0.6081  0.0465  0.2792
 2681SOL    HW119679   1.131   0.641  13.142  0.8552 -0.0510  0.5696
 2681SOL    HW219680   1.095   0.621  13.285 -0.8262  0.7333  0.8676
 2682SOL     OW19681   1.346   1.734   8.563  0.0516 -0.0923  0.4303
 2682SOL    HW119682   1.336   1.640   8.547  0.5030 -0.5715  2.9615
 2682SOL    HW219683   1.273   1.777   8.518 -0.3472  0.4273  1.5619
 2683SOL     OW19684   3.308   4.119  11.757 -0.2437  0.8056  0.1288
 2683SOL    HW119685   3.297   4.110  11.662 -0.3507  1.8540  0.0441
 2683SOL    HW219686   3.262   4.044  11.795  2.8986 -0.5713  1.2227
 2684SOL     OW19687   0.765   0.623   7.728 -0.1095 -0.5247  0.2109
 2684SOL    HW119688   0.700   0.634   7.797  0.4814  1.0583  0.5159
 2684SOL    HW219689   0.717   0.668   7.658 -1.9487 -3.0343 -0.1230
 2685SOL     OW19690   3.500   2.685   6.961  0.2061 -0.0482 -0.1425
 2685SOL    HW119691   3.437   2.637   7.013  1.3091  0.0435  1.2759
 2685SOL    HW219692   3.518   2.758   7.020 -1.8973  0.7411 -0.4956
 2686SOL     OW19693   0.465   3.266   7.247 -0.6784 -0.4150 -0.0881
 2686SOL    HW119694   0.442   3.253   7.339  1.7836  0.4891  0.6772
 2686SOL    HW219695   0.532   3.330   7.271 -0.3356 -0.3318 -1.2414
 2687SOL     OW19696   4.304   4.264  16.340  0.3830 -0.0251  0.0122
 2687SOL    HW119697   4.287   4.318  16.262 -1.5502 -1.9635 -0.8850
 2687SOL    HW219698   4.250   4.306  16.407  1.2547 -0.1739  0.8161
 2688SOL     OW19699   2.350   4.280   3.987 -0.0490  0.6441 -0.3752
 2688SOL    HW119700   2.318   4.348   3.928 -0.1577 -0.6562 -1.8273
 2688SOL    HW219701   2.434   4.319   4.010 -0.3612  1.9131 -1.3920
 2689SOL     OW19702   1.231   2.614   9.384 -0.2813  0.2112 -0.0352
 2689SOL    HW119703   1.267   2.543   9.330 -2.1232  0.2448 -1.3032
 2689SOL    HW219704   1.283   2.600   9.463 -0.9484  0.8815  0.5234
 2690SOL     OW19705   2.156   3.133   4.121  0.3520 -1.1114 -0.1884
 2690SOL    HW119706   2.107   3.068   4.069 -0.6305 -0.8694  0.4432
 2690SOL    HW219707   2.238   3.086   4.137 -0.4096 -2.1046  0.7687
 2691SOL     OW19708   2.041   3.004  14.914  0.2655 -0.1391 -0.2038
 2691SOL    HW119709   2.074   2.942  14.850 -0.6385  0.8299 -1.5898
 2691SOL    HW219710   2.116   3.028  14.970 -0.0076 -0.4850  0.3122
 2692SOL     OW19711   1.513   0.904   9.128 -0.1479 -0.0448  0.2614
 2692SOL    HW119712   1.587   0.843   9.125 -0.7433 -0.9051  2.7593
 2692SOL    HW219713   1.440   0.846   9.151 -1.6302  1.6219 -0.2633
 2693SOL     OW19714   1.624   2.624   5.113  0.0760 -0.8845 -0.0067
 2693SOL    HW119715   1.568   2.547   5.101  0.8035 -2.0090  3.7101
 2693SOL    HW219716   1.555   2.690   5.118 -1.6513 -2.6991 -0.0891
 2694SOL     OW19717   1.516   0.874  13.662 -0.0329 -0.0826  0.2359
 2694SOL    HW119718   1.502   0.780  13.659 -1.5081  0.0516  3.0862
 2694SOL    HW219719   1.607   0.876  13.633  0.0740 -2.6626  0.4204
 2695SOL     OW19720   3.350   1.375   2.714 -0.3210 -0.0453 -0.3390
 2695SOL    HW119721   3.282   1.314   2.742  1.1432 -0.7074  1.6856
 2695SOL    HW219722   3.359   1.336   2.627 -0.3056  0.7551 -0.6942
 2696SOL     OW19723   0.274   1.715  17.440  0.4541  0.3417 -0.4207
 2696SOL    HW119724   0.252   1.622  17.436 -0.9195  0.6473  0.1356
 2696SOL    HW219725   0.181   1.740  17.439  0.9005  2.0567  2.1774
 2697SOL     OW19726   4.172   3.854   4.362  0.4487 -0.4532 -0.1216
 2697SOL    HW119727   4.108   3.894   4.420  2.0702 -2.0896  2.7949
 2697SOL    HW219728   4.138   3.765   4.354  0.1940 -0.3674  0.0440
 2698SOL     OW19729   4.247   3.138   2.903  0.1927 -0.4438 -0.3082
 2698SOL    HW119730   4.251   3.151   2.998 -0.3464 -0.7785 -0.2403
 2698SOL    HW219731   4.224   3.226   2.874 -4.2380 -1.7210 -0.7101
 2699SOL     OW19732   4.130   0.053  16.417 -0.6688 -0.0679  0.2271
 2699SOL    HW119733   4.218   0.057  16.455 -0.8245 -0.3001  0.6121
 2699SOL    HW219734   4.152   0.078  16.327  1.6467 -0.0629  0.7936
 2700SOL     OW19735   3.007   1.093   2.547 -0.4602  0.4399  0.3775
 2700SOL    HW119736   3.047   1.039   2.478  0.8624  1.4677  0.3611
 2700SOL    HW219737   2.981   1.169   2.495 -0.7909 -1.4227 -2.2204
 2701SOL     OW19738   4.198   1.322   0.062  0.2565 -0.1848  0.4198
 2701SOL    HW119739   4.118   1.375   0.065 -0.0211 -0.4395 -3.1605
 2701SOL    HW219740   4.237   1.331  17.720 -1.2096  0.7856 -0.1350
 2702SOL     OW19741   4.226   0.196  16.645  0.2657  0.0181 -0.0979
 2702SOL    HW119742   4.237   0.116  16.695 -0.6925 -0.4909 -0.7036
 2702SOL    HW219743   4.299   0.193  16.583 -0.2519  0.8067 -0.7426
 2703SOL     OW19744   2.632   2.583  14.860  0.1761  0.2893  0.2460
 2703SOL    HW119745   2.691   2.572  14.786  0.5541  6.1110 -0.2929
 2703SOL    HW219746   2.658   2.506  14.911  0.9860  1.9562  2.3833
 2704SOL     OW19747   1.128   0.131  10.964 -0.6939 -0.4806  0.1104
 2704SOL    HW119748   1.041   0.106  10.933 -1.0884 -0.2343  1.0227
 2704SOL    HW219749   1.122   0.121  11.059  0.0439  2.3321  0.4561
 2705SOL     OW19750   2.118   2.641   6.721 -0.0008 -0.5396 -0.4522
 2705SOL    HW119751   2.150   2.599   6.642  1.9771 -1.9438  1.0742
 2705SOL    HW219752   2.024   2.655   6.708  0.2725  1.0489 -0.6682
 2706SOL     OW19753   2.236   3.309   4.816  0.4498  0.3593  0.1068
 2706SOL    HW119754   2.250   3.214   4.812 -0.9660  0.0983  1.3773
 2706SOL    HW219755   2.141   3.313   4.808  0.3601 -1.0158  0.5201
 2707SOL     OW19756   2.983   0.198   0.430 -0.1113  0.2849  0.6342
 2707SOL    HW119757   2.954   0.273   0.482  0.5190  1.2641 -0.4244
 2707SOL    HW219758   2.905   0.185   0.376  0.8495  1.9505 -1.1441
 2708SOL     OW19759   2.976   2.368   9.501 -0.4782 -0.1086 -0.4758
 2708SOL    HW119760   3.014   2.280   9.491  2.5230  1.1272  0.2157
 2708SOL    HW219761   2.964   2.398   9.411 -2.7203  1.3140  0.3049
 2709SOL     OW19762   0.107   0.329   5.525  0.6295 -0.6487  0.0093
 2709SOL    HW119763   0.102   0.303   5.617 -1.3482  1.1844  0.4082
 2709SOL    HW219764   0.098   0.423   5.537 -0.1105 -0.7844  0.5874
 2710SOL     OW19765   0.421   3.761   3.295 -0.4320 -0.1247 -0.0421
 2710SOL    HW119766   0.435   3.682   3.347  0.2665 -0.5305 -0.8474
 2710SOL    HW219767   0.499   3.767   3.240 -0.4517 -2.5723 -0.3383
 2711SOL     OW19768   1.817   1.008   9.384  0.0977 -0.4521  0.2190
 2711SOL    HW119769   1.855   0.936   9.433  0.7012 -0.1467  0.2048
 2711SOL    HW219770   1.803   1.063   9.461  1.4331 -2.0994  1.6145
 2712SOL     OW19771   0.878   4.520  12.550  0.3733 -0.1301  0.0886
 2712SOL    HW119772   0.800   4.533  12.604  0.2237 -1.2305  0.1358
 2712SOL    HW219773   0.845   4.510  12.461  1.6741 -0.5267 -0.3517
 2713SOL     OW19774   1.800   4.590   2.591 -0.2415  0.0516  0.7636
 2713SOL    HW119775   1.717   4.567   2.548 -2.4114  1.6054  4.0495
 2713SOL    HW219776   1.863   4.579   2.519 -0.1786  0.3426  0.7751
 2714SOL     OW19777   2.920   0.977   5.095  0.0619  0.2172 -0.4857
 2714SOL    HW119778   2.864   1.024   5.156  0.3197 -0.7107  0.4627
 2714SOL    HW219779   2.892   0.885   5.097 -0.3256  0.3371 -0.5367
 2715SOL     OW19780   3.010   1.621   4.949 -0.6883  0.1354 -0.2115
 2715SOL    HW119781   2.977   1.650   5.034  0.4851 -0.0747  0.3168
 2715SOL    HW219782   2.930   1.614   4.897 -0.5399  0.8268 -0.5249
 2716SOL     OW19783   4.537   0.379   0.079 -0.0454  0.2627 -0.4310
 2716SOL    HW119784   4.496   0.429   0.149 -1.0417  2.3645 -2.5416
 2716SOL    HW219785   4.605   0.438   0.048  0.7267 -0.7588 -0.7113
 2717SOL     OW19786   1.344   4.717  16.576  0.5322  0.4899  0.2392
 2717SOL    HW119787   1.314   0.006  16.489  0.4066 -0.6758 -0.0615
 2717SOL    HW219788   1.424   4.672  16.550 -0.4892 -1.0057 -0.3605
 2718SOL     OW19789   3.450   4.643   4.651  0.6152  0.2959  0.2871
 2718SOL    HW119790   3.417   4.668   4.565  1.9651  2.0898  0.2939
 2718SOL    HW219791   3.385   4.677   4.713 -1.1474 -2.4807 -0.0705
 2719SOL     OW19792   1.746   4.587   5.539  0.1760 -0.1804  0.2515
 2719SOL    HW119793   1.693   4.641   5.481 -3.4858 -1.8108  2.0851
 2719SOL    HW219794   1.810   4.649   5.574  0.0677  0.1524 -0.1476
 2720SOL     OW19795   4.549   3.964  14.555 -0.7562 -0.1378 -0.4125
 2720SOL    HW119796   4.466   3.997  14.520 -1.1202 -1.3504 -0.6642
 2720SOL    HW219797   4.602   3.976  14.476  0.3851  1.7338  0.6225
 2721SOL     OW19798   3.105   3.252  11.173 -0.6238  0.2873 -0.6048
 2721SOL    HW119799   3.094   3.175  11.117 -2.3530  0.8564 -1.0382
 2721SOL    HW219800   3.197   3.276  11.160 -0.7301  0.2267 -1.4958
 2722SOL     OW19801   2.409   3.709   1.580  0.2464 -0.2585 -0.3113
 2722SOL    HW119802   2.498   3.734   1.556 -0.1658  1.5840  0.0815
 2722SOL    HW219803   2.362   3.723   1.498  2.2329  1.6791 -1.1002
 2723SOL     OW19804   2.828   2.160  17.074  0.4975 -0.4780 -0.6149
 2723SOL    HW119805   2.918   2.184  17.052  0.4026 -0.7003 -1.2540
 2723SOL    HW219806   2.845   2.098  17.145 -2.6137  0.0851  0.6218
 2724SOL     OW19807   4.394   0.146   5.046 -0.5379 -0.3107  0.2134
 2724SOL    HW119808   4.404   0.091   5.124 -3.0215 -0.3824  0.4630
 2724SOL    HW219809   4.487   0.147   5.022 -1.0684 -0.3837 -1.8337
 2725SOL     OW19810   4.668   3.476  17.116  0.2463  0.5224  0.0344
 2725SOL    HW119811   4.573   3.487  17.113  0.5701  3.0179 -0.9287
 2725SOL    HW219812   4.701   3.566  17.119  0.1473  0.6392 -1.9849
 2726SOL     OW19813   3.665   2.366   8.034  0.5415 -0.7968  0.3715
 2726SOL    HW119814   3.668   2.387   7.940  0.1263  1.6860  0.9069
 2726SOL    HW219815   3.671   2.271   8.040  0.5469 -0.7904  0.4603
 2727SOL     OW19816   1.318   3.664  13.517  0.0129  0.2093  0.2818
 2727SOL    HW119817   1.296   3.736  13.575  2.2014 -0.6486  2.1758
 2727SOL    HW219818   1.230   3.628  13.507 -0.9707  2.3949  1.1206
 2728SOL     OW19819   4.208   4.606  10.916 -0.0750  0.0698 -0.1208
 2728SOL    HW119820   4.237   4.638  11.002 -1.5308 -1.1048  0.8122
 2728SOL    HW219821   4.166   4.682  10.876  1.3119  0.3197 -1.0899
 2729SOL     OW19822   1.004   0.980   8.092  0.3866 -0.4447  0.2004
 2729SOL    HW119823   0.947   0.927   8.149 -2.0507  0.4532 -1.3952
 2729SOL    HW219824   1.056   0.905   8.063 -0.2006 -0.5287 -0.6306
 2730SOL     OW19825   1.189   2.814   4.705  0.7047  0.3820 -0.3818
 2730SOL    HW119826   1.100   2.778   4.700  0.4404  0.8556  1.2119
 2730SOL    HW219827   1.186   2.867   4.784 -1.5780 -0.1909 -0.0703
 2731SOL     OW19828   1.685   0.943  13.157  0.0985  0.6368  0.2007
 2731SOL    HW119829   1.592   0.936  13.180 -0.5630  0.1869 -2.5159
 2731SOL    HW219830   1.690   1.038  13.168  0.3918  0.5114  1.1280
 2732SOL     OW19831   3.324   4.338   2.768 -0.0849  0.1641 -0.1363
 2732SOL    HW119832   3.397   4.359   2.711 -1.6268  1.0078 -1.8239
 2732SOL    HW219833   3.257   4.310   2.704  0.2768 -2.8991  0.8222
 2733SOL     OW19834   4.170   4.733   2.460  0.2114  0.0513 -0.2390
 2733SOL    HW119835   4.112   0.010   2.385  0.7224 -0.6642 -0.7617
 2733SOL    HW219836   4.254   4.706   2.423  1.4259  3.0941  0.3338
 2734SOL     OW19837   0.603   0.931   2.156  0.0937 -0.5182 -0.2083
 2734SOL    HW119838   0.656   0.921   2.235 -0.2484 -2.9652 -0.3066
 2734SOL    HW219839   0.652   0.979   2.089  1.7321 -0.2487  1.2054
 2735SOL     OW19840   0.427   4.059   1.564  0.0539  0.1768 -0.7865
 2735SOL    HW119841   0.349   4.040   1.617 -1.1007  0.9479 -2.2161
 2735SOL    HW219842   0.495   4.047   1.631 -0.9385  0.3470  0.2551
 2736SOL     OW19843   1.154   0.951   5.676 -0.3949  0.6527 -0.1668
 2736SOL    HW119844   1.244   0.969   5.702 -0.1671  0.5126 -0.8820
 2736SOL    HW219845   1.129   1.044   5.668  0.7303  0.8327 -1.4584
 2737SOL     OW19846   1.793   2.997   3.018 -0.6576  0.6173 -0.1667
 2737SOL    HW119847   1.834   2.972   3.101  1.6530  0.7912 -1.2756
 2737SOL    HW219848   1.870   3.042   2.984 -2.0091  1.1783 -2.4774
 2738SOL     OW19849   4.676   1.330   7.972 -0.2525  0.4677  0.1027
 2738SOL    HW119850   4.693   1.422   7.993 -1.0467  0.8851 -1.0856
 2738SOL    HW219851   4.656   1.327   7.878 -0.1330  0.4650  0.0778
 2739SOL     OW19852   4.239   4.079   3.414 -0.4452  0.0309  0.3035
 2739SOL    HW119853   4.258   3.986   3.421  1.2995  0.2479 -1.5678
 2739SOL    HW219854   4.319   4.108   3.370 -0.3567  0.3993  0.7041
 2740SOL     OW19855   4.492   2.362   3.337 -0.6243 -0.4760  0.0184
 2740SOL    HW119856   4.571   2.414   3.322 -0.0304 -1.2477  0.5383
 2740SOL    HW219857   4.523   2.290   3.282  0.1938 -0.2427  0.1719
 2741SOL     OW19858   3.013   1.437  12.941 -0.6522 -0.4065 -0.5628
 2741SOL    HW119859   3.098   1.417  12.903 -0.2099  0.4314 -0.0093
 2741SOL    HW219860   2.979   1.511  12.890  1.7458  1.4637  0.5774
 2742SOL     OW19861   1.078   0.503   6.441  0.0536 -0.8553 -0.6419
 2742SOL    HW119862   1.086   0.411   6.466 -1.0773 -0.8589 -0.3001
 2742SOL    HW219863   0.993   0.495   6.397 -0.9964 -2.0975  1.5934
 2743SOL     OW19864   0.988   1.224   0.261  0.2227  0.1174 -0.0034
 2743SOL    HW119865   0.944   1.305   0.288  0.4765  0.5725 -0.9250
 2743SOL    HW219866   1.074   1.227   0.303  0.2002 -1.2378  0.1131
 2744SOL     OW19867   0.536   0.198   4.118  0.6378 -0.6831 -0.1194
 2744SOL    HW119868   0.496   0.160   4.040  2.3951  1.7857 -2.2167
 2744SOL    HW219869   0.465   0.254   4.147  0.1897 -1.8936  1.0858
 2745SOL     OW19870   1.226   0.743   2.159  0.4582  0.0715  0.8044
 2745SOL    HW119871   1.140   0.747   2.201 -0.7981 -1.7215 -1.6115
 2745SOL    HW219872   1.274   0.702   2.231  0.6948 -0.2653  0.4559
 2746SOL     OW19873   1.152   2.834  16.356 -0.1679  0.9373 -0.2386
 2746SOL    HW119874   1.208   2.786  16.417 -0.5280  0.1083 -0.5556
 2746SOL    HW219875   1.138   2.904  16.419 -1.0318  1.1164 -0.6373
 2747SOL     OW19876   1.125   0.562  16.979  0.2538  0.0408  0.0850
 2747SOL    HW119877   1.180   0.517  16.915 -1.5610  0.0075 -1.4358
 2747SOL    HW219878   1.162   0.525  17.060  0.3544  0.2098  0.1152
 2748SOL     OW19879   4.333   2.191   1.301 -0.2255  0.1097 -0.3272
 2748SOL    HW119880   4.305   2.121   1.241 -3.2590  0.0543  1.1186
 2748SOL    HW219881   4.410   2.142   1.328 -1.0712 -1.8352 -1.4710
 2749SOL     OW19882   4.449   1.923   3.978 -0.3173  0.1236 -0.1628
 2749SOL    HW119883   4.358   1.947   3.967 -0.6180 -0.0227  2.0447
 2749SOL    HW219884   4.439   1.911   4.072 -0.3807 -0.6003 -0.2621
 2750SOL     OW19885   4.091   0.547   3.581  0.2501 -0.8062 -0.1998
 2750SOL    HW119886   3.996   0.554   3.592  0.3270  2.4241 -1.4269
 2750SOL    HW219887   4.109   0.459   3.615  0.9579 -0.3485  0.6269
 2751SOL     OW19888   1.102   3.081   6.432  0.5112 -0.2166 -0.0405
 2751SOL    HW119889   1.169   3.123   6.379 -1.4656  0.4042 -2.0302
 2751SOL    HW219890   1.074   3.161   6.477  1.3404  0.4530 -0.7218
 2752SOL     OW19891   3.163   3.038   8.302 -0.1727 -0.1145 -0.1522
 2752SOL    HW119892   3.241   3.045   8.357 -0.1344  2.0062 -0.4628
 2752SOL    HW219893   3.171   2.945   8.285  0.3572  0.0969 -1.0944
 2753SOL     OW19894   2.836   0.599  17.475  0.3270  0.2206 -0.5075
 2753SOL    HW119895   2.790   0.516  17.486 -2.9481  2.3045  1.3427
 2753SOL    HW219896   2.863   0.590  17.383  1.0055  1.0583 -0.3959
 2754SOL     OW19897   4.312   3.192  17.556 -0.7242  0.4770  0.0700
 2754SOL    HW119898   4.272   3.271  17.594  1.9323  2.1557 -0.6384
 2754SOL    HW219899   4.271   3.136  17.622  0.6987 -0.2064  0.3516
 2755SOL     OW19900   1.897   2.247   6.508 -0.8867 -0.7755  0.2514
 2755SOL    HW119901   1.969   2.293   6.550 -0.5035  1.0473 -2.4210
 2755SOL    HW219902   1.852   2.321   6.466 -2.4440 -2.3089 -0.7950
 2756SOL     OW19903   3.884   1.653   3.090  0.4610  0.6596 -0.9480
 2756SOL    HW119904   3.974   1.628   3.107  0.3705  0.4984 -0.7074
 2756SOL    HW219905   3.893   1.738   3.048 -0.4047  1.6036  0.7704
 2757SOL     OW19906   3.859   2.384   6.915  0.3025 -0.1622 -0.0045
 2757SOL    HW119907   3.835   2.367   7.006  2.2596  0.0960  0.5556
 2757SOL    HW219908   3.864   2.296   6.876  2.4729  0.7890 -1.8693
 2758SOL     OW19909   1.304   1.129   1.099  0.6246  1.3723 -0.1466
 2758SOL    HW119910   1.229   1.189   1.108  1.2181  2.2003 -0.7615
 2758SOL    HW219911   1.324   1.103   1.189 -0.6360  1.1897  0.0923
 2759SOL     OW19912   1.139   2.143  15.281 -0.9251 -0.7552  0.1392
 2759SOL    HW119913   1.189   2.220  15.307 -0.1927 -0.2278 -2.8872
 2759SOL    HW219914   1.073   2.145  15.351 -0.3660 -0.5711  0.6614
 2760SOL     OW19915   1.920   2.968  13.286  0.1023 -0.4775  0.0846
 2760SOL    HW119916   2.002   3.003  13.320  0.4388  0.6935 -1.9268
 2760SOL    HW219917   1.951   2.913  13.214  0.4173  0.7821 -0.7410
 2761SOL     OW19918   3.919   4.344   6.563  0.3365  0.3894  0.1837
 2761SOL    HW119919   3.836   4.335   6.516  0.1249  1.9863  0.2602
 2761SOL    HW219920   3.884   4.394   6.637  0.5667 -1.9560  1.8814
 2762SOL     OW19921   1.789   3.737   9.804 -0.3251  1.1574  0.2220
 2762SOL    HW119922   1.701   3.753   9.838 -1.8911 -0.4057 -3.0815
 2762SOL    HW219923   1.780   3.726   9.710 -0.6703  3.8997 -0.0655
 2763SOL     OW19924   2.233   3.499   4.245  0.3837  0.4375  0.3254
 2763SOL    HW119925   2.243   3.590   4.217  1.6338  0.5212  1.0322
 2763SOL    HW219926   2.184   3.515   4.326 -1.8149 -1.3421 -0.6492
 2764SOL     OW19927   1.828   3.372   5.232  0.7685 -0.3637  1.4228
 2764SOL    HW119928   1.855   3.289   5.194 -0.5458  0.2961 -0.9694
 2764SOL    HW219929   1.796   3.422   5.156 -4.1208 -1.3738  2.8034
 2765SOL     OW19930   2.259   4.462   1.306 -0.2837 -0.6050  0.3108
 2765SOL    HW119931   2.270   4.465   1.401  1.2308 -0.9971  0.1367
 2765SOL    HW219932   2.235   4.370   1.295 -0.3004 -0.2167 -3.0692
 2766SOL     OW19933   0.767   0.485   8.938 -0.0735  0.3315  0.0942
 2766SOL    HW119934   0.783   0.543   9.012 -0.3251  1.7480 -0.9421
 2766SOL    HW219935   0.720   0.416   8.983  1.3262  0.7019  2.1131
 2767SOL     OW19936   3.574   4.373   0.259 -0.0349  0.6177  0.3238
 2767SOL    HW119937   3.498   4.370   0.317  0.5579  1.1576  1.1261
 2767SOL    HW219938   3.615   4.453   0.291  0.8153  0.4609 -0.3770
 2768SOL     OW19939   2.165   4.428   3.854 -0.1582 -0.0432 -0.2555
 2768SOL    HW119940   2.161   4.501   3.792  1.3233  0.0160 -0.2688
 2768SOL    HW219941   2.074   4.398   3.854  0.4081 -1.7778  0.9720
 2769SOL     OW19942   0.076   0.638   6.193  0.3799  0.1046  0.7469
 2769SOL    HW119943   0.050   0.566   6.250 -3.5819 -0.0191 -1.1867
 2769SOL    HW219944   0.018   0.635   6.117  0.8075  0.2205  0.4126
 2770SOL     OW19945   3.227   0.708   1.949 -0.6107 -0.0432 -0.0574
 2770SOL    HW119946   3.207   0.618   1.922 -0.5387 -0.2771  0.6708
 2770SOL    HW219947   3.156   0.759   1.911 -1.6212 -1.3673  0.0557
 2771SOL     OW19948   4.639   4.554  12.475 -0.4160 -0.2232 -0.2415
 2771SOL    HW119949   4.639   4.499  12.553  0.3012 -0.3985 -0.3690
 2771SOL    HW219950   4.723   4.531  12.436 -1.1475 -1.0239 -1.3609
 2772SOL     OW19951   3.609   3.130  14.164  0.3013  0.0184  0.2861
 2772SOL    HW119952   3.661   3.050  14.174  0.0586 -0.0704  0.8430
 2772SOL    HW219953   3.669   3.196  14.200 -2.2621  1.2817  2.3003
 2773SOL     OW19954   2.599   0.554   6.728 -0.1968 -0.1285  0.1752
 2773SOL    HW119955   2.527   0.499   6.758  0.2794 -0.6363  0.3945
 2773SOL    HW219956   2.571   0.605   6.651 -0.5506 -1.5400 -0.6379
 2774SOL     OW19957   0.281   2.853  15.146  0.0432 -0.1404 -0.3630
 2774SOL    HW119958   0.360   2.837  15.095  1.2431  2.1046  0.8396
 2774SOL    HW219959   0.295   2.947  15.157 -1.5604  0.2523 -1.7044
 2775SOL     OW19960   1.860   4.466   1.928 -0.0525 -0.3792  0.4004
 2775SOL    HW119961   1.814   4.383   1.941  0.5446 -1.0307 -1.5813
 2775SOL    HW219962   1.786   4.516   1.894  0.5360  0.7053  0.6903
 2776SOL     OW19963   2.216   3.924  15.246  0.2160  0.6199  0.2533
 2776SOL    HW119964   2.290   3.872  15.215  0.9291  0.7964  1.6929
 2776SOL    HW219965   2.143   3.885  15.199  0.3641  0.0649  0.4846
 2777SOL     OW19966   1.967   0.117  12.703 -0.0587  0.6651  0.1443
 2777SOL    HW119967   2.063   0.119  12.712 -0.2075 -0.7560  2.1030
 2777SOL    HW219968   1.940   0.189  12.761 -1.2528  0.7216 -0.4901
 2778SOL     OW19969   0.095   3.693   5.792 -0.3337 -0.0695 -0.1940
 2778SOL    HW119970   0.181   3.659   5.764 -0.1518 -1.3015  1.8268
 2778SOL    HW219971   0.043   3.682   5.712 -2.3556  0.6534  1.0497
 2779SOL     OW19972   0.801   3.165  14.500 -0.1344 -0.4407 -0.0546
 2779SOL    HW119973   0.709   3.178  14.478  0.4073  1.5305 -1.1545
 2779SOL    HW219974   0.842   3.229  14.442 -0.3182 -0.0635  0.2333
 2780SOL     OW19975   1.333   0.228   7.034  0.4418  0.1758  0.1922
 2780SOL    HW119976   1.346   0.164   7.105  1.9311  0.2080 -0.0482
 2780SOL    HW219977   1.263   0.179   6.992  1.8164 -0.6481 -1.1389
 2781SOL     OW19978   2.596   1.719   6.858 -0.2671 -0.0840 -0.3332
 2781SOL    HW119979   2.649   1.779   6.911 -0.0953 -0.8569  0.3590
 2781SOL    HW219980   2.544   1.683   6.929  0.6045  0.7378  0.7305
 2782SOL     OW19981   2.003   2.354   9.812  0.2536  0.7210 -0.2257
 2782SOL    HW119982   2.028   2.446   9.805  3.4407 -0.0402  1.5401
 2782SOL    HW219983   1.908   2.349   9.798 -0.0533  0.3694  2.0607
 2783SOL     OW19984   1.523   0.830   3.822 -0.4335  0.1089 -0.1397
 2783SOL    HW119985   1.473   0.901   3.862 -0.6580 -0.7220  1.0599
 2783SOL    HW219986   1.610   0.866   3.841 -0.4170 -0.1796  0.3127
 2784SOL     OW19987   4.441   2.456   8.016 -0.0159 -0.1584 -0.0964
 2784SOL    HW119988   4.439   2.360   8.021 -0.1855 -0.0961  0.9156
 2784SOL    HW219989   4.377   2.482   8.082 -1.1571  1.3608 -1.7991
 2785SOL     OW19990   3.471   1.019   2.054  0.0709  0.1371  0.0093
 2785SOL    HW119991   3.437   1.107   2.066 -1.3367 -0.5846  1.3231
 2785SOL    HW219992   3.543   1.026   2.118 -0.3115  0.5946  0.3852
 2786SOL     OW19993   1.838   1.959   8.597 -0.9618 -0.3537 -0.3043
 2786SOL    HW119994   1.856   2.007   8.517  0.0755 -2.0259 -1.0948
 2786SOL    HW219995   1.760   1.909   8.574 -1.6149  0.8880 -0.7815
 2787SOL     OW19996   1.926   2.832   3.185 -0.3249  0.2506  0.2778
 2787SOL    HW119997   1.999   2.782   3.149 -2.6490 -3.0993  0.2431
 2787SOL    HW219998   1.965   2.856   3.269  2.7436 -0.8339 -0.8354
 2788SOL     OW19999   1.647   1.321   5.886 -0.9548 -0.5498  0.0709
 2788SOL    HW120000   1.687   1.407   5.874  1.4164 -1.2465  2.8033
 2788SOL    HW220001   1.669   1.306   5.978 -4.7427 -1.1604  0.8837
 2789SOL     OW20002   0.567   0.356  12.808  0.2047 -0.2434 -0.3820
 2789SOL    HW120003   0.629   0.361  12.736  1.2018  0.0917  0.5005
 2789SOL    HW220004   0.611   0.312  12.881 -1.6168 -0.1828  0.7410
 2790SOL     OW20005   3.991   0.062   6.875  0.0340  0.2221  0.1349
 2790SOL    HW120006   4.069   0.109   6.904 -0.0876  0.0674  0.7255
 2790SOL    HW220007   4.014   4.715   6.916 -0.7273  1.9071  3.9901
 2791SOL     OW20008   3.135   1.456  15.381  0.0723 -0.1064 -0.5024
 2791SOL    HW120009   3.082   1.441  15.459  0.7512  0.5520  0.0791
 2791SOL    HW220010   3.168   1.373  15.346 -0.5261 -0.7563  0.4621
 2792SOL     OW20011   3.988   3.310   6.910 -0.5388 -0.5095  0.3855
 2792SOL    HW120012   4.007   3.355   6.992  1.7020  1.3487 -1.1446
 2792SOL    HW220013   3.941   3.233   6.942 -0.3025 -0.3788  1.0360
 2793SOL     OW20014   0.011   2.807  11.214 -0.1555 -0.6009  0.7856
 2793SOL    HW120015   4.667   2.838  11.257 -0.2598  1.9601 -1.2567
 2793SOL    HW220016   4.719   2.723  11.177  1.0503  0.0340 -1.5677
 2794SOL     OW20017   3.435   0.548   2.170  0.3739 -0.0874 -0.0869
 2794SOL    HW120018   3.362   0.492   2.144  1.5016 -1.2718 -0.7046
 2794SOL    HW220019   3.392   0.626   2.205 -0.1573 -0.3810 -0.0917
 2795SOL     OW20020   2.352   3.523   2.627 -0.0382 -0.5368  0.4929
 2795SOL    HW120021   2.345   3.596   2.565 -0.8012 -0.3151  0.8498
 2795SOL    HW220022   2.446   3.509   2.638  0.0562 -0.0762  0.2748
 2796SOL     OW20023   2.846   4.501   9.562 -0.2065 -0.0130  0.6398
 2796SOL    HW120024   2.808   4.485   9.648  2.6410 -2.4381  1.4540
 2796SOL    HW220025   2.889   4.587   9.567 -0.8892  0.3765 -0.0950
 2797SOL     OW20026   1.992   2.439   7.475 -0.2729 -0.2148 -0.4056
 2797SOL    HW120027   1.934   2.503   7.434  1.7111  1.3049 -0.8406
 2797SOL    HW220028   2.037   2.397   7.402 -2.1614  1.0143 -2.2507
 2798SOL     OW20029   2.827   2.417   4.494  0.1140 -0.6778 -0.5652
 2798SOL    HW120030   2.792   2.504   4.514 -0.2615 -1.1299  0.7580
 2798SOL    HW220031   2.840   2.383   4.582 -1.8873 -1.4797 -0.5832
 2799SOL     OW20032   2.336   2.814   5.823 -0.0485  0.4267 -0.5079
 2799SOL    HW120033   2.288   2.849   5.898 -0.6022  0.7000 -0.9886
 2799SOL    HW220034   2.261   2.784   5.771  0.8079  0.1267 -1.5854
 2800SOL     OW20035   1.715   3.521   5.014 -0.0710  0.0174 -0.4888
 2800SOL    HW120036   1.750   3.606   4.988 -1.0866  1.2813  2.2761
 2800SOL    HW220037   1.624   3.540   5.035 -0.3111 -1.8701  0.1463
 2801SOL     OW20038   1.006   3.047   5.374 -0.3182 -0.2314 -0.0665
 2801SOL    HW120039   1.030   3.060   5.466  0.4434 -0.0359 -0.2891
 2801SOL    HW220040   1.096   3.056   5.341 -0.6924  1.2008 -0.6856
 2802SOL     OW20041   4.364   2.539   3.531  1.0897  0.1329 -0.5942
 2802SOL    HW120042   4.377   2.622   3.486  0.9413  1.3328  1.5913
 2802SOL    HW220043   4.403   2.475   3.470  0.0207 -0.2468 -0.8764
 2803SOL     OW20044   0.427   3.245   6.314 -0.2828 -0.1124  0.2022
 2803SOL    HW120045   0.451   3.170   6.369 -2.0772 -0.0366  1.1018
 2803SOL    HW220046   0.503   3.264   6.259  0.5703 -0.2243  1.3354
 2804SOL     OW20047   2.973   2.507  11.864  0.1176 -0.4444 -0.3010
 2804SOL    HW120048   2.948   2.553  11.784  1.7904  1.9504  0.5586
 2804SOL    HW220049   3.040   2.565  11.898 -0.0848 -0.9087  0.9157
 2805SOL     OW20050   3.472   2.037   5.275  0.5259 -0.6323 -0.4152
 2805SOL    HW120051   3.539   2.000   5.333 -0.6868  0.9092  2.0055
 2805SOL    HW220052   3.496   2.005   5.188  1.5296 -1.5387  0.2013
 2806SOL     OW20053   3.043   0.240  14.976  0.6550 -0.2726  0.0913
 2806SOL    HW120054   2.956   0.277  14.961  1.0590  0.4372 -0.4647
 2806SOL    HW220055   3.092   0.321  14.969  0.2463 -0.0964 -0.7396
 2807SOL     OW20056   0.150   3.307   7.234  0.0699 -0.1145 -0.3557
 2807SOL    HW120057   0.117   3.363   7.304  1.8493  0.3105  0.1556
 2807SOL    HW220058   0.189   3.376   7.180  0.5582  0.2051  0.3972
 2808SOL     OW20059   3.022   3.537   8.330  0.1885 -0.1932 -0.0228
 2808SOL    HW120060   3.039   3.444   8.316  0.7588 -0.2124  0.7664
 2808SOL    HW220061   2.978   3.533   8.415 -2.4841 -2.9115 -1.5676
 2809SOL     OW20062   0.657   0.002   4.600  0.3776 -0.4161  0.2620
 2809SOL    HW120063   0.723   0.026   4.665  0.1606  1.3415 -0.1407
 2809SOL    HW220064   0.620   4.667   4.651  0.2914 -0.1997  0.5030
 2810SOL     OW20065   2.998   0.529  11.358 -0.1504 -0.4706 -0.2522
 2810SOL    HW120066   2.910   0.496  11.340 -0.9906 -0.1502  3.3325
 2810SOL    HW220067   3.041   0.506  11.276 -1.3281  0.1925 -1.0640
 2811SOL     OW20068   0.895   3.964   2.159  0.4862 -0.2329  0.3193
 2811SOL    HW120069   0.899   3.949   2.064  1.6386  0.3742  0.2665
 2811SOL    HW220070   0.812   3.922   2.180  0.3913 -0.5327 -0.6630
 2812SOL     OW20071   2.537   0.199   2.143 -0.1314  0.0426 -0.4395
 2812SOL    HW120072   2.624   0.220   2.110 -0.5286 -0.9156 -2.0975
 2812SOL    HW220073   2.544   0.119   2.196  0.8529  0.6315  0.2953
 2813SOL     OW20074   3.042   3.388   3.909  0.0932 -0.0600  0.1710
 2813SOL    HW120075   3.092   3.307   3.910  1.9262  1.0767  0.6299
 2813SOL    HW220076   2.965   3.345   3.871 -0.8728  1.6214  0.1863
 2814SOL     OW20077   2.188   3.929   2.058  0.2519  0.5435 -0.0385
 2814SOL    HW120078   2.254   3.942   2.126 -0.2096  0.1854  0.4788
 2814SOL    HW220079   2.122   3.871   2.096 -0.0797  1.4593  0.7901
 2815SOL     OW20080   0.827   1.968   3.140  0.0495 -0.1272  0.4365
 2815SOL    HW120081   0.916   1.935   3.133 -0.2969 -0.4405 -2.2724
 2815SOL    HW220082   0.833   2.058   3.170 -0.5463 -0.2269  0.8615
 2816SOL     OW20083   3.749   2.530   8.220 -0.0492 -0.2642  0.0993
 2816SOL    HW120084   3.673   2.508   8.274  0.3612 -0.6605  0.5252
 2816SOL    HW220085   3.734   2.471   8.146  1.6705  1.2467 -1.4255
 2817SOL     OW20086   2.861   1.266   2.999 -0.1536  0.4887 -0.5608
 2817SOL    HW120087   2.941   1.313   3.025 -1.2159  2.6213 -1.1594
 2817SOL    HW220088   2.818   1.337   2.952 -0.9219 -0.7555 -1.7213
 2818SOL     OW20089   4.293   3.210  10.137  0.3623 -0.2409 -0.3366
 2818SOL    HW120090   4.343   3.292  10.140 -0.0646  0.0515 -1.5460
 2818SOL    HW220091   4.265   3.204  10.229  0.8188  1.4883 -0.0905
 2819SOL     OW20092   3.192   4.395  15.367 -0.4565 -0.1927 -0.4901
 2819SOL    HW120093   3.253   4.460  15.400 -0.1623 -0.9431  0.4511
 2819SOL    HW220094   3.245   4.316  15.359 -2.0114 -1.2463 -0.5396
 2820SOL     OW20095   2.349   4.330   8.758 -0.0512  0.0818 -0.2973
 2820SOL    HW120096   2.320   4.390   8.827 -3.1181 -1.0162 -0.6279
 2820SOL    HW220097   2.291   4.254   8.763 -0.2865  0.4821  2.8292
 2821SOL     OW20098   3.449   3.827   6.140 -0.0193  0.4870 -0.1184
 2821SOL    HW120099   3.487   3.914   6.126 -1.7989  1.2838 -0.0327
 2821SOL    HW220100   3.388   3.843   6.212  0.9742 -0.8746  1.0378
 2822SOL     OW20101   3.754   2.240  17.689  0.6569  0.5112  0.4776
 2822SOL    HW120102   3.721   2.330  17.694  1.5230  0.7369  2.1049
 2822SOL    HW220103   3.687   2.190  17.735 -0.1885  0.8175 -0.4047
 2823SOL     OW20104   3.646   0.894   2.745 -0.5232 -0.4188 -0.0679
 2823SOL    HW120105   3.570   0.837   2.739 -0.6730 -0.0640 -1.8118
 2823SOL    HW220106   3.644   0.916   2.838  0.9348  0.4076 -0.2236
 2824SOL     OW20107   0.742   3.722   6.177 -0.0283 -0.3094  0.2472
 2824SOL    HW120108   0.667   3.688   6.226  0.5963 -2.6917 -0.4287
 2824SOL    HW220109   0.757   3.648   6.118 -0.5523  1.3273 -1.9105
 2825SOL     OW20110   0.688   0.093  11.608  0.1506 -0.4812  0.1309
 2825SOL    HW120111   0.598   0.113  11.635  0.3799  2.1843 -0.9793
 2825SOL    HW220112   0.668   0.076  11.515 -1.0065  2.4774 -0.1546
 2826SOL     OW20113   2.487   3.558   8.617  0.7256 -0.4293  0.2817
 2826SOL    HW120114   2.470   3.464   8.631 -0.1686 -0.5260 -1.5508
 2826SOL    HW220115   2.465   3.590   8.704 -0.4246  0.7666 -0.4624
 2827SOL     OW20116   3.235   1.955   7.847 -0.5243 -0.6096 -0.2420
 2827SOL    HW120117   3.177   2.016   7.891 -0.6272 -2.0849  1.7095
 2827SOL    HW220118   3.263   1.893   7.915 -2.3356 -0.5571  0.5465
 2828SOL     OW20119   2.541   0.736   2.191 -0.2043  0.0741  0.3970
 2828SOL    HW120120   2.568   0.651   2.224  1.9838  0.7494  0.3300
 2828SOL    HW220121   2.468   0.749   2.252 -2.0223  0.0723 -1.7685
 2829SOL     OW20122   3.275   4.103  15.008  0.8134  0.5437 -0.4268
 2829SOL    HW120123   3.202   4.164  14.999  1.2397  1.0195 -0.6848
 2829SOL    HW220124   3.264   4.042  14.935 -1.0554 -0.6116  0.8238
 2830SOL     OW20125   1.943   4.713   5.961 -0.0105 -0.4525  0.6285
 2830SOL    HW120126   1.858   4.733   5.921 -0.1553 -0.8161  0.7557
 2830SOL    HW220127   1.986   4.679   5.882 -1.0703  1.7274 -0.8893
 2831SOL     OW20128   0.041   2.783   0.404 -0.1334  0.0246 -0.2997
 2831SOL    HW120129   0.012   2.839   0.476  0.7232  2.1768 -1.6377
 2831SOL    HW220130   0.047   2.707   0.463  1.6974  0.3186 -0.1244
 2832SOL     OW20131   0.650   0.417  15.771  0.5605 -0.4213  0.5460
 2832SOL    HW120132   0.668   0.478  15.843 -0.2026 -0.3954  0.7165
 2832SOL    HW220133   0.713   0.455  15.710  1.8548  0.5940  2.5225
 2833SOL     OW20134   4.407   0.471   8.022  0.1108 -0.4615 -0.1769
 2833SOL    HW120135   4.403   0.497   8.114  2.2840  0.3092 -0.2981
 2833SOL    HW220136   4.401   0.557   7.981 -0.0334 -0.7327 -0.7255
 2834SOL     OW20137   3.304   2.467  15.250 -0.4492 -0.6276  0.3398
 2834SOL    HW120138   3.292   2.444  15.158 -2.6756 -1.5788  0.8948
 2834SOL    HW220139   3.394   2.439  15.266  0.0208  0.9555  0.4959
 2835SOL     OW20140   1.403   2.897   0.174 -0.0928  0.0558 -0.0351
 2835SOL    HW120141   1.318   2.854   0.168  0.5538 -0.9512 -1.9235
 2835SOL    HW220142   1.429   2.866   0.261  0.0286 -0.9927 -0.4410
 2836SOL     OW20143   3.942   2.220   2.908  0.4620  0.4952 -0.7223
 2836SOL    HW120144   3.920   2.195   2.818 -1.9383 -0.8861  0.2556
 2836SOL    HW220145   3.900   2.306   2.911  1.2019  0.8217  0.5245
 2837SOL     OW20146   3.478   3.386   2.425  0.1870 -0.2998 -0.4719
 2837SOL    HW120147   3.507   3.412   2.512 -3.0347 -0.0879  0.5567
 2837SOL    HW220148   3.414   3.316   2.442  0.7682 -0.6746  0.1867
 2838SOL     OW20149   0.005   1.303   8.736  0.7194 -0.4755  0.8083
 2838SOL    HW120150   0.014   1.393   8.767  0.7904  0.1086 -0.9125
 2838SOL    HW220151   4.650   1.282   8.754  1.0252 -2.5380 -0.0364
 2839SOL     OW20152   0.977   3.255   7.308 -0.0004  0.5439 -0.0169
 2839SOL    HW120153   0.898   3.273   7.360  0.8254  0.9774  1.0768
 2839SOL    HW220154   0.958   3.307   7.230  2.3787 -0.1314 -1.0218
 2840SOL     OW20155   3.901   0.707   6.704 -0.3252 -0.4240  0.2983
 2840SOL    HW120156   3.820   0.693   6.753 -1.6206  2.8640 -0.9032
 2840SOL    HW220157   3.967   0.653   6.748  0.7163 -1.2523 -2.3396
 2841SOL     OW20158   2.970   4.082   6.704 -0.3105  0.0602 -0.2465
 2841SOL    HW120159   3.013   3.997   6.705  0.8688  0.6777  0.6766
 2841SOL    HW220160   3.027   4.137   6.757 -2.1292 -1.3057  3.1051
 2842SOL     OW20161   1.637   2.807   8.648 -0.6587  0.4077 -0.2569
 2842SOL    HW120162   1.654   2.859   8.726  0.8003 -1.0336  0.3839
 2842SOL    HW220163   1.714   2.753   8.629 -0.0063  0.4544  2.2640
 2843SOL     OW20164   3.673   3.242   1.419  0.0066  0.6122 -0.4844
 2843SOL    HW120165   3.686   3.330   1.383  0.7091  0.4151 -0.7060
 2843SOL    HW220166   3.751   3.219   1.471  0.0843  1.8850 -0.0276
 2844SOL     OW20167   2.261   4.282   5.863  0.5768 -0.0595  0.6087
 2844SOL    HW120168   2.282   4.208   5.919  1.0277 -1.9985 -2.0970
 2844SOL    HW220169   2.352   4.302   5.841  0.2215 -0.4446 -1.2787
 2845SOL     OW20170   1.564   3.777   8.232 -0.8375  0.3641  0.1226
 2845SOL    HW120171   1.571   3.804   8.324 -0.5792 -1.2905  0.5880
 2845SOL    HW220172   1.641   3.722   8.219 -0.6135  0.5428  0.6805
 2846SOL     OW20173   1.911   0.954   1.111 -0.3523 -0.2219 -0.7794
 2846SOL    HW120174   1.916   0.886   1.043 -2.0853 -3.6129  2.5217
 2846SOL    HW220175   1.996   0.946   1.153 -0.3681  0.0298 -0.7025
 2847SOL     OW20176   1.595   2.940   9.338  0.1458 -0.4109 -0.0880
 2847SOL    HW120177   1.686   2.912   9.341  0.7607  1.8195  2.0476
 2847SOL    HW220178   1.554   2.868   9.290 -2.1160  0.8609 -0.0703
 2848SOL     OW20179   1.751   2.011   6.590  0.0048  0.0543 -0.0788
 2848SOL    HW120180   1.813   2.082   6.576 -1.4358  1.0416 -1.4584
 2848SOL    HW220181   1.726   1.994   6.499 -2.5752  3.5114 -0.0136
 2849SOL     OW20182   2.580   4.683   6.195  0.2097 -0.1644 -0.2691
 2849SOL    HW120183   2.578   4.591   6.220 -0.4038 -0.0036  0.2764
 2849SOL    HW220184   2.485   4.692   6.187  0.4928  1.8638 -1.4121
 2850SOL     OW20185   3.091   1.501   6.219  0.2233  0.2184 -0.2864
 2850SOL    HW120186   3.070   1.559   6.292  0.0655  0.2924 -0.3901
 2850SOL    HW220187   3.057   1.556   6.148 -0.0688  2.4005  1.5177
 2851SOL     OW20188   2.441   0.453   3.972  0.2192  0.2331  0.4702
 2851SOL    HW120189   2.357   0.422   3.937  0.8306 -1.1924  0.2313
 2851SOL    HW220190   2.408   0.515   4.037 -1.4743 -0.6189  0.4496
 2852SOL     OW20191   0.652   1.783   7.030 -0.1333 -0.1861  0.2871
 2852SOL    HW120192   0.634   1.818   7.117 -2.2185 -1.0807  0.2155
 2852SOL    HW220193   0.747   1.797   7.022 -0.9708  3.3955 -3.1019
 2853SOL     OW20194   1.880   0.534  10.723 -0.1789 -0.4933 -0.1153
 2853SOL    HW120195   1.951   0.536  10.788 -0.5272  1.4024  0.1964
 2853SOL    HW220196   1.800   0.503  10.764 -0.2667  0.8529  0.7247
 2854SOL     OW20197   2.276   0.313   9.452 -0.3055 -0.1543  0.4036
 2854SOL    HW120198   2.339   0.315   9.380 -2.7569  0.1752 -1.7473
 2854SOL    HW220199   2.275   0.407   9.471  1.4320  0.6219 -3.4081
 2855SOL     OW20200   2.492   2.670   9.654 -0.4759  0.1986  0.3831
 2855SOL    HW120201   2.556   2.739   9.637  1.7074 -1.6800  0.9259
 2855SOL    HW220202   2.407   2.712   9.663 -1.1553 -1.6715  2.5945
 2856SOL     OW20203   4.726   2.498   3.295 -0.6261  0.2208  0.4011
 2856SOL    HW120204   0.046   2.539   3.230  1.1985 -0.9855  1.2216
 2856SOL    HW220205   0.030   2.495   3.381  0.9087 -0.9507 -0.3505
 2857SOL     OW20206   0.091   2.596   8.122  0.3394  0.1954  0.3966
 2857SOL    HW120207   0.160   2.538   8.088  0.7472 -0.1741  1.8603
 2857SOL    HW220208   0.086   2.654   8.046  0.0044 -3.2333 -2.1978
 2858SOL     OW20209   2.978   2.074   4.025 -0.4291 -0.1680  0.0292
 2858SOL    HW120210   2.993   2.134   3.952 -0.2754 -1.3094 -0.8643
 2858SOL    HW220211   2.915   2.011   3.989  1.4734  0.1133 -3.7662
 2859SOL     OW20212   1.485   0.446  11.345 -0.1016 -0.4553  0.1440
 2859SOL    HW120213   1.520   0.502  11.276  2.3602 -1.4104  0.6255
 2859SOL    HW220214   1.564   0.428  11.396 -1.5047 -0.7896  2.1874
 2860SOL     OW20215   0.807   2.471   0.395 -0.6433 -0.2899  0.4492
 2860SOL    HW120216   0.901   2.479   0.409 -0.4637  0.5702 -1.1622
 2860SOL    HW220217   0.781   2.558   0.425  0.1330  0.3478 -0.7278
 2861SOL     OW20218   3.252   2.942  13.691  0.1140  0.5121  0.0226
 2861SOL    HW120219   3.263   2.944  13.596  0.2891 -1.8080 -0.0051
 2861SOL    HW220220   3.272   2.851  13.714 -0.2923 -0.1752 -2.3399
 2862SOL     OW20221   1.796   4.307  10.194  0.5016  0.1007 -0.5261
 2862SOL    HW120222   1.728   4.240  10.193  0.7455 -0.1679  0.2823
 2862SOL    HW220223   1.758   4.374  10.138 -1.6654  0.1386  0.9744
 2863SOL     OW20224   4.207   3.239  10.686  0.2836  0.6212 -0.3546
 2863SOL    HW120225   4.164   3.200  10.762 -0.4189 -1.3186 -1.7358
 2863SOL    HW220226   4.279   3.276  10.736 -0.5905  0.8374  0.7532
 2864SOL     OW20227   3.771   1.738  11.578 -0.2759 -0.0038  0.2145
 2864SOL    HW120228   3.790   1.813  11.633 -1.6073  0.7781 -0.4063
 2864SOL    HW220229   3.793   1.764  11.488 -1.2542 -2.3065 -0.7223
 2865SOL     OW20230   0.193   2.105  14.724 -0.2760 -0.4221  0.0302
 2865SOL    HW120231   0.177   2.189  14.681 -1.2772 -1.4077 -1.5458
 2865SOL    HW220232   0.239   2.055  14.656  1.6666  2.8805 -1.0690
 2866SOL     OW20233   2.108   2.756   8.411  0.1682  0.5712 -0.2854
 2866SOL    HW120234   2.087   2.795   8.496 -1.9207 -1.8650  0.3346
 2866SOL    HW220235   2.200   2.735   8.425  0.2325  0.5730 -0.7113
 2867SOL     OW20236   0.952   0.123   6.089  0.3825 -0.0822  0.1337
 2867SOL    HW120237   0.934   0.208   6.048  0.8187  0.1235  0.3765
 2867SOL    HW220238   1.018   0.091   6.027  0.4267 -0.0043  0.1406
 2868SOL     OW20239   3.785   3.675   2.006  0.3282 -0.1538 -0.0005
 2868SOL    HW120240   3.701   3.633   1.988 -0.5318  1.2704  0.7082
 2868SOL    HW220241   3.806   3.645   2.094 -0.0068 -1.3410 -0.3180
 2869SOL     OW20242   3.263   1.527   3.187  1.0645  0.0619 -0.1608
 2869SOL    HW120243   3.290   1.436   3.197  0.2662 -0.1115  0.3806
 2869SOL    HW220244   3.194   1.522   3.121 -0.8454  1.7640  1.7075
 2870SOL     OW20245   1.325   1.635   2.625 -0.3630 -0.0577  0.0248
 2870SOL    HW120246   1.416   1.648   2.653  0.5866 -4.9567 -0.7024
 2870SOL    HW220247   1.347   1.581   2.549 -1.6499 -0.6649  0.0815
 2871SOL     OW20248   0.284   1.485  12.673  0.0515  0.3434 -0.2204
 2871SOL    HW120249   0.246   1.398  12.659  0.0955  0.5753 -1.7199
 2871SOL    HW220250   0.207   1.538  12.653  0.7295  2.2555  2.2338
 2872SOL     OW20251   3.468   3.609   8.718 -0.7245  0.3797  0.5759
 2872SOL    HW120252   3.424   3.691   8.696 -0.9802 -0.2218 -1.1556
 2872SOL    HW220253   3.408   3.541   8.689  0.2011 -0.6925  1.2039
 2873SOL     OW20254   3.675   4.629  12.838 -0.4308 -0.2657 -0.1918
 2873SOL    HW120255   3.697   4.536  12.832 -2.2232 -0.6537 -0.5876
 2873SOL    HW220256   3.585   4.629  12.871 -0.5791  0.7458 -0.6015
 2874SOL     OW20257   1.319   1.919   6.512  0.5164 -0.0738 -0.2981
 2874SOL    HW120258   1.374   1.887   6.584 -2.0135 -4.6526 -0.4242
 2874SOL    HW220259   1.369   1.996   6.483  0.5460  1.0258  2.6095
 2875SOL     OW20260   1.404   1.480   5.502  0.2163 -0.7874 -0.2586
 2875SOL    HW120261   1.405   1.424   5.580 -0.1346 -0.2628  0.1251
 2875SOL    HW220262   1.476   1.539   5.526  1.1712 -2.8097  1.8973
 2876SOL     OW20263   4.715   1.694   9.924  0.5998  0.0096  0.3218
 2876SOL    HW120264   4.706   1.636   9.849  0.2977  1.3485 -0.6766
 2876SOL    HW220265   0.058   1.666   9.970 -0.4159 -0.0306  2.0714
 2877SOL     OW20266   3.518   3.824  15.787 -0.1385  0.1516 -0.6515
 2877SOL    HW120267   3.445   3.840  15.727 -1.9061 -0.6627  1.2609
 2877SOL    HW220268   3.583   3.784  15.730  0.2425 -0.8147  0.4594
 2878SOL     OW20269   4.222   1.364   5.020  0.4554 -0.1820  0.2051
 2878SOL    HW120270   4.181   1.278   5.019 -0.0068  0.0254  0.9910
 2878SOL    HW220271   4.268   1.369   4.936 -0.0179 -0.1858 -0.0561
 2879SOL     OW20272   3.358   1.809   9.224 -0.3000  0.4825  0.2679
 2879SOL    HW120273   3.428   1.754   9.189  0.3930  1.8058 -0.4634
 2879SOL    HW220274   3.403   1.893   9.238 -1.4006  0.8270  1.7137
 2880SOL     OW20275   2.874   3.459   8.666  1.0352 -0.8641  0.1037
 2880SOL    HW120276   2.865   3.553   8.677 -1.2865 -1.1488  0.5227
 2880SOL    HW220277   2.969   3.451   8.654  1.0684 -0.8538  0.3620
 2881SOL     OW20278   4.616   0.882   8.136 -0.6727  0.0733 -0.8037
 2881SOL    HW120279   4.573   0.932   8.206  0.9670 -0.5990  0.6953
 2881SOL    HW220280   4.688   0.846   8.188 -0.3828  0.8501 -0.6690
 2882SOL     OW20281   2.264   1.072   1.158 -0.1457 -0.0761 -0.1832
 2882SOL    HW120282   2.268   1.111   1.071 -3.1562 -0.1190 -0.3309
 2882SOL    HW220283   2.354   1.056   1.187  0.5890  0.8267 -1.9690
 2883SOL     OW20284   3.045   1.317   4.008 -0.5026 -0.4325 -0.0654
 2883SOL    HW120285   3.099   1.383   3.965 -2.6018  1.3054 -0.0194
 2883SOL    HW220286   3.008   1.273   3.931 -1.6645  0.4417 -0.0144
 2884SOL     OW20287   0.035   3.910  14.396 -0.3608 -0.0585 -0.0343
 2884SOL    HW120288   0.090   3.979  14.357  0.5356  0.1645  1.5950
 2884SOL    HW220289   0.076   3.907  14.483  1.4769  0.3857 -0.8774
 2885SOL     OW20290   4.543   3.724   7.183  0.3580  0.2703  0.3949
 2885SOL    HW120291   4.584   3.666   7.247 -0.0714 -1.6662 -1.1037
 2885SOL    HW220292   4.608   3.795   7.176 -0.2071  0.8146  0.7159
 2886SOL     OW20293   1.838   2.014  12.166 -0.4184  0.0813  0.0321
 2886SOL    HW120294   1.760   1.971  12.202  0.4470 -1.6701 -0.1501
 2886SOL    HW220295   1.804   2.072  12.098  1.2985  0.2299 -0.7101
 2887SOL     OW20296   3.195   0.684   9.496 -0.0383  0.0187 -0.3825
 2887SOL    HW120297   3.249   0.675   9.417  0.5414  1.1144 -0.0990
 2887SOL    HW220298   3.117   0.636   9.468  1.6313 -3.9572  1.8282
 2888SOL     OW20299   3.157   1.456   5.284 -0.4361 -0.0619 -0.5822
 2888SOL    HW120300   3.150   1.491   5.195  1.4914  2.7696  0.3819
 2888SOL    HW220301   3.202   1.371   5.283  1.1175  0.7742 -1.7293
 2889SOL     OW20302   4.323   3.430   3.951 -0.4896 -0.0465  0.0669
 2889SOL    HW120303   4.414   3.453   3.969  0.1376 -2.2542 -0.1619
 2889SOL    HW220304   4.323   3.334   3.940 -0.6857 -0.1527  1.0067
 2890SOL     OW20305   2.215   3.053   4.780  0.3517 -0.1635  0.4905
 2890SOL    HW120306   2.182   2.993   4.848  0.6341 -1.1742 -0.2626
 2890SOL    HW220307   2.275   2.990   4.740 -0.5956 -0.5683 -0.3064
 2891SOL     OW20308   0.725   0.636   3.898 -0.5381  0.4008  0.0237
 2891SOL    HW120309   0.763   0.593   3.975  2.1792 -0.2680 -1.6797
 2891SOL    HW220310   0.746   0.728   3.911  0.5098  0.4079 -1.6879
 2892SOL     OW20311   0.127   3.914   2.812  0.0933 -0.1431  0.6187
 2892SOL    HW120312   0.181   3.844   2.774 -0.3758 -0.1765  0.0003
 2892SOL    HW220313   0.159   3.926   2.901  2.3352  0.1797 -0.2274
 2893SOL     OW20314   0.555   4.561   5.584  0.2373 -0.1367 -0.9051
 2893SOL    HW120315   0.474   4.604   5.556  1.2066  1.8945 -0.5483
 2893SOL    HW220316   0.539   4.578   5.677 -0.0395 -0.1959 -0.9396
 2894SOL     OW20317   1.160   3.388   1.832 -0.1322  0.3915  0.1054
 2894SOL    HW120318   1.084   3.415   1.884  0.4190  0.0007  1.0992
 2894SOL    HW220319   1.231   3.389   1.896 -2.5807 -1.3357  2.8080
 2895SOL     OW20320   1.568   0.129   9.270 -0.0995  0.4758 -0.1242
 2895SOL    HW120321   1.622   0.156   9.344 -1.5746 -1.7692  1.7651
 2895SOL    HW220322   1.573   0.208   9.217  1.1189  0.6393  0.2398
 2896SOL     OW20323   2.767   0.296   1.466 -0.1137  0.1468 -0.0444
 2896SOL    HW120324   2.678   0.264   1.453 -0.5064  0.9452  0.7101
 2896SOL    HW220325   2.795   0.236   1.536 -2.5706 -0.0174  0.7782
 2897SOL     OW20326   2.194   4.230  12.129  0.0692  0.3327 -0.3372
 2897SOL    HW120327   2.267   4.225  12.067  0.7555 -0.5354  0.5452
 2897SOL    HW220328   2.129   4.196  12.067  2.3700 -1.2003 -1.9307
 2898SOL     OW20329   3.807   2.777   8.394  0.5156 -0.1358 -0.1640
 2898SOL    HW120330   3.880   2.822   8.352  0.5245 -1.0519 -1.1191
 2898SOL    HW220331   3.790   2.716   8.322 -4.0447 -1.5733  2.1274
 2899SOL     OW20332   1.593   1.267   9.535 -0.2036  0.0217  0.3524
 2899SOL    HW120333   1.688   1.265   9.539 -0.3083 -1.1121  2.2317
 2899SOL    HW220334   1.572   1.303   9.621  0.9655  1.0757  0.1902
 2900SOL     OW20335   3.483   2.665   4.308 -0.2295  0.1105 -0.3080
 2900SOL    HW120336   3.495   2.583   4.355 -0.1734 -1.4887 -3.1521
 2900SOL    HW220337   3.479   2.730   4.378  1.2840 -1.6279  1.3929
 2901SOL     OW20338   2.118   0.123   2.981  0.1989  0.2042  0.0682
 2901SOL    HW120339   2.208   0.105   2.953  0.3044  0.5583  0.1957
 2901SOL    HW220340   2.066   0.069   2.922  1.5762  0.7563 -1.6604
 2902SOL     OW20341   4.128   3.961   6.927 -0.0767 -0.2057 -0.6834
 2902SOL    HW120342   4.214   3.944   6.966 -0.7622 -0.7580  0.6057
 2902SOL    HW220343   4.146   3.999   6.841  0.2453 -0.6476 -0.8106
 2903SOL     OW20344   2.938   4.109   7.412 -0.3978  0.2563 -0.2977
 2903SOL    HW120345   3.027   4.140   7.395 -0.5722 -0.0352 -1.6885
 2903SOL    HW220346   2.950   4.020   7.379  0.5653  0.3706 -0.2786
 2904SOL     OW20347   2.690   0.646   6.955  0.1040  0.2525 -0.4039
 2904SOL    HW120348   2.666   0.620   6.866 -1.3542  2.3949 -0.6388
 2904SOL    HW220349   2.602   0.668   6.987  0.9415  3.5890 -0.3909
 2905SOL     OW20350   2.757   3.840   0.990 -0.0876  0.0478  0.2678
 2905SOL    HW120351   2.814   3.807   1.059 -1.3200 -0.3457  1.1074
 2905SOL    HW220352   2.824   3.870   0.929  0.2923  0.6378  0.9651
 2906SOL     OW20353   3.070   2.247   3.787  0.3155 -0.2975  0.4107
 2906SOL    HW120354   3.057   2.164   3.743  1.7683  0.6787 -1.8398
 2906SOL    HW220355   2.985   2.289   3.771  0.1917 -0.6044  0.2598
 2907SOL     OW20356   3.239   2.656  14.985 -0.2994 -0.2766 -0.3219
 2907SOL    HW120357   3.272   2.685  15.071 -1.8626  0.1301  0.1404
 2907SOL    HW220358   3.237   2.731  14.925  2.9506 -1.1697 -1.5303
 2908SOL     OW20359   3.814   0.460   1.713 -0.3081 -0.3287  0.1773
 2908SOL    HW120360   3.821   0.542   1.763 -0.5871 -0.4388  0.3919
 2908SOL    HW220361   3.900   0.423   1.734 -0.8272 -0.1390  2.5633
 2909SOL     OW20362   3.695   1.257   4.994  0.1318 -0.2083  0.0915
 2909SOL    HW120363   3.755   1.190   4.960  0.9966  0.1930  0.8123
 2909SOL    HW220364   3.616   1.204   4.993  0.3588 -0.5422 -0.0638
 2910SOL     OW20365   1.913   3.556  12.116  0.4024  0.1964 -0.3310
 2910SOL    HW120366   1.940   3.647  12.126 -2.6419  0.9156  1.2692
 2910SOL    HW220367   1.973   3.513  12.177  0.6292 -0.3707 -0.9552
 2911SOL     OW20368   4.030   0.979   0.115  0.2838  0.2393 -0.3318
 2911SOL    HW120369   3.948   1.016   0.150 -0.2266  0.7953 -2.1161
 2911SOL    HW220370   4.023   0.955   0.023 -0.3528  1.0813 -0.5059
 2912SOL     OW20371   2.230   0.093   0.867  0.4457  0.2945 -0.1319
 2912SOL    HW120372   2.267   0.141   0.941 -1.8114  0.9266  0.5835
 2912SOL    HW220373   2.312   0.089   0.817 -0.4813  0.0222 -1.6477
 2913SOL     OW20374   0.119   4.556  15.554 -0.2363  0.6734 -0.3779
 2913SOL    HW120375   0.171   4.601  15.621  0.7381 -0.5303 -0.3350
 2913SOL    HW220376   0.162   4.583  15.473 -1.2938 -1.7487 -1.7420
 2914SOL     OW20377   3.706   2.632   7.394 -0.6307  1.0747 -0.4539
 2914SOL    HW120378   3.742   2.694   7.330 -1.4796  1.8859 -0.1467
 2914SOL    HW220379   3.714   2.675   7.479  1.4009  0.5833 -0.4074
 2915SOL     OW20380   4.108   3.755   8.016  0.2025  0.5558 -0.0102
 2915SOL    HW120381   4.051   3.828   8.039  0.5765  0.8027  0.1346
 2915SOL    HW220382   4.172   3.769   8.085  0.3077  1.1575 -0.2305
 2916SOL     OW20383   4.412   3.055  10.395 -0.1841 -0.0933 -0.0985
 2916SOL    HW120384   4.335   3.112  10.394 -0.9180 -1.0691  0.1105
 2916SOL    HW220385   4.445   3.079  10.482 -0.2896 -1.1628  0.2453
 2917SOL     OW20386   1.773   2.542   3.702  0.5177 -0.3311  0.6931
 2917SOL    HW120387   1.799   2.550   3.794  0.8393 -0.0915  0.5846
 2917SOL    HW220388   1.802   2.626   3.666 -1.3350 -0.9732 -2.2503
 2918SOL     OW20389   0.040   4.057   5.696  0.2892 -0.2331  0.7009
 2918SOL    HW120390   4.695   4.037   5.650  0.1009  1.7980  0.1571
 2918SOL    HW220391   0.033   4.002   5.775  2.9733 -0.3662  0.8280
 2919SOL     OW20392   2.086   3.725   2.805 -0.3207  0.1252  0.1885
 2919SOL    HW120393   2.017   3.777   2.846 -1.5511 -0.1038 -1.5521
 2919SOL    HW220394   2.140   3.790   2.760 -0.3929 -1.2097 -1.8317
 2920SOL     OW20395   1.499   2.003  11.086 -0.1576  0.2476 -0.2241
 2920SOL    HW120396   1.562   1.936  11.111  0.7981  1.1910 -0.1273
 2920SOL    HW220397   1.480   2.037  11.173  1.2255  3.8648 -1.3501
 2921SOL     OW20398   1.188   0.051   3.288 -0.2030 -0.1911 -0.6756
 2921SOL    HW120399   1.215   0.139   3.315 -1.1722  0.0734 -0.5655
 2921SOL    HW220400   1.148   0.073   3.204  1.1244  0.6264 -1.1021
 2922SOL     OW20401   1.818   1.021  14.856  0.5471  0.0948 -1.0090
 2922SOL    HW120402   1.829   0.937  14.900 -0.1396  0.2332 -0.5641
 2922SOL    HW220403   1.884   1.072  14.902  1.2696 -1.0234 -0.8196
 2923SOL     OW20404   2.665   3.696   7.534  0.5517 -0.4873 -0.1831
 2923SOL    HW120405   2.586   3.721   7.583  0.9542  1.5244 -0.5427
 2923SOL    HW220406   2.633   3.613   7.499 -0.7613 -0.2077  0.3425
 2924SOL     OW20407   2.643   2.228   6.278 -0.0740 -0.2302  0.1589
 2924SOL    HW120408   2.586   2.152   6.284  0.7804 -0.9445 -0.7471
 2924SOL    HW220409   2.649   2.254   6.370  1.1857  1.8027 -0.4861
 2925SOL     OW20410   1.498   0.585   1.961 -0.3363  0.2539  0.4090
 2925SOL    HW120411   1.417   0.634   1.943 -0.6315 -0.3702  0.0117
 2925SOL    HW220412   1.482   0.494   1.935 -1.7390  0.5079  0.3736
 2926SOL     OW20413   4.576   2.095   8.339 -0.5884  0.2054  0.2983
 2926SOL    HW120414   4.651   2.135   8.383  0.5096  0.9822 -2.2544
 2926SOL    HW220415   4.529   2.173   8.310 -1.3657 -0.3547  0.0384
 2927SOL     OW20416   2.566   0.503  15.409  0.1158 -0.2497  0.0471
 2927SOL    HW120417   2.571   0.475  15.318 -0.2348 -0.5616  0.1190
 2927SOL    HW220418   2.483   0.549  15.421  2.2414  3.5317  0.2556
 2928SOL     OW20419   3.771   2.151   3.589 -0.0337  0.6171 -0.2878
 2928SOL    HW120420   3.742   2.173   3.678 -1.0425  0.0433 -0.4776
 2928SOL    HW220421   3.758   2.056   3.586 -4.0967  1.1902 -1.3708
 2929SOL     OW20422   2.393   0.828   5.945 -0.0899 -0.0488 -0.0576
 2929SOL    HW120423   2.355   0.912   5.920 -0.3095 -0.0820  0.1691
 2929SOL    HW220424   2.462   0.859   6.004  0.0354 -1.8460  0.7388
 2930SOL     OW20425   4.649   2.474   2.377  0.4028  0.0672 -0.2087
 2930SOL    HW120426   4.603   2.504   2.299  1.7714  0.4283 -0.8709
 2930SOL    HW220427   4.643   2.554   2.429  0.2205 -1.3408  1.9575
 2931SOL     OW20428   0.512   4.525   8.123 -0.4518  0.1183 -0.3430
 2931SOL    HW120429   0.550   4.612   8.111 -0.8663  0.2499 -0.7193
 2931SOL    HW220430   0.421   4.540   8.149 -0.2185  3.1160 -1.2418
 2932SOL     OW20431   0.458   3.060   2.624  0.2406  0.1319  0.0662
 2932SOL    HW120432   0.498   3.008   2.694  1.5853 -0.6670 -1.3075
 2932SOL    HW220433   0.530   3.123   2.620  1.2730 -1.1539 -1.3373
 2933SOL     OW20434   2.757   3.765   4.689 -0.1126  0.2160  0.2218
 2933SOL    HW120435   2.752   3.707   4.613  0.6988  1.4016 -0.7306
 2933SOL    HW220436   2.665   3.789   4.687  0.0836  0.9396 -0.0973
 2934SOL     OW20437   0.918   4.550   3.610  0.6957 -0.1259  0.4317
 2934SOL    HW120438   1.005   4.580   3.634  0.0567  1.3462  0.9343
 2934SOL    HW220439   0.933   4.457   3.593 -1.8596 -0.1252 -1.8406
 2935SOL     OW20440   3.585   0.906   4.685  0.1767 -0.7534 -0.0146
 2935SOL    HW120441   3.507   0.893   4.630 -1.1908  2.8479  1.0464
 2935SOL    HW220442   3.642   0.956   4.627 -0.0601  1.2260  1.4365
 2936SOL     OW20443   4.132   0.014  13.095  0.3195 -0.5973  0.4974
 2936SOL    HW120444   4.206   0.038  13.152  0.4957  0.1205 -0.0298
 2936SOL    HW220445   4.137   4.655  13.100  0.5946 -0.5749  0.6920
 2937SOL     OW20446   2.402   2.285   8.350  0.6799 -0.2068 -0.5397
 2937SOL    HW120447   2.439   2.265   8.436  0.1835  1.5364  0.0809
 2937SOL    HW220448   2.483   2.310   8.307  1.3556 -0.6284  0.4810
 2938SOL     OW20449   0.551   0.266  16.435  1.0719 -0.3085 -0.0328
 2938SOL    HW120450   0.523   0.320  16.509 -0.0930  0.5272 -1.0814
 2938SOL    HW220451   0.610   0.207  16.481  1.1527 -1.5977 -1.8055
 2939SOL     OW20452   2.354   0.202   2.758 -0.0669 -0.2425 -0.4839
 2939SOL    HW120453   2.344   0.177   2.666  0.3972 -1.3103 -0.2395
 2939SOL    HW220454   2.270   0.248   2.759  0.1700  0.1941 -0.3192
 2940SOL     OW20455   1.966   3.601  15.658  0.7938 -0.5184 -0.1659
 2940SOL    HW120456   1.886   3.549  15.664 -0.7109  2.0544  2.2178
 2940SOL    HW220457   2.024   3.542  15.609 -0.3956 -0.5266 -1.5845
 2941SOL     OW20458   2.798   1.808   9.462 -0.1506 -0.3686 -0.7430
 2941SOL    HW120459   2.784   1.772   9.374  1.8588  0.5136 -1.4205
 2941SOL    HW220460   2.834   1.734   9.511 -0.3879 -0.0790 -0.1359
 2942SOL     OW20461   0.400   2.945   3.381  0.0614 -0.7017  0.1502
 2942SOL    HW120462   0.387   2.876   3.445  0.1567 -0.7044  0.1666
 2942SOL    HW220463   0.348   3.015   3.422  1.7059 -1.0053  2.7420
 2943SOL     OW20464   3.646   1.810   4.029 -0.2686 -0.0296  0.0794
 2943SOL    HW120465   3.657   1.820   4.123  1.3610  2.3763 -0.3758
 2943SOL    HW220466   3.553   1.829   4.022 -0.3945 -1.6075 -2.6269
 2944SOL     OW20467   0.807   3.345  15.334 -0.3030  0.2305  0.3241
 2944SOL    HW120468   0.759   3.414  15.288  1.9280  0.0874 -2.1984
 2944SOL    HW220469   0.849   3.398  15.401  1.5286 -1.6353  0.6650
 2945SOL     OW20470   2.668   1.051   6.397  0.2009  0.2384 -0.4595
 2945SOL    HW120471   2.701   0.991   6.463  0.3504 -0.9880 -1.6633
 2945SOL    HW220472   2.752   1.081   6.364  0.1949 -0.1443 -0.8077
 2946SOL     OW20473   0.656   3.069   7.790  0.3775  0.1192 -0.4848
 2946SOL    HW120474   0.627   3.054   7.880  4.0932 -0.5883  0.5926
 2946SOL    HW220475   0.741   3.113   7.795  0.8555 -1.1173  1.8657
 2947SOL     OW20476   2.872   2.963   7.015  0.3353 -0.2201 -0.7341
 2947SOL    HW120477   2.814   2.989   6.943 -2.0890  0.8602  1.5985
 2947SOL    HW220478   2.861   3.041   7.069  0.3098  0.8365 -2.2596
 2948SOL     OW20479   3.319   2.500   8.824  0.5699  0.5295  0.2368
 2948SOL    HW120480   3.409   2.529   8.809  0.8185 -0.4523 -0.1573
 2948SOL    HW220481   3.333   2.424   8.879 -1.6750 -0.4318 -0.4771
 2949SOL     OW20482   0.224   2.762  16.843  0.0473  0.7325 -0.0999
 2949SOL    HW120483   0.220   2.668  16.827 -0.3062  0.5284  1.2764
 2949SOL    HW220484   0.174   2.766  16.924  0.4286 -2.3718  0.2834
 2950SOL     OW20485   2.533   0.876   8.119  0.4570 -0.1149  0.7753
 2950SOL    HW120486   2.545   0.781   8.111 -1.4730 -0.1839 -1.4323
 2950SOL    HW220487   2.519   0.904   8.028 -0.6651  2.1545  1.6618
 2951SOL     OW20488   0.214   2.060   5.023 -0.7840 -0.2097  0.3083
 2951SOL    HW120489   0.253   2.064   5.111  2.5156  1.4175 -1.2221
 2951SOL    HW220490   0.132   2.105   5.040  0.1410  0.5288  2.8166
 2952SOL     OW20491   1.545   1.232   5.269 -0.0897  0.3804  0.1788
 2952SOL    HW120492   1.462   1.279   5.262  1.4478  3.3283  1.7899
 2952SOL    HW220493   1.528   1.150   5.222  3.9317 -0.2053 -0.2916
 2953SOL     OW20494   4.480   0.577   0.288 -0.1067 -0.5033  0.3107
 2953SOL    HW120495   4.523   0.575   0.374 -0.2288  1.0328  0.4033
 2953SOL    HW220496   4.403   0.529   0.317  1.5583 -3.5969 -0.4372
 2954SOL     OW20497   3.179   3.544   1.364 -0.3314  0.3638  0.2916
 2954SOL    HW120498   3.184   3.578   1.453  0.1533 -1.0041  0.7741
 2954SOL    HW220499   3.095   3.499   1.374  0.5203 -0.8269  2.0433
 2955SOL     OW20500   2.844   0.632  15.972 -0.0866 -0.2946 -0.2157
 2955SOL    HW120501   2.840   0.718  15.930 -0.7089 -1.1728 -1.9366
 2955SOL    HW220502   2.759   0.646  16.013  0.7601  0.6434  1.2319
 2956SOL     OW20503   2.902   2.561   9.104 -0.3720  0.4005  1.1459
 2956SOL    HW120504   2.900   2.615   9.183 -1.9260  0.3280  1.1519
 2956SOL    HW220505   2.904   2.475   9.147  1.3746  0.8286  1.9265
 2957SOL     OW20506   0.021   3.781   5.080 -0.0693  0.4176  0.2332
 2957SOL    HW120507   0.083   3.746   5.015 -2.4450 -0.2088 -1.6787
 2957SOL    HW220508   0.036   3.874   5.066  0.7194 -0.0243 -1.9188
 2958SOL     OW20509   0.052   3.757   7.415  0.5069 -0.2781 -0.1718
 2958SOL    HW120510   0.120   3.772   7.481 -0.7355  1.5498  0.6606
 2958SOL    HW220511   0.078   3.830   7.359  0.9995  1.4028  2.2551
 2959SOL     OW20512   2.260   3.695   5.207 -0.0723  0.3610 -0.2366
 2959SOL    HW120513   2.192   3.649   5.158 -1.8117  2.6483  0.0799
 2959SOL    HW220514   2.238   3.788   5.213  1.6560  0.7537  0.0385
 2960SOL     OW20515   1.974   3.184   4.766 -0.1302  0.1420 -0.2331
 2960SOL    HW120516   1.899   3.126   4.781  0.5907 -0.4451  1.2137
 2960SOL    HW220517   2.050   3.126   4.756 -0.5822 -0.6725  0.9602
 2961SOL     OW20518   3.126   0.523   6.864  0.3060  0.3818 -0.2134
 2961SOL    HW120519   3.137   0.431   6.841 -0.3087  0.2974 -0.1632
 2961SOL    HW220520   3.063   0.554   6.799  0.9349  0.7306 -0.6488
 2962SOL     OW20521   0.672   1.775   5.102 -0.2216 -0.0507 -0.6823
 2962SOL    HW120522   0.739   1.754   5.167  0.4369 -1.9982 -1.9791
 2962SOL    HW220523   0.698   1.720   5.028 -0.7135 -0.9915 -0.1603
 2963SOL     OW20524   2.268   1.991   8.739 -0.3796  0.4321 -0.6128
 2963SOL    HW120525   2.212   1.968   8.813  0.3180 -0.7592 -0.4695
 2963SOL    HW220526   2.344   1.971   8.794 -0.0886 -1.0592 -1.5591
 2964SOL     OW20527   3.110   2.367   0.917  0.3372  0.2196  0.3910
 2964SOL    HW120528   3.182   2.361   0.855 -0.5461 -0.7054 -0.5397
 2964SOL    HW220529   3.137   2.428   0.986  0.0267  0.1033  0.6132
 2965SOL     OW20530   3.859   4.165   0.205 -0.0621 -0.5326  1.0226
 2965SOL    HW120531   3.941   4.130   0.239 -0.9541 -2.1597  1.4554
 2965SOL    HW220532   3.833   4.225   0.275  0.3111 -1.4935  1.9844
 2966SOL     OW20533   4.371   0.748   8.002  0.0544 -0.4042  0.0319
 2966SOL    HW120534   4.335   0.754   8.091  0.7955 -0.0954  0.3150
 2966SOL    HW220535   4.461   0.775   8.018 -0.8301  1.4045  1.9464
 2967SOL     OW20536   1.126   3.833  15.252 -0.2948 -0.3208 -0.0905
 2967SOL    HW120537   1.119   3.891  15.177  0.7080 -0.7347 -0.4951
 2967SOL    HW220538   1.111   3.879  15.335 -0.8491 -0.7207  0.0335
 2968SOL     OW20539   2.140   3.515   8.815  0.2840  0.2946  0.0911
 2968SOL    HW120540   2.235   3.506   8.825  0.5181  1.3938 -1.1652
 2968SOL    HW220541   2.136   3.606   8.847  0.9865  0.0439  0.9042
 2969SOL     OW20542   2.343   4.007   4.067  0.3079  0.1221  0.0531
 2969SOL    HW120543   2.419   4.025   4.123 -1.5313  1.4041  2.1311
 2969SOL    HW220544   2.322   4.093   4.032  0.2196  0.8994  1.9895
 2970SOL     OW20545   2.558   3.559  13.220  0.0441 -0.2307  0.4831
 2970SOL    HW120546   2.616   3.590  13.289  0.1222  0.2962  0.1785
 2970SOL    HW220547   2.617   3.502  13.170  2.5877  2.6808  0.1991
 2971SOL     OW20548   1.136   3.085  13.292  0.3289  0.4892 -0.3789
 2971SOL    HW120549   1.080   3.128  13.227  0.2927 -0.2943 -0.8623
 2971SOL    HW220550   1.223   3.117  13.270 -0.3573  2.4539 -0.2798
 2972SOL     OW20551   3.851   4.508   8.337 -0.0443  0.5210  0.0204
 2972SOL    HW120552   3.913   4.499   8.265  0.5180  0.9697  0.4398
 2972SOL    HW220553   3.887   4.439   8.393  3.2205  1.9073 -0.3306
 2973SOL     OW20554   3.967   0.947   1.905  0.0146  0.2247 -0.0898
 2973SOL    HW120555   3.924   1.016   1.855 -1.3581  1.3349  2.6234
 2973SOL    HW220556   3.977   0.993   1.989  0.9735  0.1542 -0.1678
 2974SOL     OW20557   0.413   4.541   7.831  0.3351  0.4921 -0.0887
 2974SOL    HW120558   0.413   4.519   7.924 -1.2378  2.1820  0.2892
 2974SOL    HW220559   0.481   4.489   7.787 -0.9503 -0.6549 -0.7161
 2975SOL     OW20560   3.281   0.634   5.665 -0.0464  0.1864 -0.2358
 2975SOL    HW120561   3.350   0.576   5.696  0.2543  0.7362  0.1342
 2975SOL    HW220562   3.296   0.634   5.570 -2.6947  3.0858 -0.6705
 2976SOL     OW20563   3.964   4.116  16.561  0.0596  0.4447 -0.3685
 2976SOL    HW120564   3.904   4.122  16.487  0.8430  3.5137 -0.7436
 2976SOL    HW220565   3.921   4.180  16.618  1.0268  1.8184 -1.1731
 2977SOL     OW20566   3.377   3.610   7.460 -0.2992  0.4125  0.3236
 2977SOL    HW120567   3.374   3.681   7.523  2.5195 -0.0356  0.9635
 2977SOL    HW220568   3.414   3.535   7.506 -1.3589 -1.6258 -2.1139
 2978SOL     OW20569   3.577   4.527   9.695 -0.1976  0.8584 -0.0288
 2978SOL    HW120570   3.642   4.598   9.693 -1.7328  2.3234  1.7669
 2978SOL    HW220571   3.490   4.564   9.709 -0.4521  0.7205 -1.2438
 2979SOL     OW20572   2.659   0.675  13.977  0.2552 -0.2445  0.4439
 2979SOL    HW120573   2.689   0.590  13.944 -0.5868  0.5600 -2.2995
 2979SOL    HW220574   2.574   0.650  14.013 -0.4555 -1.6750 -2.3015
 2980SOL     OW20575   4.524   1.928   6.558 -0.5016  0.2893  0.3435
 2980SOL    HW120576   4.496   1.970   6.639 -0.6929  3.3241 -1.3195
 2980SOL    HW220577   4.442   1.892   6.523 -0.1507  0.3900 -0.5804
 2981SOL     OW20578   0.816   1.731   5.801 -0.2183  0.0834 -0.2839
 2981SOL    HW120579   0.850   1.661   5.856 -1.3315 -0.2759 -0.0558
 2981SOL    HW220580   0.878   1.802   5.820 -1.0536  0.2722  1.6586
 2982SOL     OW20581   2.812   2.638   7.913  0.1932 -0.0452  0.1246
 2982SOL    HW120582   2.852   2.588   7.841 -0.3852 -0.9666  0.4363
 2982SOL    HW220583   2.722   2.605   7.909 -0.8596  3.0150 -0.8819
 2983SOL     OW20584   1.395   4.478  11.005 -0.4281  0.2572 -0.3628
 2983SOL    HW120585   1.345   4.425  11.068 -0.4282  0.2636 -0.3575
 2983SOL    HW220586   1.459   4.513  11.068  0.9691 -1.9914 -0.5098
 2984SOL     OW20587   1.380   3.874   8.052  0.1560  0.1899 -0.1823
 2984SOL    HW120588   1.451   3.837   8.104  0.5536  3.2426  1.4861
 2984SOL    HW220589   1.433   3.890   7.975  2.4428  2.2479  1.8130
 2985SOL     OW20590   3.009   2.647   3.134 -0.2084  0.0448  0.1399
 2985SOL    HW120591   3.098   2.659   3.167  0.5384 -2.7304 -0.8608
 2985SOL    HW220592   2.996   2.559   3.170  0.8209 -0.6602 -1.2404
 2986SOL     OW20593   2.135   2.915   7.375  0.1637  0.1938 -0.2361
 2986SOL    HW120594   2.059   2.884   7.424  1.5654 -1.5222  0.8636
 2986SOL    HW220595   2.158   2.833   7.331  1.0743  1.1083 -1.4589
 2987SOL     OW20596   3.274   2.233   5.403 -0.4060  0.2486  0.2685
 2987SOL    HW120597   3.304   2.142   5.401 -0.1608  0.3074  1.6062
 2987SOL    HW220598   3.328   2.264   5.476 -1.5333  0.3983  1.0391
 2988SOL     OW20599   2.939   3.227   0.487  0.0238  0.5913  0.2362
 2988SOL    HW120600   2.937   3.323   0.493 -1.5814  0.5780  0.1111
 2988SOL    HW220601   2.845   3.208   0.486  0.0620  0.3736  0.6794
 2989SOL     OW20602   0.945   0.791   2.042 -0.4471  0.0769 -0.7029
 2989SOL    HW120603   0.858   0.785   2.002 -1.3711 -1.7942  1.5673
 2989SOL    HW220604   0.989   0.842   1.974  0.3157 -2.7291 -2.3406
 2990SOL     OW20605   4.593   3.263   7.954  0.4029 -0.6932 -0.3567
 2990SOL    HW120606   4.578   3.180   8.000  2.0412  1.2510  3.6035
 2990SOL    HW220607   4.604   3.238   7.862 -0.9719  0.3375 -0.7847
 2991SOL     OW20608   3.149   0.211  14.576 -0.3006 -0.5528  0.3605
 2991SOL    HW120609   3.153   0.156  14.654  0.4309  1.5682  1.8083
 2991SOL    HW220610   3.134   0.138  14.515 -0.0514 -0.8862  0.6955
 2992SOL     OW20611   0.383   1.080   5.242 -0.2527 -0.1397  0.3643
 2992SOL    HW120612   0.381   1.000   5.189 -1.4442  0.9319 -1.2139
 2992SOL    HW220613   0.331   1.131   5.181  1.3156  2.6649  1.3968
 2993SOL     OW20614   2.508   1.965  17.517  0.6703  0.0144  0.0232
 2993SOL    HW120615   2.438   1.979  17.453  0.4586  0.2158  0.2991
 2993SOL    HW220616   2.545   2.054  17.523  0.8950 -0.1982  1.7667
 2994SOL     OW20617   3.850   3.209   2.223 -0.3529  0.4073 -0.4291
 2994SOL    HW120618   3.822   3.123   2.255 -1.7106  1.0052 -0.0113
 2994SOL    HW220619   3.802   3.263   2.285 -1.2778  0.2108 -0.9758
 2995SOL     OW20620   2.144   0.069   3.857 -0.1721 -0.5717  0.0046
 2995SOL    HW120621   2.139   0.138   3.791  0.7229 -0.5928 -0.0897
 2995SOL    HW220622   2.158   4.731   3.798 -2.3492 -0.5267 -0.5717
 2996SOL     OW20623   0.918   0.699   6.228 -0.3418 -0.4317  0.0421
 2996SOL    HW120624   0.951   0.625   6.177  1.8646 -0.3044  1.3058
 2996SOL    HW220625   0.831   0.668   6.252 -1.0295  2.7363  1.6503
 2997SOL     OW20626   0.358   3.239   7.993  0.0629  0.3298  0.0031
 2997SOL    HW120627   0.374   3.286   7.911  1.0181  1.6771  0.9572
 2997SOL    HW220628   0.440   3.192   8.008 -0.2357 -0.1048  0.2890
 2998SOL     OW20629   2.642   2.999   8.770 -0.0912 -0.2395  0.4831
 2998SOL    HW120630   2.654   2.957   8.855  0.8669  1.7040  1.3226
 2998SOL    HW220631   2.730   3.030   8.748 -0.5509  1.3993  0.9303
 2999SOL     OW20632   0.199   2.068   3.897 -0.0634  0.0635 -0.1756
 2999SOL    HW120633   0.217   2.154   3.859 -0.1092 -0.1982 -0.8002
 2999SOL    HW220634   0.105   2.072   3.911 -0.3726  0.1190 -2.1523
 3000SOL     OW20635   4.125   3.944   1.594 -0.2119  0.5004  0.4194
 3000SOL    HW120636   4.208   3.938   1.641 -0.6753 -1.1470  1.0089
 3000SOL    HW220637   4.087   4.017   1.643 -2.0437  1.3789 -2.2809
 3001SOL     OW20638   0.008   1.165  12.716  0.4159 -0.3200  0.3020
 3001SOL    HW120639   4.652   1.163  12.691  0.4692 -0.4633  0.1177
 3001SOL    HW220640   0.003   1.113  12.796  0.4246 -1.2087 -0.2752
 3002SOL     OW20641   3.725   0.822   8.499  0.6923  0.0139  0.5947
 3002SOL    HW120642   3.724   0.728   8.517  2.2877  0.0323  0.7331
 3002SOL    HW220643   3.673   0.845   8.576  1.3348  0.5348  0.8742
 3003SOL     OW20644   1.300   3.235   8.210 -0.3909  0.0811  0.3162
 3003SOL    HW120645   1.257   3.274   8.134  0.8541 -1.4486 -1.1765
 3003SOL    HW220646   1.238   3.164   8.229  0.0208 -0.5351 -0.6032
 3004SOL     OW20647   0.702   3.998   8.116 -0.0322 -0.3285  0.2064
 3004SOL    HW120648   0.652   3.981   8.036  0.1927 -0.3502  0.0702
 3004SOL    HW220649   0.795   3.992   8.093 -0.0274 -2.8905  0.8491
 3005SOL     OW20650   3.182   0.753   5.062  0.1163 -0.1963  0.3079
 3005SOL    HW120651   3.145   0.732   4.976  1.5388  0.6927 -0.5132
 3005SOL    HW220652   3.160   0.668   5.100  1.2493 -0.8345 -0.4877
 3006SOL     OW20653   2.883   0.573   0.772 -0.8299  0.2230 -0.1729
 3006SOL    HW120654   2.914   0.561   0.861 -2.0558  0.8307  0.3336
 3006SOL    HW220655   2.931   0.653   0.752 -0.6057  0.2201  0.3645
 3007SOL     OW20656   3.138   3.983   5.546  0.2696 -0.3190 -0.1828
 3007SOL    HW120657   3.133   3.911   5.483 -0.0136 -1.4605  1.1645
 3007SOL    HW220658   3.064   4.035   5.515  1.7000  1.7661 -0.1186
 3008SOL     OW20659   2.651   0.088   4.306 -0.1240 -0.4360  0.4113
 3008SOL    HW120660   2.606   0.169   4.285 -3.0742 -1.6793  1.9844
 3008SOL    HW220661   2.706   0.081   4.228 -1.0148  0.5822 -0.2980
 3009SOL     OW20662   0.304   0.489   0.095 -0.2440 -0.1540  0.3600
 3009SOL    HW120663   0.235   0.524   0.038  0.1416  1.2010  0.7323
 3009SOL    HW220664   0.253   0.456   0.170  0.8933 -3.0778 -0.1721
 3010SOL     OW20665   1.932   3.633   4.189  0.2789 -0.1221  0.1499
 3010SOL    HW120666   1.919   3.727   4.171 -1.6143 -0.1939  1.2303
 3010SOL    HW220667   2.010   3.631   4.245  0.1076  0.6002  0.4170
 3011SOL     OW20668   3.438   1.544   8.863 -0.3982  0.8824 -0.0109
 3011SOL    HW120669   3.349   1.529   8.832  0.6589 -2.1594 -1.5577
 3011SOL    HW220670   3.438   1.485   8.939 -0.4571  0.1658 -0.5654
 3012SOL     OW20671   3.925   1.842  12.989  0.3221  0.2602 -0.3092
 3012SOL    HW120672   3.958   1.797  13.067 -2.4164 -0.6188  0.3298
 3012SOL    HW220673   3.888   1.768  12.940  0.1961 -0.0689  0.2850
 3013SOL     OW20674   0.336   0.019   5.567  0.3794  0.9607  0.0084
 3013SOL    HW120675   0.349   0.102   5.613 -0.7311 -0.2449  2.4861
 3013SOL    HW220676   0.279   4.712   5.631 -1.2356  1.5704 -1.0164
 3014SOL     OW20677   0.563   0.649   7.888  0.2622  0.0832 -0.0513
 3014SOL    HW120678   0.564   0.735   7.931 -0.3775  0.9733 -1.8156
 3014SOL    HW220679   0.599   0.593   7.957 -0.1775  1.4758  1.3264
 3015SOL     OW20680   1.043   4.318   9.562 -0.3221 -0.3303  0.1217
 3015SOL    HW120681   1.023   4.225   9.552 -1.4334  0.0752 -1.6053
 3015SOL    HW220682   0.994   4.346   9.484  2.5480  0.0828 -1.5107
 3016SOL     OW20683   0.023   0.928  16.987 -0.3169 -0.9562 -0.6678
 3016SOL    HW120684   0.036   0.873  16.910 -1.3418  0.2601 -1.7178
 3016SOL    HW220685   0.110   0.964  17.004 -0.5775 -0.2271 -0.8734
 3017SOL     OW20686   1.746   2.297   9.820 -0.0935 -0.3580 -0.5722
 3017SOL    HW120687   1.655   2.300   9.851  0.5971  4.7885  0.9208
 3017SOL    HW220688   1.772   2.206   9.836  0.5865 -0.0691 -0.0773
 3018SOL     OW20689   0.771   3.068   0.768  0.0227 -0.5576 -0.6233
 3018SOL    HW120690   0.699   3.104   0.716 -0.6632 -0.1951  0.6032
 3018SOL    HW220691   0.850   3.109   0.732 -0.1325 -0.4488 -0.8446
 3019SOL     OW20692   3.646   1.888   5.404  0.4985 -0.1489 -0.3338
 3019SOL    HW120693   3.702   1.819   5.368  2.4198  0.4973  1.4334
 3019SOL    HW220694   3.602   1.839   5.474 -0.0571 -0.8585 -1.1829
 3020SOL     OW20695   2.493   0.850  10.104  0.3837  0.0757 -0.1824
 3020SOL    HW120696   2.411   0.891  10.132 -0.7963 -2.3281 -0.1128
 3020SOL    HW220697   2.452   0.768  10.077 -0.1346 -0.2932  1.7371
 3021SOL     OW20698   2.476   0.153   1.029 -1.0763  0.3898  0.6528
 3021SOL    HW120699   2.498   0.065   1.059 -2.6666  0.2451  1.4125
 3021SOL    HW220700   2.533   0.142   0.953 -0.3297 -1.0197  1.4324
 3022SOL     OW20701   1.266   1.051   9.006  0.1284 -0.5574  0.0988
 3022SOL    HW120702   1.352   1.061   9.046 -0.7163  0.2816  1.6994
 3022SOL    HW220703   1.219   1.124   9.047  1.4124  0.8725 -0.9763
 3023SOL     OW20704   0.424   3.432  17.177 -0.0562  0.6905 -0.1141
 3023SOL    HW120705   0.352   3.413  17.117  0.3322 -1.1484  0.0114
 3023SOL    HW220706   0.381   3.416  17.261  0.3785 -0.0075 -0.0222
 3024SOL     OW20707   3.124   0.846   7.439 -0.0836 -0.1570  0.0709
 3024SOL    HW120708   3.155   0.879   7.355  0.9705  3.0571  1.6995
 3024SOL    HW220709   3.153   0.921   7.492 -0.5695 -0.1897  0.3852
 3025SOL     OW20710   3.105   2.819   7.826  0.1597  0.2769 -0.0258
 3025SOL    HW120711   3.086   2.867   7.907 -0.0681  0.4396 -0.1757
 3025SOL    HW220712   3.020   2.817   7.783  0.7216  1.6355 -1.1922
 3026SOL     OW20713   2.527   3.770  15.675  0.3164  0.3277 -0.1586
 3026SOL    HW120714   2.443   3.747  15.714  1.0298 -2.4303 -0.2704
 3026SOL    HW220715   2.581   3.794  15.750 -1.5886  0.5204  1.1228
 3027SOL     OW20716   3.685   0.206   1.584  0.0469  0.5208  0.6716
 3027SOL    HW120717   3.623   0.265   1.541 -0.2294  0.3073  0.7779
 3027SOL    HW220718   3.672   0.224   1.677 -0.4717 -3.2577  1.3463
 3028SOL     OW20719   4.065   0.092   7.495  0.6772 -0.5207  0.5794
 3028SOL    HW120720   4.122   0.113   7.421 -1.6655  1.9621 -0.5381
 3028SOL    HW220721   4.110   0.014   7.528 -0.3852 -0.8588  1.2251
 3029SOL     OW20722   3.479   3.930   6.540  0.0547  0.4475  0.0996
 3029SOL    HW120723   3.391   3.949   6.572 -0.7539  0.7913 -2.3240
 3029SOL    HW220724   3.468   3.837   6.521 -1.1494  0.2586  1.7256
 3030SOL     OW20725   1.951   1.502   6.687 -0.0991 -0.5331  0.4176
 3030SOL    HW120726   1.998   1.436   6.636 -1.5106 -0.5857 -0.8218
 3030SOL    HW220727   1.975   1.587   6.648 -1.0436 -0.2977  0.3651
 3031SOL     OW20728   4.718   4.425   8.076 -0.3642  0.2428  0.4085
 3031SOL    HW120729   4.679   4.412   7.990 -0.1153 -0.6328  0.4256
 3031SOL    HW220730   4.689   4.512   8.103  0.4874  1.0879 -1.4629
 3032SOL     OW20731   1.592   3.469   0.186 -0.1846 -0.3827  0.4991
 3032SOL    HW120732   1.550   3.414   0.120 -0.4484  0.9038 -0.4102
 3032SOL    HW220733   1.590   3.548   0.132 -1.8187 -0.9996 -0.3090
 3033SOL     OW20734   0.028   2.149   7.884  0.9123  0.2509  0.1698
 3033SOL    HW120735   0.048   2.234   7.923  2.3284 -1.0445  2.2556
 3033SOL    HW220736   0.091   2.133   7.814  2.6651  1.8723  1.4134
 3034SOL     OW20737   0.049   3.816   6.679  0.1439  0.6470  0.4589
 3034SOL    HW120738   0.015   3.732   6.710  0.4152 -0.4100 -2.0678
 3034SOL    HW220739   4.715   3.881   6.683 -3.0595 -2.5796 -2.7672
 3035SOL     OW20740   3.907   1.467  16.254 -0.4745 -0.4269 -0.7324
 3035SOL    HW120741   3.972   1.535  16.236 -0.1186 -0.3418  0.8054
 3035SOL    HW220742   3.823   1.506  16.230 -0.6595 -1.0367 -1.0897
 3036SOL     OW20743   1.128   2.333  15.662  0.3865  0.0309 -0.1627
 3036SOL    HW120744   1.133   2.428  15.650 -1.5945  0.3128  1.2673
 3036SOL    HW220745   1.129   2.324  15.757  0.0787 -2.0886 -0.3594
 3037SOL     OW20746   1.096   0.188  13.069  0.4674 -0.1584  0.5172
 3037SOL    HW120747   1.142   0.205  12.986  0.8978 -2.3994  0.3061
 3037SOL    HW220748   1.075   0.095  13.063  0.9752 -0.1600 -1.4214
 3038SOL     OW20749   4.565   0.134   3.261  0.2058 -0.3864  0.0559
 3038SOL    HW120750   4.533   0.056   3.215 -0.6393 -0.4983  0.8443
 3038SOL    HW220751   4.521   0.141   3.346  2.2553 -0.3155  1.1003
 3039SOL     OW20752   1.913   1.051   6.066  0.0837 -0.2744  0.0388
 3039SOL    HW120753   1.942   0.963   6.040 -1.0384 -0.5358 -0.3412
 3039SOL    HW220754   1.907   1.087   5.977  1.1453  0.2871  0.1950
 3040SOL     OW20755   1.270   4.104   7.371 -0.2710 -0.1747 -0.2195
 3040SOL    HW120756   1.199   4.145   7.421 -0.0246  1.5042 -1.2557
 3040SOL    HW220757   1.240   4.014   7.386 -0.7249 -0.5288 -3.1585
 3041SOL     OW20758   3.628   2.869   6.283 -0.1861  0.0587 -0.1640
 3041SOL    HW120759   3.562   2.928   6.247 -0.7536 -1.6318 -1.9078
 3041SOL    HW220760   3.594   2.854   6.371  1.9851  1.2475  0.8890
 3042SOL     OW20761   4.418   0.169  16.427 -0.1042 -0.4209  0.2338
 3042SOL    HW120762   4.501   0.158  16.380  0.0241 -0.2227  0.4168
 3042SOL    HW220763   4.387   0.251  16.389 -0.1754 -1.3947 -1.7993
 3043SOL     OW20764   2.534   4.256   8.357 -0.2773 -0.2901  0.4558
 3043SOL    HW120765   2.553   4.175   8.309  1.1858 -0.6456  1.6502
 3043SOL    HW220766   2.543   4.225   8.447  0.0785 -1.5899 -0.0208
 3044SOL     OW20767   1.139   3.541   5.677  0.2001 -0.1084  0.0629
 3044SOL    HW120768   1.228   3.530   5.645  1.5964 -0.3644  3.9795
 3044SOL    HW220769   1.092   3.524   5.596 -0.4126 -1.1513  0.6363
 3045SOL     OW20770   3.373   2.252   8.984  0.1577  0.5739 -0.1886
 3045SOL    HW120771   3.279   2.268   8.977 -0.0115  0.4710  1.6544
 3045SOL    HW220772   3.381   2.213   9.072  0.2337 -0.0436 -0.4708
 3046SOL     OW20773   3.588   0.471   4.202 -0.6209  0.0702 -0.3396
 3046SOL    HW120774   3.682   0.482   4.216 -0.7276  0.0286  0.4229
 3046SOL    HW220775   3.553   0.535   4.265  0.6098  0.4335 -0.0241
 3047SOL     OW20776   4.573   1.290  15.018 -0.1053 -0.0306  0.1298
 3047SOL    HW120777   4.578   1.300  15.113 -2.6532  1.0521  0.1553
 3047SOL    HW220778   4.487   1.330  15.004 -0.4065 -0.3562  1.0393
 3048SOL     OW20779   1.765   0.926   3.913  1.0011 -0.7926 -0.1576
 3048SOL    HW120780   1.745   0.988   3.983 -2.3158 -0.7633 -1.1271
 3048SOL    HW220781   1.813   0.985   3.854 -0.1835 -0.9059 -1.2309
 3049SOL     OW20782   0.296   3.990   3.037 -0.4527  0.1283 -0.1635
 3049SOL    HW120783   0.386   3.984   3.006 -1.4144 -1.2184 -2.7247
 3049SOL    HW220784   0.308   3.994   3.132 -0.5289 -0.6831 -0.1169
 3050SOL     OW20785   3.114   2.951   2.098  0.0462  0.3031  0.1513
 3050SOL    HW120786   3.050   3.022   2.098  0.2898  0.5219  2.7291
 3050SOL    HW220787   3.177   2.984   2.035  0.0206  0.5349  0.2475
 3051SOL     OW20788   2.801   4.420   3.893  0.3791 -0.5962 -0.3081
 3051SOL    HW120789   2.871   4.368   3.932  0.1787  0.3186  1.2403
 3051SOL    HW220790   2.855   4.472   3.834  0.7260 -0.7599 -0.1378
 3052SOL     OW20791   3.339   1.330   3.846 -0.6300  0.6928  0.6532
 3052SOL    HW120792   3.285   1.407   3.825 -2.0092 -0.3083  0.4925
 3052SOL    HW220793   3.394   1.347   3.922  0.8696  0.8185 -0.4593
 3053SOL     OW20794   2.770   1.570  12.155 -0.6614 -0.2006 -0.0115
 3053SOL    HW120795   2.733   1.656  12.134 -0.4411 -0.6383 -2.1845
 3053SOL    HW220796   2.862   1.593  12.144 -0.6391  0.5914  1.7835
 3054SOL     OW20797   2.747   3.414   1.769 -0.8208  0.2614 -0.5418
 3054SOL    HW120798   2.662   3.457   1.764 -0.5415  0.7046 -1.4867
 3054SOL    HW220799   2.720   3.328   1.735  0.1069 -0.3611  0.3088
 3055SOL     OW20800   2.136   2.441   6.387  0.6314  0.2230  0.3477
 3055SOL    HW120801   2.135   2.345   6.383  1.4256  0.1801  1.1575
 3055SOL    HW220802   2.047   2.465   6.361  0.4911 -1.6557 -0.9756
 3056SOL     OW20803   3.800   2.905   4.861 -0.1485  0.3223 -0.9177
 3056SOL    HW120804   3.805   2.815   4.893 -1.0370 -0.9202 -4.2374
 3056SOL    HW220805   3.848   2.948   4.932 -0.6702 -0.2873 -0.2015
 3057SOL     OW20806   0.115   4.508  12.313 -0.0087  0.4669 -0.0904
 3057SOL    HW120807   0.104   4.472  12.225  2.7280  3.0197 -1.4776
 3057SOL    HW220808   0.168   4.584  12.289  2.1558 -0.4631  1.8291
 3058SOL     OW20809   2.536   2.145   5.812 -0.1493 -0.3786  0.1300
 3058SOL    HW120810   2.607   2.111   5.866 -0.1495  0.1036  0.4298
 3058SOL    HW220811   2.485   2.200   5.872  1.2279  1.7512 -0.6640
 3059SOL     OW20812   1.185   2.884  14.553  0.5470 -0.1199 -0.3010
 3059SOL    HW120813   1.152   2.935  14.627 -3.4661  0.2853 -2.3590
 3059SOL    HW220814   1.205   2.952  14.489  1.2659 -1.7120 -1.8026
 3060SOL     OW20815   2.262   4.004   2.609  0.7457  0.2939 -0.0543
 3060SOL    HW120816   2.346   3.968   2.582  1.1467  1.1634  0.0061
 3060SOL    HW220817   2.274   4.097   2.587 -0.0045  0.0809 -1.3613
 3061SOL     OW20818   1.278   4.395   3.319 -0.0735 -0.5887  0.2448
 3061SOL    HW120819   1.279   4.299   3.323  0.8429 -0.7143 -2.9351
 3061SOL    HW220820   1.186   4.419   3.308 -0.3450 -1.8188 -0.3043
 3062SOL     OW20821   3.009   0.009   5.026  0.0168 -0.0595 -0.2683
 3062SOL    HW120822   3.039   4.672   4.972 -0.5742 -0.8783  0.5216
 3062SOL    HW220823   2.944   0.045   4.967 -1.5383 -0.3453  1.2788
 3063SOL     OW20824   2.723   2.575  16.179 -0.0245 -0.1234  0.5239
 3063SOL    HW120825   2.773   2.599  16.101 -0.8170  0.1374  0.0959
 3063SOL    HW220826   2.752   2.486  16.202 -1.5947 -0.0968  2.6559
 3064SOL     OW20827   4.623   2.862   6.983 -0.2931  0.0275 -0.1280
 3064SOL    HW120828   4.545   2.859   7.039 -0.4765 -3.2204 -0.6061
 3064SOL    HW220829   4.674   2.803   7.039  1.0644  1.3386  0.0199
 3065SOL     OW20830   2.870   4.348   6.771  0.2493 -0.4554  0.1691
 3065SOL    HW120831   2.814   4.390   6.706 -0.3819  0.3306  1.2390
 3065SOL    HW220832   2.957   4.348   6.730 -0.1014  0.8912 -0.5605
 3066SOL     OW20833   2.974   3.409   6.462  0.3276 -0.3119  0.1144
 3066SOL    HW120834   2.983   3.500   6.432 -4.3368 -0.7063 -2.4181
 3066SOL    HW220835   2.911   3.403   6.534 -0.9833 -1.0447 -1.1010
 3067SOL     OW20836   0.504   4.413   5.354  0.2159  0.1327  0.2881
 3067SOL    HW120837   0.513   4.435   5.447 -0.0620  0.4895  0.2325
 3067SOL    HW220838   0.456   4.491   5.325  2.6861  1.0257 -1.4370
 3068SOL     OW20839   0.383   3.515   4.491  0.0532 -0.2220  0.3027
 3068SOL    HW120840   0.365   3.563   4.572  0.6971  1.4268 -0.5284
 3068SOL    HW220841   0.476   3.529   4.476 -0.0006 -1.1088 -0.8526
 3069SOL     OW20842   1.189   2.524   2.419 -0.6459 -0.5876 -0.0727
 3069SOL    HW120843   1.201   2.545   2.326 -0.9414 -1.8354 -0.3895
 3069SOL    HW220844   1.228   2.437   2.418  0.1283 -0.2398 -0.8901
 3070SOL     OW20845   0.900   0.367   5.995 -0.4429 -0.3094  0.3807
 3070SOL    HW120846   0.903   0.433   5.926 -0.2098 -0.2256  0.4745
 3070SOL    HW220847   0.820   0.389   6.043 -0.0409 -1.1439  1.4381
 3071SOL     OW20848   2.118   3.257   8.414  0.2700  0.5019 -0.1379
 3071SOL    HW120849   2.120   3.345   8.452 -1.8364  0.5245 -0.0797
 3071SOL    HW220850   2.063   3.213   8.479  2.1528 -0.9166  0.4967
 3072SOL     OW20851   1.977   0.681   5.225  0.2374  0.5460 -0.0391
 3072SOL    HW120852   1.884   0.662   5.238  0.0008  1.8128  0.1362
 3072SOL    HW220853   2.013   0.596   5.201 -0.4524  0.1066  0.4527
 3073SOL     OW20854   1.823   4.567  11.172 -0.1450 -0.8813 -0.8647
 3073SOL    HW120855   1.842   4.499  11.238 -3.7098 -1.3748 -0.3561
 3073SOL    HW220856   1.815   4.515  11.092  0.6864 -0.1729 -1.4027
 3074SOL     OW20857   0.751   0.864   6.723 -0.1203 -0.2857 -0.7706
 3074SOL    HW120858   0.824   0.822   6.678 -1.2442  0.5242 -3.3706
 3074SOL    HW220859   0.790   0.949   6.743  1.0351 -1.1956  0.8084
 3075SOL     OW20860   3.873   3.653   5.094 -0.3198  0.1451  0.3465
 3075SOL    HW120861   3.944   3.590   5.094  0.1995  0.7106 -1.0065
 3075SOL    HW220862   3.829   3.636   5.177 -3.2681 -0.9165 -1.4507
 3076SOL     OW20863   0.966   2.821   7.150  0.1977 -0.2695  0.0983
 3076SOL    HW120864   1.044   2.858   7.109  0.0756  0.7035  0.7279
 3076SOL    HW220865   0.996   2.822   7.241  1.1656  1.1338 -0.2249
 3077SOL     OW20866   2.062   2.557  16.739  0.3674 -0.0107 -0.0240
 3077SOL    HW120867   2.088   2.609  16.662  1.9111 -0.2372  0.3377
 3077SOL    HW220868   2.011   2.491  16.692  0.8952  0.3666 -1.1379
 3078SOL     OW20869   1.962   1.402   7.359 -0.3751  0.3011  1.0073
 3078SOL    HW120870   1.906   1.355   7.297  2.2998 -0.9300 -0.4866
 3078SOL    HW220871   2.038   1.427   7.307 -0.3022 -1.6350  0.1718
 3079SOL     OW20872   2.293   3.553  10.771 -0.4863 -0.1739  0.3984
 3079SOL    HW120873   2.384   3.523  10.771 -0.2854  0.4456  1.3990
 3079SOL    HW220874   2.260   3.481  10.825  0.8489 -0.0639  1.3650
 3080SOL     OW20875   2.176   4.181   8.367 -0.2962 -0.2653  0.2185
 3080SOL    HW120876   2.151   4.254   8.424 -0.5278 -0.3262  0.1960
 3080SOL    HW220877   2.265   4.170   8.399  0.0347  1.9018  0.0637
 3081SOL     OW20878   0.403   1.998  11.720 -0.7564 -0.0766  0.3322
 3081SOL    HW120879   0.417   1.909  11.752  1.1878  1.3192  3.3234
 3081SOL    HW220880   0.387   2.038  11.805  0.7178 -1.4821  1.2497
 3082SOL     OW20881   0.423   2.761  17.196 -0.0888  0.6699 -0.4928
 3082SOL    HW120882   0.375   2.681  17.176  0.2376 -0.0425  1.6179
 3082SOL    HW220883   0.508   2.724  17.222 -0.1691  2.8318  2.7974
 3083SOL     OW20884   1.915   3.613  17.203 -0.4077  0.3174 -0.4137
 3083SOL    HW120885   1.917   3.533  17.151 -0.4682  0.1043 -0.0903
 3083SOL    HW220886   1.866   3.587  17.281  1.3041  1.8298  1.1786
 3084SOL     OW20887   2.994   2.806   5.799  0.0313 -0.6892 -0.2328
 3084SOL    HW120888   2.970   2.758   5.720  0.5967 -0.6045 -0.4557
 3084SOL    HW220889   2.933   2.878   5.785 -0.4790 -1.7899 -3.5632
 3085SOL     OW20890   1.549   2.019   7.873 -0.1822 -0.0046 -0.4054
 3085SOL    HW120891   1.490   1.954   7.834 -0.1744 -0.0926 -0.2694
 3085SOL    HW220892   1.628   1.968   7.890 -1.2241 -1.4335  0.1499
 3086SOL     OW20893   3.369   4.661   5.242  0.3540 -0.0436  0.1788
 3086SOL    HW120894   3.348   4.711   5.321 -0.3591 -0.0068 -0.0370
 3086SOL    HW220895   3.427   4.594   5.278 -0.1267 -0.1825  0.7070
 3087SOL     OW20896   2.703   2.597   7.305 -0.3365  0.5467  0.6335
 3087SOL    HW120897   2.756   2.617   7.228 -0.9338  0.1368  0.1157
 3087SOL    HW220898   2.620   2.645   7.296 -1.5478 -1.7206 -0.3222
 3088SOL     OW20899   0.739   4.041   6.957 -0.7025  0.6693  0.5030
 3088SOL    HW120900   0.820   3.998   6.929 -2.6421 -1.3301 -2.1262
 3088SOL    HW220901   0.689   4.053   6.876  1.8029  2.4101 -0.7485
 3089SOL     OW20902   3.150   1.705   1.905  0.6321 -0.0574 -0.3399
 3089SOL    HW120903   3.100   1.708   1.823  0.9055 -1.4262 -0.5508
 3089SOL    HW220904   3.214   1.776   1.895  1.3070 -0.4090  1.4782
 3090SOL     OW20905   0.781   0.018   3.037  0.3639 -0.1188 -0.3261
 3090SOL    HW120906   0.791   4.659   3.031 -0.5015 -0.1737 -0.8300
 3090SOL    HW220907   0.760   0.037   2.945 -3.4124  0.1721  0.6051
 3091SOL     OW20908   2.547   0.100   8.294  0.3221 -0.4298  0.0901
 3091SOL    HW120909   2.549   0.120   8.200  0.0824  2.2465  0.6605
 3091SOL    HW220910   2.453   0.096   8.306  0.6700  1.2995  3.3561
 3092SOL     OW20911   4.047   2.053   7.232 -0.1803 -0.0663  0.7474
 3092SOL    HW120912   4.055   1.966   7.194  1.1025  0.4191 -0.0965
 3092SOL    HW220913   3.953   2.055   7.251 -0.1378  1.9158  0.8271
 3093SOL     OW20914   1.049   3.489  11.121  0.3183  0.1190 -0.1968
 3093SOL    HW120915   1.054   3.519  11.031  0.1040  1.8009  0.3468
 3093SOL    HW220916   1.107   3.560  11.144  1.1399 -0.2851 -1.0419
 3094SOL     OW20917   2.829   3.587   3.162  0.1503  0.2537 -0.4599
 3094SOL    HW120918   2.800   3.578   3.071 -0.3970 -2.1936 -0.0375
 3094SOL    HW220919   2.769   3.658   3.185  1.7631  1.4323  0.0976
 3095SOL     OW20920   4.127   2.156  10.232  0.2641 -0.4497  0.5033
 3095SOL    HW120921   4.088   2.140  10.318 -2.5698  0.6110 -0.5911
 3095SOL    HW220922   4.202   2.207  10.262  1.1006 -1.2432 -0.2281
 3096SOL     OW20923   4.506   1.040   8.481 -0.6759 -0.0366 -0.1990
 3096SOL    HW120924   4.422   1.071   8.445 -1.0833 -1.7449 -0.7290
 3096SOL    HW220925   4.572   1.089   8.432 -1.4542  1.9640  0.7614
 3097SOL     OW20926   2.242   2.299  11.467 -0.2337  0.0483 -0.5684
 3097SOL    HW120927   2.184   2.236  11.424  1.3373 -0.9257 -1.2558
 3097SOL    HW220928   2.181   2.356  11.513 -0.1760 -0.2711 -0.0906
 3098SOL     OW20929   3.186   4.664   9.458 -0.1580 -0.0094  0.1520
 3098SOL    HW120930   3.131   4.670   9.536  0.1081  1.0402  0.2662
 3098SOL    HW220931   3.273   4.694   9.485  0.2347 -0.5908 -0.4600
 3099SOL     OW20932   3.678   0.049   5.316  0.2006  0.6805 -0.5717
 3099SOL    HW120933   3.668   0.004   5.232 -2.1076 -0.9211  0.5615
 3099SOL    HW220934   3.586   0.063   5.338 -0.5691 -1.9998 -2.0933
 3100SOL     OW20935   2.907   0.567   0.014 -0.0857 -0.2020  0.1256
 3100SOL    HW120936   2.893   0.586  17.666  0.4301  0.2348  0.1334
 3100SOL    HW220937   3.002   0.576   0.023 -0.3876  3.1720  0.0131
 3101SOL     OW20938   1.119   3.295   4.818  0.0276 -0.7591 -0.1607
 3101SOL    HW120939   1.176   3.239   4.870  0.5989  0.1657  0.1998
 3101SOL    HW220940   1.152   3.272   4.731 -1.4066 -2.2108 -0.3310
 3102SOL     OW20941   1.981   1.160  15.030 -0.3202  0.2288  0.4406
 3102SOL    HW120942   2.057   1.189  14.980 -0.4749 -0.6109 -0.2801
 3102SOL    HW220943   1.936   1.245  15.025 -1.7216 -0.5876 -0.8924
 3103SOL     OW20944   1.699   4.598   8.439 -0.1853  0.0825  0.3366
 3103SOL    HW120945   1.716   4.509   8.408  0.3418  0.9102 -1.7907
 3103SOL    HW220946   1.784   4.625   8.474  0.3217  3.2177 -3.1898
 3104SOL     OW20947   2.657   1.552   1.383 -0.2948 -0.6213  0.3038
 3104SOL    HW120948   2.726   1.499   1.343  0.1418  0.5511 -0.5112
 3104SOL    HW220949   2.675   1.520   1.471  1.2006  0.6687  0.4776
 3105SOL     OW20950   3.474   4.312   1.671 -0.0074 -0.1405  0.1307
 3105SOL    HW120951   3.550   4.354   1.631 -0.5885  1.0958  0.3372
 3105SOL    HW220952   3.448   4.386   1.726 -1.0420  1.1191 -2.0397
 3106SOL     OW20953   4.682   3.952  10.217 -0.5398 -0.2682  0.1131
 3106SOL    HW120954   4.641   4.014  10.156 -0.7459 -0.8336 -0.3254
 3106SOL    HW220955   4.613   3.942  10.283  0.0611 -2.1624  0.4690
 3107SOL     OW20956   4.318   0.307   7.747 -0.3930  0.0338  0.0650
 3107SOL    HW120957   4.276   0.393   7.744 -2.0473 -0.7534  0.5886
 3107SOL    HW220958   4.312   0.286   7.840 -2.3686 -2.0930 -0.5539
 3108SOL     OW20959   0.757   0.102   6.759  0.3120 -0.0346  0.4192
 3108SOL    HW120960   0.800   0.116   6.843 -1.6438 -1.0692  1.5782
 3108SOL    HW220961   0.665   0.109   6.783  0.3526  0.7500  0.3525
 3109SOL     OW20962   0.216   4.085   2.345 -0.2293  0.1761 -0.1255
 3109SOL    HW120963   0.228   4.006   2.398 -0.0403 -0.8072 -1.6315
 3109SOL    HW220964   0.137   4.118   2.386 -0.5820  1.8052 -2.1331
 3110SOL     OW20965   1.066   4.589   8.868 -0.0220 -0.6134  0.0359
 3110SOL    HW120966   1.046   4.657   8.805  1.0583  1.0004  1.4550
 3110SOL    HW220967   0.990   4.606   8.925  1.3660  1.7701  1.1684
 3111SOL     OW20968   4.027   4.476   5.902  0.0587  0.5586  0.0031
 3111SOL    HW120969   4.031   4.381   5.892  2.4417  0.6136  0.4698
 3111SOL    HW220970   3.979   4.481   5.984  1.2244 -1.2245  0.7899
 3112SOL     OW20971   0.214   2.056   2.292  0.5076 -0.4163  0.2137
 3112SOL    HW120972   0.209   2.083   2.200 -0.9093  1.5391  0.8649
 3112SOL    HW220973   0.146   1.989   2.296 -0.5566  0.6862  0.5177
 3113SOL     OW20974   3.772   4.146   5.633 -0.0807 -0.2321  0.2041
 3113SOL    HW120975   3.781   4.074   5.570 -2.6453 -0.6312  0.2765
 3113SOL    HW220976   3.803   4.216   5.576 -0.7442 -0.7001 -0.7230
 3114SOL     OW20977   1.985   3.891   4.399 -0.0344  0.0538  0.3373
 3114SOL    HW120978   1.907   3.835   4.405  0.8849 -1.5027 -2.1254
 3114SOL    HW220979   1.949   3.978   4.416  1.1209  0.2322  1.9729
 3115SOL     OW20980   2.693   3.933  13.030  0.3276  0.3013  0.3099
 3115SOL    HW120981   2.630   3.863  13.047  2.9153 -2.1546 -0.2033
 3115SOL    HW220982   2.771   3.878  13.036  1.6760  2.2696  1.0062
 3116SOL     OW20983   4.698   1.969  17.218  0.3200 -0.6201 -0.2784
 3116SOL    HW120984   0.021   1.898  17.193 -1.1461 -2.3952  1.2274
 3116SOL    HW220985   0.024   2.041  17.212 -1.9624  1.3865  0.1950
 3117SOL     OW20986   1.350   3.163   6.300  0.0173 -0.3091 -0.4253
 3117SOL    HW120987   1.435   3.123   6.280  1.2187  1.1999  1.7008
 3117SOL    HW220988   1.316   3.190   6.215 -1.8238  1.1112  0.7652
 3118SOL     OW20989   4.088   1.473   2.555  0.8464  0.6663 -0.6761
 3118SOL    HW120990   4.092   1.481   2.650 -0.8695 -1.0355 -0.4613
 3118SOL    HW220991   4.182   1.484   2.542  1.1813 -2.4363 -0.8249
 3119SOL     OW20992   1.810   1.389  11.641  0.1128  0.2406 -0.3466
 3119SOL    HW120993   1.847   1.369  11.555 -0.6713 -3.2679  0.1129
 3119SOL    HW220994   1.858   1.328  11.697 -0.6763 -1.0998 -1.1161
 3120SOL     OW20995   3.127   3.048   6.849 -0.7264 -0.4198 -0.5111
 3120SOL    HW120996   3.041   3.006   6.858 -1.1579  0.7225  0.8891
 3120SOL    HW220997   3.192   2.981   6.831 -1.7653 -1.3808 -0.7322
 3121SOL     OW20998   0.446   3.700   5.902 -0.2147 -0.3618 -0.2661
 3121SOL    HW120999   0.410   3.665   5.820 -1.9439  0.7466  0.0180
 3121SOL    HW221000   0.463   3.620   5.953  0.5656  0.1474  0.2675
 3122SOL     OW21001   2.817   3.185   6.305  0.1387  0.1397 -0.3900
 3122SOL    HW121002   2.820   3.279   6.288  1.9117  0.4512  1.5867
 3122SOL    HW221003   2.907   3.171   6.336  0.0553  0.0498 -0.1867
 3123SOL     OW21004   2.588   1.742  11.737 -0.2871  0.0212 -0.2010
 3123SOL    HW121005   2.596   1.820  11.792 -1.1380  0.7296 -1.1034
 3123SOL    HW221006   2.633   1.674  11.788  0.4845  1.2904  0.8080
 3124SOL     OW21007   1.369   2.033   1.059 -0.3040 -0.0232 -0.2634
 3124SOL    HW121008   1.450   2.007   1.016  0.3575  2.5802 -0.5812
 3124SOL    HW221009   1.388   2.117   1.100 -0.6675 -0.7643  1.3957
 3125SOL     OW21010   1.048   3.130  11.071  0.0173 -0.1043 -0.2170
 3125SOL    HW121011   1.024   3.038  11.086 -0.7423  0.3489  1.3749
 3125SOL    HW221012   1.102   3.117  10.993  0.0375 -0.3173 -0.1678
 3126SOL     OW21013   2.710   4.376   4.735  0.4950 -0.0172  0.0081
 3126SOL    HW121014   2.682   4.309   4.672  2.7598 -0.3522 -0.6711
 3126SOL    HW221015   2.645   4.444   4.720 -0.3440 -0.8714 -0.2723
 3127SOL     OW21016   2.281   0.103  12.735 -0.0601  0.1609  0.2739
 3127SOL    HW121017   2.236   0.060  12.808 -0.3870 -0.0345 -0.0402
 3127SOL    HW221018   2.372   0.103  12.764 -0.8916 -1.6986  2.9136
 3128SOL     OW21019   3.830   4.312  10.638 -0.3948  0.3234  0.1738
 3128SOL    HW121020   3.900   4.324  10.702  0.0513 -2.8835  0.2819
 3128SOL    HW221021   3.764   4.262  10.686 -0.4407 -0.0740 -0.3001
 3129SOL     OW21022   1.118   2.363   5.575 -0.6741 -0.0477  0.0220
 3129SOL    HW121023   1.175   2.336   5.647 -1.5171 -0.6930  0.4533
 3129SOL    HW221024   1.037   2.319   5.603 -1.0798  0.3950 -0.4411
 3130SOL     OW21025   2.205   4.702   8.614 -0.0154  0.1039  0.2318
 3130SOL    HW121026   2.281   4.648   8.594  0.0537  0.0449  0.6531
 3130SOL    HW221027   2.210   0.029   8.543  0.9215 -0.4383 -0.1836
 3131SOL     OW21028   0.817   4.451   5.215 -0.3263 -0.6784 -0.6174
 3131SOL    HW121029   0.814   4.469   5.309 -1.2390  1.1439 -0.9789
 3131SOL    HW221030   0.801   4.357   5.219  1.0418 -0.9485 -1.8030
 3132SOL     OW21031   4.257   0.411   6.420  0.3674 -0.2045  0.0357
 3132SOL    HW121032   4.291   0.495   6.390  0.4059  0.2011  1.2241
 3132SOL    HW221033   4.311   0.388   6.496  0.7739  3.2698  0.7765
 3133SOL     OW21034   0.071   3.147  11.687  0.8133  0.2484  0.1900
 3133SOL    HW121035   4.713   3.161  11.682  0.8224  0.0521 -0.5833
 3133SOL    HW221036   0.090   3.139  11.781 -0.2102 -2.7209  0.1501
 3134SOL     OW21037   2.513   1.869   9.508 -0.2929 -0.2334 -0.1156
 3134SOL    HW121038   2.609   1.863   9.506 -0.2547  0.3366  0.1372
 3134SOL    HW221039   2.501   1.782   9.468 -2.7699 -0.4287  1.0474
 3135SOL     OW21040   3.575   1.850  17.244 -0.0067 -0.1283  0.4428
 3135SOL    HW121041   3.594   1.865  17.152  1.2327 -2.8767  0.2594
 3135SOL    HW221042   3.482   1.830  17.233  0.2312 -0.8536 -0.2455
 3136SOL     OW21043   0.624   0.468  13.707 -0.3560  0.4727  0.0886
 3136SOL    HW121044   0.694   0.478  13.643 -1.2321 -0.5085 -1.0058
 3136SOL    HW221045   0.677   0.480  13.786 -1.2978 -0.2573  0.8450
 3137SOL     OW21046   3.621   1.179   6.005  0.1808 -0.2456  0.3164
 3137SOL    HW121047   3.617   1.088   5.974 -0.2141  0.4861 -1.8145
 3137SOL    HW221048   3.569   1.179   6.085  0.4622  0.8336  0.4942
 3138SOL     OW21049   2.209   1.477   5.144  0.0601  0.5108 -0.7922
 3138SOL    HW121050   2.176   1.535   5.075  0.1298 -0.8879 -1.9902
 3138SOL    HW221051   2.222   1.395   5.097 -1.7047  0.4845 -1.2703
 3139SOL     OW21052   3.471   3.880   1.300  0.5582 -0.2874  0.3015
 3139SOL    HW121053   3.458   3.798   1.252 -2.0499  0.5948 -0.5049
 3139SOL    HW221054   3.414   3.937   1.250  1.9782  0.2728 -0.6717
 3140SOL     OW21055   1.930   1.204   6.944  0.0069  0.0374 -0.2751
 3140SOL    HW121056   1.910   1.195   7.038  0.6906 -0.4649 -0.1747
 3140SOL    HW221057   2.013   1.251   6.940 -0.0273  0.1688  0.4244
 3141SOL     OW21058   0.402   4.358   3.952  0.2793 -0.4931  0.8200
 3141SOL    HW121059   0.352   4.437   3.972  1.0542  0.5901 -1.5115
 3141SOL    HW221060   0.380   4.352   3.859 -1.4396 -1.3492  1.2979
 3142SOL     OW21061   0.871   1.964   6.126  0.3073  0.1265 -0.5889
 3142SOL    HW121062   0.837   1.894   6.181 -1.0353 -1.2898 -3.2505
 3142SOL    HW221063   0.966   1.954   6.134  0.0386 -1.7611  0.0780
 3143SOL     OW21064   2.757   0.764  15.618 -0.2699  0.5267 -0.3455
 3143SOL    HW121065   2.793   0.804  15.697 -1.9474  0.6054  0.3862
 3143SOL    HW221066   2.717   0.682  15.648  0.6203  0.2896  0.1700
 3144SOL     OW21067   3.640   2.139   2.596 -0.4746 -0.2085 -0.3897
 3144SOL    HW121068   3.734   2.128   2.613 -0.9996 -0.3844  2.3810
 3144SOL    HW221069   3.617   2.200   2.666  0.5878  1.3289 -1.3673
 3145SOL     OW21070   3.707   4.156   1.500 -0.0897 -0.0301  0.2459
 3145SOL    HW121071   3.660   4.223   1.449  1.4855  0.8266 -0.0844
 3145SOL    HW221072   3.793   4.195   1.514  0.7799 -2.2198  0.9161
 3146SOL     OW21073   1.980   2.735  10.771  0.7005 -0.2269 -0.1157
 3146SOL    HW121074   2.020   2.648  10.769 -0.7803 -0.9232  0.8017
 3146SOL    HW221075   1.958   2.744  10.679  3.4027 -1.5012 -0.8877
 3147SOL     OW21076   0.669   2.961   2.213 -0.3460 -0.5745 -0.4583
 3147SOL    HW121077   0.603   3.007   2.266 -0.4164 -2.3985  1.0323
 3147SOL    HW221078   0.714   2.908   2.278 -0.8437 -0.9008 -0.3787
 3148SOL     OW21079   2.795   2.071   7.892  0.0544 -0.4036 -0.1625
 3148SOL    HW121080   2.856   2.019   7.945  3.6499  2.6924 -1.2560
 3148SOL    HW221081   2.806   2.145   7.951 -1.7715  1.4602 -2.1797
 3149SOL     OW21082   3.594   0.401  15.851 -0.4139 -0.1746 -0.0794
 3149SOL    HW121083   3.660   0.426  15.916 -1.6055  0.7111  0.7824
 3149SOL    HW221084   3.633   0.431  15.769  1.6067  0.9710  1.2720
 3150SOL     OW21085   1.786   3.211   8.068  0.4064 -0.2532 -0.3773
 3150SOL    HW121086   1.858   3.148   8.073  2.5028  1.8453 -4.0756
 3150SOL    HW221087   1.770   3.235   8.159 -1.2802 -1.7328 -0.2852
 3151SOL     OW21088   2.582   1.156  14.049 -0.4429 -0.1460 -0.2008
 3151SOL    HW121089   2.548   1.220  14.112  1.3297  0.2044  0.4010
 3151SOL    HW221090   2.518   1.151  13.978  1.1594  1.3566 -1.7291
 3152SOL     OW21091   3.308   3.833   8.628  0.0353 -0.3999 -0.1231
 3152SOL    HW121092   3.336   3.924   8.636 -0.3898 -0.2333 -0.5478
 3152SOL    HW221093   3.237   3.847   8.565 -0.0300  1.4976  0.3820
 3153SOL     OW21094   1.661   1.428  13.470  0.0684 -0.1552  0.0592
 3153SOL    HW121095   1.707   1.415  13.553 -0.0889 -0.8765  0.0332
 3153SOL    HW221096   1.722   1.489  13.429  1.4945 -0.8177  1.1898
 3154SOL     OW21097   0.014   1.570   5.291  0.2768  0.2357  0.7608
 3154SOL    HW121098   0.105   1.551   5.270 -0.0510  0.2977 -0.7531
 3154SOL    HW221099   0.014   1.647   5.234  0.2755 -1.9718 -2.2338
 3155SOL     OW21100   0.143   2.310   2.691  0.0341 -0.2671 -0.0542
 3155SOL    HW121101   0.192   2.235   2.657  2.5557  1.3110  0.1382
 3155SOL    HW221102   0.136   2.272   2.779  0.7934  1.8946  0.9353
 3156SOL     OW21103   2.132   0.981  12.145 -0.3145  0.2508  0.1310
 3156SOL    HW121104   2.086   0.942  12.219 -0.8081 -0.7679 -0.6963
 3156SOL    HW221105   2.219   0.942  12.142 -0.7296 -0.5457 -1.6595
 3157SOL     OW21106   0.481   0.609   4.586  0.2749 -0.0591  0.2057
 3157SOL    HW121107   0.504   0.667   4.659 -0.6479  0.8684 -0.2374
 3157SOL    HW221108   0.572   0.585   4.567 -0.1300 -0.2429 -1.4479
 3158SOL     OW21109   3.545   3.575   8.282  0.2025 -0.3335 -0.2333
 3158SOL    HW121110   3.587   3.657   8.254  0.4098 -0.7422 -1.1346
 3158SOL    HW221111   3.565   3.511   8.214 -2.6190 -1.6794  0.2344
 3159SOL     OW21112   0.898   1.394  10.774  0.4023  0.0973  0.2059
 3159SOL    HW121113   0.953   1.410  10.697  1.2053  0.0134  0.7588
 3159SOL    HW221114   0.936   1.461  10.831  1.0303  0.9996 -1.2690
 3160SOL     OW21115   1.496   2.274   7.402  0.3830 -0.3041  0.0007
 3160SOL    HW121116   1.444   2.353   7.395  1.9527  0.5299 -2.3449
 3160SOL    HW221117   1.471   2.250   7.313 -0.0395 -2.4940  0.6894
 3161SOL     OW21118   3.952   0.553  13.244  0.2618 -0.2055 -0.1323
 3161SOL    HW121119   4.032   0.543  13.295 -0.1457 -0.5210  0.4453
 3161SOL    HW221120   3.910   0.467  13.249  0.0419 -0.0678  0.4689
 3162SOL     OW21121   0.640   4.128   3.772  0.0467 -0.1412  0.1524
 3162SOL    HW121122   0.549   4.100   3.756 -0.4995  1.5705  0.2533
 3162SOL    HW221123   0.667   4.092   3.857 -0.9040 -1.5287 -0.1245
 3163SOL     OW21124   2.554   1.767   6.601 -0.5021  0.2520  0.2566
 3163SOL    HW121125   2.564   1.772   6.696 -1.0223 -0.3652  0.3394
 3163SOL    HW221126   2.517   1.679   6.600  0.8749 -0.3382  0.0816
 3164SOL     OW21127   2.811   4.019  17.278  0.1953 -0.1836  0.6038
 3164SOL    HW121128   2.813   4.110  17.249  0.9872 -0.6825 -0.9070
 3164SOL    HW221129   2.783   4.011  17.369  1.9732 -1.4152  1.0448
 3165SOL     OW21130   3.885   3.213   9.296 -0.2622  0.1372  0.4454
 3165SOL    HW121131   3.859   3.290   9.347 -2.0371 -0.4361  0.3897
 3165SOL    HW221132   3.979   3.222   9.284 -0.4765 -0.3574 -1.5100
 3166SOL     OW21133   0.863   4.387   4.465  0.2063  0.0476 -0.3352
 3166SOL    HW121134   0.818   4.372   4.548 -1.0421 -0.4488 -1.0910
 3166SOL    HW221135   0.789   4.403   4.406 -0.6881 -1.3219  0.4011
 3167SOL     OW21136   0.289   0.736   9.130 -0.5548 -0.3767  0.1413
 3167SOL    HW121137   0.249   0.798   9.191 -1.0226 -0.4328 -0.1115
 3167SOL    HW221138   0.346   0.691   9.192  1.0614  0.8559 -0.4144
 3168SOL     OW21139   2.801   2.677   4.542  0.0010 -0.3288 -0.2487
 3168SOL    HW121140   2.836   2.755   4.587  2.3640 -1.7793  0.4583
 3168SOL    HW221141   2.821   2.694   4.450  2.4201 -0.9770  0.1487
 3169SOL     OW21142   0.839   0.440   7.401 -0.5928  0.1760  0.5641
 3169SOL    HW121143   0.799   0.353   7.399  1.1088 -0.5657 -1.0561
 3169SOL    HW221144   0.769   0.495   7.366  0.6582  1.1668 -0.3479
 3170SOL     OW21145   2.500   0.737   1.183  0.2824 -0.0740  0.2151
 3170SOL    HW121146   2.468   0.747   1.093  0.3221  0.4015  0.2544
 3170SOL    HW221147   2.567   0.670   1.172  1.4138  0.8449  1.4868
 3171SOL     OW21148   1.298   0.987   4.274 -0.1779 -0.2530  0.1460
 3171SOL    HW121149   1.382   1.003   4.230  0.0684  0.8434  1.0346
 3171SOL    HW221150   1.341   0.954   4.353 -0.2491 -0.3609  0.1393
 3172SOL     OW21151   1.705   0.406  11.525 -0.3213 -0.1677 -0.5747
 3172SOL    HW121152   1.765   0.357  11.468  1.9090  1.0542  0.7064
 3172SOL    HW221153   1.751   0.394  11.608 -1.8061  1.6245  0.4842
 3173SOL     OW21154   3.827   2.502   9.357 -0.1386  0.3040 -0.5587
 3173SOL    HW121155   3.763   2.432   9.370 -0.4967  0.6861 -0.2714
 3173SOL    HW221156   3.905   2.447   9.351 -0.5795 -0.4236  0.3424
 3174SOL     OW21157   1.709   3.114  10.162  0.1951  0.4536  0.0131
 3174SOL    HW121158   1.685   3.185  10.222 -2.9165  0.4874 -1.2652
 3174SOL    HW221159   1.719   3.157  10.077  0.1355  0.7976  0.1800
 3175SOL     OW21160   0.388   1.134   2.206  0.3532 -0.1980  0.0734
 3175SOL    HW121161   0.439   1.178   2.275  0.9998 -3.3537  1.6113
 3175SOL    HW221162   0.442   1.058   2.182 -1.0505 -0.2162 -2.9570
 3176SOL     OW21163   3.675   4.030  14.581 -0.0647 -0.2227 -0.2338
 3176SOL    HW121164   3.643   4.044  14.492 -3.0669  0.3881  0.9470
 3176SOL    HW221165   3.614   4.078  14.637  0.7773  0.4590  0.1043
 3177SOL     OW21166   0.261   4.511   2.949  0.3593  0.0098  0.5738
 3177SOL    HW121167   0.292   4.421   2.938 -0.6261 -0.2303 -0.3391
 3177SOL    HW221168   0.246   4.503   3.043  1.5619 -1.9344  0.6007
 3178SOL     OW21169   4.541   2.300  10.565  0.5823  0.2175  0.3031
 3178SOL    HW121170   4.543   2.329  10.657  0.9325 -0.3856  0.4863
 3178SOL    HW221171   4.568   2.210  10.582  0.4060 -0.0247 -0.7370
 3179SOL     OW21172   0.858   1.473   0.338 -0.2837  0.1354 -0.1700
 3179SOL    HW121173   0.766   1.492   0.319  0.0752  1.1555 -0.9140
 3179SOL    HW221174   0.900   1.558   0.353  1.5349 -1.0082  1.3340
 3180SOL     OW21175   4.016   1.994   7.613 -0.3503 -0.3998  0.3961
 3180SOL    HW121176   3.944   1.931   7.605  0.5970 -1.6296  1.6264
 3180SOL    HW221177   4.055   1.982   7.527  0.0286  0.6448  0.4245
 3181SOL     OW21178   2.371   1.329   6.699 -0.3077  0.2069 -0.3494
 3181SOL    HW121179   2.402   1.305   6.612  0.3921 -1.3135  0.3153
 3181SOL    HW221180   2.290   1.278   6.703  0.9032 -1.5409  2.0974
 3182SOL     OW21181   0.481   0.361   1.809 -0.5979 -0.5349 -0.2637
 3182SOL    HW121182   0.421   0.435   1.805  0.1262  0.0279 -0.6496
 3182SOL    HW221183   0.533   0.382   1.732  0.9354 -0.8281  0.6925
 3183SOL     OW21184   0.507   4.567   5.043  0.4507 -0.5924 -0.3967
 3183SOL    HW121185   0.472   4.578   5.131  0.4865  0.7324 -0.5412
 3183SOL    HW221186   0.591   4.614   5.044 -0.7818  1.6683 -2.7873
 3184SOL     OW21187   1.127   3.075  16.503  0.5289 -0.4648 -0.4601
 3184SOL    HW121188   1.208   3.126  16.499 -0.7022  1.5227 -0.1659
 3184SOL    HW221189   1.076   3.124  16.438  1.7370  0.6597 -0.5612
 3185SOL     OW21190   3.804   4.126   5.900  0.1859 -0.1653  0.3032
 3185SOL    HW121191   3.767   4.211   5.922 -0.9186 -1.0385  1.8362
 3185SOL    HW221192   3.778   4.129   5.808  1.8382  0.1884 -0.1484
 3186SOL     OW21193   4.499   3.368  16.628 -0.1893  0.2276  0.4942
 3186SOL    HW121194   4.521   3.304  16.561 -0.0926 -0.9122  1.6220
 3186SOL    HW221195   4.426   3.323  16.672  0.0802 -0.0723  0.6300
 3187SOL     OW21196   1.991   2.058   6.293 -0.1099 -0.1205 -0.2611
 3187SOL    HW121197   1.916   2.081   6.347  0.1014  0.0224 -0.0271
 3187SOL    HW221198   2.048   2.020   6.360 -0.2488  0.4000  0.1505
 3188SOL     OW21199   1.221   4.248   5.881 -0.3637  0.5099 -0.0551
 3188SOL    HW121200   1.167   4.172   5.859  1.0604  0.0173 -1.8581
 3188SOL    HW221201   1.240   4.281   5.793 -0.7257  1.4259  0.2067
 3189SOL     OW21202   1.641   2.997   1.401 -0.2869  0.3096  0.7379
 3189SOL    HW121203   1.553   3.023   1.375  0.3230  0.3450 -1.3538
 3189SOL    HW221204   1.644   3.046   1.483 -0.2695 -0.7176  1.3549
 3190SOL     OW21205   0.548   0.254   4.418 -0.2487 -0.0272 -0.3512
 3190SOL    HW121206   0.484   0.190   4.387 -0.3500  0.1592 -0.5300
 3190SOL    HW221207   0.583   0.209   4.495  0.8189 -0.2104 -0.9442
 3191SOL     OW21208   3.119   4.526   5.281  0.1261  0.8033  0.3151
 3191SOL    HW121209   3.150   4.593   5.342 -0.1520  1.3962 -0.1994
 3191SOL    HW221210   3.179   4.542   5.208  0.0776  3.2421  0.7943
 3192SOL     OW21211   0.434   3.230   5.912  0.6650 -0.3821  0.3811
 3192SOL    HW121212   0.432   3.209   5.819 -2.1108 -3.7441  1.2257
 3192SOL    HW221213   0.492   3.162   5.947  1.4053  0.3556  0.5857
 3193SOL     OW21214   1.574   2.420   0.673  0.4436 -0.0044 -0.6348
 3193SOL    HW121215   1.562   2.513   0.692  1.3587 -0.1952  0.9030
 3193SOL    HW221216   1.557   2.377   0.757  0.3863  0.3983 -0.4397
 3194SOL     OW21217   2.703   0.249   9.040  0.0447  0.3885 -0.5330
 3194SOL    HW121218   2.721   0.159   9.068 -0.6321 -0.5759 -3.0983
 3194SOL    HW221219   2.683   0.244   8.946  1.1411  1.9250 -0.8443
 3195SOL     OW21220   1.237   4.320  12.613  0.2519 -0.8423 -0.2204
 3195SOL    HW121221   1.298   4.260  12.570  2.2655  2.3801 -1.8385
 3195SOL    HW221222   1.199   4.375  12.545  3.3904 -0.7113 -1.8710
 3196SOL     OW21223   1.517   0.691   5.182  0.0133  0.6720 -0.5225
 3196SOL    HW121224   1.585   0.632   5.213 -1.4450 -0.6056  0.2196
 3196SOL    HW221225   1.467   0.689   5.263  1.0391 -0.6248  0.0597
 3197SOL     OW21226   4.571   0.376   6.107 -0.2569 -0.3013  0.0382
 3197SOL    HW121227   4.595   0.323   6.032 -1.2867  2.5390 -2.2959
 3197SOL    HW221228   4.593   0.329   6.187 -4.1937 -2.5765 -0.2418
 3198SOL     OW21229   3.752   1.286  16.414  0.0467  0.0551 -0.1737
 3198SOL    HW121230   3.669   1.316  16.378  0.4484  0.2265 -0.9409
 3198SOL    HW221231   3.814   1.320  16.350 -1.6009 -1.1932 -2.4113
 3199SOL     OW21232   0.627   3.343  17.357  0.2420  0.0585  0.5998
 3199SOL    HW121233   0.700   3.347  17.295  1.9014  0.6212  2.6005
 3199SOL    HW221234   0.560   3.360  17.291  0.2401 -1.4655  0.2010
 3200SOL     OW21235   1.587   4.403   1.447 -0.0722 -0.0690  0.9252
 3200SOL    HW121236   1.660   4.462   1.467  0.2871 -1.2331  3.0077
 3200SOL    HW221237   1.610   4.328   1.502 -1.7890  0.0947  1.8662
 3201SOL     OW21238   3.502   2.186   5.812  0.0729  0.1702 -0.2623
 3201SOL    HW121239   3.524   2.093   5.802  2.2840  0.4364  2.3845
 3201SOL    HW221240   3.581   2.219   5.853  0.6013  0.5229 -1.5476
 3202SOL     OW21241   1.795   3.713   3.110 -0.1010 -0.3956  0.3302
 3202SOL    HW121242   1.739   3.666   3.048 -0.2065 -2.3306  1.9017
 3202SOL    HW221243   1.737   3.708   3.186  0.4950  1.3558  0.8999
 3203SOL     OW21244   0.714   2.659   5.081  0.4577  0.4758  0.1974
 3203SOL    HW121245   0.620   2.640   5.084  0.3164  1.3445  1.2395
 3203SOL    HW221246   0.733   2.681   5.172  0.9894 -0.2271  0.2468
 3204SOL     OW21247   3.408   1.871   6.979  0.0777  0.1650 -0.3412
 3204SOL    HW121248   3.348   1.817   6.928 -0.3625 -2.2600  2.7365
 3204SOL    HW221249   3.345   1.926   7.026  2.0623  0.9631  1.3953
 3205SOL     OW21250   2.676   0.214   3.324 -0.3387 -0.1429 -0.2518
 3205SOL    HW121251   2.730   0.257   3.258  0.4924 -1.8206 -0.6637
 3205SOL    HW221252   2.605   0.179   3.270 -0.8656  2.0043 -0.9413
 3206SOL     OW21253   1.813   2.931   5.342 -0.2855  0.2609  0.3986
 3206SOL    HW121254   1.754   2.971   5.407 -0.1643  0.8125  0.1677
 3206SOL    HW221255   1.806   2.838   5.364 -0.4641  1.2707  4.5701
 3207SOL     OW21256   3.365   2.093   4.958  0.4373  0.0439  0.0359
 3207SOL    HW121257   3.434   2.123   5.017  2.3309  0.3584 -2.3451
 3207SOL    HW221258   3.412   2.039   4.895  0.7737  0.8463 -0.4048
 3208SOL     OW21259   3.538   0.457   5.252  0.1954  0.2953 -0.2085
 3208SOL    HW121260   3.598   0.389   5.282 -0.8248 -2.1744 -3.7316
 3208SOL    HW221261   3.524   0.426   5.162 -0.0124  2.6584 -0.9996
 3209SOL     OW21262   1.729   2.269  11.124 -0.0410 -0.1325 -0.3397
 3209SOL    HW121263   1.782   2.205  11.077 -0.0969  1.2610 -2.2727
 3209SOL    HW221264   1.646   2.233  11.093 -0.7393  1.0021  0.2108
 3210SOL     OW21265   2.418   1.134   7.166 -0.0980  0.5178  0.1397
 3210SOL    HW121266   2.449   1.188   7.093  2.3051  1.5450  1.9133
 3210SOL    HW221267   2.448   1.051   7.129 -1.8822  0.1510 -0.4529
 3211SOL     OW21268   1.137   4.009   1.708  0.1035  0.1034 -0.4895
 3211SOL    HW121269   1.193   4.076   1.747 -0.5722 -0.5091  1.5831
 3211SOL    HW221270   1.180   3.990   1.625  1.0542 -0.5906  0.1575
 3212SOL     OW21271   4.660   2.438   7.690  0.0070 -0.6848  0.0803
 3212SOL    HW121272   4.705   2.476   7.766  0.9219 -0.2626 -0.6629
 3212SOL    HW221273   4.593   2.499   7.659  2.4980  1.6245 -0.8027
 3213SOL     OW21274   1.976   4.590   2.353  0.5968 -0.1473  0.1683
 3213SOL    HW121275   2.049   4.615   2.298  0.9057 -0.8887  0.2376
 3213SOL    HW221276   1.949   4.504   2.321 -3.0724  0.9666  0.1963
 3214SOL     OW21277   0.139   3.470   6.591  0.1227 -0.3378 -0.4272
 3214SOL    HW121278   0.064   3.513   6.551  0.6133  0.9765  0.0672
 3214SOL    HW221279   0.098   3.409   6.652  0.8492 -0.4377 -0.0317
 3215SOL     OW21280   0.543   1.873   7.783 -0.8038  0.2706  0.4170
 3215SOL    HW121281   0.636   1.865   7.805 -0.3698  2.9074 -0.4843
 3215SOL    HW221282   0.506   1.795   7.823  1.9114 -1.6750 -0.8767
 3216SOL     OW21283   0.436   0.918  16.327  0.5124  0.7803  0.0267
 3216SOL    HW121284   0.499   0.876  16.268  0.6276  0.5527  0.3108
 3216SOL    HW221285   0.372   0.945  16.261 -0.2087 -1.9552 -0.4352
 3217SOL     OW21286   0.830   0.490  15.599  0.1777 -0.2653  0.1784
 3217SOL    HW121287   0.784   0.479  15.517 -1.0178 -0.3304  0.8619
 3217SOL    HW221288   0.922   0.470  15.581 -0.6738  0.0053 -4.2840
 3218SOL     OW21289   3.534   3.656   0.954 -0.4127 -0.2911 -0.2598
 3218SOL    HW121290   3.480   3.614   1.022 -0.8420  1.8093  0.6933
 3218SOL    HW221291   3.502   3.746   0.957 -2.7317 -1.1860  1.6244
 3219SOL     OW21292   3.202   4.213  16.798 -0.6895 -0.0565 -0.1204
 3219SOL    HW121293   3.228   4.305  16.799 -3.3176  0.6791  1.1710
 3219SOL    HW221294   3.284   4.166  16.780 -0.3746  0.3572  0.2297
 3220SOL     OW21295   0.606   1.193   5.355 -0.3207 -0.3393  0.5683
 3220SOL    HW121296   0.559   1.265   5.398 -1.2451  0.3937 -1.6223
 3220SOL    HW221297   0.533   1.132   5.344 -1.0874  0.6466  0.1866
 3221SOL     OW21298   4.727   0.374  15.885 -0.0497  0.5717 -0.3049
 3221SOL    HW121299   0.045   0.452  15.874  0.6084  0.0652 -0.6434
 3221SOL    HW221300   4.656   0.393  15.824 -0.5828  0.9996  0.4604
 3222SOL     OW21301   3.811   3.777   4.650 -0.2493  0.4749  0.2033
 3222SOL    HW121302   3.802   3.763   4.556 -1.2409  0.2832  0.3182
 3222SOL    HW221303   3.852   3.863   4.653 -1.9170  1.2795  0.4788
 3223SOL     OW21304   4.169   0.515  15.894  0.0194  0.8350  0.2664
 3223SOL    HW121305   4.263   0.503  15.905 -0.0554 -0.2823 -0.3421
 3223SOL    HW221306   4.155   0.593  15.839 -2.1382  0.9423  0.9581
 3224SOL     OW21307   0.134   0.722  10.317 -0.1951  0.4122  0.5260
 3224SOL    HW121308   0.158   0.649  10.374  0.9094  0.8332  0.5966
 3224SOL    HW221309   0.039   0.709  10.316  0.1322 -2.0064  0.4061
 3225SOL     OW21310   0.524   3.258   8.809  0.5249  0.2971 -0.2163
 3225SOL    HW121311   0.592   3.253   8.876  0.7457 -0.8722 -0.5282
 3225SOL    HW221312   0.447   3.260   8.866 -0.3371  1.9037 -1.4177
 3226SOL     OW21313   3.606   4.227   2.641 -0.5896 -0.6249 -0.1804
 3226SOL    HW121314   3.687   4.207   2.594 -0.0681  0.4600  0.2693
 3226SOL    HW221315   3.583   4.315   2.610 -2.3697 -0.9053  0.3331
 3227SOL     OW21316   4.683   2.735   4.608 -0.0044 -0.1388  0.1415
 3227SOL    HW121317   4.588   2.719   4.614 -0.0280  0.5622  1.7440
 3227SOL    HW221318   4.715   2.655   4.567  1.7736  0.8713 -0.4296
 3228SOL     OW21319   2.662   1.582  16.427  0.7807 -0.2062  0.3727
 3228SOL    HW121320   2.602   1.617  16.361 -1.2089  0.3631  2.5271
 3228SOL    HW221321   2.615   1.604  16.506 -0.1033 -1.5625  0.2283
 3229SOL     OW21322   2.444   1.330   6.970 -0.3068  0.5014 -0.3154
 3229SOL    HW121323   2.462   1.317   6.877  1.1726 -0.2837  0.0862
 3229SOL    HW221324   2.482   1.414   6.992 -1.5173  1.2444 -1.0849
 3230SOL     OW21325   2.569   2.668   6.098  0.2782 -0.1846 -1.3834
 3230SOL    HW121326   2.589   2.586   6.052 -0.9722 -1.3270  0.1097
 3230SOL    HW221327   2.497   2.635   6.152 -0.8544  1.9790 -1.5873
 3231SOL     OW21328   2.825   4.404   8.106 -0.3170  0.1718 -0.5461
 3231SOL    HW121329   2.840   4.311   8.091 -0.0985  0.1323 -0.0897
 3231SOL    HW221330   2.857   4.411   8.196 -0.5636  0.8512 -0.5068
 3232SOL     OW21331   3.506   2.057   9.219 -0.4348 -0.8879 -0.3934
 3232SOL    HW121332   3.589   2.036   9.260 -1.4281 -2.7401  0.6861
 3232SOL    HW221333   3.489   2.150   9.231  0.4774 -0.8468  0.5050
 3233SOL     OW21334   1.779   1.572   5.039  0.4040 -0.3310  0.1324
 3233SOL    HW121335   1.852   1.533   4.991  1.7505  1.8425  0.4204
 3233SOL    HW221336   1.740   1.632   4.975  0.1964  0.9975  1.4930
 3234SOL     OW21337   3.958   3.049  10.215  0.2834 -0.0974  0.1107
 3234SOL    HW121338   4.046   3.016  10.199  0.3482  1.1660 -2.2331
 3234SOL    HW221339   3.912   2.981  10.165 -0.3997  0.6795 -0.3163
 3235SOL     OW21340   1.659   0.184   6.191  0.6721  0.4987  0.1762
 3235SOL    HW121341   1.732   0.131   6.221 -0.2309 -0.7340  0.2138
 3235SOL    HW221342   1.582   0.127   6.193  1.3238 -0.4147 -0.5472
 3236SOL     OW21343   0.045   4.425  11.735  0.3767  0.2716 -0.2073
 3236SOL    HW121344   4.691   4.399  11.752 -0.1375  2.0947 -0.1292
 3236SOL    HW221345   0.083   4.339  11.720 -0.9475 -0.0446 -1.7362
 3237SOL     OW21346   0.637   0.761   9.103  0.2473  0.6259  0.0050
 3237SOL    HW121347   0.562   0.776   9.160 -1.8503  1.3255 -2.9385
 3237SOL    HW221348   0.586   0.744   9.023  1.0954  0.0966 -0.4275
 3238SOL     OW21349   0.639   4.580   1.838  0.5708  0.2968  0.4416
 3238SOL    HW121350   0.685   4.580   1.922 -0.1166  1.2279  0.8171
 3238SOL    HW221351   0.636   4.672   1.813  2.5118 -0.3000 -2.0344
 3239SOL     OW21352   2.636   1.745   3.580  0.2545  0.5861 -0.0750
 3239SOL    HW121353   2.600   1.729   3.667 -0.7600 -1.7505 -0.9175
 3239SOL    HW221354   2.571   1.698   3.528  0.0349  1.3679 -0.5160
 3240SOL     OW21355   2.598   2.006  16.388 -0.2144  0.4213 -0.0384
 3240SOL    HW121356   2.546   1.993  16.467  0.7539  1.5392  0.7902
 3240SOL    HW221357   2.534   1.964  16.332  0.5738 -0.8622  0.0265
 3241SOL     OW21358   1.924   0.127  15.077 -0.3289 -0.9540  0.5432
 3241SOL    HW121359   1.971   0.098  14.998 -0.2989  1.5951 -0.3662
 3241SOL    HW221360   1.949   0.049  15.127  1.6434 -0.8225 -0.2043
 3242SOL     OW21361   0.256   4.449  12.558 -0.5717 -0.1867  0.1197
 3242SOL    HW121362   0.191   4.468  12.490  0.3794  0.2212 -0.6838
 3242SOL    HW221363   0.327   4.404  12.511 -0.9340 -0.3224 -0.2988
 3243SOL     OW21364   3.506   1.921   2.623  0.2429 -0.1738  1.0418
 3243SOL    HW121365   3.575   1.889   2.681  0.0085 -2.4000  0.0863
 3243SOL    HW221366   3.541   2.010   2.611 -0.8595  0.0188 -0.8675
 3244SOL     OW21367   3.020   1.813   3.266 -0.0899 -0.3973 -0.7549
 3244SOL    HW121368   3.017   1.903   3.235  1.7503  0.3047  1.1196
 3244SOL    HW221369   3.111   1.783   3.270  0.1477  0.3429 -0.7000
 3245SOL     OW21370   2.626   0.074  10.137 -0.1438  0.1993 -0.1977
 3245SOL    HW121371   2.708   0.122  10.142  2.3655 -4.2139  0.6917
 3245SOL    HW221372   2.634   0.028  10.220 -0.6802  0.7481  0.1535
 3246SOL     OW21373   2.828   3.309   2.385  0.1907  0.4361  0.2876
 3246SOL    HW121374   2.842   3.344   2.473 -2.7030 -1.9225  1.6789
 3246SOL    HW221375   2.834   3.387   2.329  1.0532  0.3899  0.3209
 3247SOL     OW21376   3.731   3.759   6.647  0.3403  0.5097  0.4982
 3247SOL    HW121377   3.685   3.751   6.731 -1.4477 -1.2408 -0.6523
 3247SOL    HW221378   3.663   3.726   6.588 -0.1910  0.4201  1.1611
 3248SOL     OW21379   4.570   0.526   6.463  0.1247  0.1733 -0.5388
 3248SOL    HW121380   4.639   0.582   6.497  1.4915 -1.5640 -0.4525
 3248SOL    HW221381   4.510   0.590   6.425  1.5613  0.6743 -1.9803
 3249SOL     OW21382   3.662   0.459   3.031  0.2346  0.5724  0.4667
 3249SOL    HW121383   3.685   0.414   2.949 -2.1103  0.1766  0.0291
 3249SOL    HW221384   3.720   0.535   3.023  2.3581 -0.8766  1.8387
 3250SOL     OW21385   1.559   1.026   8.894 -0.4796 -0.1019 -0.0032
 3250SOL    HW121386   1.558   0.991   8.983 -1.8067  1.5807  0.6473
 3250SOL    HW221387   1.581   1.118   8.909 -0.1162 -0.3754  1.0639
 3251SOL     OW21388   4.534   2.984   9.881  0.6088 -0.3347  0.3239
 3251SOL    HW121389   4.475   2.951   9.814  1.0864  0.3724 -0.4509
 3251SOL    HW221390   4.495   3.070   9.897  1.0252 -0.0175 -0.3519
 3252SOL     OW21391   0.689   3.698  10.844  0.0416 -0.5217  0.0150
 3252SOL    HW121392   0.722   3.666  10.927  0.5239 -0.2815 -0.0830
 3252SOL    HW221393   0.749   3.770  10.825 -0.4115 -0.6045 -1.8052
 3253SOL     OW21394   1.224   2.781  10.976  0.6815  0.3012  0.2014
 3253SOL    HW121395   1.221   2.722  10.901 -0.7962  2.4700 -1.4579
 3253SOL    HW221396   1.148   2.838  10.963  0.1443 -1.1543 -3.0296
 3254SOL     OW21397   0.545   0.171   6.927 -0.0255 -0.1181 -0.1260
 3254SOL    HW121398   0.543   0.167   7.022 -2.2057 -0.0581 -0.1686
 3254SOL    HW221399   0.471   0.115   6.904 -0.0818 -0.8723  1.9465
 3255SOL     OW21400   1.069   3.832   4.428  0.1107 -0.1295  0.1123
 3255SOL    HW121401   1.053   3.782   4.508  1.1180 -1.6340 -0.6233
 3255SOL    HW221402   1.014   3.910   4.435 -0.5207 -0.5332 -0.2716
 3256SOL     OW21403   1.740   1.193  11.929 -0.0620 -0.0119  0.0100
 3256SOL    HW121404   1.708   1.183  11.839 -0.3294  0.4394  0.0547
 3256SOL    HW221405   1.831   1.214  11.908  0.3580 -0.9375  0.8796
 3257SOL     OW21406   3.749   2.561   4.696  0.0720 -0.5673 -0.0676
 3257SOL    HW121407   3.804   2.636   4.672 -0.6216  0.7686  2.4394
 3257SOL    HW221408   3.791   2.492   4.645 -0.0543 -0.3830 -0.4173
 3258SOL     OW21409   2.306   1.209  16.555  0.1454 -0.1416  0.1645
 3258SOL    HW121410   2.245   1.149  16.512  0.1812 -1.0004  1.3091
 3258SOL    HW221411   2.346   1.145  16.613 -1.2344 -1.2002 -0.0746
 3259SOL     OW21412   1.625   1.795   4.927  0.1014  0.2709 -0.5813
 3259SOL    HW121413   1.607   1.813   4.835  0.6399  0.0782 -0.7244
 3259SOL    HW221414   1.633   1.881   4.969  2.2297 -0.4566  0.4790
 3260SOL     OW21415   4.715   3.509   4.561 -0.0439 -0.4036 -0.4313
 3260SOL    HW121416   4.671   3.556   4.489 -0.3823  0.3991  0.2913
 3260SOL    HW221417   0.040   3.453   4.514  1.1498  0.4491  0.1046
 3261SOL     OW21418   2.782   1.887   0.266  0.1475  0.1455  0.2231
 3261SOL    HW121419   2.725   1.839   0.206  0.5779 -1.2119  0.8979
 3261SOL    HW221420   2.716   1.933   0.318  0.9836  2.9557 -1.2075
 3262SOL     OW21421   2.548   4.378   4.423 -0.0408 -0.4407  0.4234
 3262SOL    HW121422   2.517   4.461   4.386  0.7342 -0.8717 -1.1949
 3262SOL    HW221423   2.639   4.372   4.395 -0.3968  0.5036 -0.9268
 3263SOL     OW21424   3.595   1.461   7.869 -0.6383  0.4071  0.1723
 3263SOL    HW121425   3.534   1.492   7.936 -0.9503  1.1760 -0.4744
 3263SOL    HW221426   3.603   1.367   7.887 -0.5581  0.2501 -0.6940
 3264SOL     OW21427   3.010   0.599   9.747  1.1649  0.2560  0.2362
 3264SOL    HW121428   2.995   0.580   9.654  2.6874 -2.5054  0.5739
 3264SOL    HW221429   3.101   0.629   9.754  1.3631  0.0376 -1.3944
 3265SOL     OW21430   2.182   4.496   7.863 -0.0394  0.2708  0.0760
 3265SOL    HW121431   2.088   4.508   7.878 -0.0036  0.9211 -0.2413
 3265SOL    HW221432   2.210   4.424   7.920 -0.0898  0.0586 -0.1643
 3266SOL     OW21433   3.332   3.803   9.286  0.3405 -0.5267  0.7392
 3266SOL    HW121434   3.237   3.807   9.283  0.3458 -1.0206  0.0144
 3266SOL    HW221435   3.348   3.873   9.223 -1.9482 -1.8579 -1.3145
 3267SOL     OW21436   2.791   4.440   9.000  0.0381  0.2948  0.2612
 3267SOL    HW121437   2.762   4.386   9.074 -0.6241 -3.2846 -2.6004
 3267SOL    HW221438   2.884   4.416   9.003  0.2541  0.9826 -1.0906
 3268SOL     OW21439   1.208   3.634   4.609 -0.4515  0.3895  0.1889
 3268SOL    HW121440   1.270   3.684   4.662 -0.9713  1.0517  0.1734
 3268SOL    HW221441   1.151   3.611   4.682  1.9186 -3.8975  0.6436
 3269SOL     OW21442   3.254   0.279  12.468 -0.1317  0.3234  0.0490
 3269SOL    HW121443   3.308   0.200  12.461 -1.2512 -0.4471  0.1762
 3269SOL    HW221444   3.177   0.261  12.522  0.4602 -0.9481  0.4834
 3270SOL     OW21445   3.225   2.819   9.690  0.0986  0.2975  0.2221
 3270SOL    HW121446   3.147   2.823   9.745 -0.1067  1.5770 -0.1622
 3270SOL    HW221447   3.214   2.746   9.629 -0.5820  0.4269  0.1838
 3271SOL     OW21448   2.764   4.233   1.162  0.1256  0.0554  0.7528
 3271SOL    HW121449   2.702   4.304   1.180  0.2266  0.1478  0.7402
 3271SOL    HW221450   2.846   4.281   1.172  0.7661 -0.9314  0.1679
 3272SOL     OW21451   1.460   1.291   1.307 -0.3738  0.0525  0.4852
 3272SOL    HW121452   1.418   1.208   1.330 -2.0498  0.2953 -1.7600
 3272SOL    HW221453   1.393   1.335   1.255  0.9173  0.7197 -0.6364
 3273SOL     OW21454   0.448   1.576   4.646  0.0477  0.2425  0.1298
 3273SOL    HW121455   0.437   1.654   4.591  1.1247  0.4823  0.2426
 3273SOL    HW221456   0.534   1.547   4.615 -0.4575 -1.4630  0.3605
 3274SOL     OW21457   0.164   0.447   5.971 -0.6427 -0.1571 -0.2394
 3274SOL    HW121458   0.225   0.518   5.954 -1.6585  0.9271  0.6523
 3274SOL    HW221459   0.117   0.477   6.049  1.8768  0.6234  0.9692
 3275SOL     OW21460   0.570   2.449  17.027 -0.4256 -0.4852  0.0259
 3275SOL    HW121461   0.519   2.394  16.968  1.2455  1.2917 -3.0649
 3275SOL    HW221462   0.556   2.537  16.994 -1.1433 -0.9675 -0.9491
 3276SOL     OW21463   2.264   2.174   6.389  0.5781 -0.1697  0.1506
 3276SOL    HW121464   2.263   2.116   6.313  2.4994 -0.1455  0.1264
 3276SOL    HW221465   2.316   2.119   6.447  0.9228 -1.8758 -1.7895
 3277SOL     OW21466   4.209   0.770  11.817 -0.3311 -0.0604 -0.0747
 3277SOL    HW121467   4.140   0.739  11.758 -0.2706  0.2884 -0.3292
 3277SOL    HW221468   4.249   0.689  11.848  1.4621  1.0741  0.5906
 3278SOL     OW21469   1.264   2.189   3.223  0.0027 -0.2461  0.7367
 3278SOL    HW121470   1.263   2.179   3.128  2.1872  4.9488  0.1350
 3278SOL    HW221471   1.315   2.270   3.229 -1.1966  0.8378 -3.9611
 3279SOL     OW21472   0.413   0.593   1.491  0.0333 -0.1813  0.0345
 3279SOL    HW121473   0.486   0.531   1.496  1.4391  1.2467 -2.1950
 3279SOL    HW221474   0.363   0.573   1.569  2.8588  2.2702  2.4899
 3280SOL     OW21475   0.441   2.722   3.672  0.5940  0.3447 -0.1819
 3280SOL    HW121476   0.374   2.759   3.730  0.6956 -0.2751  0.3312
 3280SOL    HW221477   0.480   2.660   3.734  1.3229 -1.3484 -2.3236
 3281SOL     OW21478   3.853   3.849   6.230  0.0657  1.0545  0.4901
 3281SOL    HW121479   3.831   3.919   6.291  1.0019  2.8535 -1.2324
 3281SOL    HW221480   3.875   3.774   6.286  0.5388  0.7982 -0.0384
 3282SOL     OW21481   4.536   4.556   3.023 -0.4857  0.3464  0.1621
 3282SOL    HW121482   4.452   4.564   3.068  0.5746 -1.0389  2.3530
 3282SOL    HW221483   4.567   4.477   3.066 -3.8102 -0.4245  1.1025
 3283SOL     OW21484   1.512   4.624   2.529  0.2109  0.1357  0.4794
 3283SOL    HW121485   1.508   4.682   2.605 -2.2274  0.0261  0.4325
 3283SOL    HW221486   1.483   4.685   2.461 -0.1326 -1.1168 -0.4877
 3284SOL     OW21487   2.234   0.464   8.738  0.7183  0.3287  0.1682
 3284SOL    HW121488   2.210   0.544   8.690  1.3941  0.8861  0.7618
 3284SOL    HW221489   2.311   0.446   8.684  0.5485 -0.3335  0.1526
 3285SOL     OW21490   1.034   0.680   8.689 -0.1656 -0.1198 -0.3778
 3285SOL    HW121491   1.004   0.624   8.761 -0.2853 -0.9772 -1.1076
 3285SOL    HW221492   1.128   0.689   8.706  0.1237 -4.1836 -0.0043
 3286SOL     OW21493   4.712   1.068   5.386 -0.1583  0.4456  0.1381
 3286SOL    HW121494   0.056   1.118   5.401 -0.4574  0.3395  2.1026
 3286SOL    HW221495   4.657   1.139   5.351  0.1420 -0.4218 -2.0830
 3287SOL     OW21496   4.240   3.378   8.972  0.4267 -0.4957  0.8546
 3287SOL    HW121497   4.273   3.424   9.050  1.1617  1.6642 -0.7309
 3287SOL    HW221498   4.324   3.355   8.932  0.4323 -0.0044  0.5868
 3288SOL     OW21499   4.629   3.081   6.109  0.5291 -0.5425 -0.5236
 3288SOL    HW121500   4.629   3.169   6.071  0.9617 -0.2593  0.1276
 3288SOL    HW221501   4.691   3.079   6.183 -2.1950  3.4293  1.8805
 3289SOL     OW21502   4.150   3.686   6.617  0.3670 -0.0729  0.1936
 3289SOL    HW121503   4.196   3.656   6.695  1.5170  3.6334  0.8969
 3289SOL    HW221504   4.108   3.601   6.600 -2.1959  1.8092 -2.8407
 3290SOL     OW21505   0.978   0.786   2.305  0.7022 -0.4137 -0.3984
 3290SOL    HW121506   0.949   0.695   2.307 -1.3285  0.1845 -2.2839
 3290SOL    HW221507   0.946   0.805   2.217  2.1473  0.4293 -0.7435
 3291SOL     OW21508   4.333   1.244   7.559  0.1300 -0.2593  0.1812
 3291SOL    HW121509   4.335   1.319   7.501 -0.1265 -0.8852 -0.6359
 3291SOL    HW221510   4.308   1.287   7.641  0.9547 -0.5483  0.5806
 3292SOL     OW21511   2.245   0.877   9.012 -0.2823  0.1409  0.0882
 3292SOL    HW121512   2.260   0.947   8.949 -0.3202  0.9596  0.9835
 3292SOL    HW221513   2.184   0.924   9.068 -0.4395  0.7267 -0.5808
 3293SOL     OW21514   2.074   1.547  10.656 -0.0788 -0.5769 -0.6235
 3293SOL    HW121515   2.161   1.574  10.687 -0.4152  0.4250 -0.5551
 3293SOL    HW221516   2.021   1.619  10.691 -0.0173 -1.1751  0.7184
 3294SOL     OW21517   0.647   2.642   7.918  0.1334 -0.7011 -0.4058
 3294SOL    HW121518   0.553   2.659   7.927  0.7100  1.7506  0.9575
 3294SOL    HW221519   0.634   2.563   7.865  3.4711 -1.4213 -0.1579
 3295SOL     OW21520   2.837   0.719   4.170 -0.6846  0.3718  0.5315
 3295SOL    HW121521   2.769   0.734   4.103 -0.4493  1.9041  0.6381
 3295SOL    HW221522   2.851   0.626   4.157 -2.0813  0.3372 -0.8152
 3296SOL     OW21523   2.885   2.306   8.807 -0.9516 -0.6447  0.2884
 3296SOL    HW121524   2.938   2.363   8.752 -1.3085  0.1358  0.7492
 3296SOL    HW221525   2.828   2.252   8.752  1.5657 -2.7957 -0.1924
 3297SOL     OW21526   0.071   3.175   7.768  0.2934  0.0544  0.2701
 3297SOL    HW121527   0.113   3.111   7.710  0.4565  0.1262  0.3077
 3297SOL    HW221528   0.109   3.175   7.856 -2.2477 -1.8446  1.3533
 3298SOL     OW21529   0.254   2.473   6.587 -0.2500 -0.3388  0.1584
 3298SOL    HW121530   0.195   2.504   6.519 -0.2052 -2.3878 -0.7934
 3298SOL    HW221531   0.216   2.513   6.666  0.5190 -0.2058  0.4679
 3299SOL     OW21532   0.908   0.008   0.718 -0.2418 -0.4098  0.0871
 3299SOL    HW121533   0.840   4.706   0.774 -0.1691  0.8454  1.0581
 3299SOL    HW221534   0.863   0.077   0.669 -1.7645 -0.6407  1.1543
 3300SOL     OW21535   4.724   4.308  13.668 -0.1687  0.1917  0.4031
 3300SOL    HW121536   0.043   4.236  13.697 -1.7416 -1.7838 -1.5476
 3300SOL    HW221537   4.718   4.365  13.745 -0.6107  0.6776  0.0083
 3301SOL     OW21538   0.409   2.291   5.709 -0.1313  0.4102 -0.2893
 3301SOL    HW121539   0.314   2.288   5.692 -0.1606 -0.2676 -0.0039
 3301SOL    HW221540   0.414   2.261   5.800 -2.0755 -0.8577 -0.5943
 3302SOL     OW21541   0.060   0.444   2.126  0.5037  0.1860  0.2639
 3302SOL    HW121542   0.068   0.353   2.097  0.1368  0.2210  0.0547
 3302SOL    HW221543   0.152   0.468   2.131  0.7071 -0.2116 -1.5513
 3303SOL     OW21544   2.565   0.700   3.388  0.1049 -0.4667  0.0942
 3303SOL    HW121545   2.562   0.764   3.459  0.4247  0.9338 -1.1795
 3303SOL    HW221546   2.621   0.742   3.323  0.0722  0.6323  0.7722
 3304SOL     OW21547   4.136   0.178   5.573  0.2256  0.6232  0.6158
 3304SOL    HW121548   4.045   0.199   5.594  0.6698 -1.8933  5.2270
 3304SOL    HW221549   4.125   0.084   5.559  0.7838  0.6553 -0.0483
 3305SOL     OW21550   4.061   0.410   7.284 -0.0193  0.0695  0.0943
 3305SOL    HW121551   4.024   0.428   7.198  0.0276  0.5730  0.1813
 3305SOL    HW221552   4.054   0.314   7.285  1.4003 -0.0811 -1.7756
 3306SOL     OW21553   3.175   1.119   1.386 -0.5081 -0.2336 -0.0039
 3306SOL    HW121554   3.225   1.049   1.345  1.3633  0.1695  1.5619
 3306SOL    HW221555   3.084   1.104   1.361 -0.7084 -0.0243  0.5794
 3307SOL     OW21556   0.434   2.464  11.825  0.2197  0.4322 -0.0266
 3307SOL    HW121557   0.496   2.391  11.833  0.0374 -0.0996 -3.4434
 3307SOL    HW221558   0.367   2.434  11.887 -0.9620 -1.2187 -2.1228
 3308SOL     OW21559   3.214   3.755   1.005 -0.4688  0.1617 -0.0008
 3308SOL    HW121560   3.267   3.715   1.074 -1.4957 -0.1705  0.5844
 3308SOL    HW221561   3.129   3.760   1.048  0.4478  0.8540  1.7220
 3309SOL     OW21562   4.444   2.861   7.913  0.0480 -0.7345 -0.0853
 3309SOL    HW121563   4.424   2.891   8.001  0.5494 -0.6969  0.0166
 3309SOL    HW221564   4.367   2.806   7.898 -1.4386  1.3078  0.0536
 3310SOL     OW21565   0.838   1.588  11.378 -0.1856  0.2495 -0.2700
 3310SOL    HW121566   0.834   1.638  11.297 -0.5622 -0.4152 -0.6615
 3310SOL    HW221567   0.889   1.644  11.436  0.9354  0.4524 -1.4445
 3311SOL     OW21568   4.343   3.579   7.959  0.0390 -0.5133 -0.1506
 3311SOL    HW121569   4.254   3.613   7.951  1.0843  1.8773 -1.7046
 3311SOL    HW221570   4.388   3.663   7.958  0.1580 -0.5780 -0.4128
 3312SOL     OW21571   2.034   0.094   6.189 -0.4805 -0.5338 -0.1379
 3312SOL    HW121572   1.958   0.075   6.244  1.3719 -1.7884  2.0308
 3312SOL    HW221573   2.013   0.067   6.100  0.3598  1.6652 -1.0049
 3313SOL     OW21574   2.958   2.797   7.576 -0.5380 -0.2976 -0.0810
 3313SOL    HW121575   2.985   2.843   7.496  0.1041 -1.4072 -0.4897
 3313SOL    HW221576   2.900   2.861   7.618 -2.1460 -1.6256 -0.2910
 3314SOL     OW21577   1.890   4.628  10.533 -0.2068  0.4437  0.0943
 3314SOL    HW121578   1.920   4.582  10.611 -0.9586  0.8833  0.6453
 3314SOL    HW221579   1.840   4.697  10.576 -0.7906 -0.7695  1.3602
 3315SOL     OW21580   0.846   3.250  14.089 -0.4406  0.2666 -0.0848
 3315SOL    HW121581   0.939   3.226  14.092 -0.3158  0.7779  0.3043
 3315SOL    HW221582   0.839   3.275  13.997 -2.7228  2.4212  0.6794
 3316SOL     OW21583   2.304   1.241   3.263  0.4711 -0.2957  0.2310
 3316SOL    HW121584   2.337   1.319   3.219  1.4339 -2.4749 -2.9043
 3316SOL    HW221585   2.278   1.183   3.191  1.1052  2.0124 -1.8676
 3317SOL     OW21586   3.583   2.163   1.846 -0.0630  0.4814 -0.0926
 3317SOL    HW121587   3.574   2.109   1.925 -2.1354  1.1279  0.1141
 3317SOL    HW221588   3.642   2.106   1.797 -0.7708 -0.2830 -0.0503
 3318SOL     OW21589   4.365   3.286   9.672 -0.1772 -0.3984  0.8297
 3318SOL    HW121590   4.330   3.226   9.606  2.4041 -1.7706  0.7087
 3318SOL    HW221591   4.457   3.289   9.647 -0.9048  0.5608 -1.7582
 3319SOL     OW21592   3.122   0.806   4.533 -0.0994 -0.3300 -0.4283
 3319SOL    HW121593   3.115   0.780   4.441  0.4102 -0.8466 -0.3178
 3319SOL    HW221594   3.165   0.891   4.530  1.2149 -0.9578  0.5743
 3320SOL     OW21595   3.737   1.003   3.500 -0.3190  0.5300 -0.1500
 3320SOL    HW121596   3.714   1.067   3.567 -1.5146 -0.2358  0.1732
 3320SOL    HW221597   3.662   1.003   3.440  0.5576 -0.9822 -1.2434
 3321SOL     OW21598   1.697   3.087   3.981 -0.1063 -0.3249 -0.7865
 3321SOL    HW121599   1.650   3.032   4.044  0.6860 -0.3372 -0.1947
 3321SOL    HW221600   1.735   3.144   4.047  0.0161 -0.1922 -0.9720
 3322SOL     OW21601   4.325   2.748   1.533 -0.5532 -0.1328  0.0867
 3322SOL    HW121602   4.310   2.788   1.447 -1.8108 -2.8497 -0.9670
 3322SOL    HW221603   4.250   2.688   1.534  1.3110 -2.5137 -1.2060
 3323SOL     OW21604   1.072   3.994   2.732  0.0170  0.0856  0.4629
 3323SOL    HW121605   0.994   4.012   2.680 -0.3679 -0.6645  0.7793
 3323SOL    HW221606   1.084   4.074   2.782  1.4072  0.0549  0.1845
 3324SOL     OW21607   3.333   0.325   1.630  0.0411  0.1231  0.3118
 3324SOL    HW121608   3.357   0.418   1.628  0.3799 -0.0120 -1.5307
 3324SOL    HW221609   3.302   0.322   1.540  0.2459 -2.2267  0.3195
 3325SOL     OW21610   0.652   0.779  11.556  0.3260  0.1725  0.2522
 3325SOL    HW121611   0.739   0.801  11.523  0.6525 -0.5502  0.6313
 3325SOL    HW221612   0.650   0.792  11.650  1.8255 -0.4671  0.3604
 3326SOL     OW21613   1.977   2.814   2.773  0.1838  0.3180 -0.4213
 3326SOL    HW121614   2.041   2.797   2.703  0.2169 -0.3690 -0.2245
 3326SOL    HW221615   2.019   2.781   2.852 -1.9037 -0.7885  0.2207
 3327SOL     OW21616   3.562   2.899   2.786  0.5269 -0.0960  0.2806
 3327SOL    HW121617   3.567   2.939   2.699 -2.3480  0.1868  0.2589
 3327SOL    HW221618   3.473   2.914   2.816  0.6567  1.7808 -0.2648
 3328SOL     OW21619   4.698   1.639   2.932 -0.3041 -0.1323  0.0168
 3328SOL    HW121620   4.699   1.705   3.001 -0.9849  2.7304 -2.7170
 3328SOL    HW221621   4.723   1.561   2.982 -1.0409  0.0302  0.6280
 3329SOL     OW21622   4.200   1.055   6.049  0.1645  0.2262  0.4854
 3329SOL    HW121623   4.289   1.067   6.015  0.5485 -4.4272 -0.1033
 3329SOL    HW221624   4.230   1.023   6.134 -0.3265  1.6387  1.2022
 3330SOL     OW21625   1.150   0.380   8.584 -0.0130 -0.2706  0.1880
 3330SOL    HW121626   1.087   0.452   8.579  0.6033  0.1294 -1.9938
 3330SOL    HW221627   1.143   0.337   8.499 -3.6552 -1.7253  1.2093
 3331SOL     OW21628   2.432   0.360   7.826 -0.0375 -0.7277  0.2179
 3331SOL    HW121629   2.525   0.337   7.828  0.2692  0.4977  0.0946
 3331SOL    HW221630   2.441   0.451   7.854 -0.0170 -0.2098 -1.4689
 3332SOL     OW21631   3.688   3.354  11.275 -0.2637 -0.1114  0.0120
 3332SOL    HW121632   3.776   3.363  11.240  0.2986 -0.6322  1.2943
 3332SOL    HW221633   3.693   3.342  11.370  0.8268  0.0192 -0.0326
 3333SOL     OW21634   1.095   1.260   3.465 -0.1229 -0.2894 -0.2035
 3333SOL    HW121635   1.099   1.321   3.391 -0.1892  0.6137  0.5394
 3333SOL    HW221636   1.185   1.245   3.493 -0.1811  2.2630  1.3475
 3334SOL     OW21637   0.506   1.982   2.456  0.1721 -0.2711  1.0230
 3334SOL    HW121638   0.538   1.982   2.546  1.7276 -0.1150  0.4709
 3334SOL    HW221639   0.440   1.913   2.457 -2.2002  1.9725  0.6696
 3335SOL     OW21640   3.784   1.572   8.267  0.4920 -0.1186 -0.6911
 3335SOL    HW121641   3.836   1.512   8.320  2.3999  0.3672 -2.0083
 3335SOL    HW221642   3.710   1.589   8.326 -0.4739 -2.2106 -1.3346
 3336SOL     OW21643   1.261   4.579   8.418 -0.8754  0.2599  0.2864
 3336SOL    HW121644   1.288   4.556   8.329  0.1630  0.4896  0.5459
 3336SOL    HW221645   1.165   4.579   8.411 -0.7208  0.4545 -1.9851
 3337SOL     OW21646   0.789   2.687   6.169 -0.3686  0.3613 -0.4759
 3337SOL    HW121647   0.705   2.685   6.123 -0.3543 -0.7333 -0.4651
 3337SOL    HW221648   0.810   2.779   6.152  1.1209  0.0789 -0.1432
 3338SOL     OW21649   2.029   1.546   1.656 -0.6990  0.2509  0.7797
 3338SOL    HW121650   1.974   1.605   1.706 -1.4181 -0.3944  0.7449
 3338SOL    HW221651   1.959   1.485   1.633 -1.0776  0.5627  1.1084
 3339SOL     OW21652   3.920   3.773   2.517 -0.7674 -0.3901  0.2915
 3339SOL    HW121653   3.994   3.812   2.564 -0.9166 -2.1163  1.9570
 3339SOL    HW221654   3.927   3.834   2.443  1.1821 -0.6630  0.2531
 3340SOL     OW21655   0.147   3.830  14.949  0.3041 -0.2551  0.0629
 3340SOL    HW121656   0.103   3.915  14.950 -0.5278 -0.6704 -1.5836
 3340SOL    HW221657   0.173   3.821  15.041  0.0433  1.4379  0.3098
 3341SOL     OW21658   1.154   0.133   9.179  0.0574 -0.1570  0.1968
 3341SOL    HW121659   1.213   0.124   9.104  0.8292  3.4204  0.3705
 3341SOL    HW221660   1.096   0.193   9.133 -0.5011 -0.6199  0.2930
 3342SOL     OW21661   3.085   1.889   1.682  0.0966 -0.5230 -0.4150
 3342SOL    HW121662   3.092   1.972   1.729 -1.4578 -0.4540 -0.3273
 3342SOL    HW221663   3.019   1.913   1.617 -0.7883  0.2445  0.7723
 3343SOL     OW21664   2.999   4.117  16.084  0.3681  0.0618  0.2117
 3343SOL    HW121665   2.943   4.076  16.018 -0.0174 -0.0594  0.6151
 3343SOL    HW221666   2.939   4.144  16.153  2.1627  0.4027  1.6457
 3344SOL     OW21667   4.549   0.051  13.512 -0.2174  0.0185 -0.1839
 3344SOL    HW121668   4.498   4.715  13.476 -1.9806  1.9932 -1.6979
 3344SOL    HW221669   4.476   0.110  13.531 -0.1822 -0.0472  0.1533
 3345SOL     OW21670   0.919   2.989   9.259 -0.0798  0.4183 -0.4518
 3345SOL    HW121671   0.847   3.041   9.294 -0.6955  0.1275 -1.2837
 3345SOL    HW221672   0.910   2.998   9.164  0.0625  0.1621 -0.4907
 3346SOL     OW21673   4.501   1.828   9.992 -0.5914  0.0976 -0.0147
 3346SOL    HW121674   4.516   1.922  10.000  1.5073 -0.1390 -1.0928
 3346SOL    HW221675   4.588   1.791   9.974 -0.6188  1.1113 -2.1540
 3347SOL     OW21676   1.080   0.562   2.645  0.3375  0.1487 -0.4147
 3347SOL    HW121677   1.017   0.544   2.716 -1.9945  1.1756 -2.2321
 3347SOL    HW221678   1.147   0.498   2.668 -0.0344  0.1505  0.6969
 3348SOL     OW21679   4.448   2.992   0.431 -0.1110  0.0303  0.3604
 3348SOL    HW121680   4.408   3.021   0.349 -0.2145  1.0650  0.7854
 3348SOL    HW221681   4.421   2.900   0.427 -1.4169  0.4617 -0.5841
 3349SOL     OW21682   1.554   0.573  13.622  0.6282 -0.2103  0.6083
 3349SOL    HW121683   1.508   0.554  13.541 -0.7342  0.1536  1.2942
 3349SOL    HW221684   1.492   0.539  13.687  2.3955 -0.3824  2.1956
 3350SOL     OW21685   0.574   0.326   8.164  0.1111  0.6526  0.0222
 3350SOL    HW121686   0.613   0.408   8.135  1.8718  1.0198  3.3434
 3350SOL    HW221687   0.533   0.354   8.247 -0.8752 -0.8181  0.0339
 3351SOL     OW21688   4.109   3.604  11.633  0.5503  0.3777  0.1515
 3351SOL    HW121689   4.103   3.512  11.658  0.5290  0.7737  1.6205
 3351SOL    HW221690   4.092   3.638  11.721 -1.7875 -0.4658  0.0064
 3352SOL     OW21691   0.807   4.435   2.414  0.4408  0.3901  0.3656
 3352SOL    HW121692   0.719   4.472   2.408 -0.0123 -0.5784  1.0512
 3352SOL    HW221693   0.817   4.394   2.328 -1.3232 -2.2782  1.4365
 3353SOL     OW21694   0.916   3.350  14.705 -0.0780 -0.2344 -0.2313
 3353SOL    HW121695   0.880   3.274  14.659  3.3335 -1.0001 -1.6545
 3353SOL    HW221696   0.995   3.309  14.743 -1.0201 -0.4107  1.5381
 3354SOL     OW21697   3.383   3.462   3.813 -0.0914 -0.7503  0.3600
 3354SOL    HW121698   3.302   3.436   3.769 -0.7606  0.2460  1.0068
 3354SOL    HW221699   3.342   3.486   3.897  0.1352  0.2926  0.1683
 3355SOL     OW21700   3.780   1.818  15.652  0.0648 -0.0259 -0.2941
 3355SOL    HW121701   3.811   1.907  15.636  0.3030  0.1034  0.8913
 3355SOL    HW221702   3.719   1.844  15.721  1.5247 -1.9501  1.6887
 3356SOL     OW21703   0.207   0.494   2.377  0.3476  0.6240 -0.0508
 3356SOL    HW121704   0.211   0.399   2.368  4.9738  1.0065 -2.2406
 3356SOL    HW221705   0.281   0.508   2.317  0.1690  0.0539 -0.4018
 3357SOL     OW21706   2.188   3.642   7.230  0.0752  0.0774  0.0021
 3357SOL    HW121707   2.276   3.610   7.253 -0.1036  0.6296  1.4348
 3357SOL    HW221708   2.140   3.563   7.257 -1.1657  0.7054 -0.3989
 3358SOL     OW21709   2.218   0.510  10.148 -0.8741  0.1269 -1.0088
 3358SOL    HW121710   2.225   0.417  10.169  1.4653  0.4750 -0.3300
 3358SOL    HW221711   2.139   0.539  10.193 -0.8155  0.2770 -1.0051
 3359SOL     OW21712   3.323   2.829   8.072 -0.3817  0.2625 -0.3344
 3359SOL    HW121713   3.259   2.793   8.134  0.5980 -0.4895  0.2499
 3359SOL    HW221714   3.355   2.747   8.032  0.8258  0.1251  0.9097
 3360SOL     OW21715   2.765   1.862   6.982  0.3486 -1.1146  0.0756
 3360SOL    HW121716   2.855   1.880   6.955 -0.1957 -0.3114 -1.1820
 3360SOL    HW221717   2.775   1.887   7.074 -0.8836  3.8841 -1.1732
 3361SOL     OW21718   4.473   2.323   0.843 -0.5817  0.0950 -0.0264
 3361SOL    HW121719   4.567   2.335   0.828 -1.0588  0.5268 -2.7065
 3361SOL    HW221720   4.442   2.297   0.756 -1.5862  0.3862  0.2414
 3362SOL     OW21721   3.497   2.516   6.547 -0.3617 -0.2358  0.6142
 3362SOL    HW121722   3.557   2.494   6.618 -0.9179  0.9061  1.4265
 3362SOL    HW221723   3.420   2.521   6.604 -0.7957 -2.7583  0.2297
 3363SOL     OW21724   1.174   2.892   7.008  0.7763 -0.2264 -0.6201
 3363SOL    HW121725   1.268   2.910   7.000  1.1214 -2.1061 -0.8531
 3363SOL    HW221726   1.148   2.979   7.039  0.7443  0.0418 -1.3951
 3364SOL     OW21727   2.617   4.244   3.802  0.4747  0.0815  0.1060
 3364SOL    HW121728   2.652   4.313   3.858  1.5673  0.0588 -0.5439
 3364SOL    HW221729   2.690   4.183   3.794  0.2113 -0.5110  2.5115
 3365SOL     OW21730   4.655   2.884  11.598 -0.3774 -0.4333  0.4919
 3365SOL    HW121731   4.713   2.959  11.614 -0.7957 -0.1460  0.6696
 3365SOL    HW221732   4.621   2.841  11.677 -1.3182 -0.0104  0.3114
 3366SOL     OW21733   1.651   3.651   4.724  0.4905  0.2692 -0.2305
 3366SOL    HW121734   1.618   3.566   4.695 -2.7477  1.6087 -0.5099
 3366SOL    HW221735   1.678   3.694   4.642  0.7254  0.5760  0.0078
 3367SOL     OW21736   1.909   1.060   2.066 -0.3785  0.0639  0.2929
 3367SOL    HW121737   1.995   1.050   2.024 -0.1611  0.1204  0.7224
 3367SOL    HW221738   1.857   1.083   1.989  0.5787  0.7490 -0.1479
 3368SOL     OW21739   0.263   3.244  10.618 -0.2989 -0.0979  0.1114
 3368SOL    HW121740   0.289   3.220  10.708  0.5730 -1.5509 -0.5260
 3368SOL    HW221741   0.279   3.338  10.627  2.2935 -0.5564  0.4068
 3369SOL     OW21742   0.010   3.806   1.980 -0.5040 -0.0971 -0.2978
 3369SOL    HW121743   4.651   3.815   1.971 -0.5642 -0.2757  0.1428
 3369SOL    HW221744   0.032   3.715   1.999 -2.0221  0.4947  4.3782
 3370SOL     OW21745   0.716   1.139   5.723  0.3851  0.0273  0.2982
 3370SOL    HW121746   0.720   1.064   5.664 -0.8433 -0.2918  0.6045
 3370SOL    HW221747   0.632   1.176   5.695  0.6659  0.5664  0.1735
 3371SOL     OW21748   2.109   2.680  12.551  0.2732  0.2948 -0.4408
 3371SOL    HW121749   2.094   2.772  12.530 -1.8446  0.3457  1.3111
 3371SOL    HW221750   2.053   2.645  12.482  1.4611 -0.0032 -1.2458
 3372SOL     OW21751   4.143   4.704   7.867 -0.0266  0.4138  0.4239
 3372SOL    HW121752   4.131   0.033   7.798  1.5277 -0.9654 -1.1452
 3372SOL    HW221753   4.092   4.630   7.834  2.2256 -1.1441  0.4492
 3373SOL     OW21754   3.410   4.310   6.798 -0.5185  0.3400  0.4516
 3373SOL    HW121755   3.404   4.398   6.835 -1.3190  0.5989 -0.2820
 3373SOL    HW221756   3.345   4.264   6.851  0.4827 -0.6207  0.8441
 3374SOL     OW21757   1.673   1.279   5.020  0.3637  0.5912  0.0725
 3374SOL    HW121758   1.758   1.286   5.063 -0.7558  0.8255  2.2381
 3374SOL    HW221759   1.614   1.327   5.078  0.4572 -0.3192  0.9164
 3375SOL     OW21760   1.445   0.613   4.389  0.1130 -0.0085 -0.1522
 3375SOL    HW121761   1.449   0.654   4.302  2.1823  1.2730  0.5776
 3375SOL    HW221762   1.451   0.688   4.447  1.1171  0.5685 -0.9953
 3376SOL     OW21763   4.403   0.258  13.607 -0.3300 -0.5820  0.1737
 3376SOL    HW121764   4.403   0.287  13.698  2.7808  0.7060 -0.2213
 3376SOL    HW221765   4.387   0.334  13.551 -0.4422  0.1340  1.1787
 3377SOL     OW21766   2.892   1.718   3.676 -0.0644 -0.1427  0.3387
 3377SOL    HW121767   2.915   1.652   3.610  0.0746 -0.2380  0.4838
 3377SOL    HW221768   2.803   1.738   3.646  0.1954  1.0641  0.4042
 3378SOL     OW21769   3.333   1.196   1.765 -0.4953  0.0191  0.0440
 3378SOL    HW121770   3.395   1.147   1.711  0.9884 -0.0175  1.7819
 3378SOL    HW221771   3.324   1.269   1.703 -0.6949  0.1434  0.2178
 3379SOL     OW21772   3.510   3.121   9.170  0.4737 -0.0556  0.4233
 3379SOL    HW121773   3.575   3.052   9.156 -0.1327 -0.4208 -0.6174
 3379SOL    HW221774   3.555   3.170   9.238  3.9250 -0.2281 -1.7579
 3380SOL     OW21775   1.882   2.055   3.697  0.0162 -0.0110  0.1590
 3380SOL    HW121776   1.909   2.134   3.650  0.8422 -0.7083 -0.5444
 3380SOL    HW221777   1.866   2.087   3.786 -2.1628 -1.9832  0.4663
 3381SOL     OW21778   2.048   2.038   4.696 -0.3747 -0.4313  0.9111
 3381SOL    HW121779   1.988   2.067   4.765 -0.2016 -0.5459  1.1102
 3381SOL    HW221780   2.000   1.956   4.680  1.0088 -0.5236 -2.7672
 3382SOL     OW21781   1.957   0.144  16.076  0.1002 -0.5875  0.0339
 3382SOL    HW121782   1.936   0.232  16.046  1.5131 -0.6022 -0.9903
 3382SOL    HW221783   2.032   0.135  16.017 -0.6895  0.1279 -1.0859
 3383SOL     OW21784   3.556   0.596   6.517  0.4642  0.5334 -0.2920
 3383SOL    HW121785   3.504   0.672   6.543 -1.8926 -1.4494  0.7854
 3383SOL    HW221786   3.637   0.635   6.484  0.3556 -1.1071 -2.5382
 3384SOL     OW21787   4.399   4.197   6.154 -0.0180 -0.0015 -0.5872
 3384SOL    HW121788   4.439   4.150   6.081  1.3334 -0.1188  0.2202
 3384SOL    HW221789   4.423   4.150   6.234  0.1254  2.2949  0.7071
 3385SOL     OW21790   0.050   2.745  17.048  0.1314  0.0246  0.3330
 3385SOL    HW121791   4.715   2.692  17.081  1.5031 -2.1194 -0.1767
 3385SOL    HW221792   0.008   2.832  17.049  1.0163  0.4655 -0.8123
 3386SOL     OW21793   4.460   2.898   8.874  0.2081  0.1615 -0.2442
 3386SOL    HW121794   4.526   2.896   8.804  0.2822 -2.9764 -0.0959
 3386SOL    HW221795   4.381   2.869   8.829  1.5682  0.1083 -2.6207
 3387SOL     OW21796   0.564   3.199  14.416 -0.6764  0.2591  0.6352
 3387SOL    HW121797   0.590   3.206  14.324 -2.2923 -1.5161  0.0186
 3387SOL    HW221798   0.482   3.149  14.405 -0.1234 -0.3744 -0.6172
 3388SOL     OW21799   2.664   4.570   2.507  0.2414  0.1854  0.3713
 3388SOL    HW121800   2.746   4.584   2.555  0.8734 -2.2675 -0.0256
 3388SOL    HW221801   2.587   4.619   2.536 -0.1453  0.4244 -1.0629
 3389SOL     OW21802   2.062   3.346   6.965  0.5201 -0.3713 -0.3717
 3389SOL    HW121803   2.001   3.281   6.999 -0.0044 -0.6905 -1.9547
 3389SOL    HW221804   2.056   3.332   6.871 -0.7966  1.4355 -0.5505
 3390SOL     OW21805   3.585   3.510   3.331  0.1671  0.1550  0.3844
 3390SOL    HW121806   3.669   3.468   3.316 -0.6677 -0.7823 -1.6553
 3390SOL    HW221807   3.585   3.589   3.278 -2.1079  0.2705  0.5568
 3391SOL     OW21808   2.979   3.759   1.443  0.0184 -0.6953  0.2934
 3391SOL    HW121809   3.012   3.846   1.464  0.6213 -0.7156 -0.5815
 3391SOL    HW221810   3.046   3.708   1.488 -0.8153 -1.9301  0.1365
 3392SOL     OW21811   4.387   3.625  11.296 -0.3799  0.0828 -0.0332
 3392SOL    HW121812   4.424   3.546  11.336 -0.4295 -0.6512 -1.4570
 3392SOL    HW221813   4.390   3.679  11.375  1.4692 -0.7604  0.4845
 3393SOL     OW21814   3.846   1.975  11.739 -0.2476 -0.0403 -0.5447
 3393SOL    HW121815   3.826   2.053  11.790  2.9520 -0.0602  0.7478
 3393SOL    HW221816   3.923   2.003  11.689  1.3189 -1.0303  1.2992
 3394SOL     OW21817   1.145   3.512   9.300 -0.0631  0.2266 -0.4375
 3394SOL    HW121818   1.198   3.433   9.297  1.2624  1.0353  1.5163
 3394SOL    HW221819   1.212   3.581   9.291  0.6858 -0.1963  1.8474
 3395SOL     OW21820   1.351   3.323   9.538 -0.1610 -0.4142  0.1514
 3395SOL    HW121821   1.302   3.286   9.466 -2.7680 -0.9206  2.1982
 3395SOL    HW221822   1.421   3.258   9.545  0.3205  0.0915  0.0399
 3396SOL     OW21823   0.487   1.031   3.574  0.4928  0.0724  0.2886
 3396SOL    HW121824   0.572   0.988   3.580  0.9553  0.9767  0.0281
 3396SOL    HW221825   0.519   1.120   3.587  1.9965 -0.4797  0.2760
 3397SOL     OW21826   0.240   0.299   7.093 -0.1303  0.0541  0.1784
 3397SOL    HW121827   0.160   0.344   7.120 -1.0424 -1.5005  0.0539
 3397SOL    HW221828   0.197   0.244   7.028 -2.4546  0.2643  1.5401
 3398SOL     OW21829   1.952   1.252   4.522 -0.1245  0.6091  0.0791
 3398SOL    HW121830   1.960   1.348   4.526 -1.3432  0.8432 -3.6314
 3398SOL    HW221831   1.970   1.238   4.615 -0.4090 -0.2224  0.0035
 3399SOL     OW21832   3.206   4.163   0.007 -0.5019  0.0395 -0.1678
 3399SOL    HW121833   3.189   4.100   0.077 -0.7825 -0.0477 -0.3103
 3399SOL    HW221834   3.301   4.155   0.001 -0.2837  2.2867  0.3701
 3400SOL     OW21835   3.800   3.830   7.260  0.3647  0.0869 -0.5257
 3400SOL    HW121836   3.741   3.867   7.326  0.8093 -2.0818  1.1162
 3400SOL    HW221837   3.781   3.736   7.261  3.2052 -0.5087 -0.9857
 3401SOL     OW21838   0.712   1.462   4.091 -0.6993  0.5165  0.1101
 3401SOL    HW121839   0.727   1.373   4.122 -0.7478 -0.0221 -1.3934
 3401SOL    HW221840   0.778   1.498   4.149  1.5332 -2.6536 -0.4709
 3402SOL     OW21841   0.148   0.011   3.958 -0.6758 -0.1345 -0.1276
 3402SOL    HW121842   0.212   0.070   3.997 -1.2799 -1.8203  3.3979
 3402SOL    HW221843   0.173   0.016   3.866 -0.5482 -1.1249 -0.1452
 3403SOL     OW21844   1.159   3.817   9.103 -0.0178 -0.3437 -0.0211
 3403SOL    HW121845   1.079   3.792   9.149 -0.2956  0.3914 -0.0983
 3403SOL    HW221846   1.208   3.735   9.102 -0.6299 -0.7080 -0.3570
 3404SOL     OW21847   1.794   0.445   0.965 -0.0539  0.2075  0.5860
 3404SOL    HW121848   1.712   0.397   0.956  0.2013 -0.2111  0.5044
 3404SOL    HW221849   1.852   0.373   0.990  0.5983  0.3488 -0.5329
 3405SOL     OW21850   1.107   3.401   8.618  0.0865 -0.7025 -0.2848
 3405SOL    HW121851   1.077   3.410   8.527  0.8888 -0.7154 -0.5499
 3405SOL    HW221852   1.144   3.314   8.608  0.0132 -1.1400  3.4220
 3406SOL     OW21853   0.334   3.053   5.351 -1.1571 -0.0185  0.5046
 3406SOL    HW121854   0.359   2.961   5.354  0.5115  0.3665 -2.2203
 3406SOL    HW221855   0.386   3.099   5.285 -0.2914  1.9328  2.5300
 3407SOL     OW21856   2.294   0.629   2.806  0.1795 -0.1797  0.5935
 3407SOL    HW121857   2.212   0.660   2.769  0.6486 -1.0040 -1.1529
 3407SOL    HW221858   2.270   0.635   2.898  1.7897 -2.0096  1.1343
 3408SOL     OW21859   3.317   3.852  16.752  0.4774  0.1150 -0.1254
 3408SOL    HW121860   3.291   3.837  16.843 -0.7023  0.7885 -0.3517
 3408SOL    HW221861   3.344   3.944  16.748 -1.1116  0.6555  1.2789
 3409SOL     OW21862   1.988   0.326   8.520  0.4237  0.2179  0.4892
 3409SOL    HW121863   1.951   0.332   8.432  1.2856  2.0813  0.2666
 3409SOL    HW221864   1.986   0.417   8.550 -2.1846  0.5743 -0.7143
 3410SOL     OW21865   2.848   2.917   6.127  0.3654  0.0131  0.1515
 3410SOL    HW121866   2.810   2.918   6.040 -1.0446  0.5157  0.7828
 3410SOL    HW221867   2.796   2.970   6.186  2.8806  2.4012  0.2273
 3411SOL     OW21868   3.947   3.034   5.021 -0.0845 -0.1074 -1.1515
 3411SOL    HW121869   3.901   3.100   5.073  2.1792 -0.5390  1.3626
 3411SOL    HW221870   4.011   3.091   4.979  0.9878 -0.2011  0.3605
 3412SOL     OW21871   4.097   4.457   8.684  0.4979 -0.0978 -0.8015
 3412SOL    HW121872   4.180   4.441   8.729  0.1790  0.7918  0.0773
 3412SOL    HW221873   4.044   4.452   8.763  0.7027  1.0045 -0.6016
 3413SOL     OW21874   0.932   0.429   4.845 -0.1167  0.7612 -0.3842
 3413SOL    HW121875   0.968   0.392   4.925 -0.0597  1.6764  0.0099
 3413SOL    HW221876   0.964   0.362   4.785  1.2841  1.2214 -0.1520
 3414SOL     OW21877   4.379   2.905   6.718 -0.0235 -0.2851  0.5889
 3414SOL    HW121878   4.320   2.902   6.794  1.2093  0.3419  1.5595
 3414SOL    HW221879   4.326   2.870   6.647 -0.3117 -3.2155  2.2384
 3415SOL     OW21880   2.496   1.056  17.614  0.2146 -0.6437 -0.8671
 3415SOL    HW121881   2.429   1.119  17.586 -0.1832  0.8850  3.4700
 3415SOL    HW221882   2.441   0.980  17.634 -1.2753  0.1709 -1.8962
 3416SOL     OW21883   4.589   2.306  16.881 -0.1145 -0.5441 -0.3357
 3416SOL    HW121884   4.569   2.221  16.841 -2.2950  0.8655 -2.2526
 3416SOL    HW221885   4.505   2.350  16.866  0.9940  1.4956 -0.5981
 3417SOL     OW21886   2.808   3.653   2.040  0.2400  0.5309  0.2974
 3417SOL    HW121887   2.867   3.724   2.017 -1.0208  1.7802  0.9543
 3417SOL    HW221888   2.734   3.668   1.981  0.4734 -1.1306 -0.4265
 3418SOL     OW21889   3.705   0.406   7.662 -0.2334  0.8386  0.2770
 3418SOL    HW121890   3.755   0.465   7.605 -1.0573 -0.0252 -1.3354
 3418SOL    HW221891   3.728   0.318   7.632 -0.1717  0.8524  0.2839
 3419SOL     OW21892   1.478   2.069  14.285  0.1279 -0.2868  0.5680
 3419SOL    HW121893   1.464   2.050  14.377  0.0279  1.2460  0.8726
 3419SOL    HW221894   1.414   2.134  14.255  0.5633 -0.5511 -0.9261
 3420SOL     OW21895   2.593   2.526   6.475 -0.8351  0.4162  0.1649
 3420SOL    HW121896   2.673   2.474   6.477 -1.4337 -0.5471 -1.1599
 3420SOL    HW221897   2.632   2.608   6.506 -0.2193  0.6004 -1.0941
 3421SOL     OW21898   2.867   3.498  11.608  0.6162  0.4410 -0.1458
 3421SOL    HW121899   2.793   3.543  11.566 -0.8151 -3.2907 -1.6701
 3421SOL    HW221900   2.926   3.573  11.605  2.4967 -1.0986 -1.6522
 3422SOL     OW21901   0.961   2.676   3.253  0.1809  0.2953  0.9807
 3422SOL    HW121902   0.899   2.715   3.192  0.9905  0.4877  0.3044
 3422SOL    HW221903   0.895   2.644   3.315 -0.6219  1.4855  0.7397
 3423SOL     OW21904   1.194   1.045  14.341 -0.5564 -0.0424  0.0914
 3423SOL    HW121905   1.224   1.017  14.427 -0.0440 -0.2233 -0.1442
 3423SOL    HW221906   1.219   1.138  14.342 -3.9706  0.8898 -1.8504
 3424SOL     OW21907   2.943   4.229   6.278  0.0473 -0.6174 -0.5402
 3424SOL    HW121908   2.983   4.177   6.348 -1.1159 -0.9771 -0.1418
 3424SOL    HW221909   2.967   4.180   6.200  0.8899 -0.0234 -0.6566
 3425SOL     OW21910   1.323   1.169   4.883  0.5186  0.3431 -0.5205
 3425SOL    HW121911   1.306   1.256   4.847  0.8767  0.9853  0.8669
 3425SOL    HW221912   1.395   1.138   4.827  0.9773 -1.1281  0.8685
 3426SOL     OW21913   1.770   2.556   5.579 -0.3293 -0.8528  0.0198
 3426SOL    HW121914   1.741   2.525   5.665 -1.5063  0.4796  0.1095
 3426SOL    HW221915   1.863   2.574   5.591 -0.8155  0.2037  2.1809
 3427SOL     OW21916   4.155   2.780   6.617 -0.0712  0.2693 -0.4351
 3427SOL    HW121917   4.158   2.688   6.643 -1.4263  0.3675  0.0353
 3427SOL    HW221918   4.119   2.770   6.529 -3.0842 -1.0893  0.9462
 3428SOL     OW21919   0.943   1.503   7.018 -0.2118 -0.4289  0.3796
 3428SOL    HW121920   1.020   1.499   6.962 -0.5400  1.3728 -0.2180
 3428SOL    HW221921   0.967   1.579   7.071  0.6115 -0.2245 -0.2953
 3429SOL     OW21922   4.163   2.479  10.079  0.4795  0.4157 -0.3344
 3429SOL    HW121923   4.094   2.414  10.069 -0.8323  1.6566  0.7644
 3429SOL    HW221924   4.149   2.507  10.169  0.5053  0.3707 -0.3162
 3430SOL     OW21925   3.816   2.227   7.512  0.0082 -0.3640 -0.0154
 3430SOL    HW121926   3.886   2.271   7.464 -0.0451  0.2434  0.4582
 3430SOL    HW221927   3.743   2.287   7.496  0.3615  0.0964  0.0893
 3431SOL     OW21928   0.362   4.508   8.604 -0.4814 -0.1683  0.2024
 3431SOL    HW121929   0.457   4.499   8.599 -0.7053 -2.0188 -0.6520
 3431SOL    HW221930   0.354   4.430   8.660  0.0551 -1.5694 -1.6668
 3432SOL     OW21931   2.136   1.614   3.308  0.2641 -0.0185  0.2508
 3432SOL    HW121932   2.204   1.582   3.249  0.7182  2.0959 -0.3696
 3432SOL    HW221933   2.089   1.675   3.252  1.0762  0.9556  0.6378
 3433SOL     OW21934   4.508   1.153   8.771 -0.4854 -0.1346  0.0387
 3433SOL    HW121935   4.425   1.201   8.766 -0.1100  0.5979  0.7720
 3433SOL    HW221936   4.513   1.094   8.697 -0.8100 -1.3085  0.9527
 3434SOL     OW21937   3.416   0.800   3.591 -0.0760  0.7946  0.1164
 3434SOL    HW121938   3.486   0.782   3.653 -0.8519  0.2829  0.8564
 3434SOL    HW221939   3.359   0.723   3.599  1.4370 -0.3024  0.4142
 3435SOL     OW21940   0.580   3.289   6.638  0.4323  0.0476  0.1226
 3435SOL    HW121941   0.518   3.361   6.650  2.2850  1.9159 -1.4847
 3435SOL    HW221942   0.532   3.225   6.585 -0.3967  1.7851 -1.2363
 3436SOL     OW21943   0.987   0.426   2.012  0.2720 -0.7319 -0.2660
 3436SOL    HW121944   0.919   0.361   1.992 -0.4718  0.5473 -1.9283
 3436SOL    HW221945   0.932   0.504   2.015 -0.1639 -1.0416 -0.1935
 3437SOL     OW21946   0.026   1.285   6.290 -0.6445  1.0218 -0.3627
 3437SOL    HW121947   0.025   1.380   6.293 -0.3990  1.0028  0.5264
 3437SOL    HW221948   0.076   1.278   6.209  1.3035  1.4070  0.8064
 3438SOL     OW21949   1.051   4.271   3.719 -0.0324 -0.4327  0.4171
 3438SOL    HW121950   1.046   4.297   3.811 -0.8956 -1.6771  0.7205
 3438SOL    HW221951   1.102   4.190   3.727 -0.0599 -0.4450  0.4658
 3439SOL     OW21952   0.177   0.018   9.011 -0.0246 -0.5424 -0.4964
 3439SOL    HW121953   0.119   4.688   9.049  1.3512 -0.7403  1.2657
 3439SOL    HW221954   0.113   0.063   8.956 -0.1391  0.2120  0.2594
 3440SOL     OW21955   0.129   4.333   6.870  0.1336  0.6981  0.0677
 3440SOL    HW121956   0.208   4.331   6.923  0.4246  2.4413 -0.2834
 3440SOL    HW221957   0.125   4.238   6.864 -0.0262  0.8638 -2.5232
 3441SOL     OW21958   2.928   1.286   6.630 -0.5662 -0.1748 -0.0245
 3441SOL    HW121959   2.850   1.326   6.593 -0.8919 -1.3830 -0.6332
 3441SOL    HW221960   2.902   1.243   6.711 -0.5199 -1.6674 -0.7912
 3442SOL     OW21961   4.657   1.460  11.902 -0.6656  0.6861 -0.0197
 3442SOL    HW121962   4.657   1.512  11.982 -0.9136  0.6852 -0.0190
 3442SOL    HW221963   0.008   1.421  11.899 -2.1333 -2.6357  0.7939
 3443SOL     OW21964   1.652   1.597   3.419  0.0460 -0.5579 -0.1155
 3443SOL    HW121965   1.682   1.507   3.433 -1.1001 -0.8705  0.3542
 3443SOL    HW221966   1.579   1.600   3.481 -0.2629 -2.8298 -0.3858
 3444SOL     OW21967   2.111   1.916   8.950 -0.3224  0.3389 -0.0501
 3444SOL    HW121968   2.058   1.983   8.993  1.5448  1.6489  0.2176
 3444SOL    HW221969   2.094   1.843   9.009  1.4583 -0.9274 -1.0864
 3445SOL     OW21970   0.221   2.994  11.411  0.2379  0.1949  0.4596
 3445SOL    HW121971   0.287   2.945  11.460  2.0605  0.4796 -1.7072
 3445SOL    HW221972   0.180   3.048  11.479 -2.2418  1.9225 -2.4401
 3446SOL     OW21973   1.166   3.312  14.388 -0.0327  0.2833  0.1517
 3446SOL    HW121974   1.093   3.373  14.390 -0.4145 -0.1251 -1.2049
 3446SOL    HW221975   1.148   3.268  14.471 -0.8971 -0.5439 -0.4777
 3447SOL     OW21976   2.528   4.632  17.305  0.1301  0.0452 -0.9806
 3447SOL    HW121977   2.605   4.615  17.251 -0.5166 -0.8240 -1.6428
 3447SOL    HW221978   2.470   4.587  17.242 -0.2915 -0.2780 -0.3574
 3448SOL     OW21979   0.933   1.396   7.768 -0.6516 -0.0402 -1.1529
 3448SOL    HW121980   0.967   1.308   7.751  0.3278  0.3421 -1.1843
 3448SOL    HW221981   0.934   1.423   7.676  0.9406  2.5090 -0.4064
 3449SOL     OW21982   1.106   2.165   0.558  0.1258  0.0090 -0.2414
 3449SOL    HW121983   1.026   2.196   0.601  0.4241 -0.1564  0.4398
 3449SOL    HW221984   1.171   2.194   0.622 -0.7977  0.2156  0.6053
 3450SOL     OW21985   1.886   2.270   3.139 -0.3898 -0.0510  0.2530
 3450SOL    HW121986   1.887   2.175   3.133 -1.0480 -0.0800  0.5271
 3450SOL    HW221987   1.813   2.289   3.199 -0.4913  0.4784 -0.0366
 3451SOL     OW21988   1.456   1.169   7.830  0.0608 -0.0026  0.2899
 3451SOL    HW121989   1.362   1.186   7.838  0.0577  0.7017 -1.3510
 3451SOL    HW221990   1.487   1.247   7.876  1.4145  0.3822 -1.2671
 3452SOL     OW21991   3.126   4.154   6.089  0.8489  0.0101  0.0891
 3452SOL    HW121992   3.220   4.141   6.101  0.5814 -2.4894 -0.5403
 3452SOL    HW221993   3.137   4.241   6.051  1.1139  1.6147  3.9355
 3453SOL     OW21994   2.450   1.519  11.593  0.0862  0.1373 -0.7574
 3453SOL    HW121995   2.472   1.610  11.609 -0.2096 -0.1468  1.1709
 3453SOL    HW221996   2.385   1.491  11.657  1.1027 -1.8105 -0.5627
 3454SOL     OW21997   2.770   3.861   2.936 -0.1600  0.2967  0.5915
 3454SOL    HW121998   2.766   3.879   3.030  0.6848 -3.7119  1.3862
 3454SOL    HW221999   2.830   3.927   2.899 -0.4655  0.4982  0.4534
 3455SOL     OW22000   2.046   0.997   5.664  0.4489  0.3047  0.3035
 3455SOL    HW122001   1.967   1.044   5.690 -0.4726 -0.6066 -0.9110
 3455SOL    HW222002   2.035   0.957   5.578 -1.1076  0.9400  0.2123
 3456SOL     OW22003   3.691   3.004   2.364 -0.0946 -0.1745 -0.4676
 3456SOL    HW122004   3.622   3.010   2.430 -0.9260  3.3340 -1.6826
 3456SOL    HW222005   3.743   2.924   2.373 -0.5347 -0.3774  0.2937
 3457SOL     OW22006   4.022   2.439   6.323 -0.4292 -0.3058 -0.1491
 3457SOL    HW122007   3.991   2.425   6.234  3.6965 -1.3823 -1.4092
 3457SOL    HW222008   4.005   2.532   6.334  1.1586 -0.0574  0.2192
 3458SOL     OW22009   1.477   0.859   8.063 -0.3482  0.1444 -0.3341
 3458SOL    HW122010   1.493   0.772   8.024 -0.2885 -0.9961  2.2439
 3458SOL    HW222011   1.507   0.857   8.154 -2.6966 -1.0772  0.4171
 3459SOL     OW22012   1.984   3.811   5.173  0.2295 -0.2874  0.4232
 3459SOL    HW122013   2.039   3.876   5.130 -0.6533 -0.2290 -0.6037
 3459SOL    HW222014   1.964   3.743   5.109  0.1689  0.0226  0.1201
 3460SOL     OW22015   3.623   3.930   4.339  0.4265 -0.9736 -0.0934
 3460SOL    HW122016   3.677   3.851   4.336 -0.9755 -1.9209 -0.2742
 3460SOL    HW222017   3.541   3.893   4.372 -0.8031  0.3234 -1.7107
 3461SOL     OW22018   2.755   3.554  14.466 -0.1902 -0.0921 -0.0009
 3461SOL    HW122019   2.712   3.537  14.550 -0.7775 -1.8590 -0.6629
 3461SOL    HW222020   2.687   3.589  14.408  1.5957 -0.5361 -2.3553
 3462SOL     OW22021   3.268   1.372   1.517  0.0404  0.2478 -0.1453
 3462SOL    HW122022   3.242   1.300   1.459  0.3285 -0.2978  0.3984
 3462SOL    HW222023   3.179   1.402   1.537 -0.4171 -1.7459  0.8034
 3463SOL     OW22024   2.092   0.260   3.358 -0.0057 -0.1926 -0.5185
 3463SOL    HW122025   2.164   0.282   3.300 -0.0286 -0.5237 -0.6684
 3463SOL    HW222026   2.052   0.185   3.314  0.5554 -0.9312  0.2130
 3464SOL     OW22027   0.594   3.842   0.741  0.5499  0.5079  0.2997
 3464SOL    HW122028   0.621   3.751   0.733 -2.5023 -0.2766 -1.2101
 3464SOL    HW222029   0.615   3.865   0.831 -0.8846  1.2452  0.4511
 3465SOL     OW22030   4.722   0.229   8.517 -0.4822  0.1802 -0.1072
 3465SOL    HW122031   4.676   0.146   8.519 -0.5865  0.2872  1.6617
 3465SOL    HW222032   4.654   0.291   8.491 -1.2622 -0.0411  1.4410
 3466SOL     OW22033   4.543   2.403  10.821  0.0927 -0.4405 -0.3437
 3466SOL    HW122034   4.565   2.493  10.795 -2.0767 -0.4134 -2.1149
 3466SOL    HW222035   4.535   2.396  10.916  2.1374 -0.9306 -0.2106
 3467SOL     OW22036   4.048   0.950   8.197 -0.4003  0.0560 -0.3257
 3467SOL    HW122037   4.012   1.034   8.225  0.4297  0.4333 -0.3940
 3467SOL    HW222038   4.063   0.955   8.103 -1.1281  3.0353 -0.2921
 3468SOL     OW22039   2.577   2.926   8.075  0.2511  0.1180 -0.1010
 3468SOL    HW122040   2.569   2.839   8.036  0.7992  1.1482 -2.5225
 3468SOL    HW222041   2.543   2.986   8.008  0.1578  1.7516  1.3960
 3469SOL     OW22042   2.927   3.871   1.752 -0.2806 -0.1219 -0.6079
 3469SOL    HW122043   2.969   3.864   1.838 -0.4437  1.1024 -0.4286
 3469SOL    HW222044   2.911   3.780   1.724 -1.5176 -0.3766  0.9181
 3470SOL     OW22045   1.201   1.450   6.385  0.8135 -1.0327 -0.1342
 3470SOL    HW122046   1.185   1.357   6.369 -0.3811 -1.2742  2.4483
 3470SOL    HW222047   1.296   1.452   6.391  1.0709 -1.1516 -4.0554
 3471SOL     OW22048   2.059   1.461  12.712  0.1930  0.3480  0.9341
 3471SOL    HW122049   2.124   1.449  12.643 -1.7088  2.7876 -1.2717
 3471SOL    HW222050   2.088   1.411  12.788  0.8299  0.2603  0.6359
 3472SOL     OW22051   1.468   1.857   3.879 -0.1794  0.4155  0.2254
 3472SOL    HW122052   1.473   1.903   3.795 -1.8661 -1.6510 -1.0081
 3472SOL    HW222053   1.490   1.933   3.933 -1.1253  1.3669 -0.7026
 3473SOL     OW22054   4.036   4.138   4.146  0.4439 -0.1252  0.0488
 3473SOL    HW122055   3.952   4.093   4.134  0.3329  0.2333 -0.5221
 3473SOL    HW222056   4.016   4.190   4.224  1.2281  1.9631 -1.1495
 3474SOL     OW22057   3.349   1.955  16.910  0.1677 -0.0925  0.5276
 3474SOL    HW122058   3.330   2.047  16.927  3.1500  0.6060 -0.0306
 3474SOL    HW222059   3.267   1.919  16.946 -1.2724  2.4619 -0.1614
 3475SOL     OW22060   2.684   2.818   9.484  0.0714 -0.2330  0.1457
 3475SOL    HW122061   2.692   2.766   9.404 -1.6876  0.0923 -0.2360
 3475SOL    HW222062   2.777   2.825   9.507 -0.1557  0.3697  0.8785
 3476SOL     OW22063   1.240   4.394   2.384  0.5092 -0.7003  0.1043
 3476SOL    HW122064   1.314   4.357   2.336  0.6225 -0.0890 -0.1924
 3476SOL    HW222065   1.216   4.319   2.439 -2.3273 -0.7101 -1.1435
 3477SOL     OW22066   3.445   0.330   2.832 -0.2365 -0.0125 -0.1302
 3477SOL    HW122067   3.507   0.403   2.836 -2.2181  1.6430  0.1974
 3477SOL    HW222068   3.367   0.369   2.871  1.6313  2.4348  1.1480
 3478SOL     OW22069   0.721   3.184   4.028 -0.0762  0.3704 -0.7219
 3478SOL    HW122070   0.757   3.216   3.946 -4.2818 -1.3132 -3.2439
 3478SOL    HW222071   0.787   3.118   4.048  1.1980  2.2102  1.1177
 3479SOL     OW22072   4.301   4.453   6.220 -0.1682  0.3274 -0.1968
 3479SOL    HW122073   4.337   4.502   6.146 -1.0768  0.1555 -0.7452
 3479SOL    HW222074   4.328   4.362   6.207  0.8430  0.9094 -2.1430
 3480SOL     OW22075   0.344   3.262   2.834 -0.6942 -0.2876  0.6393
 3480SOL    HW122076   0.389   3.191   2.788 -1.4478 -0.5348  0.2807
 3480SOL    HW222077   0.399   3.340   2.830  0.1999 -0.9203  0.6980
 3481SOL     OW22078   0.912   2.877  15.493 -0.3895  0.7321  0.0967
 3481SOL    HW122079   0.893   2.783  15.490  0.2629  0.5786  0.7149
 3481SOL    HW222080   0.994   2.895  15.540  0.4835 -1.3948 -0.6068
 3482SOL     OW22081   3.734   2.881   0.783 -0.0267 -0.4082  0.1057
 3482SOL    HW122082   3.694   2.960   0.747  0.4959  0.0799  0.5927
 3482SOL    HW222083   3.683   2.871   0.864  1.3550 -0.7179  0.9475
 3483SOL     OW22084   4.267   0.470  17.421  0.5644  0.1454  0.1000
 3483SOL    HW122085   4.298   0.432  17.339 -1.3308 -2.3292  0.5272
 3483SOL    HW222086   4.352   0.483  17.464  0.8460  0.5899 -0.5952
 3484SOL     OW22087   3.202   3.521   4.054  0.0436  0.1275 -0.3028
 3484SOL    HW122088   3.127   3.471   4.023 -1.0106  1.7698 -0.3979
 3484SOL    HW222089   3.152   3.602   4.066 -2.7574 -1.9755  1.9857
 3485SOL     OW22090   1.668   2.391  14.451 -0.5548  0.1074 -0.6435
 3485SOL    HW122091   1.632   2.364  14.535 -1.7332 -1.8200 -1.7624
 3485SOL    HW222092   1.645   2.484  14.461  0.2090 -0.1973  3.7794
 3486SOL     OW22093   4.202   4.181   7.243 -0.1144 -0.7320  0.1671
 3486SOL    HW122094   4.199   4.135   7.327 -0.7214  1.4580  1.3513
 3486SOL    HW222095   4.122   4.155   7.196 -0.2855 -0.3560  0.2479
 3487SOL     OW22096   3.316   3.938   3.768 -0.5847  0.0594  0.1205
 3487SOL    HW122097   3.375   3.864   3.760  0.1838  0.7651 -0.7702
 3487SOL    HW222098   3.333   3.994   3.692  1.4870 -0.5066  0.1841
 3488SOL     OW22099   1.394   2.298   1.218  0.5031 -0.0156  0.2517
 3488SOL    HW122100   1.434   2.298   1.305  1.6391 -0.1506 -0.2732
 3488SOL    HW222101   1.321   2.361   1.218 -0.6578 -1.3839 -1.3805
 3489SOL     OW22102   4.722   3.343  12.684  1.2409 -0.3960  0.4924
 3489SOL    HW122103   4.713   3.412  12.750 -1.2364 -0.9982  0.7899
 3489SOL    HW222104   0.054   3.389  12.635  0.0531  2.7179  1.7334
 3490SOL     OW22105   2.284   1.766  11.257 -0.1844 -0.7317  0.0704
 3490SOL    HW122106   2.229   1.816  11.317  1.7483 -0.1248  1.3566
 3490SOL    HW222107   2.366   1.816  11.247 -1.5774  1.7841  1.1578
 3491SOL     OW22108   1.734   2.299   5.286 -0.5155 -0.3052  0.2826
 3491SOL    HW122109   1.673   2.364   5.321 -1.1028 -1.8622  2.1832
 3491SOL    HW222110   1.739   2.241   5.363  2.8607 -2.3469 -1.4868
 3492SOL     OW22111   3.498   2.628  16.571  0.4088 -0.0599 -0.5376
 3492SOL    HW122112   3.547   2.695  16.524  1.3762  0.8370  1.8042
 3492SOL    HW222113   3.462   2.685  16.639  0.4219 -1.3378  0.5314
 3493SOL     OW22114   1.961   0.814  12.401  0.0021  0.4462 -0.6711
 3493SOL    HW122115   2.013   0.894  12.414  0.2331  0.5751 -2.3284
 3493SOL    HW222116   2.028   0.745  12.401  1.3897  1.7946  1.1960
 3494SOL     OW22117   2.987   1.513   9.006 -0.6176  0.0181  0.4578
 3494SOL    HW122118   3.059   1.576   9.004 -1.8247  1.3959  0.2944
 3494SOL    HW222119   2.998   1.487   9.097 -4.9526 -0.4550  0.8471
 3495SOL     OW22120   0.596   2.702  14.810 -0.1376 -0.0392 -0.3073
 3495SOL    HW122121   0.657   2.645  14.763  0.6762  0.9989 -0.4921
 3495SOL    HW222122   0.596   2.783  14.759 -1.4927 -0.1637 -0.5086
 3496SOL     OW22123   0.712   2.399  12.130 -0.3573  0.0837 -0.2353
 3496SOL    HW122124   0.686   2.489  12.150  0.9507  0.5985 -0.8117
 3496SOL    HW222125   0.673   2.387  12.043  1.1387 -0.7745 -0.7842
 3497SOL     OW22126   0.295   3.250   8.924  0.1480  0.2884  0.0092
 3497SOL    HW122127   0.236   3.297   8.865  0.5013  0.9026  0.1371
 3497SOL    HW222128   0.241   3.230   9.000 -0.2898 -0.1919 -0.4265
 3498SOL     OW22129   2.072   2.962   0.793 -0.1069  0.4612 -0.0029
 3498SOL    HW122130   1.981   2.984   0.809  0.1338  1.4633 -0.0524
 3498SOL    HW222131   2.064   2.959   0.698  0.0346 -0.3367  0.0054
 3499SOL     OW22132   0.484   4.623   4.169  0.8712 -0.1559 -0.6211
 3499SOL    HW122133   0.454   4.654   4.084  1.3054  0.8276 -0.4168
 3499SOL    HW222134   0.557   4.685   4.180  1.7478 -1.4439  0.7743
 3500SOL     OW22135   1.927   1.955   9.152  0.6362 -0.1521 -0.2089
 3500SOL    HW122136   1.832   1.960   9.143  0.5783 -0.5114  0.2468
 3500SOL    HW222137   1.933   1.894   9.225  0.2079  0.5158  0.3863
 3501SOL     OW22138   0.332   0.880   8.360 -0.0241 -0.4575  0.2889
 3501SOL    HW122139   0.387   0.829   8.419 -2.2511 -1.5574  1.3914
 3501SOL    HW222140   0.351   0.970   8.388  0.9711 -0.1786 -1.2407
 3502SOL     OW22141   4.320   3.455   7.715 -0.5523 -0.4956  0.3204
 3502SOL    HW122142   4.339   3.489   7.803 -0.4216 -0.2473  0.1985
 3502SOL    HW222143   4.402   3.407   7.708 -0.0988  0.7921 -3.2087
 3503SOL     OW22144   1.636   2.985   5.122 -0.1934 -0.0086  0.3560
 3503SOL    HW122145   1.708   3.001   5.182  0.3731  0.5305 -0.4694
 3503SOL    HW222146   1.609   2.895   5.143 -0.9535 -0.1494 -1.2235
 3504SOL     OW22147   3.139   4.725  14.379 -0.3559 -0.5230 -0.0953
 3504SOL    HW122148   3.175   4.706  14.292  1.0552  2.1147 -0.0538
 3504SOL    HW222149   3.215   4.727  14.436 -0.6171  0.1838  0.2178
 3505SOL     OW22150   3.756   1.607   5.561 -0.3557  0.1972 -0.7091
 3505SOL    HW122151   3.830   1.554   5.590 -0.8929 -0.0771  0.1678
 3505SOL    HW222152   3.755   1.602   5.465 -1.3762 -0.2782 -0.6808
 3506SOL     OW22153   3.257   2.226   3.249  0.4736 -0.1810  0.0163
 3506SOL    HW122154   3.281   2.277   3.172  0.3289 -0.5573 -0.2804
 3506SOL    HW222155   3.240   2.293   3.315 -2.0295 -2.1499  1.4123
 3507SOL     OW22156   0.128   0.823   5.241 -0.2676  0.0779  0.0988
 3507SOL    HW122157   0.060   0.769   5.281 -0.3469 -0.2166 -0.4383
 3507SOL    HW222158   0.081   0.907   5.235  0.0007  0.3082  1.1714
 3508SOL     OW22159   0.789   1.208   7.611 -0.0147  0.1061 -0.1907
 3508SOL    HW122160   0.714   1.264   7.630  0.3605  0.7856 -0.6604
 3508SOL    HW222161   0.766   1.167   7.528 -1.4590 -0.9540  0.7467
 3509SOL     OW22162   0.238   3.641  14.608  0.4049 -0.2600 -0.0374
 3509SOL    HW122163   0.184   3.601  14.676  0.4350  0.3738  0.3574
 3509SOL    HW222164   0.216   3.733  14.626  1.0164 -0.4630  1.7514
 3510SOL     OW22165   3.274   3.638   4.588  0.5744 -0.4438  0.4151
 3510SOL    HW122166   3.328   3.624   4.510 -1.5152  0.5156 -1.2147
 3510SOL    HW222167   3.336   3.626   4.659  0.2155 -2.3883  0.3844
 3511SOL     OW22168   2.576   0.680  12.760  0.4406 -0.0043  0.0489
 3511SOL    HW122169   2.650   0.740  12.763  0.6806 -0.2929 -0.1175
 3511SOL    HW222170   2.538   0.701  12.846 -0.2463  0.6403 -0.4092
 3512SOL     OW22171   2.672   3.093   3.282 -0.0551  0.2961 -0.2559
 3512SOL    HW122172   2.612   3.060   3.350  1.9750  0.1733  1.4552
 3512SOL    HW222173   2.701   3.011   3.242  0.6752 -1.0598  3.0460
 3513SOL     OW22174   1.914   4.338  11.316  0.6752  0.2543  0.0586
 3513SOL    HW122175   1.906   4.243  11.323  1.3832  0.2490  0.8912
 3513SOL    HW222176   1.935   4.361  11.407 -1.6860  1.5216  0.2940
 3514SOL     OW22177   1.622   4.721   5.117  0.0594 -0.5402  0.2302
 3514SOL    HW122178   1.538   4.689   5.085 -0.5618  2.0091 -0.6449
 3514SOL    HW222179   1.634   4.694   5.208  1.4184  0.9781  0.4985
 3515SOL     OW22180   3.238   1.627   5.518 -0.9047 -0.4815  0.9591
 3515SOL    HW122181   3.173   1.694   5.497  0.3704  0.4561  0.0375
 3515SOL    HW222182   3.228   1.566   5.446 -0.9359  0.8509 -0.1679
 3516SOL     OW22183   3.434   0.225   0.254  0.0554  0.3964  0.0552
 3516SOL    HW122184   3.419   0.319   0.262 -2.3751  0.1587 -1.4771
 3516SOL    HW222185   3.342   0.201   0.268 -0.8292  1.2653 -4.1376
 3517SOL     OW22186   4.219   0.334  10.536 -0.4165 -0.1882 -0.1731
 3517SOL    HW122187   4.284   0.264  10.543 -0.5996 -0.2261  1.2606
 3517SOL    HW222188   4.134   0.289  10.532 -1.5125  1.6952  1.4949
 3518SOL     OW22189   1.859   3.661   9.137  0.2048 -0.3477 -0.1840
 3518SOL    HW122190   1.936   3.617   9.100 -0.5231 -0.3616 -1.6966
 3518SOL    HW222191   1.887   3.655   9.228 -0.6657 -4.0679 -0.1711
 3519SOL     OW22192   1.253   0.782   4.721  0.0360  0.5964 -0.2054
 3519SOL    HW122193   1.279   0.875   4.725  2.2047  0.2010 -4.1820
 3519SOL    HW222194   1.331   0.739   4.755  0.5977  1.2555 -0.6628
 3520SOL     OW22195   4.578   4.476  12.870  0.0562  0.8656 -0.5080
 3520SOL    HW122196   4.634   4.553  12.857 -0.2532  1.6723  2.8978
 3520SOL    HW222197   4.612   4.412  12.808 -0.4111 -0.2415  0.3741
 3521SOL     OW22198   2.168   4.205   2.006 -0.1116  0.2549  0.3798
 3521SOL    HW122199   2.187   4.112   2.017 -0.6003  0.1773  0.5526
 3521SOL    HW222200   2.167   4.220   1.912 -4.4649  0.0688  0.4004
 3522SOL     OW22201   1.722   0.254   3.837  0.4827  0.2057  0.5624
 3522SOL    HW122202   1.770   0.238   3.755 -0.6596 -1.2860  0.1928
 3522SOL    HW222203   1.648   0.194   3.828 -0.1647  1.2317 -0.9972
 3523SOL     OW22204   0.034   1.933   9.787 -0.0179 -0.0939 -0.2563
 3523SOL    HW122205   0.019   1.994   9.859 -0.9962  0.3928 -0.8758
 3523SOL    HW222206   4.736   1.851   9.823 -1.6794  0.7282  0.0117
 3524SOL     OW22207   2.546   1.930   5.046 -0.7008  0.4710 -0.2155
 3524SOL    HW122208   2.511   1.868   5.111  1.1515 -0.4832 -0.1236
 3524SOL    HW222209   2.600   1.879   4.985  0.1925  1.1514  0.0103
 3525SOL     OW22210   0.792   3.380   5.044 -0.1501 -0.3986 -0.4901
 3525SOL    HW122211   0.768   3.363   4.952 -0.9564  0.9945 -0.5302
 3525SOL    HW222212   0.738   3.455   5.067  0.0745 -0.3238 -0.2075
 3526SOL     OW22213   0.323   2.736   2.303  0.1094  0.1116 -0.5208
 3526SOL    HW122214   0.284   2.765   2.221 -1.0403 -1.1557 -0.4273
 3526SOL    HW222215   0.326   2.817   2.353  0.4374  0.5910 -1.3216
 3527SOL     OW22216   0.737   4.470   3.112 -0.0343  0.2083  0.6477
 3527SOL    HW122217   0.742   4.411   3.187  1.3627  3.0314  2.8101
 3527SOL    HW222218   0.692   4.408   3.056  0.1224  0.7869 -0.1267
 3528SOL     OW22219   2.716   2.904   2.618  0.1591 -0.3134  0.1149
 3528SOL    HW122220   2.662   2.913   2.697  0.4543  0.8601  0.1820
 3528SOL    HW222221   2.700   2.985   2.571 -0.6555  0.5792  1.9101
 3529SOL     OW22222   3.502   2.177   2.384 -0.0042 -0.4385  0.0203
 3529SOL    HW122223   3.410   2.185   2.410  0.3546 -0.6378  1.3406
 3529SOL    HW222224   3.548   2.155   2.465 -1.1009  0.4093  0.8883
 3530SOL     OW22225   1.509   2.909  14.779  0.6593 -0.2930 -0.0558
 3530SOL    HW122226   1.508   2.970  14.852 -0.0212 -0.8072  0.3554
 3530SOL    HW222227   1.490   2.976  14.713 -0.3959 -1.6848 -1.1847
 3531SOL     OW22228   0.036   0.370  15.569 -0.4355  0.0791  0.1034
 3531SOL    HW122229   0.002   0.380  15.481 -1.9502 -0.5328  0.6321
 3531SOL    HW222230   0.092   0.445  15.592 -2.3228  1.6397 -0.3749
 3532SOL     OW22231   1.019   2.599  15.644  0.3255  0.1112 -0.0736
 3532SOL    HW122232   0.931   2.612  15.678  0.9074 -0.3413  1.5977
 3532SOL    HW222233   1.071   2.658  15.700 -1.0324  0.1840  1.1146
 3533SOL     OW22234   1.562   1.555   1.742  0.6833  0.1142  0.3425
 3533SOL    HW122235   1.615   1.519   1.671 -1.1959  0.6507 -1.3432
 3533SOL    HW222236   1.610   1.633   1.769  0.3656  0.8439 -1.1731
 3534SOL     OW22237   4.013   2.977   7.591  0.0553  0.2393 -0.5080
 3534SOL    HW122238   4.060   2.956   7.510 -0.8296 -1.3285 -0.6109
 3534SOL    HW222239   4.065   2.919   7.647 -0.5763  0.1221 -0.0436
 3535SOL     OW22240   3.427   0.060  12.400 -0.3084 -0.5098  0.3781
 3535SOL    HW122241   3.515   0.094  12.414 -0.4575 -0.1185  0.3579
 3535SOL    HW222242   3.411   0.013  12.482 -1.7079 -0.3045  0.2279
 3536SOL     OW22243   1.448   3.313  14.368  0.1124 -0.1653  0.7538
 3536SOL    HW122244   1.355   3.331  14.360  0.4515  0.7401 -1.1702
 3536SOL    HW222245   1.457   3.228  14.325  0.0603 -0.5419  1.4802
 3537SOL     OW22246   3.764   0.177   6.765  0.2328 -0.3266  0.0869
 3537SOL    HW122247   3.754   0.236   6.840 -1.4301 -0.7372  0.1883
 3537SOL    HW222248   3.845   0.135   6.792  0.3428 -0.4495 -0.4350
 3538SOL     OW22249   2.930   1.300   6.307 -0.0062 -0.0162  0.1622
 3538SOL    HW122250   2.837   1.324   6.309 -0.0211 -0.1888  1.7647
 3538SOL    HW222251   2.975   1.369   6.259 -0.1012 -0.3939 -0.4606
 3539SOL     OW22252   1.889   4.297   7.610 -0.5501  0.0412  0.2997
 3539SOL    HW122253   1.863   4.207   7.628 -4.0514  1.2797  1.3098
 3539SOL    HW222254   1.808   4.342   7.631 -0.3026 -0.2738  1.8825
 3540SOL     OW22255   2.353   0.390   2.089 -0.5219 -0.3098 -0.5333
 3540SOL    HW122256   2.434   0.340   2.095 -0.0843  0.3829 -0.7268
 3540SOL    HW222257   2.375   0.456   2.155  0.3427 -0.5373 -0.6067
 3541SOL     OW22258   0.628   1.747   8.424  0.8446 -0.8903 -0.3679
 3541SOL    HW122259   0.641   1.663   8.468 -1.0828 -1.6234 -1.1614
 3541SOL    HW222260   0.633   1.715   8.334  1.4238 -2.4204  0.2103
 3542SOL     OW22261   0.561   2.267  10.543 -0.1735  0.2169  0.5303
 3542SOL    HW122262   0.538   2.180  10.510  0.2185  0.1181  0.5205
 3542SOL    HW222263   0.513   2.261  10.626  0.5131 -1.7308  0.7913
 3543SOL     OW22264   2.111   0.623   1.118  0.3935  0.0902  0.7480
 3543SOL    HW122265   2.086   0.666   1.037 -1.3266  0.3708  1.4346
 3543SOL    HW222266   2.192   0.576   1.099  0.1839 -0.3202  0.8523
 3544SOL     OW22267   0.727   3.736  10.536  0.1131 -0.1090  0.2421
 3544SOL    HW122268   0.635   3.731  10.562 -0.1662 -0.3726 -0.7829
 3544SOL    HW222269   0.735   3.812  10.478 -1.3095 -0.6304 -0.6410
 3545SOL     OW22270   2.819   3.654   5.755 -0.2648 -0.2957 -0.6172
 3545SOL    HW122271   2.857   3.623   5.673  0.6752 -0.9102  0.0621
 3545SOL    HW222272   2.731   3.665   5.718 -0.6130 -1.2200 -0.0647
 3546SOL     OW22273   0.846   2.726   5.481 -0.0560 -0.1992 -0.3138
 3546SOL    HW122274   0.834   2.796   5.417 -0.0099 -0.3101 -0.4455
 3546SOL    HW222275   0.764   2.681   5.463 -0.2041  0.1434 -0.4942
 3547SOL     OW22276   0.516   0.783  13.174  0.1263 -0.1753 -0.3211
 3547SOL    HW122277   0.540   0.866  13.133  1.5355 -1.8010 -2.7695
 3547SOL    HW222278   0.601   0.743  13.189  0.9295  1.1005 -1.4904
 3548SOL     OW22279   0.323   4.721   6.922 -0.1277  0.5641 -0.0198
 3548SOL    HW122280   0.271   0.005   6.844 -1.7411 -1.5553  0.5236
 3548SOL    HW222281   0.266   4.673   6.981 -0.1788  1.8603  0.9949
 3549SOL     OW22282   2.823   3.985   9.038  0.3279 -0.3517 -0.2213
 3549SOL    HW122283   2.735   4.010   9.065 -0.4958 -0.9446 -2.3487
 3549SOL    HW222284   2.864   3.999   9.123  0.4485 -1.0428 -0.1699
 3550SOL     OW22285   4.719   0.368   0.848  0.2173 -0.1057  0.2808
 3550SOL    HW122286   4.638   0.400   0.807  1.0496  1.2896 -0.2488
 3550SOL    HW222287   4.694   0.334   0.934 -1.0885 -1.7620 -0.7597
 3551SOL     OW22288   2.249   1.334   7.302 -0.6492  0.3905  0.6363
 3551SOL    HW122289   2.293   1.255   7.270  0.0471  0.4407  1.4939
 3551SOL    HW222290   2.220   1.301   7.387  1.8717 -0.9708  0.9611
 3552SOL     OW22291   0.584   1.386   0.546 -0.2691 -0.4173  0.1718
 3552SOL    HW122292   0.545   1.474   0.543  0.1852 -0.1359  2.8094
 3552SOL    HW222293   0.593   1.364   0.638 -2.6730 -2.5089 -0.1223
 3553SOL     OW22294   4.714   4.170   2.437 -0.1560  0.3363  0.0623
 3553SOL    HW122295   4.715   4.116   2.516 -1.7704 -1.9600 -1.4841
 3553SOL    HW222296   4.683   4.258   2.460 -0.0020  0.5250 -0.4466
 3554SOL     OW22297   1.466   1.572   6.902  0.0911 -0.0600 -0.0628
 3554SOL    HW122298   1.440   1.570   6.994 -0.1941  0.1840 -0.1374
 3554SOL    HW222299   1.431   1.494   6.860 -0.7679 -0.9701  2.3521
 3555SOL     OW22300   3.617   2.478   6.780  0.5262  0.1455 -0.3218
 3555SOL    HW122301   3.688   2.483   6.844  1.3176  1.2682 -1.2817
 3555SOL    HW222302   3.548   2.510   6.838 -1.1456 -0.9870 -1.6764
 3556SOL     OW22303   1.630   1.137   1.480 -0.5039  0.4493  0.4095
 3556SOL    HW122304   1.552   1.085   1.500  0.3281 -1.0698 -0.2789
 3556SOL    HW222305   1.594   1.212   1.431  2.1272  0.2618 -1.7891
 3557SOL     OW22306   3.944   2.451  12.598 -0.3710 -0.7796  0.2521
 3557SOL    HW122307   3.939   2.378  12.537 -0.7574 -0.5391 -0.0072
 3557SOL    HW222308   4.030   2.436  12.636 -0.6628 -1.8256  0.4995
 3558SOL     OW22309   0.247   3.898   4.025  0.2537 -0.1014  0.6147
 3558SOL    HW122310   0.176   3.935   4.078  0.5386  1.5387 -0.1383
 3558SOL    HW222311   0.327   3.947   4.045  0.5929 -0.4694  0.1676
 3559SOL     OW22312   1.513   4.574   3.274  0.0004  0.3717  0.1541
 3559SOL    HW122313   1.439   4.530   3.314 -0.9017  1.4937 -0.2765
 3559SOL    HW222314   1.518   4.517   3.198 -0.5906  0.9432 -0.3123
 3560SOL     OW22315   4.540   1.568   8.250 -0.0240  0.4822 -0.1435
 3560SOL    HW122316   4.445   1.569   8.251 -0.0147  1.6636 -0.7726
 3560SOL    HW222317   4.553   1.518   8.169 -0.8339 -0.6340  0.4259
 3561SOL     OW22318   4.604   4.567   4.191 -0.4778  0.5387  0.0478
 3561SOL    HW122319   4.553   4.634   4.237  0.3116  0.6816  0.7070
 3561SOL    HW222320   4.620   4.620   4.114  2.1181  0.5662  0.6299
 3562SOL     OW22321   0.568   0.826  11.240 -0.2031 -0.1486  1.2043
 3562SOL    HW122322   0.620   0.893  11.197 -1.9378 -0.4879 -1.4782
 3562SOL    HW222323   0.553   0.774  11.161  0.5680  0.5611  0.6044
 3563SOL     OW22324   1.536   1.749  16.578 -0.1530 -0.3133  0.3315
 3563SOL    HW122325   1.572   1.725  16.493 -0.8732  2.1495 -0.6582
 3563SOL    HW222326   1.589   1.703  16.643 -0.0885  0.2181  0.6584
 3564SOL     OW22327   2.016   3.144  17.541  0.0137 -1.1005  0.6446
 3564SOL    HW122328   2.065   3.138  17.623  0.4659  1.9579  0.5930
 3564SOL    HW222329   2.083   3.104  17.485  0.0710  0.4727 -0.4091
 3565SOL     OW22330   2.602   3.548  17.255  0.0159  0.3309  0.0229
 3565SOL    HW122331   2.529   3.596  17.216  0.5883  1.3041  0.1250
 3565SOL    HW222332   2.607   3.588  17.342  1.2520  1.9710 -0.7871
 3566SOL     OW22333   1.828   1.335   0.375  0.2555  0.1356  0.2540
 3566SOL    HW122334   1.733   1.349   0.384  0.1490 -0.0526 -0.5603
 3566SOL    HW222335   1.848   1.344   0.282 -1.1446  1.0888  0.0389
 3567SOL     OW22336   2.082   0.793   6.556  0.0546  0.3150  0.3412
 3567SOL    HW122337   1.987   0.792   6.566  0.1520  0.0229  1.2667
 3567SOL    HW222338   2.103   0.794   6.462  2.1318  0.9455  0.8044
 3568SOL     OW22339   1.716   1.073   1.867  0.7142  0.1513  0.1483
 3568SOL    HW122340   1.655   1.134   1.908  0.1543 -1.2348  1.3716
 3568SOL    HW222341   1.654   1.005   1.841  1.6035 -0.5244 -0.2138
 3569SOL     OW22342   0.863   0.433  13.570 -0.0964 -0.0381  0.1346
 3569SOL    HW122343   0.832   0.522  13.555  2.8714  0.7967 -0.9086
 3569SOL    HW222344   0.934   0.422  13.507 -0.6465  2.2896 -0.8838
 3570SOL     OW22345   4.724   1.784   5.722 -0.2528 -0.3856 -0.5027
 3570SOL    HW122346   4.649   1.742   5.766 -1.1411  0.8165 -0.8771
 3570SOL    HW222347   4.682   1.815   5.643 -1.1985 -3.5333 -1.2637
 3571SOL     OW22348   0.465   2.417  15.827  0.7666 -0.2825 -0.4334
 3571SOL    HW122349   0.416   2.372  15.757 -1.0280 -0.4878  0.9610
 3571SOL    HW222350   0.445   2.509  15.809 -0.3679 -0.4908 -0.2271
 3572SOL     OW22351   2.237   1.940   6.988 -0.4647  0.3191 -0.1723
 3572SOL    HW122352   2.228   1.867   7.050  0.8669  0.7920  0.5685
 3572SOL    HW222353   2.181   2.003   7.035  0.4345  1.6003 -0.8193
 3573SOL     OW22354   3.652   0.590   7.157  0.3407 -0.2437  0.0917
 3573SOL    HW122355   3.594   0.647   7.208  2.4539 -0.3585  2.6439
 3573SOL    HW222356   3.680   0.521   7.218 -2.3038 -2.5934 -1.3462
 3574SOL     OW22357   1.072   1.222   6.851  0.6815  0.4435 -0.7659
 3574SOL    HW122358   1.058   1.316   6.860 -2.0300 -0.0667  0.4689
 3574SOL    HW222359   1.162   1.230   6.820  0.7549  1.0350 -0.4146
 3575SOL     OW22360   1.696   4.263   3.206 -0.5230 -0.5189  0.5353
 3575SOL    HW122361   1.703   4.170   3.185 -1.6543 -0.6558  0.7420
 3575SOL    HW222362   1.749   4.261   3.285  2.8522  0.8893 -1.6783
 3576SOL     OW22363   1.398   3.205  13.211  0.7211 -0.3398 -0.4150
 3576SOL    HW122364   1.424   3.264  13.282  1.0762  0.0659 -0.8856
 3576SOL    HW222365   1.482   3.172  13.179  0.4372  0.7586 -2.2882
 3577SOL     OW22366   1.956   3.853   3.504  0.1867  0.4080 -0.5789
 3577SOL    HW122367   1.860   3.855   3.499  0.1550 -2.0069 -0.8315
 3577SOL    HW222368   1.972   3.875   3.596 -0.2883  3.3813 -1.2115
 3578SOL     OW22369   3.432   1.653   3.760 -0.3783  0.2309 -0.2070
 3578SOL    HW122370   3.453   1.626   3.849  1.3688 -0.3269 -0.7944
 3578SOL    HW222371   3.486   1.599   3.702 -0.9097  0.0752 -0.5580
 3579SOL     OW22372   2.280   4.102   7.470 -0.1667  0.2343 -0.2106
 3579SOL    HW122373   2.262   4.009   7.483  2.0628 -0.2376 -0.4882
 3579SOL    HW222374   2.371   4.103   7.440  0.2936 -0.1357  1.1612
 3580SOL     OW22375   2.616   2.445   5.502 -0.2280  0.4500 -0.1114
 3580SOL    HW122376   2.593   2.535   5.526 -0.3448  0.7765 -1.4201
 3580SOL    HW222377   2.535   2.395   5.507 -0.4804  1.1253  2.4670
 3581SOL     OW22378   4.277   3.618  17.670  0.9161 -0.0685  0.8600
 3581SOL    HW122379   4.348   3.601  17.731 -0.5193 -0.2357  2.4780
 3581SOL    HW222380   4.268   3.712  17.685 -0.1191 -0.3998  2.3765
 3582SOL     OW22381   3.933   3.294   6.244 -0.0272  0.3837  0.0564
 3582SOL    HW122382   3.889   3.212   6.266 -1.6194  1.2982  0.2880
 3582SOL    HW222383   3.975   3.275   6.160  1.1532  0.9556  0.5110
 3583SOL     OW22384   3.079   1.174  10.903 -0.1721  0.1790 -0.0254
 3583SOL    HW122385   3.018   1.202  10.970  1.2703  0.4163  1.1839
 3583SOL    HW222386   3.157   1.159  10.957  1.6909  0.3938 -2.5963
 3584SOL     OW22387   2.910   2.995   8.376  0.3565  0.2627 -0.0842
 3584SOL    HW122388   2.995   3.017   8.338 -0.1338  1.5880 -0.4084
 3584SOL    HW222389   2.942   2.980   8.465  0.1217  0.9347  0.1083
 3585SOL     OW22390   0.317   0.568   1.763  0.2487  0.3063 -0.2505
 3585SOL    HW122391   0.234   0.521   1.755 -0.0441  0.7462  0.1699
 3585SOL    HW222392   0.298   0.652   1.806  2.2219  0.0533  1.0943
 3586SOL     OW22393   2.715   3.781  10.015 -0.1270 -0.0038  0.1467
 3586SOL    HW122394   2.687   3.693   9.990  1.5421 -0.5529  0.2085
 3586SOL    HW222395   2.630   3.809  10.049 -1.1040 -1.0795 -1.4089
 3587SOL     OW22396   1.684   0.784   7.495 -0.6039 -0.1328  0.5997
 3587SOL    HW122397   1.639   0.705   7.464 -2.6216  1.5400 -0.7012
 3587SOL    HW222398   1.752   0.750   7.552 -1.7927  0.7467  2.5266
 3588SOL     OW22399   2.511   0.603  14.652  0.5363 -0.0320  0.4141
 3588SOL    HW122400   2.513   0.573  14.561  0.8477 -1.5392  0.9123
 3588SOL    HW222401   2.594   0.650  14.650  0.6099 -0.2654 -3.0380
 3589SOL     OW22402   4.329   0.543  11.900 -0.2466  0.5848 -0.2669
 3589SOL    HW122403   4.323   0.480  11.972 -1.7428  1.0942  0.0526
 3589SOL    HW222404   4.418   0.526  11.869  0.6630  1.0248  2.1193
 3590SOL     OW22405   0.308   3.555  14.329  0.0651  0.3170  0.2441
 3590SOL    HW122406   0.312   3.520  14.419  1.8317  0.4213  0.2056
 3590SOL    HW222407   0.368   3.627  14.347  0.3021 -0.1837  1.5261
 3591SOL     OW22408   2.272   3.378   6.342 -0.6136  0.1662  0.1255
 3591SOL    HW122409   2.284   3.408   6.252 -1.1712 -0.1074 -0.0361
 3591SOL    HW222410   2.269   3.459   6.392  3.6918  0.2551  0.2827
 3592SOL     OW22411   3.720   3.112   3.109 -0.3501 -0.1511  0.1624
 3592SOL    HW122412   3.814   3.113   3.094 -0.1431  1.3334  1.6780
 3592SOL    HW222413   3.702   3.186   3.051  0.1262 -1.0887 -1.1852
 3593SOL     OW22414   2.380   2.025   4.857 -0.7405 -0.1679  0.1040
 3593SOL    HW122415   2.421   1.990   4.778 -0.6003 -0.0144  0.1091
 3593SOL    HW222416   2.435   2.002   4.931  0.8064  0.8691 -0.7276
 3594SOL     OW22417   2.172   3.391   4.013  0.2186 -0.1254 -0.7075
 3594SOL    HW122418   2.196   3.432   4.097  1.7458  0.0150 -1.2167
 3594SOL    HW222419   2.170   3.303   4.050  2.6162  0.7690  1.5793
 3595SOL     OW22420   2.637   0.697  10.805  0.0250 -0.2972 -0.0986
 3595SOL    HW122421   2.625   0.792  10.812  1.1787 -0.1731  0.2061
 3595SOL    HW222422   2.602   0.662  10.887 -0.8314 -0.3914 -0.5063
 3596SOL     OW22423   2.548   2.921   6.161 -0.7274 -0.1071 -0.2274
 3596SOL    HW122424   2.559   2.828   6.145 -1.5596 -0.4287  1.0726
 3596SOL    HW222425   2.459   2.932   6.193 -1.0589  0.3712 -1.3018
 3597SOL     OW22426   0.513   0.661   3.534  0.0475 -0.1007  0.8119
 3597SOL    HW122427   0.608   0.669   3.531  0.0797 -0.4220  0.9520
 3597SOL    HW222428   0.493   0.701   3.450  0.9821  0.8487  1.0406
 3598SOL     OW22429   4.178   3.328   2.513  0.3306  0.5202 -0.3379
 3598SOL    HW122430   4.125   3.309   2.591  2.0554  0.7831  0.9030
 3598SOL    HW222431   4.135   3.271   2.450  1.4597 -0.9463  0.2259
 3599SOL     OW22432   3.082   2.370   8.118 -0.0515  1.1221 -0.0968
 3599SOL    HW122433   3.045   2.351   8.032 -0.8654  1.3629  0.2000
 3599SOL    HW222434   3.009   2.414   8.162 -0.5899  0.0377  0.0951
 3600SOL     OW22435   0.215   4.043   5.480 -0.0433 -0.2475 -0.2511
 3600SOL    HW122436   0.146   3.996   5.433  0.8246 -0.4870 -1.2820
 3600SOL    HW222437   0.162   4.057   5.559  0.3843 -1.0968  0.1864
 3601SOL     OW22438   0.160   2.893   3.017  0.1607  0.2722  0.4532
 3601SOL    HW122439   0.246   2.928   3.039  1.9104 -2.7328 -1.4731
 3601SOL    HW222440   0.175   2.816   2.961 -0.4895 -0.9289  1.9275
 3602SOL     OW22441   4.613   0.673   7.226 -0.4725 -0.5690 -0.4328
 3602SOL    HW122442   4.665   0.718   7.159  1.9915 -1.3531  0.9395
 3602SOL    HW222443   4.599   0.749   7.282  0.7667 -1.6432  1.3608
 3603SOL     OW22444   0.796   0.875   5.198 -0.9661 -0.0944  0.0388
 3603SOL    HW122445   0.724   0.865   5.259 -0.5804  0.9669  0.6734
 3603SOL    HW222446   0.777   0.798   5.144  0.0904  0.9786 -1.8861
 3604SOL     OW22447   0.768   0.267   1.949 -0.3273 -0.3446 -0.3734
 3604SOL    HW122448   0.802   0.200   1.889 -0.2211  1.4758 -2.3785
 3604SOL    HW222449   0.677   0.273   1.921 -1.1887  2.3556  2.9880
 3605SOL     OW22450   0.270   4.250   0.875 -0.1309 -0.4237 -0.2212
 3605SOL    HW122451   0.236   4.161   0.888 -0.7946 -0.4665 -2.2431
 3605SOL    HW222452   0.241   4.260   0.785  0.5381  0.6238 -0.3218
 3606SOL     OW22453   4.205   4.408   2.041 -0.6677  0.1595 -0.2983
 3606SOL    HW122454   4.235   4.340   1.981  0.7003 -0.5964  1.2349
 3606SOL    HW222455   4.115   4.391   2.015 -0.8822 -2.0587  1.8864
 3607SOL     OW22456   1.752   3.713   4.463  0.4763 -0.2536  0.1350
 3607SOL    HW122457   1.678   3.774   4.450  0.1292 -0.5087  0.9031
 3607SOL    HW222458   1.728   3.641   4.405  3.7314  0.0059 -1.5195
 3608SOL     OW22459   4.376   4.460   2.775  0.5307  0.8468 -0.0996
 3608SOL    HW122460   4.436   4.531   2.799 -0.9775  1.8723  0.6519
 3608SOL    HW222461   4.436   4.391   2.803  0.1675 -1.5686 -5.1632
 3609SOL     OW22462   1.320   4.370   5.135 -1.0046 -0.4303 -0.7445
 3609SOL    HW122463   1.254   4.437   5.118 -0.0355  0.8556  0.5728
 3609SOL    HW222464   1.370   4.357   5.054 -1.8455 -0.7194 -1.2143
 3610SOL     OW22465   2.480   0.821  11.508 -0.5143 -0.1994  0.2342
 3610SOL    HW122466   2.531   0.893  11.545  1.2138  0.0695 -2.6305
 3610SOL    HW222467   2.521   0.741  11.541 -1.2399 -0.5042  0.3879
 3611SOL     OW22468   0.270   0.774   6.330  0.2487 -0.1688 -0.0170
 3611SOL    HW122469   0.284   0.731   6.414  0.8909  0.6339  0.2852
 3611SOL    HW222470   0.206   0.715   6.290 -1.7322  2.3010 -0.5228
 3612SOL     OW22471   4.163   0.402   2.376  0.1125 -0.2573 -0.3262
 3612SOL    HW122472   4.090   0.341   2.387 -0.7721  0.7365 -0.7613
 3612SOL    HW222473   4.223   0.350   2.322 -0.0584 -0.1798 -0.5909
 3613SOL     OW22474   2.516   0.304   9.209 -0.4286  0.2017 -0.0565
 3613SOL    HW122475   2.590   0.301   9.149 -1.3370  1.6353 -1.2498
 3613SOL    HW222476   2.517   0.397   9.230  0.2595  0.1435  0.1633
 3614SOL     OW22477   1.184   3.839   7.012 -0.2446  0.4262 -1.0518
 3614SOL    HW122478   1.212   3.836   6.921  1.6005 -1.5285 -0.4103
 3614SOL    HW222479   1.132   3.920   7.012 -1.0283 -0.0724 -0.6588
 3615SOL     OW22480   0.286   2.159  16.228 -0.3786 -0.3892 -0.1341
 3615SOL    HW122481   0.354   2.113  16.276 -2.0710 -1.8353  0.8998
 3615SOL    HW222482   0.240   2.206  16.298  0.5064  0.3305 -0.0344
 3616SOL     OW22483   1.574   2.003   0.782 -0.3539  0.3508  0.2813
 3616SOL    HW122484   1.639   2.010   0.712  1.8648  2.2281  2.5032
 3616SOL    HW222485   1.620   2.019   0.865  1.6307 -0.3444 -0.6675
 3617SOL     OW22486   1.839   3.582   3.930  0.5214 -0.4185 -0.1327
 3617SOL    HW122487   1.868   3.501   3.887 -1.9007 -0.3943 -1.8692
 3617SOL    HW222488   1.869   3.561   4.018  0.0404  1.8711  0.5810
 3618SOL     OW22489   0.227   0.145   5.326 -0.1578 -0.0550 -0.2295
 3618SOL    HW122490   0.222   0.098   5.409  0.0730 -2.7939 -1.7692
 3618SOL    HW222491   0.203   0.234   5.349  0.7159  0.3828 -0.9836
 3619SOL     OW22492   2.619   2.792   4.031 -0.3429  0.2469 -0.2794
 3619SOL    HW122493   2.615   2.834   3.945 -1.3221 -1.3494 -1.0036
 3619SOL    HW222494   2.541   2.820   4.078 -0.0803  1.1936 -0.3841
 3620SOL     OW22495   0.545   4.484  10.781 -0.5501 -0.8211  0.8729
 3620SOL    HW122496   0.574   4.406  10.828  0.7432 -2.0843 -2.0439
 3620SOL    HW222497   0.471   4.507  10.837  0.6773  2.4322  1.1543
 3621SOL     OW22498   1.241   2.300   2.639 -0.3031  0.0666 -0.4541
 3621SOL    HW122499   1.177   2.367   2.665 -0.4656  0.1035 -0.9656
 3621SOL    HW222500   1.317   2.357   2.627  1.4222 -2.2859 -0.6935
 3622SOL     OW22501   3.354   3.201   8.935  0.6856 -0.3790 -0.1272
 3622SOL    HW122502   3.382   3.293   8.938 -1.1111  0.0971  2.1876
 3622SOL    HW222503   3.398   3.166   9.012 -1.0790  1.4547  1.7461
 3623SOL     OW22504   3.263   2.674   3.219  0.1657  0.0798 -0.5391
 3623SOL    HW122505   3.331   2.650   3.282  0.9280  1.6890 -0.7599
 3623SOL    HW222506   3.293   2.633   3.138  1.3388  1.0202 -0.5642
 3624SOL     OW22507   2.440   2.500   1.888  0.4219 -0.3182  0.1406
 3624SOL    HW122508   2.466   2.411   1.911 -0.4508 -0.7646 -0.6281
 3624SOL    HW222509   2.358   2.492   1.839  1.5048  2.7340 -2.1748
 3625SOL     OW22510   0.408   4.182   6.301  0.0296  0.5045  0.1414
 3625SOL    HW122511   0.407   4.218   6.389 -0.4383  1.0587 -0.0897
 3625SOL    HW222512   0.436   4.093   6.323 -0.8684  0.2349  0.1948
 3626SOL     OW22513   1.983   3.121   5.710  0.0014  0.2865  0.2116
 3626SOL    HW122514   2.062   3.147   5.758  0.3521 -2.0721  0.9122
 3626SOL    HW222515   1.928   3.199   5.717 -1.1903 -0.4592 -0.8589
 3627SOL     OW22516   2.927   0.056   3.222  0.0485  0.6428 -0.0148
 3627SOL    HW122517   2.922   4.720   3.283  1.0434 -0.5177 -1.2966
 3627SOL    HW222518   2.851   0.047   3.164  0.5956 -2.1679 -0.2636
 3628SOL     OW22519   0.850   1.420  15.872 -0.4314  0.3466 -0.2155
 3628SOL    HW122520   0.945   1.427  15.879 -0.2503 -0.3996 -2.1610
 3628SOL    HW222521   0.842   1.446  15.781  2.0650  2.8655  0.2591
 3629SOL     OW22522   2.976   3.688   6.405 -0.3600 -0.2412 -0.4194
 3629SOL    HW122523   2.992   3.738   6.485  0.5079 -0.2283 -0.5979
 3629SOL    HW222524   2.971   3.758   6.340 -1.7673 -0.1190 -0.1713
 3630SOL     OW22525   3.936   4.053  14.559  0.0403 -0.0826 -0.1791
 3630SOL    HW122526   3.958   4.116  14.490  1.1521 -0.1975  0.0745
 3630SOL    HW222527   3.842   4.037  14.546 -0.1658  1.6488 -0.8088
 3631SOL     OW22528   4.558   3.047   5.413  0.1920 -0.4094 -0.6809
 3631SOL    HW122529   4.489   3.040   5.480  1.0052 -0.3965  0.1486
 3631SOL    HW222530   4.520   3.005   5.336 -0.1894  1.3729 -1.4607
 3632SOL     OW22531   3.778   3.659  15.348 -0.0092  0.2527  0.4398
 3632SOL    HW122532   3.711   3.689  15.286 -1.8807 -1.7132  1.4909
 3632SOL    HW222533   3.852   3.648  15.290 -0.3644  1.3343 -0.2293
 3633SOL     OW22534   4.431   0.886   4.115 -0.0077  0.0354  0.0255
 3633SOL    HW122535   4.521   0.905   4.143 -0.0834  0.0736  0.2451
 3633SOL    HW222536   4.416   0.962   4.058 -1.6693 -0.6157 -0.3839
 3634SOL     OW22537   4.239   2.653  17.713 -0.3818  0.5854 -0.3752
 3634SOL    HW122538   4.287   2.664  17.632  0.7515  1.6273  0.4353
 3634SOL    HW222539   4.220   2.559  17.711  0.8921  0.4417 -4.0635
 3635SOL     OW22540   1.419   1.348   6.772 -0.1022 -0.2002 -0.4524
 3635SOL    HW122541   1.399   1.255   6.780 -1.2988  0.0531 -0.4373
 3635SOL    HW222542   1.513   1.358   6.755  0.3491 -2.3436  0.7204
 3636SOL     OW22543   0.113   0.259   3.732  0.5058 -0.0820  0.0540
 3636SOL    HW122544   0.071   0.282   3.815  0.3489 -0.0483 -0.0360
 3636SOL    HW222545   0.066   0.327   3.685 -0.1579  0.4318  1.4674
 3637SOL     OW22546   4.537   2.416   4.573  0.1174  0.5920  0.0390
 3637SOL    HW122547   4.612   2.449   4.525 -0.1468  1.8597  0.4961
 3637SOL    HW222548   4.514   2.495   4.622 -1.6574 -0.2618  0.6188
 3638SOL     OW22549   0.462   0.729   8.550 -1.0106  0.1775  0.2717
 3638SOL    HW122550   0.550   0.707   8.580  0.0382  0.2069 -2.7060
 3638SOL    HW222551   0.413   0.696   8.625 -1.9778 -0.6109 -0.7162
 3639SOL     OW22552   3.431   2.958   3.341  0.6830  0.1584  0.4478
 3639SOL    HW122553   3.405   2.889   3.402 -0.7660  0.5176  0.2269
 3639SOL    HW222554   3.461   3.025   3.401 -1.1211  2.3054 -1.0420
 3640SOL     OW22555   3.430   2.515  12.425  0.5461  0.2291  0.2838
 3640SOL    HW122556   3.461   2.479  12.342  0.4823 -0.0010  0.3584
 3640SOL    HW222557   3.492   2.475  12.487  2.4008  1.5037 -0.7401
 3641SOL     OW22558   3.469   0.741   2.432  0.4447  0.4229  0.2097
 3641SOL    HW122559   3.428   0.780   2.354 -1.8161 -1.0641  0.6625
 3641SOL    HW222560   3.430   0.801   2.495 -0.0407  0.8540 -0.4977
 3642SOL     OW22561   1.049   4.189   7.522  0.0843  0.1648 -0.5154
 3642SOL    HW122562   0.984   4.120   7.509  1.1105 -1.3159  2.1761
 3642SOL    HW222563   1.028   4.202   7.615  1.0501  1.7710 -0.5253
 3643SOL     OW22564   3.303   1.775  17.223  0.3746  0.4185  0.2943
 3643SOL    HW122565   3.278   1.759  17.314 -0.3449  0.7832  0.1601
 3643SOL    HW222566   3.291   1.692  17.177  1.7548 -0.1778  1.0325
 3644SOL     OW22567   2.125   4.530   9.470 -0.2464 -0.2274  0.0983
 3644SOL    HW122568   2.072   4.505   9.394  0.4972 -1.6604  0.0560
 3644SOL    HW222569   2.155   4.613   9.432 -1.4991 -0.8446 -2.2294
 3645SOL     OW22570   4.465   3.567   4.345  0.0245 -0.0754 -0.2001
 3645SOL    HW122571   4.539   3.625   4.326  1.0651 -1.6438 -0.9606
 3645SOL    HW222572   4.409   3.598   4.274 -0.5549  0.2862  0.4177
 3646SOL     OW22573   3.923   4.169  17.546 -0.3177 -0.3682  0.6290
 3646SOL    HW122574   3.970   4.088  17.529 -1.2403 -0.5304 -1.1911
 3646SOL    HW222575   3.985   4.215  17.602  0.6377  0.7540 -1.3623
 3647SOL     OW22576   0.380   4.430   6.172 -0.1998 -0.0245 -0.7012
 3647SOL    HW122577   0.414   4.344   6.196  1.5048  1.3460  1.7866
 3647SOL    HW222578   0.303   4.444   6.226 -0.9484  0.4851 -1.8851
 3648SOL     OW22579   0.699   2.935   8.208  0.3031 -0.1320  0.6461
 3648SOL    HW122580   0.734   2.972   8.289 -1.3774 -0.1742  1.3747
 3648SOL    HW222581   0.653   2.855   8.231 -1.4687 -0.3634 -3.5981
 3649SOL     OW22582   0.868   0.306  10.672 -0.1444 -0.1591  0.2725
 3649SOL    HW122583   0.884   0.398  10.653  2.3338 -0.3738  1.2170
 3649SOL    HW222584   0.951   0.258  10.665  1.2710  2.0513  2.2767
 3650SOL     OW22585   2.481   2.736   6.876  0.2606 -0.2816  0.1162
 3650SOL    HW122586   2.453   2.658   6.828 -1.4346 -0.2409  1.0327
 3650SOL    HW222587   2.438   2.810   6.832 -0.9941 -0.1926  1.4809
 3651SOL     OW22588   3.505   0.569  12.187 -0.2713  0.2294  0.1026
 3651SOL    HW122589   3.592   0.604  12.171  0.0371 -1.0565 -0.9847
 3651SOL    HW222590   3.479   0.535  12.101  0.9781  0.8503 -0.5109
 3652SOL     OW22591   1.317   2.613  15.470 -0.4515 -0.4817  0.1156
 3652SOL    HW122592   1.285   2.636  15.558 -0.0697  0.8121 -0.0926
 3652SOL    HW222593   1.241   2.646  15.422  0.4053 -0.8454 -1.4798
 3653SOL     OW22594   3.508   3.414   5.559 -0.4500  0.1574  0.7037
 3653SOL    HW122595   3.585   3.415   5.617 -0.0559 -0.8559  0.2167
 3653SOL    HW222596   3.536   3.344   5.500  2.9832 -1.5297  4.2647
 3654SOL     OW22597   1.881   3.007   6.524 -0.0366 -0.3042  0.7724
 3654SOL    HW122598   1.886   2.914   6.503  1.1690  0.0359 -0.4553
 3654SOL    HW222599   1.969   3.041   6.512 -0.5964  1.2803  1.1239
 3655SOL     OW22600   0.660   2.618   8.183 -0.5967 -0.3459 -0.3277
 3655SOL    HW122601   0.643   2.623   8.089  1.0439  1.6769 -0.5292
 3655SOL    HW222602   0.584   2.637   8.239  1.1284  1.8002  1.2908
 3656SOL     OW22603   1.896   2.953  16.710 -0.2843 -0.0041 -0.8486
 3656SOL    HW122604   1.845   3.000  16.644 -0.1133  0.3418 -0.7301
 3656SOL    HW222605   1.826   2.922  16.767  1.2407  0.1533  1.0858
 3657SOL     OW22606   1.320   4.069  15.036  0.1717  0.0862  0.2075
 3657SOL    HW122607   1.226   4.058  15.023  0.3278 -0.4981 -0.4207
 3657SOL    HW222608   1.348   3.995  14.983  0.0728 -0.0380  0.3286
 3658SOL     OW22609   2.663   0.957  17.226  0.1336 -0.2087  0.0655
 3658SOL    HW122610   2.735   0.924  17.280  1.5533  0.5979 -1.3020
 3658SOL    HW222611   2.594   0.892  17.240 -1.5933  0.9263 -3.3102
 3659SOL     OW22612   1.517   3.179  11.757 -0.2519  0.0629 -0.5055
 3659SOL    HW122613   1.584   3.245  11.737 -0.7663  0.2090 -1.7352
 3659SOL    HW222614   1.575   3.108  11.784  0.0185  1.9551  3.8237
 3660SOL     OW22615   1.709   3.590   7.727 -0.4336 -0.1441 -0.1171
 3660SOL    HW122616   1.678   3.534   7.798  0.4212 -0.6278 -0.1237
 3660SOL    HW222617   1.791   3.629   7.756 -1.1662  1.7049 -0.5344
 3661SOL     OW22618   3.865   1.189   2.976  0.6730 -0.0011  0.0465
 3661SOL    HW122619   3.781   1.145   2.984  0.2593  0.7845 -0.0030
 3661SOL    HW222620   3.891   1.171   2.885  0.8623  2.9581 -0.4888
 3662SOL     OW22621   1.540   0.045   8.077 -0.1953  0.6480 -0.2167
 3662SOL    HW122622   1.491   0.103   8.019 -0.3646  0.1554 -0.5673
 3662SOL    HW222623   1.568   0.095   8.154 -0.4163  0.5469 -0.0713
 3663SOL     OW22624   0.130   0.496   7.450 -0.4727  0.1761  0.3291
 3663SOL    HW122625   0.057   0.459   7.500 -0.6549  0.5934  0.3699
 3663SOL    HW222626   0.090   0.489   7.363 -0.1157 -1.2498  0.2840
 3664SOL     OW22627   2.523   2.031   7.498  0.0386 -0.2360  0.1599
 3664SOL    HW122628   2.526   1.936   7.513  2.6139 -0.1477  0.1862
 3664SOL    HW222629   2.453   2.022   7.434 -1.6051  2.6233  1.5720
 3665SOL     OW22630   3.174   2.824   1.003 -0.3583 -0.4267 -0.1087
 3665SOL    HW122631   3.098   2.831   0.945  0.7470 -0.5589 -1.5964
 3665SOL    HW222632   3.223   2.904   0.983 -0.6558 -0.1727  0.2076
 3666SOL     OW22633   3.172   4.411  12.395  0.1168  0.1826  0.4834
 3666SOL    HW122634   3.205   4.418  12.305 -1.1437 -0.5361 -0.0283
 3666SOL    HW222635   3.157   4.316  12.398  0.2541  0.1758  0.9642
 3667SOL     OW22636   3.690   0.220   4.328  0.4048 -0.2592 -0.1877
 3667SOL    HW122637   3.676   0.253   4.416  0.7410  0.3294 -0.3523
 3667SOL    HW222638   3.633   0.279   4.278  0.3556 -0.0396  0.1290
 3668SOL     OW22639   1.200   2.848  16.067  0.8811  0.2241  0.1211
 3668SOL    HW122640   1.289   2.882  16.062  0.8834  0.1345 -0.3825
 3668SOL    HW222641   1.177   2.851  16.160  0.0137 -2.0346 -0.0277
 3669SOL     OW22642   4.030   2.894   8.243  0.3786 -0.5170  0.6364
 3669SOL    HW122643   4.050   2.879   8.150 -1.8622 -2.6711  0.5145
 3669SOL    HW222644   4.018   2.988   8.255 -1.0528 -0.8824  2.0147
 3670SOL     OW22645   1.910   4.131   4.432  0.1006 -0.0690  0.1924
 3670SOL    HW122646   2.002   4.156   4.439  1.0673 -2.5686 -3.8647
 3670SOL    HW222647   1.870   4.203   4.384  0.1792  0.4239  0.8659
 3671SOL     OW22648   1.648   3.851   0.156 -0.0202  0.6129  0.1797
 3671SOL    HW122649   1.741   3.841   0.135 -0.1565  0.7827 -0.5130
 3671SOL    HW222650   1.607   3.791   0.093 -0.1988 -1.6293  2.4096
 3672SOL     OW22651   2.183   1.257  14.874 -0.0382  0.6100  0.2956
 3672SOL    HW122652   2.200   1.260  14.780 -0.9711 -1.8233  0.0655
 3672SOL    HW222653   2.253   1.195  14.896  0.7408  1.6859  0.8854
 3673SOL     OW22654   3.726   0.794   4.301 -0.8183  0.3873 -0.0367
 3673SOL    HW122655   3.803   0.765   4.350  1.0259  1.6020 -2.1941
 3673SOL    HW222656   3.662   0.743   4.350  0.0529 -0.9171 -0.2547
 3674SOL     OW22657   2.790   0.664   1.551 -0.0425 -0.7241  0.5388
 3674SOL    HW122658   2.733   0.607   1.602  2.1988 -0.8623  2.8700
 3674SOL    HW222659   2.746   0.749   1.559  0.9691 -0.1614  0.1050
 3675SOL     OW22660   4.716   1.658   3.384  0.3392 -0.4958  0.4068
 3675SOL    HW122661   0.021   1.638   3.468 -1.0241 -0.3877  1.1050
 3675SOL    HW222662   4.623   1.659   3.408 -0.3024 -0.8910 -2.0997
 3676SOL     OW22663   0.193   0.631   7.734 -0.2933  0.5113  0.4539
 3676SOL    HW122664   0.102   0.612   7.711  0.0736 -2.5389  1.5686
 3676SOL    HW222665   0.191   0.668   7.822  2.1791  2.0253 -0.1206
 3677SOL     OW22666   0.181   3.410   7.681 -0.0193  0.2786  0.6183
 3677SOL    HW122667   0.191   3.460   7.761  1.1552 -0.1004  0.7080
 3677SOL    HW222668   0.136   3.333   7.718 -1.4577  0.8546  0.0574
 3678SOL     OW22669   3.024   4.538   3.367 -0.6022 -0.4576 -0.1463
 3678SOL    HW122670   3.004   4.562   3.458  0.2333 -1.2992  0.2726
 3678SOL    HW222671   3.101   4.589   3.344 -0.5908  0.4772  1.9997
 3679SOL     OW22672   2.096   2.515   4.312 -0.4426  0.0769  0.2260
 3679SOL    HW122673   2.121   2.603   4.284 -2.1976  0.7802  0.8201
 3679SOL    HW222674   2.039   2.491   4.239  0.6634  1.6236 -1.1581
 3680SOL     OW22675   0.543   1.295   7.532 -0.0987  0.6042  0.2380
 3680SOL    HW122676   0.468   1.235   7.522  0.7778 -0.0487 -2.6016
 3680SOL    HW222677   0.516   1.371   7.481 -0.6792 -0.5258 -1.1551
 3681SOL     OW22678   4.681   2.248   4.871 -0.4131  0.3389  0.0755
 3681SOL    HW122679   0.014   2.213   4.816 -1.5854 -1.1789 -0.4357
 3681SOL    HW222680   4.683   2.343   4.855 -1.0238  0.4226  0.4858
 3682SOL     OW22681   3.972   1.484  11.572  0.3381 -0.0658  0.6607
 3682SOL    HW122682   3.924   1.565  11.553 -1.5741 -1.8621 -2.1362
 3682SOL    HW222683   4.031   1.509  11.643 -0.7229  0.8712  1.2055
 3683SOL     OW22684   4.535   0.271   4.245 -0.0332  0.6932  0.2945
 3683SOL    HW122685   4.469   0.273   4.176 -0.7661 -0.2335  0.9787
 3683SOL    HW222686   4.504   0.331   4.313  0.0516  0.5110  0.4947
 3684SOL     OW22687   0.168   0.485   4.023 -0.2161  0.1059  0.4842
 3684SOL    HW122688   0.105   0.527   4.080 -0.9718 -0.0050 -0.2711
 3684SOL    HW222689   0.113   0.466   3.947  0.6985 -1.2369  0.1371
 3685SOL     OW22690   1.805   0.325  11.771  0.0520  0.6082 -0.0018
 3685SOL    HW122691   1.839   0.324  11.860  0.8376  4.3423 -0.2431
 3685SOL    HW222692   1.809   0.231  11.759 -1.1663  0.4176  1.1169
 3686SOL     OW22693   2.355   2.161   7.745 -0.1512  0.4702  0.2105
 3686SOL    HW122694   2.408   2.173   7.666 -2.5264 -0.2160 -1.4912
 3686SOL    HW222695   2.411   2.114   7.806  0.7869 -1.2428 -1.9630
 3687SOL     OW22696   1.525   1.385   8.004  0.6024 -0.0681 -0.3708
 3687SOL    HW122697   1.461   1.432   8.057  0.2619 -0.8057 -0.1259
 3687SOL    HW222698   1.560   1.464   7.964  1.9669 -0.7804 -0.5874
 3688SOL     OW22699   0.444   0.554   5.961 -0.1909  0.2392 -0.5998
 3688SOL    HW122700   0.505   0.619   5.997  1.5284 -1.8722  0.3273
 3688SOL    HW222701   0.503   0.479   5.964  0.0210  0.3355 -2.6668
 3689SOL     OW22702   4.025   2.285   3.791  0.0407  0.2717  0.6617
 3689SOL    HW122703   3.967   2.317   3.861  0.2459 -0.0240  0.9651
 3689SOL    HW222704   3.991   2.321   3.709 -2.2895 -0.7690  1.1825
 3690SOL     OW22705   0.182   4.341   5.120 -0.6222  0.0751 -0.2206
 3690SOL    HW122706   0.125   4.405   5.161  0.9874  1.2799  0.1358
 3690SOL    HW222707   0.235   4.401   5.067  0.2579  0.1014  0.6793
 3691SOL     OW22708   2.816   2.381   7.433  0.3620 -0.3656 -0.0625
 3691SOL    HW122709   2.744   2.444   7.427  0.6762 -0.0089 -0.1202
 3691SOL    HW222710   2.779   2.309   7.483  0.2516 -0.6692 -0.5881
 3692SOL     OW22711   0.320   0.033  14.273  0.0737 -0.0054 -0.1300
 3692SOL    HW122712   0.329   4.674  14.283 -1.0769 -0.1815 -0.8204
 3692SOL    HW222713   0.303   0.043  14.180  0.6226 -0.2434 -0.2548
 3693SOL     OW22714   4.125   3.934  10.215  0.6537 -0.7388  0.3062
 3693SOL    HW122715   4.151   3.995  10.283  0.4701  0.2362 -0.4935
 3693SOL    HW222716   4.201   3.928  10.156  2.2285 -0.7596  2.3536
 3694SOL     OW22717   3.912   0.423  12.672  0.2010  0.0021 -0.6302
 3694SOL    HW122718   3.820   0.442  12.653 -0.3570 -1.7788  0.3111
 3694SOL    HW222719   3.905   0.330  12.692 -0.0144  0.5930  2.0819
 3695SOL     OW22720   2.587   3.904   2.670 -0.9724  0.3086  0.1326
 3695SOL    HW122721   2.596   3.820   2.714 -2.0185 -0.6731 -1.5491
 3695SOL    HW222722   2.591   3.965   2.744  0.9056  1.5018 -0.9719
 3696SOL     OW22723   1.940   2.633   3.888 -0.4611 -0.3575  0.3404
 3696SOL    HW122724   1.867   2.687   3.918  0.6516  1.2383  0.2005
 3696SOL    HW222725   1.943   2.576   3.965 -2.4941 -0.3939  0.3977
 3697SOL     OW22726   0.659   4.376   7.460 -0.4232  0.0647 -0.5228
 3697SOL    HW122727   0.701   4.291   7.446  1.0311  0.5148  1.0432
 3697SOL    HW222728   0.697   4.424   7.387  0.5615 -0.1276 -0.1377
 3698SOL     OW22729   4.614   4.412   2.506  1.0097  0.1327 -0.4435
 3698SOL    HW122730   4.662   4.410   2.589 -0.2398 -0.9377  0.2633
 3698SOL    HW222731   4.548   4.470   2.545  0.5480 -2.1575  2.1631
 3699SOL     OW22732   2.828   0.858   7.870 -0.2002 -0.4173  0.0677
 3699SOL    HW122733   2.895   0.808   7.822 -0.2170 -0.3290 -0.0486
 3699SOL    HW222734   2.871   0.942   7.883 -0.5762  0.1517 -2.3140
 3700SOL     OW22735   4.358   1.028   3.299  0.2968 -0.0784  0.8923
 3700SOL    HW122736   4.286   1.056   3.242  0.9956  2.8162  1.4394
 3700SOL    HW222737   4.309   1.018   3.381 -2.5170  0.8453 -0.6591
 3701SOL     OW22738   0.548   3.379  16.269 -0.3076 -0.0237  0.1979
 3701SOL    HW122739   0.636   3.342  16.261  0.1467  0.8523  1.1604
 3701SOL    HW222740   0.525   3.364  16.178 -0.0946 -1.8829  0.4602
 3702SOL     OW22741   0.683   0.403  17.568  0.5277 -0.3447  0.1325
 3702SOL    HW122742   0.651   0.352  17.494  1.3248 -1.1619  0.3500
 3702SOL    HW222743   0.709   0.334  17.629  0.8571 -0.1965  0.1658
 3703SOL     OW22744   4.443   0.496   5.398  0.6146  0.1829  0.1186
 3703SOL    HW122745   4.406   0.496   5.486 -0.8687 -1.3022 -0.5036
 3703SOL    HW222746   4.386   0.430   5.358 -0.8468  0.1358  2.2507
 3704SOL     OW22747   0.025   0.851   7.047  0.4487 -0.2427  0.2974
 3704SOL    HW122748   0.016   0.918   7.115  2.0170 -0.9485  1.2025
 3704SOL    HW222749   0.115   0.821   7.056  0.1153 -1.1188  0.7952
 3705SOL     OW22750   1.417   2.164   6.700  0.3009 -0.2748 -0.1525
 3705SOL    HW122751   1.423   2.072   6.726 -0.2674 -0.3008 -0.1140
 3705SOL    HW222752   1.424   2.171   6.605  0.9192  1.0277 -0.0125
 3706SOL     OW22753   4.077   3.578   3.452  0.2765 -0.1095  0.4917
 3706SOL    HW122754   4.123   3.619   3.526 -0.9127  1.2673  0.4929
 3706SOL    HW222755   4.154   3.560   3.399  0.4103 -0.6547  0.8743
 3707SOL     OW22756   2.042   4.189   3.082  0.0070 -0.6808 -0.0211
 3707SOL    HW122757   2.067   4.097   3.088  2.9607  0.0971 -0.5452
 3707SOL    HW222758   2.025   4.196   2.988  0.1503 -3.9653 -0.2684
 3708SOL     OW22759   3.094   1.041   1.809  0.1655  0.2417 -0.0228
 3708SOL    HW122760   3.078   1.033   1.715  0.3703 -0.6881  0.0197
 3708SOL    HW222761   3.173   1.096   1.804 -0.6092  1.5570  2.3397
 3709SOL     OW22762   3.993   0.859   3.193 -0.1082 -0.1562  0.1163
 3709SOL    HW122763   4.038   0.839   3.276 -1.1999  1.3760  1.0699
 3709SOL    HW222764   3.930   0.928   3.215 -0.5428 -0.2214 -0.9409
 3710SOL     OW22765   3.794   3.333   5.190  0.9669 -0.4230 -0.3789
 3710SOL    HW122766   3.715   3.349   5.138  1.9443 -3.3699 -2.8111
 3710SOL    HW222767   3.775   3.385   5.268  2.5022 -0.5100  0.0656
 3711SOL     OW22768   3.538   1.996   4.749  0.1177  0.0151 -0.0917
 3711SOL    HW122769   3.516   1.956   4.665  5.1791 -0.6830 -1.0974
 3711SOL    HW222770   3.625   1.956   4.748  0.7880  1.5149 -0.5510
 3712SOL     OW22771   0.704   1.735   3.162  0.2117 -0.2842  0.1028
 3712SOL    HW122772   0.726   1.826   3.141  0.3545  0.0868  1.9081
 3712SOL    HW222773   0.775   1.721   3.225 -1.6939 -0.9207  2.0860
 3713SOL     OW22774   2.882   2.558   6.862 -0.4346 -0.0279 -0.0421
 3713SOL    HW122775   2.816   2.614   6.902  1.8998  1.4691  1.7065
 3713SOL    HW222776   2.848   2.558   6.773 -2.0089  2.2857  0.5836
 3714SOL     OW22777   2.565   4.142  11.277  0.5553  0.1901 -0.0450
 3714SOL    HW122778   2.634   4.118  11.216 -1.4059 -0.5452 -1.9693
 3714SOL    HW222779   2.619   4.163  11.354  1.1800 -0.7173 -0.2364
 3715SOL     OW22780   4.489   1.108   7.808 -0.7874 -0.1961 -0.8166
 3715SOL    HW122781   4.582   1.103   7.831 -0.7856 -1.8247 -1.2055
 3715SOL    HW222782   4.495   1.140   7.718  2.2825 -3.6062 -1.7896
 3716SOL     OW22783   2.890   1.190   6.903 -0.4842 -0.2121 -0.0349
 3716SOL    HW122784   2.877   1.102   6.936  1.1052  0.0438  1.2211
 3716SOL    HW222785   2.981   1.185   6.875 -0.8523  2.5358 -1.7904
 3717SOL     OW22786   1.935   4.512   7.982  0.7720 -0.2708 -0.1757
 3717SOL    HW122787   1.844   4.497   8.009  0.2455 -0.9408 -2.3654
 3717SOL    HW222788   1.970   4.545   8.065 -0.7611 -1.9409  1.1411
 3718SOL     OW22789   3.091   2.444   5.451 -0.5761 -0.0739 -0.6147
 3718SOL    HW122790   3.167   2.396   5.419 -1.3514 -2.0886  0.5596
 3718SOL    HW222791   3.073   2.509   5.383 -0.1807 -0.3557 -0.9922
 3719SOL     OW22792   1.453   0.465   6.067  0.1804  0.0582 -0.1415
 3719SOL    HW122793   1.492   0.396   6.014 -0.1573  0.2519 -0.6432
 3719SOL    HW222794   1.360   0.450   6.051 -0.0621  0.9315  0.4248
 3720SOL     OW22795   2.240   0.139   4.335  0.1474  0.2194 -0.0109
 3720SOL    HW122796   2.182   0.213   4.319 -1.1407 -0.1706  2.7533
 3720SOL    HW222797   2.311   0.187   4.379  0.8376  0.0390 -0.9214
 3721SOL     OW22798   1.930   2.833   7.528  0.0417 -0.1780 -0.2325
 3721SOL    HW122799   1.913   2.747   7.567  1.6776 -0.4388 -0.0909
 3721SOL    HW222800   1.887   2.891   7.590 -1.6300 -1.8694  0.1970
 3722SOL     OW22801   0.410   2.750   7.918  0.1128  0.6890 -0.2432
 3722SOL    HW122802   0.354   2.795   7.855 -1.0414 -0.0557  0.2493
 3722SOL    HW222803   0.355   2.745   7.996  1.4010  0.6783  0.6725
 3723SOL     OW22804   3.666   0.412   2.093 -0.0283  0.0933  0.1101
 3723SOL    HW122805   3.615   0.489   2.118 -0.6906 -0.4257  0.3742
 3723SOL    HW222806   3.624   0.384   2.012 -0.6358  1.1531  0.0615
 3724SOL     OW22807   0.636   2.931   4.880 -0.0127 -0.3562  0.2138
 3724SOL    HW122808   0.645   2.987   4.803 -1.8483 -1.1839 -0.5993
 3724SOL    HW222809   0.708   2.869   4.868  0.2977 -0.4786  2.6607
 3725SOL     OW22810   2.866   2.311   5.451  0.3948  0.3245  0.4794
 3725SOL    HW122811   2.947   2.363   5.455 -0.0780  1.1704 -1.3817
 3725SOL    HW222812   2.804   2.350   5.513 -0.7857 -2.2232  0.9028
 3726SOL     OW22813   3.318   1.292   2.023 -0.1187  0.0745  0.2559
 3726SOL    HW122814   3.318   1.254   1.935 -2.9597 -2.1374  1.2397
 3726SOL    HW222815   3.269   1.373   2.010 -1.6058 -0.9808 -0.7510
 3727SOL     OW22816   2.443   4.045   7.894 -0.5026  0.3396 -0.1701
 3727SOL    HW122817   2.451   4.138   7.872  1.1053  0.8679  2.6050
 3727SOL    HW222818   2.523   4.014   7.852 -0.1547 -0.6265  1.2052
 3728SOL     OW22819   0.077   3.814   4.554 -0.0439  0.5315 -0.2940
 3728SOL    HW122820   0.000   3.866   4.578 -2.0854 -1.8611 -1.5784
 3728SOL    HW222821   0.047   3.752   4.488 -2.6298  1.3241  0.1268
 3729SOL     OW22822   1.583   0.427  12.948  0.4232  0.3815 -0.4778
 3729SOL    HW122823   1.629   0.418  12.865  1.4644 -0.6709  0.2214
 3729SOL    HW222824   1.491   0.424  12.920 -0.0322  0.4488  1.0023
 3730SOL     OW22825   0.495   0.018   3.509 -0.0886 -0.1039  0.1672
 3730SOL    HW122826   0.548   4.725   3.435 -1.1433 -0.1852 -0.5488
 3730SOL    HW222827   0.519   0.111   3.507  0.0341 -0.1044  1.3120
 3731SOL     OW22828   4.034   4.022   4.497 -0.1125 -0.4510 -0.3835
 3731SOL    HW122829   4.004   4.103   4.455 -1.4959 -1.4296 -1.3007
 3731SOL    HW222830   3.985   4.023   4.579 -1.0885  0.4210 -0.9726
 3732SOL     OW22831   3.305   1.476  12.196 -0.1706 -0.5064 -0.0143
 3732SOL    HW122832   3.364   1.401  12.198  0.4638  0.0383  1.3619
 3732SOL    HW222833   3.343   1.539  12.135 -1.7065 -2.0627 -2.5995
 3733SOL     OW22834   1.902   3.832  15.822 -0.0318 -0.3703  0.5350
 3733SOL    HW122835   1.838   3.807  15.756  0.3571 -0.1682  0.0798
 3733SOL    HW222836   1.907   3.764  15.890  1.0858 -0.4857  0.3366
 3734SOL     OW22837   2.290   1.260   2.529 -0.0279 -0.7179  0.0057
 3734SOL    HW122838   2.359   1.231   2.589 -1.3178 -2.4742  0.6071
 3734SOL    HW222839   2.216   1.201   2.539 -0.4815 -0.0384  0.7050
 3735SOL     OW22840   3.951   0.142   3.356  0.2290 -0.2046 -0.2571
 3735SOL    HW122841   3.926   0.151   3.448  1.3109  1.2240 -0.0988
 3735SOL    HW222842   3.883   0.196   3.315 -0.0084  0.3350  0.8542
 3736SOL     OW22843   2.348   1.644  10.489  0.2658 -0.5371  0.4263
 3736SOL    HW122844   2.408   1.717  10.476  0.2798 -1.0493 -2.3466
 3736SOL    HW222845   2.284   1.671  10.555 -0.9396  0.5549 -1.1778
 3737SOL     OW22846   2.991   3.971   7.880 -0.2952 -0.1028  0.8540
 3737SOL    HW122847   3.063   3.930   7.928  0.8895  0.1649 -0.7138
 3737SOL    HW222848   2.969   3.894   7.827  1.4552  0.6443 -0.9532
 3738SOL     OW22849   2.390   0.617   9.981 -0.0516 -0.3489 -0.1171
 3738SOL    HW122850   2.326   0.583  10.042 -1.4169 -0.0579 -1.3875
 3738SOL    HW222851   2.421   0.533   9.946  0.0671 -0.7092  0.8545
 3739SOL     OW22852   4.429   2.366  17.367  0.7126  0.3007  0.3034
 3739SOL    HW122853   4.439   2.273  17.347  2.7976  0.5230  0.3680
 3739SOL    HW222854   4.364   2.384  17.298 -0.2751 -2.6288  0.4503
 3740SOL     OW22855   1.957   3.681   9.383 -0.2501  0.0757  0.3130
 3740SOL    HW122856   1.879   3.717   9.426  0.1496  0.0617  1.0693
 3740SOL    HW222857   1.982   3.596   9.418 -0.4025  0.4222  1.2794
 3741SOL     OW22858   1.148   0.545   3.067 -0.1561 -0.0872 -0.5106
 3741SOL    HW122859   1.242   0.560   3.057 -0.0807 -0.3586 -0.1916
 3741SOL    HW222860   1.117   0.625   3.026 -4.3153 -1.5277 -0.1727
 3742SOL     OW22861   4.459   2.564   3.796 -0.2391 -0.3625 -0.0185
 3742SOL    HW122862   4.490   2.645   3.756  3.4840 -0.7410  2.1040
 3742SOL    HW222863   4.412   2.523   3.724 -1.3053 -0.4197  0.6961
 3743SOL     OW22864   0.089   1.954   3.624 -0.5865  0.6750  0.4303
 3743SOL    HW122865   0.094   2.013   3.549  0.9042  0.3074  0.2509
 3743SOL    HW222866   0.071   2.019   3.692  1.3966  0.1887  1.4174
 3744SOL     OW22867   4.354   3.363   8.149  0.2234 -0.3977 -0.3495
 3744SOL    HW122868   4.319   3.411   8.075  0.9299 -1.4142 -1.3379
 3744SOL    HW222869   4.447   3.372   8.126  0.5900  1.5204  1.8489
 3745SOL     OW22870   3.222   0.433  14.922  0.4835 -0.2107 -0.4320
 3745SOL    HW122871   3.311   0.444  14.957  0.4422 -3.1429  0.6077
 3745SOL    HW222872   3.195   0.523  14.904  3.1255  0.5761 -0.6018
 3746SOL     OW22873   3.412   0.712  12.686 -0.1719  0.4176 -0.5484
 3746SOL    HW122874   3.420   0.776  12.615  0.1666  0.7233 -0.2394
 3746SOL    HW222875   3.321   0.684  12.689  0.2274 -0.8132 -0.0139
 3747SOL     OW22876   2.354   1.440   5.691  0.4029 -0.1805  0.1809
 3747SOL    HW122877   2.415   1.467   5.623 -0.3585  2.2216  0.4481
 3747SOL    HW222878   2.365   1.345   5.695  1.4971 -0.0745 -0.3422
 3748SOL     OW22879   3.989   0.762   6.028 -0.2616  0.5084 -0.3350
 3748SOL    HW122880   3.982   0.826   5.958  0.3188  0.1145 -0.7455
 3748SOL    HW222881   3.991   0.823   6.102 -2.9497  0.4579 -0.2056
 3749SOL     OW22882   4.293   0.306   2.143  0.1634  0.7937 -0.3775
 3749SOL    HW122883   4.368   0.271   2.094 -2.4567 -3.2558 -1.4454
 3749SOL    HW222884   4.227   0.251   2.101  0.2401  0.1436  0.3668
 3750SOL     OW22885   2.091   1.821   5.814 -0.2014 -0.2031  0.3222
 3750SOL    HW122886   2.173   1.867   5.835 -0.5662 -0.2452  1.8574
 3750SOL    HW222887   2.021   1.863   5.864  0.6527  0.0639  1.3013
 3751SOL     OW22888   3.244   3.816   3.438 -0.1146  0.6330 -0.8807
 3751SOL    HW122889   3.301   3.821   3.362 -0.3070  1.8924 -0.9357
 3751SOL    HW222890   3.225   3.723   3.448 -2.3915  1.0266 -1.5266
 3752SOL     OW22891   2.512   0.654   1.928 -0.4714  0.1751  0.5479
 3752SOL    HW122892   2.530   0.686   2.016 -2.8497  1.4467  0.5495
 3752SOL    HW222893   2.418   0.669   1.917 -0.5776  0.5155  2.0201
 3753SOL     OW22894   1.986   0.719   3.453  1.1637  0.1826  0.3904
 3753SOL    HW122895   1.933   0.647   3.486  1.0756  1.6328  3.3792
 3753SOL    HW222896   1.959   0.719   3.361  2.6282  1.2528 -0.0371
 3754SOL     OW22897   4.207   3.586   6.866  0.1640 -0.1585  0.4482
 3754SOL    HW122898   4.242   3.570   6.953 -1.2558  1.1890  1.2559
 3754SOL    HW222899   4.115   3.604   6.886  0.2913  0.4270  0.4943
 3755SOL     OW22900   0.902   1.370   9.106 -0.5232 -0.1750  0.2486
 3755SOL    HW122901   0.866   1.438   9.163 -1.6428 -0.4949 -0.0829
 3755SOL    HW222902   0.836   1.376   9.037 -2.4219  0.5339  2.1308
 3756SOL     OW22903   2.281   0.855   0.514  0.0022  0.5998 -0.0351
 3756SOL    HW122904   2.373   0.879   0.527 -0.6574  2.3078  1.5526
 3756SOL    HW222905   2.235   0.874   0.596  0.4187  0.1361  0.3062
 3757SOL     OW22906   4.366   0.913   6.909  0.0366 -0.0373 -0.8025
 3757SOL    HW122907   4.358   0.834   6.962 -0.0662 -1.2469 -2.6280
 3757SOL    HW222908   4.279   0.923   6.872  0.2546 -0.9563 -1.5784
 3758SOL     OW22909   1.785   1.954  12.547  0.6121  0.9682 -0.3778
 3758SOL    HW122910   1.874   1.918  12.552  0.0686 -0.1459  1.1848
 3758SOL    HW222911   1.783   1.951  12.451  0.9652  0.7885 -0.3832
 3759SOL     OW22912   1.677   3.637   7.078  0.3881  0.0252  0.5864
 3759SOL    HW122913   1.652   3.724   7.048 -1.1896 -0.0383  1.6855
 3759SOL    HW222914   1.632   3.584   7.013  3.0149 -0.3903 -0.8691
 3760SOL     OW22915   2.577   0.546   8.856  0.0482 -0.1798 -0.0473
 3760SOL    HW122916   2.513   0.483   8.889  0.6560 -0.1215  1.2671
 3760SOL    HW222917   2.633   0.562   8.933  1.1149 -0.8257 -0.6810
 3761SOL     OW22918   0.120   3.268   8.116 -0.0277  0.3353  0.5837
 3761SOL    HW122919   0.083   3.325   8.050  1.2612  2.2579  1.5287
 3761SOL    HW222920   0.210   3.248   8.090 -0.5154  1.0122 -1.5486
 3762SOL     OW22921   3.412   4.012   2.703  0.2299  0.0205  0.5346
 3762SOL    HW122922   3.491   4.064   2.692  0.6078 -0.9092 -1.0534
 3762SOL    HW222923   3.377   4.008   2.614 -0.4972  2.0631  0.7339
 3763SOL     OW22924   3.898   2.505   6.670  0.3705  1.1176  0.3448
 3763SOL    HW122925   3.892   2.451   6.749 -0.4620 -0.0861 -0.5482
 3763SOL    HW222926   3.820   2.558   6.682  0.2182  1.2998 -1.5564
 3764SOL     OW22927   0.808   0.219   8.495  0.3548  0.3588  0.3104
 3764SOL    HW122928   0.881   0.159   8.510 -0.0503  0.0554  1.0895
 3764SOL    HW222929   0.811   0.249   8.404 -3.0885  1.1733  0.4504
 3765SOL     OW22930   1.622   3.646  17.694 -0.2701  0.8225 -0.0750
 3765SOL    HW122931   1.711   3.664  17.665 -0.3686 -1.5286 -1.8567
 3765SOL    HW222932   1.569   3.693  17.630 -1.2851 -0.3150 -0.0799
 3766SOL     OW22933   0.008   2.398   9.973  0.2477 -0.2658  0.3074
 3766SOL    HW122934   0.041   2.406  10.063 -0.2544  0.9002  0.3783
 3766SOL    HW222935   4.680   2.468   9.974  1.0166  0.4262  1.4192
 3767SOL     OW22936   4.335   0.113   8.366 -0.1344  0.0118 -0.0326
 3767SOL    HW122937   4.389   0.187   8.394  0.3016  0.1778 -1.3485
 3767SOL    HW222938   4.401   0.051   8.335 -0.5539  0.6965 -2.2378
 3768SOL     OW22939   2.900   3.094   4.197  0.1804 -0.7376  0.6652
 3768SOL    HW122940   2.830   3.097   4.132 -0.5108 -0.1250  1.4191
 3768SOL    HW222941   2.880   3.176   4.244  1.6477 -1.9206  3.3722
 3769SOL     OW22942   3.402   4.394   4.930  0.0947  0.1023  0.2521
 3769SOL    HW122943   3.308   4.382   4.925  0.2619 -0.1687 -2.3847
 3769SOL    HW222944   3.422   4.302   4.911 -0.3575  0.5216 -2.1894
 3770SOL     OW22945   0.796   4.165   6.139 -0.3874  0.2844 -0.0538
 3770SOL    HW122946   0.764   4.081   6.173 -0.3667 -0.5392 -2.1029
 3770SOL    HW222947   0.713   4.192   6.098 -2.2364 -1.6706  2.3760
 3771SOL     OW22948   0.935   1.454  11.595 -0.0685  0.0543 -0.5219
 3771SOL    HW122949   0.850   1.420  11.624  0.2565 -0.5799 -0.3086
 3771SOL    HW222950   0.899   1.509  11.526  3.6934  3.2527  0.1218
 3772SOL     OW22951   4.519   2.396   6.073  0.0207  0.0114 -0.7542
 3772SOL    HW122952   4.451   2.455   6.104 -0.2043 -1.1252  0.9432
 3772SOL    HW222953   4.595   2.444   6.105  0.7977 -1.9311  0.2803
 3773SOL     OW22954   3.254   0.263  10.744 -0.4258 -0.0038  0.2026
 3773SOL    HW122955   3.233   0.351  10.711 -0.6545 -1.2309 -2.9189
 3773SOL    HW222956   3.331   0.290  10.794 -0.3847  0.6455 -0.2069
 3774SOL     OW22957   0.122   2.781  16.403 -0.2473 -0.1371  0.1898
 3774SOL    HW122958   0.116   2.688  16.382  0.8967 -0.0834 -0.3503
 3774SOL    HW222959   0.214   2.805  16.395 -0.1675 -1.1971 -2.0757
 3775SOL     OW22960   2.767   1.079  12.896 -0.0637 -0.0219  0.3399
 3775SOL    HW122961   2.759   1.162  12.848  1.7024 -0.4819 -0.7655
 3775SOL    HW222962   2.829   1.111  12.962 -1.5120  0.6243  1.3867
 3776SOL     OW22963   4.528   2.134   0.542  0.5153  0.5614 -0.0069
 3776SOL    HW122964   4.454   2.182   0.582 -1.1532 -0.4558 -1.8908
 3776SOL    HW222965   4.598   2.194   0.568  1.6284 -0.7450 -0.0289
 3777SOL     OW22966   0.749   0.757   4.358 -0.4334  0.1090 -0.2861
 3777SOL    HW122967   0.680   0.691   4.360 -1.8801  1.7010  2.4111
 3777SOL    HW222968   0.836   0.720   4.344 -0.6749 -1.0856  1.4793
 3778SOL     OW22969   4.710   3.171   3.841 -0.4043  0.3150  0.2969
 3778SOL    HW122970   0.051   3.116   3.852 -1.2334 -1.1038 -1.0353
 3778SOL    HW222971   4.734   3.251   3.889  2.7822 -0.1649 -0.4613
 3779SOL     OW22972   0.235   3.905   8.779  0.0682  0.1501 -0.3484
 3779SOL    HW122973   0.316   3.878   8.823 -1.6802 -3.0550  0.9087
 3779SOL    HW222974   0.260   3.987   8.737 -1.3331  0.2327 -1.0224
 3780SOL     OW22975   1.753   0.654   3.943 -0.1166 -0.2702 -0.3127
 3780SOL    HW122976   1.678   0.651   3.884  0.8236  0.4382 -1.5619
 3780SOL    HW222977   1.782   0.746   3.940 -1.1468 -0.0104 -2.3003
 3781SOL     OW22978   0.813   1.275   4.481 -0.2757  1.1304 -0.4517
 3781SOL    HW122979   0.906   1.259   4.470 -0.6318 -0.5786 -1.0004
 3781SOL    HW222980   0.785   1.262   4.390 -0.6112 -1.2889  0.0047
 3782SOL     OW22981   1.565   1.540  11.212 -0.6015 -0.2187  0.6386
 3782SOL    HW122982   1.594   1.631  11.220  0.8992 -0.5151 -1.3472
 3782SOL    HW222983   1.522   1.523  11.296  2.2127  0.8639  2.2944
 3783SOL     OW22984   1.925   2.811   6.254  0.2813 -0.3643 -0.0195
 3783SOL    HW122985   2.016   2.794   6.279  0.2670  0.4304  0.5649
 3783SOL    HW222986   1.934   2.809   6.158  2.8714 -1.6996  0.2363
 3784SOL     OW22987   3.532   3.595  16.003  0.2807 -0.6577  0.5422
 3784SOL    HW122988   3.474   3.671  16.005  1.5883  0.3653 -0.4501
 3784SOL    HW222989   3.590   3.611  15.928 -0.2218  0.3844  0.3731
 3785SOL     OW22990   0.539   0.814  13.465  0.2522 -0.2961 -0.5325
 3785SOL    HW122991   0.552   0.909  13.455 -2.6041  0.0850 -0.5371
 3785SOL    HW222992   0.488   0.817  13.384 -2.3220 -0.8114  1.0877
 3786SOL     OW22993   0.442   1.445  16.352 -0.4096  0.4286  0.1926
 3786SOL    HW122994   0.410   1.383  16.286  0.5215  0.2519 -0.0938
 3786SOL    HW222995   0.358   1.454  16.396 -0.9653  0.6508 -0.9150
 3787SOL     OW22996   2.832   3.365   5.819  0.3323 -0.9587 -0.1242
 3787SOL    HW122997   2.915   3.342   5.861 -0.4492  0.7856  2.3291
 3787SOL    HW222998   2.856   3.425   5.748  0.3664  0.4286  1.0674
 3788SOL     OW22999   1.711   2.772   4.384  0.1049 -0.1958 -0.2287
 3788SOL    HW123000   1.683   2.798   4.472 -0.6500 -0.9568 -0.2571
 3788SOL    HW223001   1.714   2.679   4.403 -0.3253 -0.7080 -2.6785
 3789SOL     OW23002   0.617   0.805   5.407 -0.1504 -0.2478  0.1309
 3789SOL    HW123003   0.545   0.846   5.454  0.4917  1.3375 -0.2766
 3789SOL    HW223004   0.593   0.712   5.414  1.1673 -0.5659  0.3103
 3790SOL     OW23005   4.590   2.021   3.238 -0.2402  0.4564 -0.2009
 3790SOL    HW123006   4.657   2.052   3.298  0.1109  0.8554 -0.8006
 3790SOL    HW223007   4.598   2.076   3.160  3.2539  0.7766  0.3686
 3791SOL     OW23008   4.643   0.632   5.300 -0.2505  0.0096  0.1498
 3791SOL    HW123009   4.638   0.609   5.207 -0.8776  1.1104 -0.0924
 3791SOL    HW223010   4.568   0.586   5.338 -1.1884  1.4576  0.0385
 3792SOL     OW23011   2.173   2.866  16.779  0.4939  0.2305 -0.2186
 3792SOL    HW123012   2.182   2.774  16.752 -0.9437  0.2679 -0.8271
 3792SOL    HW223013   2.078   2.876  16.776  0.2703 -1.2097  2.1511
 3793SOL     OW23014   3.770   2.338   2.203  0.7164 -0.0431 -0.4138
 3793SOL    HW123015   3.702   2.272   2.218  1.7709 -1.1579 -0.5428
 3793SOL    HW223016   3.741   2.370   2.117 -0.3073  1.2850  0.4279
 3794SOL     OW23017   0.652   2.410   3.233  0.1961 -0.3428  0.1563
 3794SOL    HW123018   0.658   2.450   3.146 -0.5602  1.3336  0.8793
 3794SOL    HW223019   0.739   2.370   3.238  0.4169  0.4061  2.0545
 3795SOL     OW23020   4.103   0.880   4.666  0.3436  0.3385  0.0672
 3795SOL    HW123021   4.059   0.829   4.734 -0.5613  0.6486 -0.2840
 3795SOL    HW223022   4.150   0.939   4.726 -0.2662 -0.6425  1.4954
 3796SOL     OW23023   1.244   4.655   4.248  0.0514 -0.2390  0.8525
 3796SOL    HW123024   1.199   4.595   4.308 -0.9357  0.8598  1.2133
 3796SOL    HW223025   1.267   4.726   4.308 -0.2008  1.4653 -1.0599
 3797SOL     OW23026   1.127   1.854   8.436 -0.1830  0.0003  0.1827
 3797SOL    HW123027   1.072   1.775   8.437 -0.3278  0.1026  0.2110
 3797SOL    HW223028   1.074   1.909   8.377  1.7424 -0.4718 -1.9988
 3798SOL     OW23029   3.449   0.625   0.922 -0.5256  0.0955 -0.8119
 3798SOL    HW123030   3.466   0.685   0.849 -0.5779  0.4020 -0.5743
 3798SOL    HW223031   3.465   0.686   0.994  0.5442 -1.0100 -0.1241
 3799SOL     OW23032   2.146   2.730   7.164  0.4549  0.2169  0.6104
 3799SOL    HW123033   2.242   2.736   7.158  0.4953  1.1441  2.1950
 3799SOL    HW223034   2.128   2.654   7.108 -1.8317 -1.3058  3.4489
 3800SOL     OW23035   2.750   4.408   6.168  0.0345 -0.1346  0.2151
 3800SOL    HW123036   2.687   4.373   6.232 -0.6006  0.1000 -0.2850
 3800SOL    HW223037   2.830   4.362   6.197 -0.4990 -1.0298  0.2841
 3801SOL     OW23038   2.231   3.868   4.541  0.3846  0.5466  0.1071
 3801SOL    HW123039   2.143   3.878   4.504 -0.0616  0.1495  1.0704
 3801SOL    HW223040   2.276   3.919   4.474  0.6629 -1.6698 -1.3608
 3802SOL     OW23041   2.029   2.957   9.089  0.1493  0.2191 -0.0596
 3802SOL    HW123042   1.991   3.045   9.084 -1.8294 -0.6006  0.6208
 3802SOL    HW223043   2.119   2.991   9.097 -0.4716  1.2696  2.6684
 3803SOL     OW23044   3.718   1.939  11.110 -0.2830 -0.1438 -0.0685
 3803SOL    HW123045   3.715   1.927  11.205  0.9604 -1.6694 -0.2103
 3803SOL    HW223046   3.645   1.999  11.097 -1.3118 -1.8078 -1.9739
 3804SOL     OW23047   2.434   2.227   7.218  0.0658 -0.0160 -0.1629
 3804SOL    HW123048   2.379   2.187   7.285  0.8809 -0.0030  0.5240
 3804SOL    HW223049   2.425   2.317   7.250  2.1231  0.6452 -1.4524
 3805SOL     OW23050   0.477   2.399   6.723 -0.6618 -0.1198 -0.4731
 3805SOL    HW123051   0.394   2.416   6.679 -0.8478 -0.9943 -0.4585
 3805SOL    HW223052   0.526   2.344   6.661  3.9618  2.3132  1.0041
 3806SOL     OW23053   0.209   1.192   5.415 -0.2456 -0.0787 -0.4079
 3806SOL    HW123054   0.249   1.237   5.340  0.2653  2.2199  1.2326
 3806SOL    HW223055   0.270   1.119   5.413  0.9567  0.9049  0.1126
 3807SOL     OW23056   2.982   2.143   7.091  0.5351 -0.5009 -0.3344
 3807SOL    HW123057   3.013   2.133   7.181 -1.1485  1.0585  0.4131
 3807SOL    HW223058   3.009   2.230   7.061 -2.7365  0.6480  0.0419
 3808SOL     OW23059   0.719   2.469  15.729  0.1111  0.7525  0.3859
 3808SOL    HW123060   0.639   2.474  15.782  0.1988 -2.9752  0.8980
 3808SOL    HW223061   0.780   2.445  15.799  1.1067 -0.3649 -0.8750
 3809SOL     OW23062   4.073   0.531   4.963 -0.2160 -0.1371 -0.2919
 3809SOL    HW123063   4.158   0.501   4.932  0.7312  1.5124  0.7313
 3809SOL    HW223064   4.090   0.563   5.051  0.5719 -0.1530 -0.4377
 3810SOL     OW23065   1.480   2.913   6.643  0.5492  0.5391 -0.5386
 3810SOL    HW123066   1.429   2.994   6.637 -0.1872  0.0915 -0.3468
 3810SOL    HW223067   1.478   2.896   6.737 -1.6344  1.2205 -0.4526
 3811SOL     OW23068   0.383   0.321   8.787 -0.7851  0.0488 -0.3987
 3811SOL    HW123069   0.349   0.232   8.778 -2.3145  0.5562  0.4654
 3811SOL    HW223070   0.466   0.312   8.740 -0.7388  0.8966 -0.4788
 3812SOL     OW23071   0.401   2.058  15.227 -0.0695 -0.2182  0.4739
 3812SOL    HW123072   0.339   1.994  15.263  0.3499 -0.4199  0.8307
 3812SOL    HW223073   0.379   2.032  15.137  0.5024  0.0722  0.2527
 3813SOL     OW23074   3.396   1.094  11.251  0.1307 -0.1595 -1.0259
 3813SOL    HW123075   3.353   1.179  11.239 -0.2409 -0.0221  1.1899
 3813SOL    HW223076   3.351   1.044  11.183  2.5914 -1.9106 -1.3821
 3814SOL     OW23077   4.579   1.373   7.226  0.3529 -0.3096 -0.1809
 3814SOL    HW123078   4.674   1.384   7.222  0.3596  0.1678  1.2392
 3814SOL    HW223079   4.538   1.414   7.150  1.3493  1.0291  0.0000
 3815SOL     OW23080   0.721   0.705   1.870 -0.5084 -0.2764 -0.0713
 3815SOL    HW123081   0.763   0.668   1.793 -0.3048  0.2222 -0.1969
 3815SOL    HW223082   0.680   0.785   1.836 -0.0706 -0.0871 -0.1476
 3816SOL     OW23083   3.920   1.906   5.676  0.5961 -0.1404  0.6836
 3816SOL    HW123084   3.994   1.908   5.737  1.3559 -1.1933 -0.2182
 3816SOL    HW223085   3.948   1.833   5.621 -1.4078  0.2351 -0.8415
 3817SOL     OW23086   1.921   3.485  11.486  0.1138 -0.0095 -0.3974
 3817SOL    HW123087   1.864   3.484  11.409  1.2802 -0.2149 -1.2733
 3817SOL    HW223088   1.977   3.562  11.474  0.1885  0.0903  0.6200
 3818SOL     OW23089   0.825   3.747   5.367 -0.5957 -0.6565  0.8340
 3818SOL    HW123090   0.896   3.764   5.429  0.1045 -2.5916  0.5400
 3818SOL    HW223091   0.769   3.692   5.420 -1.6140  1.7674  2.2854
 3819SOL     OW23092   1.856   3.460   1.931 -0.2255  0.1632 -0.3570
 3819SOL    HW123093   1.799   3.409   1.987  0.4267  1.2221  1.2721
 3819SOL    HW223094   1.919   3.391   1.908 -1.3277 -1.5525  1.8220
 3820SOL     OW23095   4.318   4.172   2.442 -0.2175 -0.1737  0.2640
 3820SOL    HW123096   4.301   4.265   2.453  0.1475  0.0517 -1.0398
 3820SOL    HW223097   4.358   4.149   2.525  0.4236  0.4408  0.1212
 3821SOL     OW23098   3.012   2.714   8.873  0.0162 -0.0307  0.4059
 3821SOL    HW123099   2.960   2.677   8.944  0.3740 -1.6151 -0.1620
 3821SOL    HW223100   3.042   2.638   8.823  1.6745  0.4838  0.5926
 3822SOL     OW23101   0.290   3.414   4.816 -0.2887  0.2562 -0.3513
 3822SOL    HW123102   0.381   3.438   4.836  0.0324  0.8523 -2.4625
 3822SOL    HW223103   0.261   3.502   4.790 -0.0825  0.5099  0.2967
 3823SOL     OW23104   2.229   0.240   9.913 -0.5446 -0.1225  0.1538
 3823SOL    HW123105   2.311   0.285   9.892 -1.0269  0.5884 -0.1999
 3823SOL    HW223106   2.249   0.160   9.961  0.9796  1.5114  2.2608
 3824SOL     OW23107   2.753   0.894   0.951  0.0290  0.0491  0.7378
 3824SOL    HW123108   2.683   0.954   0.923  0.5273  0.8933  1.2902
 3824SOL    HW223109   2.706   0.812   0.935 -0.3221  0.5159 -0.6914
 3825SOL     OW23110   0.259   2.195   6.990 -0.0353 -0.0589 -0.2791
 3825SOL    HW123111   0.328   2.145   7.034  0.5649  0.8332 -0.2178
 3825SOL    HW223112   0.283   2.286   7.004 -2.7097  0.5522  0.4323
 3826SOL     OW23113   3.196   2.677  13.680 -0.3905  0.3367  0.3283
 3826SOL    HW123114   3.268   2.646  13.735  0.4135  0.1182 -0.8485
 3826SOL    HW223115   3.231   2.642  13.598 -0.6479 -0.3220  0.4974
 3827SOL     OW23116   3.742   3.406   5.965 -0.5444 -0.4644  0.6845
 3827SOL    HW123117   3.668   3.372   6.014  0.0726 -0.4420  1.6287
 3827SOL    HW223118   3.730   3.500   5.979  1.5192 -0.1364  0.3403
 3828SOL     OW23119   3.206   2.883   5.929  0.3787 -0.3002  0.7897
 3828SOL    HW123120   3.254   2.802   5.943  0.1219 -1.1554 -3.3101
 3828SOL    HW223121   3.132   2.857   5.874  1.2845  1.7227 -1.3690
 3829SOL     OW23122   3.774   1.924   8.515  0.2747 -0.4921 -0.2225
 3829SOL    HW123123   3.719   2.002   8.503 -0.2962 -1.0513 -1.2495
 3829SOL    HW223124   3.754   1.892   8.427  0.0628 -1.9353  0.3559
 3830SOL     OW23125   1.648   1.430  10.014 -0.5480 -0.3796 -0.0902
 3830SOL    HW123126   1.596   1.351  10.005 -1.5028  0.1230  0.9647
 3830SOL    HW223127   1.663   1.440  10.108 -1.2662 -1.0760  0.0969
 3831SOL     OW23128   1.414   1.464   5.161 -0.1730 -0.3212  0.1779
 3831SOL    HW123129   1.358   1.386   5.170 -1.4962  0.5679 -0.2834
 3831SOL    HW223130   1.347   1.527   5.134  1.2108  0.8038 -0.6039
 3832SOL     OW23131   0.935   3.447   2.715  0.1430 -0.2163  0.4396
 3832SOL    HW123132   0.969   3.502   2.645 -1.4035  0.5719  0.3081
 3832SOL    HW223133   0.998   3.375   2.710 -0.6233 -0.7549 -1.4589
 3833SOL     OW23134   3.148   2.792  14.723  0.2434 -0.6172 -0.2855
 3833SOL    HW123135   3.083   2.760  14.785 -1.0073  0.6670 -0.9560
 3833SOL    HW223136   3.128   2.747  14.641  0.4716 -1.1911 -0.0301
 3834SOL     OW23137   3.872   3.125   7.088 -0.4897 -0.1035 -0.1192
 3834SOL    HW123138   3.923   3.044   7.092 -1.3102 -0.5532  1.4667
 3834SOL    HW223139   3.859   3.141   7.181  2.4322  0.7133  0.1520
 3835SOL     OW23140   2.591   3.112   5.999 -0.2241  0.0881  0.1027
 3835SOL    HW123141   2.557   3.186   6.049  0.1027  0.1476  0.2365
 3835SOL    HW223142   2.597   3.045   6.067 -1.0962 -0.6873 -0.5916
 3836SOL     OW23143   1.643   0.951   5.047  0.4738  0.2786  0.6155
 3836SOL    HW123144   1.708   0.996   5.101  1.5595  0.9298 -1.2314
 3836SOL    HW223145   1.567   0.967   5.102  1.2460  2.1197  1.1434
 3837SOL     OW23146   0.975   2.986   2.772 -0.2436 -0.0779 -0.1706
 3837SOL    HW123147   1.014   3.054   2.717 -0.4509  0.6125  0.5308
 3837SOL    HW223148   0.986   3.026   2.858 -0.1468 -1.8734  0.6525
 3838SOL     OW23149   2.555   4.462   7.022  0.6923 -0.3720 -0.5979
 3838SOL    HW123150   2.469   4.474   6.981  0.7840 -0.5773 -0.8500
 3838SOL    HW223151   2.608   4.533   6.986  0.4753 -1.5834 -3.3621
 3839SOL     OW23152   3.953   0.807   4.919  0.0212  0.3770 -0.7986
 3839SOL    HW123153   3.893   0.747   4.964 -0.9968  2.4870  0.6476
 3839SOL    HW223154   4.037   0.760   4.928 -0.6432 -0.7016 -0.1678
 3840SOL     OW23155   1.724   1.187   4.039 -0.6517 -0.2999  0.2149
 3840SOL    HW123156   1.784   1.212   4.108 -0.6278  2.4537 -0.7988
 3840SOL    HW223157   1.735   1.264   3.983 -1.5615 -0.6278 -0.4291
 3841SOL     OW23158   1.976   2.081   9.556  0.6888 -0.1622  0.3657
 3841SOL    HW123159   2.055   2.131   9.534  0.2224 -0.1776 -1.2991
 3841SOL    HW223160   1.904   2.141   9.537  0.9395  0.3777  1.1151
 3842SOL     OW23161   1.316   1.309   3.669 -0.6823 -0.1614 -0.1065
 3842SOL    HW123162   1.241   1.368   3.679 -0.9666  0.0642 -3.7580
 3842SOL    HW223163   1.367   1.363   3.609  0.6292 -0.3435  0.8418
 3843SOL     OW23164   0.430   2.567  12.744 -0.2413 -0.0781 -0.0923
 3843SOL    HW123165   0.402   2.658  12.749 -2.0502 -0.6420 -0.0655
 3843SOL    HW223166   0.522   2.586  12.725 -0.5477  0.8170 -0.6848
 3844SOL     OW23167   1.101   3.718   3.233  0.6497  0.7625 -0.3346
 3844SOL    HW123168   1.151   3.784   3.281  2.3631  0.7932 -2.1726
 3844SOL    HW223169   1.170   3.681   3.179 -0.0445  0.5218 -1.0543
 3845SOL     OW23170   4.019   4.452  10.785 -0.0013  0.3130  0.1870
 3845SOL    HW123171   3.951   4.457  10.853 -4.4062 -2.1763 -3.9937
 3845SOL    HW223172   4.089   4.505  10.823 -2.2730  1.5143  2.7345
 3846SOL     OW23173   1.002   4.396   3.260  0.9651 -0.7313 -0.8815
 3846SOL    HW123174   0.957   4.463   3.311 -1.4739 -2.5712 -0.6548
 3846SOL    HW223175   1.016   4.452   3.184 -1.7548  1.8480  0.5282
 3847SOL     OW23176   1.730   3.778   4.943  0.1328  0.0432  0.2026
 3847SOL    HW123177   1.686   3.735   4.869  1.7608  0.5952 -1.0786
 3847SOL    HW223178   1.708   3.868   4.917  1.7854  0.8092  1.4994
 3848SOL     OW23179   3.567   4.145   3.965  0.0557  0.0170  0.5905
 3848SOL    HW123180   3.591   4.059   3.930  1.6010  0.8631 -0.3641
 3848SOL    HW223181   3.571   4.199   3.887 -1.3259 -0.4766  0.1712
 3849SOL     OW23182   4.197   1.657   5.026 -0.1794 -0.4727 -0.0150
 3849SOL    HW123183   4.212   1.563   5.037 -0.8316 -0.8691 -2.5765
 3849SOL    HW223184   4.242   1.665   4.942  1.9231 -0.3051  1.1197
 3850SOL     OW23185   2.616   0.107   7.682  0.4243 -0.5073  0.0763
 3850SOL    HW123186   2.671   0.036   7.650  1.1080 -0.6390  1.5156
 3850SOL    HW223187   2.648   0.181   7.631  0.0861  0.6119  1.4855
 3851SOL     OW23188   4.074   1.863  15.515 -0.0173  0.2509 -0.0135
 3851SOL    HW123189   3.989   1.899  15.487  1.4280  1.8882 -2.3203
 3851SOL    HW223190   4.057   1.792  15.577 -0.1084  1.1341  0.9594
 3852SOL     OW23191   3.304   4.361   5.578  0.1047  0.3192  0.2896
 3852SOL    HW123192   3.391   4.366   5.617  1.0145 -0.4727 -1.6500
 3852SOL    HW223193   3.320   4.372   5.484  0.5994 -0.1641  0.3207
 3853SOL     OW23194   3.930   3.062   6.567 -0.5330 -0.9676 -0.4190
 3853SOL    HW123195   4.024   3.075   6.583 -0.8175  0.0378  0.4817
 3853SOL    HW223196   3.887   3.144   6.594  1.5640 -0.0890  0.2289
 3854SOL     OW23197   4.033   0.161   2.946  0.0722  0.0661  0.6380
 3854SOL    HW123198   4.064   0.249   2.966  0.1165 -0.1752  1.6506
 3854SOL    HW223199   4.086   0.131   2.872 -1.7431 -1.7246  0.0420
 3855SOL     OW23200   0.151   0.242  11.283 -0.2457 -0.0164  0.2243
 3855SOL    HW123201   0.162   0.171  11.345  0.2190 -0.7290 -0.6829
 3855SOL    HW223202   0.177   0.323  11.327  1.9825 -0.9424  0.5692
 3856SOL     OW23203   3.682   1.460   9.142 -0.1430 -0.4374  0.1755
 3856SOL    HW123204   3.644   1.408   9.071  0.2967 -0.5318  0.0119
 3856SOL    HW223205   3.713   1.389   9.197 -1.0261 -1.2149 -0.3327
 3857SOL     OW23206   3.659   0.995   6.396 -0.1886  0.2621  0.1730
 3857SOL    HW123207   3.593   1.007   6.328  0.4495  2.2409 -0.1008
 3857SOL    HW223208   3.728   1.052   6.361  0.1590 -0.1221  0.2389
 3858SOL     OW23209   4.217   3.762  16.468  0.0392 -0.3959 -0.0893
 3858SOL    HW123210   4.210   3.853  16.441  2.0543 -0.3151 -0.3482
 3858SOL    HW223211   4.230   3.766  16.562 -1.8422  0.4566  0.1205
 3859SOL     OW23212   3.745   4.000   1.774  0.0730  0.1619 -0.1048
 3859SOL    HW123213   3.720   4.019   1.684 -2.1485  0.8056  0.6384
 3859SOL    HW223214   3.661   3.967   1.807  0.6547 -0.1214  1.0752
 3860SOL     OW23215   4.592   1.338   5.270 -0.5479 -0.6084  0.1856
 3860SOL    HW123216   4.618   1.306   5.184  0.2299 -2.1135  0.9929
 3860SOL    HW223217   4.625   1.428   5.271 -1.0372 -0.3757 -2.4513
 3861SOL     OW23218   0.761   0.776   6.985 -0.5068  0.5424  0.7482
 3861SOL    HW123219   0.742   0.793   6.893 -0.6823 -0.2996  0.6337
 3861SOL    HW223220   0.699   0.836   7.026 -2.1142 -0.4263 -0.2737
 3862SOL     OW23221   3.013   0.690  13.832 -0.1354  0.2034  0.0469
 3862SOL    HW123222   3.036   0.601  13.859  1.3478  0.8482  0.8973
 3862SOL    HW223223   3.073   0.747  13.879 -1.9851 -0.5614  3.3470
 3863SOL     OW23224   0.852   2.631   9.366  0.0004  1.0069 -0.0776
 3863SOL    HW123225   0.923   2.673   9.318  0.0732  0.1110 -0.7416
 3863SOL    HW223226   0.802   2.706   9.400 -2.0706 -0.4613  0.1075
 3864SOL     OW23227   1.434   4.322  13.384 -1.0703  0.2589 -0.4104
 3864SOL    HW123228   1.498   4.303  13.453 -1.3318 -0.1847 -0.2889
 3864SOL    HW223229   1.412   4.235  13.350  3.0296 -1.3626  1.0114
 3865SOL     OW23230   1.066   0.402  15.496  0.1581 -0.5535 -0.1306
 3865SOL    HW123231   1.011   0.351  15.435  0.9514 -0.6652 -0.7495
 3865SOL    HW223232   1.133   0.340  15.522  1.1383  1.2756  1.6771
 3866SOL     OW23233   3.912   3.554  17.126 -0.3409  0.8065 -0.0802
 3866SOL    HW123234   3.866   3.607  17.191 -1.6000 -0.2176 -0.1141
 3866SOL    HW223235   3.879   3.584  17.042  0.3927  0.6224 -0.4325
 3867SOL     OW23236   1.866   0.584   8.169  0.1154 -0.1275  0.4295
 3867SOL    HW123237   1.828   0.670   8.154  0.6836  0.5523  2.8174
 3867SOL    HW223238   1.958   0.604   8.152  0.4459  0.1180  2.5303
 3868SOL     OW23239   3.667   3.652   6.055 -0.0303 -0.1003  0.2455
 3868SOL    HW123240   3.590   3.695   6.091 -0.5495 -0.1606 -0.7970
 3868SOL    HW223241   3.729   3.656   6.128 -0.0962 -1.3449  0.3719
 3869SOL     OW23242   3.129   0.893   6.294 -0.5039  0.3242 -0.4885
 3869SOL    HW123243   3.121   0.982   6.329 -0.7797  0.6350 -1.3625
 3869SOL    HW223244   3.193   0.906   6.225  1.7020  1.4464  1.7503
 3870SOL     OW23245   0.939   4.204   1.525  0.3688  0.7124  0.1916
 3870SOL    HW123246   0.997   4.134   1.554 -1.0285 -0.1159  0.9768
 3870SOL    HW223247   0.993   4.234   1.452  0.5496  0.0335  0.0479
 3871SOL     OW23248   1.966   0.708   7.386 -0.1575 -0.4129  0.1223
 3871SOL    HW123249   1.920   0.635   7.345  0.3237 -1.6937  1.8440
 3871SOL    HW223250   1.928   0.776   7.332  1.4705 -0.5541 -1.2045
 3872SOL     OW23251   3.209   2.068   4.483  0.1189 -0.5880 -0.2830
 3872SOL    HW123252   3.155   2.065   4.404 -0.9105  0.9508  0.3496
 3872SOL    HW223253   3.180   2.153   4.518 -1.1112 -1.6576  1.3205
 3873SOL     OW23254   0.249   2.149   8.397 -0.1758  0.8586  0.3674
 3873SOL    HW123255   0.211   2.235   8.376 -1.6636 -0.0655 -0.7697
 3873SOL    HW223256   0.340   2.178   8.393  1.6049 -4.8220  0.3564
 3874SOL     OW23257   2.256   1.508   7.968  0.2998  0.1189 -0.2709
 3874SOL    HW123258   2.246   1.536   7.877  0.8304  2.0758  0.2929
 3874SOL    HW223259   2.351   1.520   7.975  0.4604 -1.6571  0.6782
 3875SOL     OW23260   4.574   2.183   6.309  0.3863 -0.0530  0.1143
 3875SOL    HW123261   4.544   2.206   6.221  0.2304  1.7825  0.6455
 3875SOL    HW223262   4.548   2.092   6.310 -3.3131  1.0172 -0.3406
 3876SOL     OW23263   2.720   2.305  15.843  0.4749  0.1669  0.1716
 3876SOL    HW123264   2.770   2.386  15.856  0.2898  0.0268  1.7418
 3876SOL    HW223265   2.727   2.272  15.933  0.1522 -1.8290 -0.5393
 3877SOL     OW23266   1.607   0.067   4.170 -0.2608  0.0388 -0.1055
 3877SOL    HW123267   1.640   0.142   4.120 -1.6799  0.4712 -0.4219
 3877SOL    HW223268   1.558   0.011   4.110 -1.3836 -0.6069  1.4152
 3878SOL     OW23269   1.763   4.334   4.263 -0.0230 -0.1118 -0.3370
 3878SOL    HW123270   1.721   4.399   4.319  0.4485  0.1472 -0.2868
 3878SOL    HW223271   1.821   4.396   4.220  2.0918 -0.7399  1.6741
 3879SOL     OW23272   1.116   1.568   2.296  0.0348  0.4256 -0.1660
 3879SOL    HW123273   1.193   1.513   2.307  1.5552  2.7330  0.8752
 3879SOL    HW223274   1.077   1.561   2.383 -0.9663 -2.6203 -0.8612
 3880SOL     OW23275   0.237   1.426  12.243 -0.1498 -0.4844  0.0870
 3880SOL    HW123276   0.239   1.469  12.329 -0.1063  0.6155 -0.4753
 3880SOL    HW223277   0.289   1.347  12.260  0.6111 -0.4081 -1.8962
 3881SOL     OW23278   0.950   4.607   6.716  0.1026 -0.2796 -0.7505
 3881SOL    HW123279   0.926   4.579   6.805  0.9077  0.1034 -0.4062
 3881SOL    HW223280   0.889   4.681   6.710  2.8765  1.9708 -1.0728
 3882SOL     OW23281   1.943   3.986   7.270 -0.4960 -0.0793  0.7041
 3882SOL    HW123282   2.003   3.922   7.231 -2.9477 -1.5621 -0.6346
 3882SOL    HW223283   1.921   3.938   7.350 -2.6013  1.1742  0.8717
 3883SOL     OW23284   1.364   3.408   2.323  0.6190  0.1738  0.1381
 3883SOL    HW123285   1.416   3.419   2.244 -0.2807 -1.5871 -0.6908
 3883SOL    HW223286   1.313   3.330   2.302  0.2208  0.7069 -0.8626
 3884SOL     OW23287   2.092   4.130   1.740  0.1837 -0.5393  0.1370
 3884SOL    HW123288   2.015   4.105   1.791 -0.1304  2.1085  0.9627
 3884SOL    HW223289   2.144   4.049   1.739 -0.4318 -0.9665  1.8408
 3885SOL     OW23290   2.306   0.752   1.401 -0.0787 -0.0456  0.0306
 3885SOL    HW123291   2.257   0.828   1.369  1.1151 -0.0855 -1.8803
 3885SOL    HW223292   2.388   0.752   1.352  0.3593 -3.0273  0.7591
 3886SOL     OW23293   3.643   2.889  16.734  0.3332  0.3374 -0.1546
 3886SOL    HW123294   3.586   2.947  16.683 -0.3985  0.8578  1.2596
 3886SOL    HW223295   3.723   2.940  16.723  1.2135 -0.5393  2.1877
 3887SOL     OW23296   3.873   1.998   6.914  0.5718 -0.3936  0.1225
 3887SOL    HW123297   3.780   2.019   6.902  0.5143 -0.1899  0.9279
 3887SOL    HW223298   3.921   2.047   6.847  0.3464 -2.1355 -1.3099
 3888SOL     OW23299   1.429   2.448   5.002 -0.1733  0.1713  0.7417
 3888SOL    HW123300   1.339   2.480   5.007  0.1954  1.0718  1.7102
 3888SOL    HW223301   1.427   2.360   5.041 -2.9779 -0.1604 -0.1677
 3889SOL     OW23302   2.266   3.590  16.001  0.0783  0.0535 -0.8112
 3889SOL    HW123303   2.219   3.573  16.082  2.0164 -1.6446 -0.0711
 3889SOL    HW223304   2.306   3.677  16.013  1.7686 -0.5540 -2.0087
 3890SOL     OW23305   0.758   2.251   2.875 -0.2321  0.3151 -0.1813
 3890SOL    HW123306   0.761   2.341   2.843 -1.7102  0.1294 -0.8408
 3890SOL    HW223307   0.666   2.235   2.896  0.6500 -2.9637  1.2581
 3891SOL     OW23308   2.838   3.735   2.467 -0.4196 -0.2173 -0.6580
 3891SOL    HW123309   2.807   3.707   2.553 -0.3019 -2.2047 -1.2676
 3891SOL    HW223310   2.804   3.825   2.470 -0.9019 -0.4285  0.5425
 3892SOL     OW23311   2.480   1.055   5.148 -0.2820  0.1503  0.1367
 3892SOL    HW123312   2.477   1.005   5.066  2.3866 -1.3831  0.9768
 3892SOL    HW223313   2.438   0.991   5.206  0.2062 -0.0534  0.2644
 3893SOL     OW23314   1.478   3.844   8.481 -0.1598  0.0215  0.4078
 3893SOL    HW123315   1.519   3.894   8.551  1.3239 -3.4596  2.0141
 3893SOL    HW223316   1.399   3.802   8.514 -0.5197 -0.5328 -1.1315
 3894SOL     OW23317   1.886   0.473   3.236  0.0953 -0.1937 -0.2449
 3894SOL    HW123318   1.857   0.382   3.230  1.4643 -0.7811  1.9830
 3894SOL    HW223319   1.951   0.470   3.166  2.2823  0.2465  1.7719
 3895SOL     OW23320   3.405   3.098   2.943  0.0480  0.2735  0.0799
 3895SOL    HW123321   3.477   3.035   2.939 -0.0199  0.2795 -1.2623
 3895SOL    HW223322   3.345   3.051   3.001  1.5993 -2.5416 -0.5837
 3896SOL     OW23323   4.294   3.685  14.560 -0.2555 -0.7236 -0.0739
 3896SOL    HW123324   4.272   3.766  14.606  2.8864 -0.1750  0.4485
 3896SOL    HW223325   4.369   3.711  14.506 -1.1779  2.6811  0.3215
 3897SOL     OW23326   2.163   2.071   5.483 -0.4213  0.1576 -0.4719
 3897SOL    HW123327   2.159   1.992   5.429  0.2770  1.7999 -2.9053
 3897SOL    HW223328   2.134   2.140   5.423 -2.5531  1.9617  2.6325
 3898SOL     OW23329   3.547   0.980   4.412  0.7451  0.7448 -0.4304
 3898SOL    HW123330   3.606   0.912   4.379  0.0485 -0.3000  0.4624
 3898SOL    HW223331   3.600   1.035   4.470  1.6203  0.3008 -0.8182
 3899SOL     OW23332   3.835   0.240   7.886 -0.4632 -0.0478  0.1140
 3899SOL    HW123333   3.810   0.328   7.860  2.3084 -0.0928 -2.8472
 3899SOL    HW223334   3.912   0.233   7.828 -1.8923  3.2733 -2.1493
 3900SOL     OW23335   2.893   2.897   0.459  0.0941 -0.6703 -0.3493
 3900SOL    HW123336   2.971   2.953   0.454  1.2499 -2.1834  0.9643
 3900SOL    HW223337   2.884   2.871   0.367  0.3757  1.8176 -1.0967
 3901SOL     OW23338   3.052   3.610   5.913  0.5533  0.1484  0.2606
 3901SOL    HW123339   2.998   3.531   5.903  1.3011 -0.3251 -0.0836
 3901SOL    HW223340   3.004   3.666   5.853 -0.4392  1.0795  1.9158
 3902SOL     OW23341   4.718   2.194   5.795  0.2401  0.8755 -0.1900
 3902SOL    HW123342   4.649   2.229   5.740  1.3887  0.6294 -1.7946
 3902SOL    HW223343   0.042   2.266   5.812  0.2352  0.7895  0.1924
 3903SOL     OW23344   0.284   4.666   3.706  0.2721  0.6790  0.3585
 3903SOL    HW123345   0.329   4.691   3.625  0.7671  0.3637  0.5340
 3903SOL    HW223346   0.204   4.632   3.667 -1.6551  0.8907  4.0843
 3904SOL     OW23347   1.785   1.769  11.399  0.2130 -0.2685  0.0124
 3904SOL    HW123348   1.752   1.718  11.473  2.2722 -0.9468  0.4683
 3904SOL    HW223349   1.879   1.778  11.412  0.3399  0.9247 -1.8077
 3905SOL     OW23350   2.884   2.536   7.642 -0.6110 -0.4930  0.8680
 3905SOL    HW123351   2.896   2.461   7.583 -1.8105 -0.7747  0.9953
 3905SOL    HW223352   2.923   2.612   7.599 -0.5934  0.2482  2.1955
 3906SOL     OW23353   3.148   2.316   9.243 -0.4272 -0.1284 -0.0487
 3906SOL    HW123354   3.156   2.319   9.147 -0.8038 -2.5320 -0.1604
 3906SOL    HW223355   3.233   2.344   9.277 -1.1438 -1.2520  2.6854
 3907SOL     OW23356   4.698   2.176  13.460  0.2884  0.3105  0.1942
 3907SOL    HW123357   0.048   2.139  13.447  0.2349  0.5928 -0.9730
 3907SOL    HW223358   4.713   2.260  13.417  3.2272 -0.0786  0.4744
 3908SOL     OW23359   0.711   4.133   1.666 -0.2973  0.2742  0.5527
 3908SOL    HW123360   0.783   4.176   1.621 -1.0738 -0.0492 -0.9944
 3908SOL    HW223361   0.648   4.204   1.680 -0.5041  0.2941 -0.4611
 3909SOL     OW23362   0.398   1.911   0.131  0.2964  0.0997  0.0954
 3909SOL    HW123363   0.441   1.864   0.202  0.4733  1.4369  0.8678
 3909SOL    HW223364   0.453   1.883   0.057 -0.3714  2.2323 -1.1924
 3910SOL     OW23365   4.120   0.274   5.130 -0.0772 -0.2391 -0.7368
 3910SOL    HW123366   4.168   0.315   5.058  2.2593 -0.4712  0.6550
 3910SOL    HW223367   4.041   0.327   5.120  0.1577  0.4376  0.9416
 3911SOL     OW23368   0.110   1.313   7.425  0.2819  0.0488 -0.0364
 3911SOL    HW123369   0.179   1.251   7.450 -0.5371 -0.1416  1.7868
 3911SOL    HW223370   0.143   1.370   7.356 -2.8373  2.3201  0.3803
 3912SOL     OW23371   2.528   3.354  16.575 -0.4636  0.0548 -0.3020
 3912SOL    HW123372   2.578   3.336  16.655 -0.5815 -0.1279 -0.2707
 3912SOL    HW223373   2.473   3.423  16.613 -0.2098 -0.9466  1.9126
 3913SOL     OW23374   3.476   3.787  13.889 -0.4280 -0.4113 -0.0919
 3913SOL    HW123375   3.438   3.851  13.829 -1.0485  1.4523  2.2743
 3913SOL    HW223376   3.482   3.713  13.829 -1.9528 -1.7512  1.3910
 3914SOL     OW23377   3.206   4.609   6.828 -0.0390  0.1866 -0.5057
 3914SOL    HW123378   3.121   4.610   6.872  0.8077  1.8019  1.0847
 3914SOL    HW223379   3.246   4.686   6.868  1.9184 -1.2341  0.2696
 3915SOL     OW23380   3.824   3.924   6.974 -0.2603  0.2583 -0.4636
 3915SOL    HW123381   3.903   3.899   6.927  0.1445 -0.6613  0.7322
 3915SOL    HW223382   3.860   3.923   7.063  1.4334 -0.3612 -1.1635
 3916SOL     OW23383   1.859   2.287  11.355  0.1871  0.2198  0.5948
 3916SOL    HW123384   1.795   2.255  11.291  1.8186 -0.1070 -0.8882
 3916SOL    HW223385   1.902   2.355  11.303 -0.9760 -0.0559 -0.7584
 3917SOL     OW23386   1.209   0.669   5.699 -0.3254 -0.2456 -0.0348
 3917SOL    HW123387   1.194   0.763   5.688 -1.0891 -0.4862 -1.0698
 3917SOL    HW223388   1.283   0.663   5.759 -1.1743 -1.4287  0.8779
 3918SOL     OW23389   3.568   4.004   9.131 -0.0707  0.1132  0.2408
 3918SOL    HW123390   3.516   4.079   9.160 -0.3889  0.1558 -0.4277
 3918SOL    HW223391   3.573   4.006   9.035  0.2224  2.3393  0.2980
 3919SOL     OW23392   0.037   0.090   3.082  0.2789  0.2880  0.2294
 3919SOL    HW123393   0.093   0.053   3.149 -0.7855 -0.9942  0.4173
 3919SOL    HW223394   4.702   0.134   3.129  1.3541  1.8538  0.3899
 3920SOL     OW23395   0.574   3.212   2.407  0.7446  0.0517  0.4588
 3920SOL    HW123396   0.622   3.260   2.474  0.0266  0.3418  0.7650
 3920SOL    HW223397   0.543   3.141   2.463  0.1821  1.8171  2.3560
 3921SOL     OW23398   3.826   0.404   9.556 -0.4434  0.1054 -0.0898
 3921SOL    HW123399   3.790   0.491   9.575  0.7391 -0.2944  4.1461
 3921SOL    HW223400   3.915   0.423   9.586  0.5144  2.4873 -4.4941
 3922SOL     OW23401   3.561   3.971  17.473  0.4498 -0.3532 -0.2386
 3922SOL    HW123402   3.641   3.922  17.454 -0.2950 -1.6879  0.0423
 3922SOL    HW223403   3.561   4.042  17.409  0.4435  0.0342  0.1945
 3923SOL     OW23404   1.867   1.266  13.782  0.1997  0.0939  0.1084
 3923SOL    HW123405   1.860   1.337  13.846  0.3782  1.5895 -1.5511
 3923SOL    HW223406   1.777   1.241  13.762  0.7356 -1.5498 -0.2724
 3924SOL     OW23407   3.599   1.042   7.286 -0.7294 -0.0849 -0.3864
 3924SOL    HW123408   3.672   0.980   7.278 -1.5452 -1.1673  0.5414
 3924SOL    HW223409   3.606   1.107   7.217  2.6932  0.6998  0.7147
 3925SOL     OW23410   4.202   3.133   7.197  0.2678 -0.3015  0.5198
 3925SOL    HW123411   4.245   3.132   7.111 -1.3816 -2.2757 -0.2853
 3925SOL    HW223412   4.144   3.209   7.192  1.5843  0.5266 -2.1751
 3926SOL     OW23413   1.680   3.486  12.321 -0.5043 -0.0388 -0.0652
 3926SOL    HW123414   1.724   3.547  12.261  1.4514  0.0859  1.4983
 3926SOL    HW223415   1.755   3.433  12.348  0.7536  2.1494  0.7162
 3927SOL     OW23416   0.300   0.915  10.211  0.2254 -0.2069  0.6626
 3927SOL    HW123417   0.238   0.842  10.209  0.1668 -0.0844 -1.5723
 3927SOL    HW223418   0.367   0.875  10.266 -0.7013 -2.1386  0.4182
 3928SOL     OW23419   0.684   1.875  13.341  0.7901  0.0238 -0.1774
 3928SOL    HW123420   0.736   1.817  13.396 -0.3570 -1.0943 -0.2910
 3928SOL    HW223421   0.725   1.959  13.365  3.1222 -1.9223  2.6571
 3929SOL     OW23422   1.365   4.589  14.994 -0.1330  0.0233  0.2994
 3929SOL    HW123423   1.279   4.610  14.958  0.6275  1.0759 -0.9306
 3929SOL    HW223424   1.338   4.515  15.048  1.0348  0.7301  1.8631
 3930SOL     OW23425   2.157   0.839   0.772 -1.2839 -0.4803  0.4301
 3930SOL    HW123426   2.115   0.799   0.847 -2.1005  0.1334  0.2955
 3930SOL    HW223427   2.109   0.922   0.769  0.3786  0.4822  0.0293
 3931SOL     OW23428   2.827   2.980   4.598 -0.6237  0.0035  0.1058
 3931SOL    HW123429   2.826   3.051   4.661 -1.0763  1.5746 -1.6783
 3931SOL    HW223430   2.915   2.989   4.561 -0.5133 -0.6461  0.1996
 3932SOL     OW23431   1.149   0.188  10.685  0.0300 -0.0460  0.1822
 3932SOL    HW123432   1.139   0.168  10.779  1.7897 -1.0306  0.1427
 3932SOL    HW223433   1.225   0.138  10.657 -0.1887 -0.6473  0.6466
 3933SOL     OW23434   3.976   2.018   4.874  0.5292 -0.6896  0.4115
 3933SOL    HW123435   4.063   2.055   4.860  0.7194 -1.2155  0.2003
 3933SOL    HW223436   3.962   1.978   4.789 -2.2549  1.5273 -0.1831
 3934SOL     OW23437   2.712   2.198  15.469 -0.7361 -0.3071 -0.5334
 3934SOL    HW123438   2.713   2.124  15.528 -2.1766  1.0882  1.2576
 3934SOL    HW223439   2.632   2.241  15.501 -0.2650  0.9919 -1.0809
 3935SOL     OW23440   4.616   2.063   8.974  0.7312  0.1140  0.4824
 3935SOL    HW123441   4.660   2.033   9.054  1.1084  2.7895  1.2821
 3935SOL    HW223442   4.526   2.077   9.003  1.1115 -1.1345  2.2499
 3936SOL     OW23443   0.395   2.955   3.099  1.0949 -0.1023  0.2210
 3936SOL    HW123444   0.437   3.041   3.105  1.0613  0.1547 -3.3214
 3936SOL    HW223445   0.401   2.927   3.190 -2.4707 -0.0911  0.4447
 3937SOL     OW23446   2.057   3.167  13.702 -0.2028  0.1213 -0.3843
 3937SOL    HW123447   2.142   3.201  13.672  0.1959 -0.1957  0.3813
 3937SOL    HW223448   2.082   3.075  13.702 -0.3983  0.0620  1.7082
 3938SOL     OW23449   2.982   2.597   2.491 -0.0133  0.1560  0.5390
 3938SOL    HW123450   2.946   2.674   2.449 -3.3076 -1.5610  0.2598
 3938SOL    HW223451   3.056   2.577   2.434 -0.7490 -2.1103  0.3584
 3939SOL     OW23452   3.185   3.144   3.948 -0.2194  0.0304  0.2762
 3939SOL    HW123453   3.137   3.069   3.981  1.0975 -1.4255 -1.1653
 3939SOL    HW223454   3.212   3.120   3.860  2.3745 -0.6086  1.2507
 3940SOL     OW23455   4.704   1.303   2.738  0.1317  0.3640 -0.1272
 3940SOL    HW123456   0.052   1.259   2.740 -0.0707 -0.0302 -0.4508
 3940SOL    HW223457   4.694   1.302   2.643 -0.1679 -0.1527 -0.0892
 3941SOL     OW23458   0.139   4.727   2.841 -0.2749  0.0194 -0.3246
 3941SOL    HW123459   0.196   4.654   2.864  1.9015  2.0390  0.6660
 3941SOL    HW223460   0.107   0.027   2.924 -1.3315 -0.8000 -0.3670
 3942SOL     OW23461   3.091   4.322   7.116  0.3457  0.2777  0.4078
 3942SOL    HW123462   3.153   4.367   7.174  0.0411 -1.0540  1.7665
 3942SOL    HW223463   3.006   4.364   7.125 -0.4455 -1.2713  0.1799
 3943SOL     OW23464   2.827   2.080   0.028  0.4381 -0.3783  0.0437
 3943SOL    HW123465   2.844   2.121   0.113  0.9976  0.8119 -0.6488
 3943SOL    HW223466   2.754   2.021   0.047  0.2001  0.3015  1.2236
 3944SOL     OW23467   0.362   1.347   9.014  0.6226 -0.3698 -0.3645
 3944SOL    HW123468   0.322   1.356   8.927 -0.7983 -0.6054  0.2640
 3944SOL    HW223469   0.382   1.253   9.017  1.7653 -0.1724 -1.5886
 3945SOL     OW23470   4.144   1.000   8.789  0.1744 -0.1754  0.0597
 3945SOL    HW123471   4.191   0.925   8.752 -0.5244 -0.2333 -0.7032
 3945SOL    HW223472   4.089   0.965   8.859  1.1254  1.0578  1.4336
 3946SOL     OW23473   0.885   0.864  16.690 -0.5711  0.5533  0.3153
 3946SOL    HW123474   0.910   0.957  16.684 -3.2386  1.2058 -0.4995
 3946SOL    HW223475   0.833   0.853  16.610 -1.9676  0.8725  1.1985
 3947SOL     OW23476   0.129   1.383   6.910  0.2187  0.3007  0.1553
 3947SOL    HW123477   0.094   1.398   6.822  0.7453  1.7201  0.1802
 3947SOL    HW223478   0.114   1.471   6.944  1.2004 -0.2165  1.8769
 3948SOL     OW23479   4.169   3.360   1.929  0.0282  0.8090  0.3347
 3948SOL    HW123480   4.094   3.366   1.988  0.7526 -1.1454  1.4713
 3948SOL    HW223481   4.130   3.380   1.844  1.3138  1.5745 -0.0834
 3949SOL     OW23482   4.065   2.718  15.715  0.3453 -0.2710  0.4224
 3949SOL    HW123483   4.052   2.654  15.645  0.0603 -0.9441  1.0943
 3949SOL    HW223484   3.974   2.719  15.745 -0.4712 -0.4315 -2.0077
 3950SOL     OW23485   3.601   3.423   1.213  0.1097  0.0913 -0.1347
 3950SOL    HW123486   3.590   3.330   1.190  1.8905 -0.2191  0.2827
 3950SOL    HW223487   3.675   3.446   1.156  0.1562 -1.0992 -0.5582
 3951SOL     OW23488   2.023   0.487   0.029  0.2811 -0.0283 -0.5699
 3951SOL    HW123489   2.078   0.412   0.008  1.0469  0.1263  0.8773
 3951SOL    HW223490   2.009   0.536  17.692  1.0999  0.9437 -0.1254
 3952SOL     OW23491   1.042   4.274   5.170  0.2737 -0.1650  0.1412
 3952SOL    HW123492   1.135   4.294   5.175 -0.3339  2.6185  0.4866
 3952SOL    HW223493   1.016   4.286   5.261  3.2262 -0.1800  0.9878
 3953SOL     OW23494   4.594   3.525  11.530  0.2184  0.2122  0.0801
 3953SOL    HW123495   4.541   3.453  11.496 -1.2790  1.6013 -0.5539
 3953SOL    HW223496   4.528   3.588  11.558  0.7341  1.0832 -0.6996
 3954SOL     OW23497   1.458   0.227  10.976 -0.3120  0.2222 -0.5639
 3954SOL    HW123498   1.438   0.145  10.932  0.5239 -2.1411  3.3795
 3954SOL    HW223499   1.421   0.198  11.059  0.6483  0.5943 -0.0013
 3955SOL     OW23500   1.997   2.508  11.244  0.1243 -0.4057 -0.0171
 3955SOL    HW123501   2.073   2.519  11.186  1.9029 -1.4376  2.1018
 3955SOL    HW223502   1.941   2.582  11.220 -0.8786 -0.6540  1.5856
 3956SOL     OW23503   2.510   2.441  12.670 -0.1723 -0.1035  0.1777
 3956SOL    HW123504   2.465   2.357  12.671  0.2208 -0.2917  1.3890
 3956SOL    HW223505   2.554   2.438  12.755 -1.4996 -0.0146  0.8696
 3957SOL     OW23506   1.669   2.066   4.571 -0.3366 -0.1759 -0.7433
 3957SOL    HW123507   1.712   2.135   4.520  0.1947  1.3267  1.7770
 3957SOL    HW223508   1.615   2.118   4.630  2.5349  1.0581  0.7857
 3958SOL     OW23509   2.177   4.474   4.835  0.0745  0.3753 -0.3182
 3958SOL    HW123510   2.243   4.411   4.808  0.5260  0.7268 -0.0429
 3958SOL    HW223511   2.101   4.445   4.785  0.6373 -1.2288 -0.2298
 3959SOL     OW23512   3.596   2.663   2.931 -0.3313 -0.1897  0.2687
 3959SOL    HW123513   3.582   2.727   2.861 -3.5883  1.7355  2.6526
 3959SOL    HW223514   3.632   2.715   3.003  2.2613  1.5738 -2.2957
 3960SOL     OW23515   1.513   2.935   2.889  0.0400  0.0439  0.4853
 3960SOL    HW123516   1.562   2.862   2.925 -0.4428 -0.8372 -0.6422
 3960SOL    HW223517   1.567   3.014   2.891  0.4794 -0.2253 -0.4084
 3961SOL     OW23518   0.552   3.255  14.111  0.3936  0.0041 -0.1530
 3961SOL    HW123519   0.556   3.350  14.127 -1.1719  0.0640 -0.1004
 3961SOL    HW223520   0.618   3.251  14.041  2.4476 -0.3759  1.8306
 3962SOL     OW23521   0.716   1.530   6.888  0.3895 -0.5016 -0.4009
 3962SOL    HW123522   0.800   1.520   6.931 -0.0592 -1.0598  0.3469
 3962SOL    HW223523   0.688   1.615   6.922  1.5470 -0.8786  1.4649
 3963SOL     OW23524   4.033   3.763   9.143  0.1504 -0.3459  0.1391
 3963SOL    HW123525   4.060   3.715   9.221  2.4854  0.2450 -0.3051
 3963SOL    HW223526   3.943   3.793   9.155  0.9869  1.7450  1.2886
 3964SOL     OW23527   1.066   2.997   5.638 -0.0136  0.3669  0.4748
 3964SOL    HW123528   1.104   3.021   5.722  0.4416 -1.5149  0.8198
 3964SOL    HW223529   0.974   2.991   5.666 -0.4551  1.2094 -0.7874
 3965SOL     OW23530   2.448   1.642   9.317  0.2467 -0.7370  0.9293
 3965SOL    HW123531   2.484   1.592   9.244  0.7940  1.2752 -0.1410
 3965SOL    HW223532   2.399   1.708   9.269 -0.7559 -1.5518  0.8182
 3966SOL     OW23533   0.079   4.434   7.583  0.2180  0.2678 -0.6076
 3966SOL    HW123534   0.136   4.506   7.610  2.2002 -2.1664  1.6699
 3966SOL    HW223535   0.096   4.379   7.659  1.0044  2.0674  0.5328
 3967SOL     OW23536   3.391   4.627  14.810 -0.2474  0.2903 -0.4119
 3967SOL    HW123537   3.368   4.698  14.750  1.4355  1.3711  0.2167
 3967SOL    HW223538   3.445   4.671  14.875  0.6547  0.6504 -1.4113
 3968SOL     OW23539   2.426   1.035   5.540 -0.3164 -0.2900  0.6871
 3968SOL    HW123540   2.422   1.026   5.636  0.4544  0.7599  0.8186
 3968SOL    HW223541   2.515   1.068   5.529 -0.6619  0.8048  1.1538
 3969SOL     OW23542   0.465   1.272   8.300  0.9348  0.2206 -0.0913
 3969SOL    HW123543   0.373   1.286   8.275  0.4739 -0.5626  1.1515
 3969SOL    HW223544   0.455   1.217   8.378  0.5527  0.8774  0.3305
 3970SOL     OW23545   1.889   0.725   0.924 -0.6639 -0.0189 -0.4905
 3970SOL    HW123546   1.869   0.634   0.947  0.4448 -1.1323 -3.9630
 3970SOL    HW223547   1.802   0.761   0.909  0.9421  3.5200 -1.1884
 3971SOL     OW23548   1.461   4.731   1.909 -0.1006  0.4385 -0.1509
 3971SOL    HW123549   1.455   4.683   1.826 -3.4232  0.6966 -0.0583
 3971SOL    HW223550   1.537   0.049   1.890  0.8311 -0.6298  0.4608
 3972SOL     OW23551   0.584   2.966   0.187  0.5004 -0.6462 -0.1814
 3972SOL    HW123552   0.645   3.039   0.184  1.1337 -1.2722 -2.5747
 3972SOL    HW223553   0.561   2.957   0.095 -0.7595  1.1995 -0.0545
 3973SOL     OW23554   0.009   0.182   8.853  0.0932  0.0500  0.7576
 3973SOL    HW123555   0.016   0.273   8.882 -1.0100  0.7414 -1.1588
 3973SOL    HW223556   4.682   0.186   8.781 -0.5339  0.1612  1.3123
 3974SOL     OW23557   3.487   3.003   2.536  0.4859 -0.0494 -0.0348
 3974SOL    HW123558   3.420   3.070   2.526 -0.4345 -0.7825  1.1942
 3974SOL    HW223559   3.428   2.927   2.530 -0.5994  0.8701 -0.9839
 3975SOL     OW23560   2.478   1.568   4.084  0.2268 -0.1929  0.5740
 3975SOL    HW123561   2.550   1.505   4.096  0.2675 -0.1609  0.4992
 3975SOL    HW223562   2.462   1.596   4.174  1.3087  1.5791  0.2212
 3976SOL     OW23563   4.022   2.433   1.799  0.6398  0.1327 -0.1881
 3976SOL    HW123564   4.068   2.349   1.802 -0.8850 -0.6220  2.1883
 3976SOL    HW223565   4.088   2.490   1.839 -0.2749  0.8704  0.2560
 3977SOL     OW23566   1.250   4.331  15.039 -0.9119 -0.6296  0.0912
 3977SOL    HW123567   1.223   4.320  14.948 -2.2360  0.1936  0.3799
 3977SOL    HW223568   1.278   4.241  15.053 -1.2215 -0.6215  0.7464
 3978SOL     OW23569   4.696   3.439   5.062  0.0793 -0.2795 -0.2775
 3978SOL    HW123570   0.045   3.437   5.106 -0.9077  1.1059  1.7037
 3978SOL    HW223571   4.705   3.489   4.981 -0.9322  0.9454  0.3702
 3979SOL     OW23572   3.351   0.384   6.487 -0.2716  0.1874 -0.6770
 3979SOL    HW123573   3.262   0.396   6.454 -0.2982  0.8253 -0.3588
 3979SOL    HW223574   3.397   0.456   6.445  0.9542 -0.2812 -0.1599
 3980SOL     OW23575   4.229   3.158   6.495 -0.1523 -0.3193 -0.4293
 3980SOL    HW123576   4.248   3.116   6.410 -1.7607  0.7136 -1.2859
 3980SOL    HW223577   4.202   3.242   6.458  0.6170  0.2344  0.2750
 3981SOL     OW23578   2.332   4.345   5.423 -0.3046  0.6432  0.5642
 3981SOL    HW123579   2.385   4.273   5.388  2.5019  1.8142  2.4302
 3981SOL    HW223580   2.402   4.407   5.443 -0.1620  0.6877 -0.0641
 3982SOL     OW23581   1.120   0.846   4.126  0.1052  0.3457  0.2200
 3982SOL    HW123582   1.190   0.904   4.154  0.6264 -0.8461  1.3619
 3982SOL    HW223583   1.076   0.911   4.072 -1.5238  1.0524  2.3916
 3983SOL     OW23584   3.661   0.266   9.721 -0.0872  0.4452 -0.5255
 3983SOL    HW123585   3.721   0.320   9.774 -0.1304  0.1440 -0.1681
 3983SOL    HW223586   3.715   0.258   9.642 -0.6332  1.7738 -1.0210
 3984SOL     OW23587   1.880   2.654  14.747  0.5293  0.1785 -0.4375
 3984SOL    HW123588   1.951   2.714  14.724  0.1754  1.4027  1.6766
 3984SOL    HW223589   1.801   2.680  14.699  0.3773 -0.2524 -0.4215
 3985SOL     OW23590   0.860   0.252   6.488  0.8838  0.1076 -0.8870
 3985SOL    HW123591   0.779   0.302   6.478  0.9271  0.6750  1.5877
 3985SOL    HW223592   0.853   0.220   6.579 -0.5790  0.3339 -0.9160
 3986SOL     OW23593   4.535   2.539   6.668  0.2431 -0.1817  0.3886
 3986SOL    HW123594   4.575   2.626   6.676  0.4861 -0.2827  0.2923
 3986SOL    HW223595   4.546   2.522   6.575  1.5066  0.5821  0.3904
 3987SOL     OW23596   2.645   0.184   2.428 -0.1710  0.0956 -0.0360
 3987SOL    HW123597   2.714   0.244   2.456 -0.9298  1.0131 -0.1459
 3987SOL    HW223598   2.670   0.103   2.473  0.5895  0.4077  0.1056
 3988SOL     OW23599   1.047   3.154  14.874  0.1727  0.1801 -0.7473
 3988SOL    HW123600   0.974   3.167  14.935  1.1552 -0.3705  0.5420
 3988SOL    HW223601   1.097   3.078  14.907  1.5485  1.3169 -0.2001
 3989SOL     OW23602   4.385   3.864  10.883 -0.6933 -0.0729 -0.1148
 3989SOL    HW123603   4.442   3.878  10.958 -0.9713 -0.9875  0.2717
 3989SOL    HW223604   4.306   3.824  10.921 -1.1040  1.0774  0.2395
 3990SOL     OW23605   4.663   1.346   3.490  0.3249 -0.1743  0.2522
 3990SOL    HW123606   4.586   1.396   3.464 -1.1630 -2.6202 -0.0918
 3990SOL    HW223607   4.695   1.413   3.550  0.1710 -1.4390  1.7531
 3991SOL     OW23608   0.081   1.245  16.711 -0.1438  0.6037 -0.6015
 3991SOL    HW123609   0.100   1.152  16.713 -0.9447  0.4544  0.1313
 3991SOL    HW223610   0.023   1.249  16.788 -2.4763 -0.2325 -2.3305
 3992SOL     OW23611   3.744   4.603   4.587 -0.9606 -0.3430 -0.0710
 3992SOL    HW123612   3.649   4.619   4.589 -0.8794 -0.3551  2.9643
 3992SOL    HW223613   3.768   4.688   4.622 -2.2918  0.3457 -0.8317
 3993SOL     OW23614   1.269   1.537   0.372  0.1693  0.3086 -0.2630
 3993SOL    HW123615   1.245   1.453   0.411 -2.5252  1.0612 -0.3396
 3993SOL    HW223616   1.310   1.587   0.442  0.5259 -1.3646  0.7283
 3994SOL     OW23617   0.869   2.729   9.025  0.4604 -0.3202  0.0024
 3994SOL    HW123618   0.889   2.760   9.113 -0.2762 -0.3970  0.2011
 3994SOL    HW223619   0.913   2.645   9.038  0.5327 -0.6057 -2.0145
 3995SOL     OW23620   1.747   1.942   4.309  0.1917  0.9519  0.4521
 3995SOL    HW123621   1.710   1.973   4.391  1.2133  0.7666  0.9760
 3995SOL    HW223622   1.698   1.861   4.295 -0.5161  1.5656 -0.6496
 3996SOL     OW23623   1.678   2.339   6.674  0.5238 -0.0443  0.1966
 3996SOL    HW123624   1.590   2.316   6.704  2.1163 -3.7679  1.9756
 3996SOL    HW223625   1.727   2.259   6.656 -0.5493 -1.0426  1.7430
 3997SOL     OW23626   0.603   1.622   8.169 -0.5680  0.1527  0.1058
 3997SOL    HW123627   0.621   1.578   8.086 -0.5423 -0.2254  0.3122
 3997SOL    HW223628   0.508   1.619   8.160 -0.5856 -1.4696  0.8876
 3998SOL     OW23629   3.711   2.474   2.563 -0.1480  0.7494  0.2227
 3998SOL    HW123630   3.766   2.413   2.514 -2.6059 -2.0157  0.9307
 3998SOL    HW223631   3.778   2.541   2.577 -0.4187  1.1709 -0.4625
 3999SOL     OW23632   3.727   1.594   4.509  0.3178 -0.3859 -0.6013
 3999SOL    HW123633   3.728   1.618   4.602 -1.5871 -1.9345 -0.1825
 3999SOL    HW223634   3.748   1.500   4.515  0.2252 -0.3622  0.1785
 4000SOL     OW23635   3.800   3.713   0.922 -0.3722  0.2724  0.3259
 4000SOL    HW123636   3.705   3.700   0.928 -0.5460  1.2112 -0.2975
 4000SOL    HW223637   3.822   3.625   0.890  0.0737  1.5914 -3.0060
 4001SOL     OW23638   3.011   0.715  11.732 -0.2829  0.1510  0.0429
 4001SOL    HW123639   3.060   0.737  11.811 -0.9122 -0.4112  0.5941
 4001SOL    HW223640   3.078   0.658  11.695  0.4110  0.8005  0.2894
 4002SOL     OW23641   1.599   1.535   8.819  0.0816 -0.2088 -0.1753
 4002SOL    HW123642   1.618   1.594   8.892  0.1851  0.8113 -1.0284
 4002SOL    HW223643   1.585   1.459   8.875  2.6193 -0.2714  0.3446
 4003SOL     OW23644   0.963   2.560   8.748 -0.3407  0.0538  0.2323
 4003SOL    HW123645   1.045   2.535   8.705 -0.2324  0.4668  0.1973
 4003SOL    HW223646   0.899   2.494   8.721 -1.2135 -0.3776  3.4208
 4004SOL     OW23647   2.915   3.223  11.349 -0.1322  0.1912 -0.3593
 4004SOL    HW123648   2.922   3.147  11.406 -0.9962  0.6121  0.3109
 4004SOL    HW223649   2.995   3.235  11.298 -0.0453 -2.0243 -0.7452
 4005SOL     OW23650   2.873   3.398   9.049  0.3443 -0.3737 -0.0004
 4005SOL    HW123651   2.840   3.344   8.977 -0.2117 -1.5684  1.1517
 4005SOL    HW223652   2.923   3.323   9.080  0.2386 -0.3409  0.2507
 4006SOL     OW23653   4.693   3.361  10.446  0.0898  0.0542  0.1505
 4006SOL    HW123654   4.644   3.335  10.367  3.3761 -0.9315 -1.5952
 4006SOL    HW223655   0.047   3.351  10.414 -0.7259 -3.1120 -1.2046
 4007SOL     OW23656   1.361   4.272   1.548  0.4500  0.6620  0.9019
 4007SOL    HW123657   1.341   4.286   1.640 -1.7697 -0.8196  0.6520
 4007SOL    HW223658   1.448   4.310   1.536  1.3393 -2.1130 -1.4331
 4008SOL     OW23659   0.939   0.113   5.163  0.1356 -0.1458  0.6794
 4008SOL    HW123660   0.983   0.169   5.227  2.3565 -1.6580  0.4980
 4008SOL    HW223661   1.012   0.054   5.142 -0.0909  0.2521 -1.2513
 4009SOL     OW23662   0.306   1.224   6.164 -0.6696  0.1140  0.1063
 4009SOL    HW123663   0.228   1.232   6.109 -0.7853 -0.8591  0.1304
 4009SOL    HW223664   0.348   1.157   6.110 -0.1600 -0.3618  1.0965
 4010SOL     OW23665   3.450   4.080   8.536 -0.4175  0.0053  0.0194
 4010SOL    HW123666   3.404   4.138   8.475  0.2598 -0.4382 -0.9126
 4010SOL    HW223667   3.538   4.117   8.543 -0.3056  0.0658 -1.8607
 4011SOL     OW23668   2.955   1.072  14.452  0.2628  0.8586  0.1469
 4011SOL    HW123669   2.888   1.004  14.459  0.6968  0.5547  1.4179
 4011SOL    HW223670   2.995   1.047  14.369 -2.6362  1.9338 -1.5295
 4012SOL     OW23671   4.108   1.554   4.525  0.8144  0.3630 -0.2644
 4012SOL    HW123672   4.182   1.494   4.534  1.8113  1.6953  0.5675
 4012SOL    HW223673   4.137   1.585   4.439 -0.5114  0.1031 -0.8037
 4013SOL     OW23674   1.175   3.605   7.143  0.2059 -0.0819  0.0147
 4013SOL    HW123675   1.262   3.566   7.150  0.7497  0.9710 -0.9941
 4013SOL    HW223676   1.192   3.684   7.092  1.5261  1.2645  2.4938
 4014SOL     OW23677   1.951   3.217   3.385 -0.1281  0.4615 -0.1044
 4014SOL    HW123678   1.909   3.263   3.457 -1.1996 -1.1363  0.2951
 4014SOL    HW223679   1.996   3.146   3.431  0.1434  0.4667 -0.3645
 4015SOL     OW23680   1.555   4.331   5.833  0.3536 -0.3968  0.0630
 4015SOL    HW123681   1.479   4.344   5.778  1.9183 -2.2770 -2.5261
 4015SOL    HW223682   1.540   4.244   5.871 -1.4274 -0.8774 -1.7616
 4016SOL     OW23683   1.717   1.271   6.166 -0.4243 -0.1381 -0.0445
 4016SOL    HW123684   1.697   1.308   6.252  0.4759  1.6933 -0.6273
 4016SOL    HW223685   1.747   1.182   6.184 -1.6480 -0.6924 -0.7265
 4017SOL     OW23686   0.810   2.444  17.432 -0.5835 -0.3102 -0.9358
 4017SOL    HW123687   0.792   2.358  17.470  2.5947 -0.0662  1.1115
 4017SOL    HW223688   0.813   2.500  17.509  0.2237 -1.9141  0.2120
 4018SOL     OW23689   1.665   4.567  10.186 -0.0977  0.4221  0.3093
 4018SOL    HW123690   1.671   4.589  10.093  5.1363  0.4208  0.6126
 4018SOL    HW223691   1.574   4.538  10.189 -0.7361  2.2789 -0.8505
 4019SOL     OW23692   0.605   2.769   3.234  0.0946  0.4689  0.3053
 4019SOL    HW123693   0.682   2.794   3.183 -0.0219  0.2496  0.0211
 4019SOL    HW223694   0.591   2.852   3.279  0.3078  0.8795 -0.3784
 4020SOL     OW23695   0.218   0.257   7.569  0.0069 -0.1822  0.3141
 4020SOL    HW123696   0.228   0.344   7.529  0.8157 -0.2667  0.3401
 4020SOL    HW223697   0.158   0.220   7.504  1.0260 -1.1882 -0.0348
 4021SOL     OW23698   1.446   2.552   6.752 -0.2266 -0.3792 -0.8561
 4021SOL    HW123699   1.492   2.604   6.686 -1.3265  1.4846 -0.1553
 4021SOL    HW223700   1.363   2.528   6.711 -1.5975  2.8734  0.0469
 4022SOL     OW23701   4.441   3.503   4.772  0.3476  0.1217 -0.3542
 4022SOL    HW123702   4.519   3.512   4.826  0.5466 -1.7283 -0.3526
 4022SOL    HW223703   4.436   3.584   4.721 -3.3072 -0.7182 -1.3667
 4023SOL     OW23704   3.931   4.154   2.780  0.0001  0.5843 -0.4154
 4023SOL    HW123705   3.936   4.077   2.836 -1.9208 -1.9190 -3.6844
 4023SOL    HW223706   3.997   4.202   2.830  1.2338 -1.1222 -0.3829
 4024SOL     OW23707   2.192   2.614  15.055 -0.5695 -0.2941  0.3982
 4024SOL    HW123708   2.218   2.618  14.962 -4.6518 -1.7240 -0.7913
 4024SOL    HW223709   2.097   2.615  15.045 -0.5911  0.2957  0.6619
 4025SOL     OW23710   0.406   2.979   8.894 -0.1059  0.0420  0.0617
 4025SOL    HW123711   0.344   3.052   8.899 -0.6022 -0.5643  2.9456
 4025SOL    HW223712   0.473   3.009   8.956  2.3599 -2.5384 -1.3713
 4026SOL     OW23713   3.144   1.470  14.643  0.5765 -0.1836  0.0091
 4026SOL    HW123714   3.135   1.462  14.738  1.0539 -1.5278 -0.0656
 4026SOL    HW223715   3.132   1.379  14.617  1.5669 -0.5741  0.9403
 4027SOL     OW23716   2.723   1.276   5.033 -0.0622  0.0973  0.1855
 4027SOL    HW123717   2.743   1.240   4.947 -3.4718 -2.9907  0.7186
 4027SOL    HW223718   2.763   1.215   5.094 -0.5994 -0.8535 -0.4256
 4028SOL     OW23719   3.322   4.163  15.286 -0.0865 -0.3934  0.1044
 4028SOL    HW123720   3.337   4.133  15.196 -1.7518 -1.3971  0.1627
 4028SOL    HW223721   3.343   4.081  15.330 -0.9162 -0.9939 -0.6086
 4029SOL     OW23722   2.117   4.278   9.575 -0.3748 -0.3785 -0.0853
 4029SOL    HW123723   2.056   4.213   9.540 -0.3165 -1.0401  1.0285
 4029SOL    HW223724   2.103   4.359   9.526  1.6464  0.1113  0.1520
 4030SOL     OW23725   1.505   0.488   9.792 -0.2296 -0.5309  0.4645
 4030SOL    HW123726   1.599   0.501   9.776 -0.1500  1.1547  2.2190
 4030SOL    HW223727   1.482   0.576   9.820  1.0906  0.3461 -1.2002
 4031SOL     OW23728   3.405   4.069  15.976  0.9213  0.0369 -0.4164
 4031SOL    HW123729   3.463   4.026  15.912 -0.8035 -0.1347 -1.8613
 4031SOL    HW223730   3.370   3.990  16.016  1.0395 -0.0659 -0.5125
 4032SOL     OW23731   2.500   1.460   4.970 -0.1372 -0.0784  0.1214
 4032SOL    HW123732   2.559   1.403   4.920  0.8640  1.0839 -0.0172
 4032SOL    HW223733   2.445   1.395   5.015 -0.7180 -0.3883 -1.0363
 4033SOL     OW23734   0.134   0.343  14.136 -0.1676 -0.2405  0.0190
 4033SOL    HW123735   0.130   0.431  14.173 -0.2347  0.9400 -2.7739
 4033SOL    HW223736   0.215   0.354  14.087  0.6615 -1.3893  1.1419
 4034SOL     OW23737   2.860   4.542   3.047 -0.1244 -0.0143 -0.5992
 4034SOL    HW123738   2.828   4.475   3.107  1.1804  1.9765  2.3178
 4034SOL    HW223739   2.802   4.618   3.043  0.6086  0.4778 -1.7794
 4035SOL     OW23740   4.323   1.708   2.828 -0.5354  0.0567  0.4701
 4035SOL    HW123741   4.376   1.635   2.798  1.1805  1.6654 -0.3941
 4035SOL    HW223742   4.246   1.655   2.848 -0.6881 -0.5200 -1.6394
 4036SOL     OW23743   3.806   0.725   1.828  0.1998 -0.2018 -0.5914
 4036SOL    HW123744   3.867   0.796   1.850  0.7649 -0.7805 -0.2783
 4036SOL    HW223745   3.724   0.748   1.871  0.5762  0.0469  0.0021
 4037SOL     OW23746   1.705   1.137  13.492 -0.0312 -0.1427 -0.0521
 4037SOL    HW123747   1.633   1.182  13.537  0.5310  0.0568  0.6571
 4037SOL    HW223748   1.702   1.174  13.404 -3.7724 -0.5219 -0.0927
 4038SOL     OW23749   1.956   0.339   9.283 -0.4008  0.2725 -0.1476
 4038SOL    HW123750   1.968   0.298   9.369  0.6563 -1.3247 -1.0540
 4038SOL    HW223751   1.903   0.416   9.304 -1.9708 -0.2763 -2.0612
 4039SOL     OW23752   1.741   0.174   3.511 -0.2438 -0.5527  0.1090
 4039SOL    HW123753   1.804   0.103   3.494  1.3222  1.0082 -0.5915
 4039SOL    HW223754   1.672   0.166   3.446 -0.0892 -0.6565 -0.0427
 4040SOL     OW23755   1.389   0.941  15.621  0.0955  0.1178 -0.3160
 4040SOL    HW123756   1.452   0.974  15.686  0.8968 -0.8520 -0.5948
 4040SOL    HW223757   1.311   0.989  15.651 -0.8617 -0.3899 -1.9880
 4041SOL     OW23758   4.290   1.286   2.903 -0.2997 -0.4095 -0.2374
 4041SOL    HW123759   4.349   1.240   2.962  0.8547  0.7705 -0.4674
 4041SOL    HW223760   4.349   1.313   2.833  0.3089 -0.8386  0.1093
 4042SOL     OW23761   0.579   3.044  15.336 -0.5256  0.0176 -0.0037
 4042SOL    HW123762   0.545   2.957  15.314  0.2096 -0.8976  2.4508
 4042SOL    HW223763   0.671   3.027  15.317  0.0023  3.4221 -0.4132
 4043SOL     OW23764   3.345   4.014   2.443 -0.0952  0.1691  0.0967
 4043SOL    HW123765   3.399   3.939   2.418 -0.3033  0.2576 -0.6244
 4043SOL    HW223766   3.382   4.081   2.385  0.7688 -0.2745  0.1279
 4044SOL     OW23767   3.032   4.009  14.043 -0.1680 -0.2823 -0.2660
 4044SOL    HW123768   3.028   4.041  13.953 -2.7718  1.8642  0.6182
 4044SOL    HW223769   2.961   3.944  14.046  0.4400 -0.9697 -0.7737
 4045SOL     OW23770   3.483   4.645   3.933 -0.0444 -0.1619 -0.3957
 4045SOL    HW123771   3.531   4.645   4.016 -0.8518  0.7093  0.0626
 4045SOL    HW223772   3.495   4.552   3.915 -0.3233 -0.4722  1.0360
 4046SOL     OW23773   1.465   2.655  15.046  0.2035  0.9084 -0.0419
 4046SOL    HW123774   1.456   2.561  15.058  1.5756  0.7022 -0.5854
 4046SOL    HW223775   1.515   2.656  14.964 -1.7877 -1.7092 -1.2864
 4047SOL     OW23776   2.063   3.080   2.088  0.4033 -0.3353 -0.0358
 4047SOL    HW123777   1.978   3.060   2.050 -0.2821 -2.4171  2.5936
 4047SOL    HW223778   2.095   2.991   2.102 -1.0682 -0.7491  0.6586
 4048SOL     OW23779   2.118   4.016   5.055 -0.5530  0.1894  0.4448
 4048SOL    HW123780   2.087   3.969   4.978  0.7462 -1.3392  0.8607
 4048SOL    HW223781   2.073   4.099   5.035  1.4276  1.2467  0.4119
 4049SOL     OW23782   0.314   0.582   8.731 -0.7882 -0.0420 -0.1849
 4049SOL    HW123783   0.342   0.492   8.749  0.6762  0.5997  0.7786
 4049SOL    HW223784   0.220   0.561   8.731 -0.2932 -2.2927  0.0906
 4050SOL     OW23785   0.859   2.908  14.405 -0.1521 -0.4735 -0.6703
 4050SOL    HW123786   0.819   2.943  14.326 -1.8901 -0.5729  0.1660
 4050SOL    HW223787   0.864   2.992  14.451  0.8223 -0.2677 -1.1423
 4051SOL     OW23788   3.773   3.675   9.629  0.5016  0.4365  0.0276
 4051SOL    HW123789   3.864   3.700   9.645  1.4773 -0.4378 -4.0933
 4051SOL    HW223790   3.739   3.754   9.587 -1.1782 -0.0373  0.4759
 4052SOL     OW23791   1.525   0.865   5.432  0.1502  0.1652 -0.3058
 4052SOL    HW123792   1.605   0.827   5.468  0.6832 -0.2056 -1.8582
 4052SOL    HW223793   1.453   0.807   5.456  0.1269 -0.4871 -1.9459
 4053SOL     OW23794   4.386   1.946  15.133 -0.0848 -0.3920 -0.2868
 4053SOL    HW123795   4.348   1.878  15.076 -2.8945  0.8228  0.1402
 4053SOL    HW223796   4.380   2.023  15.075  1.9236 -2.1856 -2.8828
 4054SOL     OW23797   1.244   0.818  12.325 -0.0262 -0.6562  0.0398
 4054SOL    HW123798   1.317   0.757  12.336  0.7617  0.2340 -0.2624
 4054SOL    HW223799   1.250   0.829  12.230  0.4043 -2.2301 -0.1208
 4055SOL     OW23800   2.135   2.905  13.740 -0.0303 -0.2319  0.1342
 4055SOL    HW123801   2.112   2.864  13.657  0.0159  0.1581 -0.0738
 4055SOL    HW223802   2.120   2.824  13.788  0.3133 -0.8445 -0.7894
 4056SOL     OW23803   4.228   2.941  10.111  0.6767 -0.1242 -0.9495
 4056SOL    HW123804   4.311   2.903  10.139  1.2240  1.7513 -0.0003
 4056SOL    HW223805   4.248   3.035  10.111 -2.0140  0.4720  1.5564
 4057SOL     OW23806   0.953   3.523  15.514  0.4350  0.0428  0.2937
 4057SOL    HW123807   0.883   3.588  15.517  0.1549 -0.2914  0.9143
 4057SOL    HW223808   1.027   3.572  15.479  0.5971 -0.6497 -0.3456
 4058SOL     OW23809   4.448   0.991   3.660  0.3434 -0.1661  0.4670
 4058SOL    HW123810   4.398   0.927   3.610  1.4047 -1.3286  0.9188
 4058SOL    HW223811   4.538   0.969   3.633 -0.1209  0.6393 -1.7327
 4059SOL     OW23812   1.124   0.356  10.468  0.1080  0.0439  0.4844
 4059SOL    HW123813   1.127   0.311  10.553 -1.7625 -0.1479  0.4591
 4059SOL    HW223814   1.218   0.375  10.463 -0.1762  1.0714 -0.7388
 4060SOL     OW23815   4.178   0.052  15.230  0.6436 -0.1770 -0.0500
 4060SOL    HW123816   4.130   0.105  15.294  1.9847 -0.4432  1.1895
 4060SOL    HW223817   4.264   0.078  15.262  1.3105 -2.5831  0.1222
 4061SOL     OW23818   2.818   2.639   3.539 -0.4588  0.4779 -0.0698
 4061SOL    HW123819   2.874   2.574   3.496 -1.5720 -0.7267  0.3022
 4061SOL    HW223820   2.731   2.625   3.503 -1.5753  2.2819  1.9219
 4062SOL     OW23821   3.336   4.671  15.725  0.6367  0.5241 -0.1182
 4062SOL    HW123822   3.401   4.730  15.762  0.9214  1.1205 -1.5841
 4062SOL    HW223823   3.345   4.597  15.786 -0.6160  0.1047 -0.4288
 4063SOL     OW23824   1.003   2.279   3.699 -0.2319  0.1965  0.7399
 4063SOL    HW123825   0.982   2.372   3.715 -2.6359 -0.3313  0.6643
 4063SOL    HW223826   0.917   2.266   3.658 -0.5883  1.2870  1.1355
 4064SOL     OW23827   3.325   0.865   1.367 -0.0643  0.1600 -0.0500
 4064SOL    HW123828   3.396   0.805   1.390  0.6090  1.4546  1.2079
 4064SOL    HW223829   3.246   0.823   1.402  0.8210 -1.1912  0.3055
 4065SOL     OW23830   3.463   0.528  15.042 -0.0591 -0.5034  0.1398
 4065SOL    HW123831   3.461   0.577  15.124 -0.1071  1.1942 -0.8736
 4065SOL    HW223832   3.549   0.487  15.054 -0.2965 -0.8302  0.7490
 4066SOL     OW23833   2.274   3.184   4.496 -0.6810  0.0424  0.1811
 4066SOL    HW123834   2.214   3.186   4.421  0.4368  3.9911 -0.5760
 4066SOL    HW223835   2.302   3.093   4.504  0.6603  0.2861 -1.9749
 4067SOL     OW23836   1.083   0.924   0.469 -0.1990 -0.7843 -0.0013
 4067SOL    HW123837   1.083   0.979   0.548  1.2878 -1.8392  0.7218
 4067SOL    HW223838   1.036   0.849   0.506 -0.3271 -0.8867 -0.3674
 4068SOL     OW23839   0.963   2.856  10.393 -0.2866  0.4048 -0.1343
 4068SOL    HW123840   1.042   2.849  10.340 -0.4849 -0.8398 -0.2821
 4068SOL    HW223841   0.952   2.766  10.424 -2.5866  1.2804  1.5729
 4069SOL     OW23842   1.691   1.478   8.366  0.3087 -0.2291 -0.0166
 4069SOL    HW123843   1.636   1.522   8.301 -0.2633 -1.2471 -0.2320
 4069SOL    HW223844   1.617   1.454   8.422  1.6495  3.6020  3.3674
 4070SOL     OW23845   0.679   1.811   4.501  0.0053  0.1399 -0.1834
 4070SOL    HW123846   0.608   1.761   4.460 -1.5054  1.0214  1.3657
 4070SOL    HW223847   0.736   1.740   4.531 -1.0727 -0.1144  1.2509
 4071SOL     OW23848   3.655   3.980   2.950 -0.2705 -0.0959 -0.0614
 4071SOL    HW123849   3.720   4.023   2.893  0.8645 -0.8579  0.6524
 4071SOL    HW223850   3.604   4.054   2.982 -0.0577  1.0767 -2.4267
 4072SOL     OW23851   3.758   1.210   7.445 -0.0337  0.1160 -0.2201
 4072SOL    HW123852   3.674   1.170   7.424 -0.5275  0.2128  1.5034
 4072SOL    HW223853   3.737   1.253   7.528 -1.7555 -2.5479  0.7530
 4073SOL     OW23854   1.047   2.318   4.040  0.5514  0.0615  0.0994
 4073SOL    HW123855   1.075   2.236   4.081  1.3572  0.6059  0.6151
 4073SOL    HW223856   1.050   2.290   3.949  1.6609 -0.8985  0.4241
 4074SOL     OW23857   1.916   4.109   3.749 -0.5016  0.0697  0.5414
 4074SOL    HW123858   1.922   4.020   3.784  0.0350 -0.1613 -0.1435
 4074SOL    HW223859   2.010   4.121   3.763 -0.7167  0.4754  1.6649
 4075SOL     OW23860   3.234   2.585   7.929 -0.9639  0.3040  0.3161
 4075SOL    HW123861   3.180   2.514   7.894  1.7204 -0.6548 -1.8788
 4075SOL    HW223862   3.182   2.662   7.905  1.5811  1.4722 -1.4221
 4076SOL     OW23863   0.614   2.062   4.182 -0.3595 -0.5864  0.1276
 4076SOL    HW123864   0.653   2.141   4.144  0.7050 -1.1878 -0.0366
 4076SOL    HW223865   0.671   1.993   4.149 -2.0870 -2.2747  0.7210
 4077SOL     OW23866   0.942   1.141  11.767 -0.1143 -0.2770  0.5293
 4077SOL    HW123867   0.878   1.211  11.760 -0.2358 -0.2628  1.7754
 4077SOL    HW223868   0.999   1.186  11.829  0.6803  0.8134 -0.9871
 4078SOL     OW23869   1.243   0.108   2.022  0.4767 -0.4515 -0.2987
 4078SOL    HW123870   1.205   0.051   2.089 -0.3717  0.2300 -0.2017
 4078SOL    HW223871   1.308   0.054   1.979 -1.3206 -1.3347 -1.8795
 4079SOL     OW23872   3.075   0.138  15.391  0.4200 -0.1644 -0.2218
 4079SOL    HW123873   3.093   0.143  15.485 -1.8256  2.3949  0.0541
 4079SOL    HW223874   2.990   0.181  15.394  1.0240  0.9727  0.4897
 4080SOL     OW23875   3.191   0.261   6.079  0.1516 -0.6047  0.1287
 4080SOL    HW123876   3.272   0.235   6.036  0.4500  0.9850 -0.2690
 4080SOL    HW223877   3.203   0.211   6.160  1.2756 -1.9209 -0.8523
 4081SOL     OW23878   2.585   3.774  16.874 -0.1035 -0.4412  0.5182
 4081SOL    HW123879   2.604   3.834  16.946  0.6003 -0.6821  0.5283
 4081SOL    HW223880   2.659   3.713  16.878  0.0162 -0.2179  1.6350
 4082SOL     OW23881   2.829   2.379   3.781 -0.4182  0.3565 -0.2215
 4082SOL    HW123882   2.854   2.468   3.806 -1.2880  1.0628 -1.8307
 4082SOL    HW223883   2.781   2.384   3.698 -0.5422 -0.2803 -0.1883
 4083SOL     OW23884   0.416   2.723   1.010  0.3859  0.5967 -0.4498
 4083SOL    HW123885   0.373   2.640   0.990  3.6556 -1.0592 -0.7093
 4083SOL    HW223886   0.503   2.705   0.973 -0.3236 -0.4175 -1.6037
 4084SOL     OW23887   1.395   1.621  15.794 -0.1357 -0.2146  0.0606
 4084SOL    HW123888   1.329   1.603  15.861  3.1152  1.9221  3.7756
 4084SOL    HW223889   1.351   1.627  15.709  2.0832 -1.5579 -1.1700
 4085SOL     OW23890   3.796   4.126   3.253  0.2150  0.0115  0.7606
 4085SOL    HW123891   3.704   4.110   3.235  0.2950 -0.0860  0.4295
 4085SOL    HW223892   3.818   4.210   3.212  2.2689  0.3608  2.5718
 4086SOL     OW23893   4.568   1.598   6.294 -0.0971  0.3719 -0.3985
 4086SOL    HW123894   4.589   1.681   6.250 -0.5984  0.2591 -0.8477
 4086SOL    HW223895   4.652   1.599   6.340 -0.0469 -0.9823 -0.4693
 4087SOL     OW23896   4.056   3.795  11.469 -0.0104  0.4209 -0.0807
 4087SOL    HW123897   3.962   3.772  11.467 -0.0027  0.4595 -0.6551
 4087SOL    HW223898   4.079   3.723  11.528  2.7633  0.8834 -0.6075
 4088SOL     OW23899   1.369   1.337   9.198  0.1541  0.2456 -0.4074
 4088SOL    HW123900   1.328   1.384   9.270  0.0908 -1.4117  0.6333
 4088SOL    HW223901   1.289   1.305   9.157  0.9636  0.0542 -1.8373
 4089SOL     OW23902   2.128   0.749  16.543  0.2912 -0.3440 -0.0207
 4089SOL    HW123903   2.147   0.728  16.451 -1.5658  1.1210 -0.7447
 4089SOL    HW223904   2.130   0.844  16.527 -3.6097 -0.3874 -0.9348
 4090SOL     OW23905   4.261   1.694   8.501 -0.5240  0.1097  0.0924
 4090SOL    HW123906   4.170   1.715   8.483 -0.1359  1.6053 -0.1595
 4090SOL    HW223907   4.305   1.769   8.459  0.7417 -1.4720 -1.4251
 4091SOL     OW23908   3.336   4.483   7.113  0.6869  0.7690  0.0480
 4091SOL    HW123909   3.344   4.495   7.018 -1.0276  0.0802 -0.1739
 4091SOL    HW223910   3.405   4.416   7.121  1.9013  1.6321 -3.1867
 4092SOL     OW23911   2.037   1.597   6.299 -0.2926 -0.0436  0.7745
 4092SOL    HW123912   1.981   1.572   6.225 -0.1004  1.0145  0.2636
 4092SOL    HW223913   2.117   1.618   6.251 -0.7236 -0.4587 -0.1347
 4093SOL     OW23914   0.929   4.389   7.331 -0.1242 -0.2175  0.7966
 4093SOL    HW123915   0.910   4.311   7.278  1.5784 -1.8935  2.6515
 4093SOL    HW223916   0.965   4.346   7.409 -1.7901 -0.5214  1.3955
 4094SOL     OW23917   4.358   1.494   2.548 -0.4341 -0.0194 -0.0129
 4094SOL    HW123918   4.444   1.501   2.590 -1.0397  2.7641  0.7927
 4094SOL    HW223919   4.346   1.580   2.508 -0.9044  0.1340  0.4486
 4095SOL     OW23920   1.179   1.672  13.673  0.1277  0.2032  0.0025
 4095SOL    HW123921   1.202   1.734  13.604  3.5195 -1.2245 -0.1398
 4095SOL    HW223922   1.228   1.592  13.652 -1.7085 -0.1271 -3.0764
 4096SOL     OW23923   0.165   0.128  15.524 -0.2819  0.2615 -0.5673
 4096SOL    HW123924   0.138   0.220  15.526 -0.6530  0.1494 -0.2164
 4096SOL    HW223925   0.162   0.115  15.619 -1.5107  0.6507 -0.5419
 4097SOL     OW23926   0.379   1.243   4.804  0.0340 -0.1516  0.3948
 4097SOL    HW123927   0.400   1.208   4.717 -0.5778  0.6784 -0.0809
 4097SOL    HW223928   0.357   1.164   4.854 -1.6178 -0.5344 -0.9455
 4098SOL     OW23929   3.073   3.742   4.137 -0.4928  0.5898 -0.0142
 4098SOL    HW123930   3.130   3.781   4.203 -1.0307  1.5389 -0.1111
 4098SOL    HW223931   2.992   3.736   4.188 -0.1769  2.5136  0.7029
 4099SOL     OW23932   1.679   0.429  10.219 -0.0465 -0.2432 -1.1631
 4099SOL    HW123933   1.747   0.479  10.174  1.6117 -2.1577 -0.8046
 4099SOL    HW223934   1.740   0.384  10.277 -0.3606 -0.1363 -0.7559
 4100SOL     OW23935   1.158   1.170   7.823 -0.0692  0.3120 -0.0404
 4100SOL    HW123936   1.154   1.226   7.901  1.0052  0.4157 -0.0622
 4100SOL    HW223937   1.097   1.099   7.844 -0.5218  0.6283 -0.2944
 4101SOL     OW23938   3.714   3.931  15.319 -0.2306  0.4753  0.0524
 4101SOL    HW123939   3.786   3.903  15.261  0.5545  2.8845 -0.1528
 4101SOL    HW223940   3.748   3.950  15.406 -1.1797  0.8093  0.3390
 4102SOL     OW23941   3.756   2.480   6.052 -0.1358 -0.2279  0.1241
 4102SOL    HW123942   3.680   2.430   6.082 -0.2230 -0.5772 -0.6740
 4102SOL    HW223943   3.818   2.410   6.074  1.3436  1.3370  0.9356
 4103SOL     OW23944   4.442   4.670   2.425 -0.0346 -0.5943  0.0897
 4103SOL    HW123945   4.499   0.004   2.454 -1.4211  0.1666  0.9927
 4103SOL    HW223946   4.471   4.651   2.337 -3.8988 -1.1233 -1.0856
 4104SOL     OW23947   3.498   1.287  10.534  0.2187  0.3068  0.1089
 4104SOL    HW123948   3.425   1.345  10.555  1.8378  1.9358  1.2039
 4104SOL    HW223949   3.473   1.253  10.448 -2.1040 -0.7802  1.2299
 4105SOL     OW23950   4.362   0.687   0.060  0.5621  0.0831  0.2803
 4105SOL    HW123951   4.409   0.675   0.142 -0.8446  2.5077  1.4268
 4105SOL    HW223952   4.279   0.641   0.073 -1.0036  3.0165  0.7079
 4106SOL     OW23953   4.612   0.115   2.489 -0.0956  0.1018 -0.0600
 4106SOL    HW123954   4.610   0.206   2.458  0.1025  0.4485  0.9415
 4106SOL    HW223955   4.668   0.140   2.563  0.8470  0.0346 -0.7503
 4107SOL     OW23956   4.480   0.821   2.418  0.0685  0.4264  0.0326
 4107SOL    HW123957   4.387   0.817   2.439 -0.0684 -1.9485 -1.0376
 4107SOL    HW223958   4.492   0.768   2.339  0.7475  3.2668 -1.7510
 4108SOL     OW23959   1.663   2.049   5.041  0.7347 -0.5792 -0.1458
 4108SOL    HW123960   1.628   2.137   5.054 -2.3658 -1.5450 -1.9592
 4108SOL    HW223961   1.738   2.063   4.983 -0.1529  2.9210 -0.4479
 4109SOL     OW23962   4.459   1.296   9.281  0.1016 -0.2086 -0.5181
 4109SOL    HW123963   4.497   1.263   9.200  3.7234  0.2073  1.0406
 4109SOL    HW223964   4.431   1.208   9.310 -0.6945  0.2003 -0.0206
 4110SOL     OW23965   4.042   0.529  12.067  0.9583  0.0394  0.3543
 4110SOL    HW123966   4.100   0.605  12.068 -0.1474  0.8853  0.2393
 4110SOL    HW223967   4.105   0.457  12.066  0.1664 -0.6573 -0.1339
 4111SOL     OW23968   3.221   4.708   3.353 -0.3372  0.0177  0.0975
 4111SOL    HW123969   3.261   0.057   3.372  2.0342 -0.6761 -1.8086
 4111SOL    HW223970   3.299   4.670   3.313 -0.9468 -1.6856  0.5533
 4112SOL     OW23971   4.552   2.631   5.268 -0.3368  0.6312 -0.1876
 4112SOL    HW123972   4.465   2.671   5.279 -1.2806 -1.2870 -0.7881
 4112SOL    HW223973   4.588   2.612   5.355 -0.8863 -0.4817 -0.2082
 4113SOL     OW23974   1.724   3.720   9.517  0.4476 -0.1497 -0.2025
 4113SOL    HW123975   1.674   3.644   9.549  1.4832 -0.1631  1.3722
 4113SOL    HW223976   1.654   3.776   9.484 -0.4826 -1.2663 -0.1534
 4114SOL     OW23977   1.849   2.996   6.029  0.1723 -0.3311  0.2696
 4114SOL    HW123978   1.895   3.040   6.100  1.3901  1.6165 -1.7155
 4114SOL    HW223979   1.925   2.976   5.974 -0.3795  0.6841 -0.8844
 4115SOL     OW23980   0.702   1.553  17.445 -0.2769 -0.2372 -0.5638
 4115SOL    HW123981   0.741   1.477  17.403  1.2166  0.3698 -0.2503
 4115SOL    HW223982   0.659   1.585  17.365  0.0148  2.5755  0.3914
 4116SOL     OW23983   0.061   0.453   8.711  0.4805 -0.5827  0.4556
 4116SOL    HW123984   4.728   0.491   8.657  1.1377  0.8246  0.6032
 4116SOL    HW223985   0.068   0.374   8.658 -1.6053  1.0125 -2.1950
 4117SOL     OW23986   4.357   1.312   1.854  0.5734 -0.4796  0.3303
 4117SOL    HW123987   4.402   1.372   1.794  0.2491 -0.9349 -0.3609
 4117SOL    HW223988   4.353   1.231   1.805  0.1805  0.3739 -1.0393
 4118SOL     OW23989   0.130   2.615   5.952  0.3995  0.1878  0.4373
 4118SOL    HW123990   0.148   2.523   5.931 -1.6833  0.5418 -2.8998
 4118SOL    HW223991   0.203   2.651   5.902  0.5695 -0.7342  0.0285
 4119SOL     OW23992   4.499   0.956   5.493  0.1121 -0.3107 -0.7152
 4119SOL    HW123993   4.579   0.952   5.439 -0.8101  2.1040 -2.2220
 4119SOL    HW223994   4.446   1.004   5.431 -0.2021  0.6646  0.3119
 4120SOL     OW23995   4.690   0.311   3.954  0.0156  0.1701  0.2898
 4120SOL    HW123996   4.657   0.336   4.040 -0.7780 -0.3253  0.1307
 4120SOL    HW223997   4.612   0.319   3.899 -0.0214  0.0421  0.3233
 4121SOL     OW23998   3.366   0.607   1.696 -0.8980  0.3147  0.1507
 4121SOL    HW123999   3.404   0.658   1.625 -0.1369 -1.9481 -1.0737
 4121SOL    HW224000   3.410   0.640   1.775 -0.5168  0.7887 -0.2647
 4122SOL     OW24001   4.535   4.094   4.302  0.3039  0.3446  0.0172
 4122SOL    HW124002   4.563   4.170   4.253 -0.1811  1.2912  1.1971
 4122SOL    HW224003   4.458   4.062   4.256  0.3613  0.0514  0.1169
 4123SOL     OW24004   2.145   4.129   8.776 -0.5408 -0.1505 -0.2780
 4123SOL    HW124005   2.083   4.117   8.847 -2.4245  1.2593 -1.6783
 4123SOL    HW224006   2.099   4.081   8.708 -0.8329  1.6148 -1.3355
 4124SOL     OW24007   0.401   1.327   6.819  0.1438 -0.0283  0.1664
 4124SOL    HW124008   0.405   1.406   6.765 -0.6691 -1.3149 -1.7762
 4124SOL    HW224009   0.317   1.347   6.860 -0.0773 -0.2903 -0.1592
 4125SOL     OW24010   2.854   4.234  11.754  0.0965  0.1661  0.0735
 4125SOL    HW124011   2.775   4.234  11.808 -0.3030  0.5528 -0.5246
 4125SOL    HW224012   2.924   4.218  11.818 -0.3652 -1.2542  0.2418
 4126SOL     OW24013   1.848   0.117  13.522 -0.0477 -0.1430 -0.2830
 4126SOL    HW124014   1.889   0.036  13.552 -2.3562 -1.0505  0.4625
 4126SOL    HW224015   1.786   0.091  13.454  0.4971 -0.8789 -0.4928
 4127SOL     OW24016   3.948   2.264   4.271  0.2965  0.3769 -0.0787
 4127SOL    HW124017   3.990   2.341   4.233  0.0643  0.4288 -0.2308
 4127SOL    HW224018   3.952   2.196   4.204 -1.0210  0.0178  0.1888
 4128SOL     OW24019   4.360   2.249   7.173  0.7129 -0.3546  0.3826
 4128SOL    HW124020   4.358   2.263   7.268 -1.4558  0.3147  0.2522
 4128SOL    HW224021   4.372   2.338   7.138 -1.0886 -0.1942  0.1585
 4129SOL     OW24022   1.683   0.297   7.180 -0.6691  0.0429 -0.2064
 4129SOL    HW124023   1.680   0.247   7.262  0.8525  0.2385 -0.0226
 4129SOL    HW224024   1.623   0.243   7.129 -0.4343  1.4512 -1.9895
 4130SOL     OW24025   4.270   1.591   3.996  0.7597 -0.0107  0.2501
 4130SOL    HW124026   4.212   1.528   3.953  0.2455 -0.0330  0.9756
 4130SOL    HW224027   4.347   1.585   3.938  1.2830  0.8872  0.8587
 4131SOL     OW24028   2.753   1.231   2.715 -0.4729  0.8593 -0.0931
 4131SOL    HW124029   2.824   1.189   2.668 -0.5228  1.4603 -0.7191
 4131SOL    HW224030   2.702   1.159   2.752  1.9910 -0.5466  0.5274
 4132SOL     OW24031   3.024   2.681   9.341  0.4213  0.2846 -0.2959
 4132SOL    HW124032   2.987   2.748   9.397  1.0027  2.5754 -2.6682
 4132SOL    HW224033   3.115   2.708   9.325  1.1433 -1.9057  0.0065
 4133SOL     OW24034   0.011   4.674   7.427 -0.4480  0.1069 -0.7895
 4133SOL    HW124035   4.697   4.635   7.357 -0.0209 -0.7490 -0.6189
 4133SOL    HW224036   4.686   4.643   7.493 -0.4049 -0.8903 -1.2214
 4134SOL     OW24037   1.996   2.923   4.971  0.0244 -0.9755 -0.1784
 4134SOL    HW124038   1.951   2.878   4.899 -1.6562 -0.9863  0.8582
 4134SOL    HW224039   2.057   2.850   4.984  0.8549 -0.6698 -2.4957
 4135SOL     OW24040   0.950   2.242   5.854 -0.0682 -0.0910 -0.0517
 4135SOL    HW124041   0.862   2.275   5.873 -0.3671 -2.1667  2.0661
 4135SOL    HW224042   1.000   2.322   5.872  0.6128 -0.1891 -1.5150
 4136SOL     OW24043   0.653   3.575   0.708  0.2077  0.1550 -0.0365
 4136SOL    HW124044   0.575   3.545   0.754  1.8669  0.0994  2.7053
 4136SOL    HW224045   0.664   3.508   0.641 -0.6113 -2.4743  2.5027
 4137SOL     OW24046   4.642   2.019  14.746  0.1852  0.2856 -0.8568
 4137SOL    HW124047   4.680   1.945  14.698 -0.3795 -0.2705 -0.4568
 4137SOL    HW224048   4.691   2.095  14.714  0.8834 -0.4623 -1.5655
 4138SOL     OW24049   2.699   3.078   5.213  0.4024  0.5068  0.3569
 4138SOL    HW124050   2.654   3.048   5.292  3.6523  0.9971  2.4307
 4138SOL    HW224051   2.788   3.081   5.250  0.2393 -0.0513  0.7898
 4139SOL     OW24052   0.214   3.493  10.389  0.2369 -0.0460  0.2790
 4139SOL    HW124053   0.249   3.513  10.476 -0.3676 -0.5975  0.6509
 4139SOL    HW224054   0.125   3.528  10.393  1.0523  1.9693  1.0108
 4140SOL     OW24055   4.375   2.728  14.663 -0.4371  0.0494 -0.1550
 4140SOL    HW124056   4.441   2.661  14.646  2.2931  2.3586  1.2050
 4140SOL    HW224057   4.339   2.701  14.747  1.2448 -0.8745  0.2641
 4141SOL     OW24058   3.130   0.629   1.259 -0.1296 -0.1525 -0.3311
 4141SOL    HW124059   3.091   0.631   1.171  0.7921  3.5748 -0.6354
 4141SOL    HW224060   3.133   0.536   1.283 -1.9055 -0.6743 -2.1081
 4142SOL     OW24061   3.059   3.168   6.485  0.1662  0.0364  0.5624
 4142SOL    HW124062   3.034   3.260   6.494  1.9016  0.8525 -2.6680
 4142SOL    HW224063   3.107   3.164   6.568 -1.1776  0.6436  1.3686
 4143SOL     OW24064   1.362   3.218  16.699 -0.0947 -0.1909 -0.4218
 4143SOL    HW124065   1.365   3.263  16.615  1.2529 -2.1685 -1.4487
 4143SOL    HW224066   1.407   3.279  16.757 -2.1361  0.1850  0.7585
 4144SOL     OW24067   3.175   0.367   3.475  0.2058  0.1656  0.6313
 4144SOL    HW124068   3.099   0.424   3.491 -0.3078 -0.6604  1.1420
 4144SOL    HW224069   3.218   0.383   3.559 -0.3583  4.8887 -0.0208
 4145SOL     OW24070   0.441   1.066   4.084  0.3353  0.2752  0.0078
 4145SOL    HW124071   0.420   0.992   4.027  1.5900 -1.1629  1.4025
 4145SOL    HW224072   0.353   1.092   4.109  0.5786  0.5050  0.6176
 4146SOL     OW24073   0.849   2.559  10.768 -0.5744  0.1523  0.0775
 4146SOL    HW124074   0.774   2.618  10.760 -1.0698  0.0446  3.7139
 4146SOL    HW224075   0.807   2.477  10.792 -0.1867 -0.8582 -2.6747
 4147SOL     OW24076   2.779   4.026   6.503  0.2519  0.2132  0.3386
 4147SOL    HW124077   2.704   4.071   6.543  1.1080  1.3637  0.6346
 4147SOL    HW224078   2.842   4.031   6.574 -2.4110  2.6016  2.5280
 4148SOL     OW24079   4.491   3.585   6.849  0.2801 -0.4852 -0.1466
 4148SOL    HW124080   4.490   3.492   6.871 -1.2180 -0.4313 -0.0024
 4148SOL    HW224081   4.397   3.599   6.860 -0.2416 -3.0040 -1.5407
 4149SOL     OW24082   4.308   1.510   6.182  0.0429  0.0535  0.0015
 4149SOL    HW124083   4.273   1.584   6.132  1.5083  1.3159  0.8544
 4149SOL    HW224084   4.396   1.541   6.200 -0.9013  3.6086 -1.5926
 4150SOL     OW24085   1.715   3.406  12.580 -0.2562 -0.4646  0.0632
 4150SOL    HW124086   1.624   3.384  12.600 -0.4026  1.2118  1.2552
 4150SOL    HW224087   1.704   3.459  12.501  2.1594 -2.9035 -1.8928
 4151SOL     OW24088   1.151   2.237  15.023 -0.0593 -0.0604  0.0379
 4151SOL    HW124089   1.132   2.219  15.115 -2.5843  1.3039 -0.2193
 4151SOL    HW224090   1.067   2.273  14.995 -0.6964  0.7146  2.8934
 4152SOL     OW24091   4.293   2.793   4.473 -0.8176 -0.4397 -0.2510
 4152SOL    HW124092   4.327   2.870   4.517  0.0169  0.0411 -1.7228
 4152SOL    HW224093   4.199   2.809   4.468 -0.9566 -1.6150 -1.6176
 4153SOL     OW24094   1.651   4.089  12.982 -0.1871  0.0224  0.0626
 4153SOL    HW124095   1.674   4.176  12.949  0.6248  0.1842  1.0557
 4153SOL    HW224096   1.557   4.092  12.969 -0.1201  1.1713 -0.2245
 4154SOL     OW24097   1.295   1.219  12.994  0.2279  0.1986  0.1108
 4154SOL    HW124098   1.239   1.142  13.004 -0.2016  0.5902  0.7172
 4154SOL    HW224099   1.381   1.185  12.971  0.4866  0.2981  0.9388
 4155SOL     OW24100   4.415   0.683   3.343 -0.3861 -0.0774 -0.3430
 4155SOL    HW124101   4.424   0.726   3.429 -2.9822 -0.0145 -0.0928
 4155SOL    HW224102   4.473   0.608   3.355 -2.0089 -1.1184  1.0925
 4156SOL     OW24103   1.766   4.609   7.254 -0.3515  0.2805  0.2916
 4156SOL    HW124104   1.845   4.566   7.284 -0.3751  0.5481  0.7315
 4156SOL    HW224105   1.702   4.595   7.324  0.3809  0.8094  1.0665
 4157SOL     OW24106   3.393   4.621   8.670 -0.0022  0.4144 -0.4675
 4157SOL    HW124107   3.330   4.550   8.656 -0.7780  0.8198  1.0318
 4157SOL    HW224108   3.405   4.642   8.577 -0.7576  2.8133 -0.0074
 4158SOL     OW24109   2.990   3.193   2.022  0.4040  0.2958 -0.1235
 4158SOL    HW124110   3.029   3.258   1.964 -1.5070  0.6597 -1.0217
 4158SOL    HW224111   2.920   3.248   2.058  0.3503  0.7479 -0.9183
 4159SOL     OW24112   1.511   0.920   1.766 -0.9085 -0.0712 -0.3374
 4159SOL    HW124113   1.467   0.949   1.686  0.2780  2.0021 -0.2371
 4159SOL    HW224114   1.441   0.919   1.830 -0.2478 -0.9720  0.3572
 4160SOL     OW24115   0.535   2.376   3.643 -0.1589  0.1699  0.4299
 4160SOL    HW124116   0.620   2.340   3.618 -0.1864  0.7642 -0.5190
 4160SOL    HW224117   0.546   2.391   3.737  0.2349 -0.0795  0.4243
 4161SOL     OW24118   3.203   4.723  14.112 -0.0979  0.1317 -0.1495
 4161SOL    HW124119   3.149   0.059  14.081 -0.5134  0.0499  0.3877
 4161SOL    HW224120   3.284   0.029  14.083  0.7271 -0.2783  1.5902
 4162SOL     OW24121   1.406   0.051   6.825  0.5375  0.0035 -0.2698
 4162SOL    HW124122   1.469   0.071   6.894 -1.9110  1.1999  1.5922
 4162SOL    HW224123   1.356   4.714   6.860  0.7974 -0.0390  0.0065
 4163SOL     OW24124   0.663   4.372   7.731  0.6225 -0.0186  0.1680
 4163SOL    HW124125   0.724   4.433   7.774 -0.0549  1.2584 -0.6610
 4163SOL    HW224126   0.678   4.397   7.640 -2.6301  2.6660  0.3693
 4164SOL     OW24127   0.923   0.605  12.231  0.2316 -0.5171  0.0243
 4164SOL    HW124128   0.887   0.693  12.218  1.2725 -0.8557 -5.1627
 4164SOL    HW224129   1.017   0.619  12.246  0.4000 -1.7607  0.1389
 4165SOL     OW24130   1.439   2.368   4.051  0.2327 -0.8821  0.1289
 4165SOL    HW124131   1.378   2.394   3.981  0.4274  0.8381  0.6102
 4165SOL    HW224132   1.430   2.430   4.122  2.5926  1.0496 -1.2651
 4166SOL     OW24133   0.493   2.366   7.001  0.5974  0.5047  0.0616
 4166SOL    HW124134   0.553   2.292   6.995 -1.0943 -0.9509  1.2550
 4166SOL    HW224135   0.464   2.370   6.910 -1.2993  1.8210  0.7240
 4167SOL     OW24136   0.615   0.056   8.146  0.2831  0.3896 -0.6724
 4167SOL    HW124137   0.607   0.042   8.241  1.3230  0.5841 -0.5583
 4167SOL    HW224138   0.613   0.152   8.147  1.5066  0.4133 -1.0452
 4168SOL     OW24139   2.836   3.243   3.822 -0.2352 -0.0911 -0.0361
 4168SOL    HW124140   2.875   3.175   3.767 -1.0263  0.7142 -1.5950
 4168SOL    HW224141   2.741   3.231   3.813 -0.3238 -0.6068  1.7625
 4169SOL     OW24142   1.573   3.575   3.007  0.0273 -0.2713 -0.2213
 4169SOL    HW124143   1.574   3.479   3.016 -2.2716 -0.1059  1.9395
 4169SOL    HW224144   1.560   3.582   2.913  0.2041  2.4660 -0.0192
 4170SOL     OW24145   0.724   1.510   2.630 -0.0397 -0.2606  0.2855
 4170SOL    HW124146   0.675   1.476   2.705  0.7214  0.4949  1.1319
 4170SOL    HW224147   0.653   1.559   2.590  0.6327 -0.7001 -1.4522
 4171SOL     OW24148   2.090   4.241   7.299 -0.5402 -0.0458 -0.6295
 4171SOL    HW124149   2.162   4.194   7.342 -0.2495  0.2169 -0.8300
 4171SOL    HW224150   2.019   4.176   7.296 -0.3049 -0.2953 -0.7584
 4172SOL     OW24151   1.710   4.131   5.534 -0.4468  0.4422  0.2278
 4172SOL    HW124152   1.745   4.195   5.597 -0.7063  0.4018  0.4122
 4172SOL    HW224153   1.652   4.185   5.480 -0.9493  0.7253  1.0527
 4173SOL     OW24154   1.193   3.158   2.386  0.7753 -0.0549  0.4597
 4173SOL    HW124155   1.119   3.111   2.347  0.1166  1.6859 -0.3705
 4173SOL    HW224156   1.266   3.109   2.348  1.2757  0.4714  0.7469
 4174SOL     OW24157   4.033   2.778   4.502  0.6354  0.4897 -0.5120
 4174SOL    HW124158   4.046   2.812   4.591  0.2152  2.0722 -1.0685
 4174SOL    HW224159   3.945   2.808   4.479  0.9190  1.0848 -0.8186
 4175SOL     OW24160   2.738   0.571   0.412  0.1012  0.0392  0.0593
 4175SOL    HW124161   2.752   0.631   0.339 -0.1589 -0.1036 -0.1074
 4175SOL    HW224162   2.643   0.559   0.416  0.0991 -0.0216 -0.1870
 4176SOL     OW24163   2.757   0.754   5.134  0.1522  0.6263 -0.4973
 4176SOL    HW124164   2.682   0.809   5.110 -2.2277 -2.5622 -0.4743
 4176SOL    HW224165   2.738   0.744   5.227 -1.0860 -1.4027 -0.9433
 4177SOL     OW24166   1.508   0.279  13.185  0.1521  0.4132 -0.1327
 4177SOL    HW124167   1.554   0.355  13.148  1.1647  0.4502  1.2186
 4177SOL    HW224168   1.503   0.221  13.109 -1.1782 -0.7091  0.8201
 4178SOL     OW24169   0.834   0.553   1.629 -0.3211 -0.5705  0.2428
 4178SOL    HW124170   0.927   0.572   1.636 -0.0258 -1.2653 -2.0626
 4178SOL    HW224171   0.813   0.632   1.580  1.5035  0.2695  0.8220
 4179SOL     OW24172   2.184   4.579  12.083  0.3246  0.0216  0.1091
 4179SOL    HW124173   2.106   4.634  12.079  0.6834  0.7351  3.0269
 4179SOL    HW224174   2.177   4.517  12.010  2.3615 -0.0703 -0.0136
 4180SOL     OW24175   4.213   1.723   2.190 -0.1624  0.2730 -0.3888
 4180SOL    HW124176   4.261   1.680   2.120  1.3455 -2.0029  2.0280
 4180SOL    HW224177   4.161   1.780   2.134  0.1175 -1.4231 -2.3834
 4181SOL     OW24178   1.868   1.175   3.740  0.7626 -0.2288 -0.2035
 4181SOL    HW124179   1.860   1.258   3.787 -1.0661  0.8458 -2.3914
 4181SOL    HW224180   1.894   1.203   3.652  2.3720  0.4862  0.4912
 4182SOL     OW24181   2.634   0.068  17.642  0.6146  0.4599 -0.0319
 4182SOL    HW124182   2.660   0.118  17.719  2.1661 -0.8008  0.2668
 4182SOL    HW224183   2.715   0.068  17.592 -0.1967  1.5890 -1.3262
 4183SOL     OW24184   2.072   0.914   3.947 -0.6205 -0.0209 -0.5262
 4183SOL    HW124185   1.990   0.961   3.939 -0.1928  1.0588  1.5256
 4183SOL    HW224186   2.078   0.858   3.869 -2.8418 -0.9047 -0.0338
 4184SOL     OW24187   3.854   2.258   4.637  0.4796  0.0409  0.3413
 4184SOL    HW124188   3.849   2.246   4.732 -1.0217 -0.1278  0.2504
 4184SOL    HW224189   3.919   2.328   4.631  1.8705 -1.1163  2.0532
 4185SOL     OW24190   0.750   1.458   2.220 -0.2038 -0.2189  0.0007
 4185SOL    HW124191   0.760   1.372   2.260  1.3003  0.4980  1.1780
 4185SOL    HW224192   0.725   1.525   2.283  1.5641 -0.7599  1.2903
 4186SOL     OW24193   2.153   3.909   8.290 -0.1088  0.2942  0.4064
 4186SOL    HW124194   2.156   4.004   8.294  1.3972  0.2146  1.4027
 4186SOL    HW224195   2.246   3.898   8.309 -0.5058  0.3952  2.3790
 4187SOL     OW24196   1.413   2.013  14.556  0.5692 -0.4211  0.1618
 4187SOL    HW124197   1.347   2.070  14.594  0.1686  0.4284 -1.8304
 4187SOL    HW224198   1.405   1.935  14.612  1.4991 -2.2055 -2.1793
 4188SOL     OW24199   4.574   3.255  10.220 -0.1731 -0.0611  0.0290
 4188SOL    HW124200   4.499   3.217  10.266 -0.3935  0.0239 -0.2633
 4188SOL    HW224201   4.617   3.178  10.183  0.0783  0.6998 -1.2492
 4189SOL     OW24202   0.414   3.055   7.667  0.0092 -0.0260  0.0306
 4189SOL    HW124203   0.410   3.139   7.621 -1.0804 -1.5410 -2.6843
 4189SOL    HW224204   0.508   3.052   7.684 -0.2990 -3.5323  0.9961
 4190SOL     OW24205   3.065   1.205  13.830  0.3729  0.5480 -0.3108
 4190SOL    HW124206   3.093   1.178  13.917 -1.8744 -1.5076 -0.2039
 4190SOL    HW224207   2.971   1.216  13.847  0.3309  0.1346 -0.2623
 4191SOL     OW24208   2.003   3.210   4.336  0.1890 -0.0954 -0.3794
 4191SOL    HW124209   2.043   3.229   4.252 -0.6422 -1.1805 -1.0172
 4191SOL    HW224210   1.963   3.125   4.319  1.1692 -0.3905 -1.1736
 4192SOL     OW24211   0.889   1.544   5.459 -0.1034  0.3152 -0.1888
 4192SOL    HW124212   0.939   1.507   5.531  1.9333  2.1797 -0.6531
 4192SOL    HW224213   0.895   1.473   5.394 -1.9247 -0.6863  0.7235
 4193SOL     OW24214   0.995   1.091  13.138  0.0090 -0.0729  0.5111
 4193SOL    HW124215   0.988   1.057  13.049  0.7716  0.1207  0.3783
 4193SOL    HW224216   1.073   1.042  13.163  0.6360 -0.4786 -2.2857
 4194SOL     OW24217   2.559   0.664   9.586 -0.1670 -0.5516 -0.0109
 4194SOL    HW124218   2.642   0.699   9.621  0.3548 -2.1268  0.3169
 4194SOL    HW224219   2.578   0.570   9.584 -0.5353 -0.6548  1.5696
 4195SOL     OW24220   3.309   0.568   5.373  0.2791  0.1672  0.2165
 4195SOL    HW124221   3.223   0.526   5.375  0.0325  0.4659 -2.9751
 4195SOL    HW224222   3.368   0.502   5.336  0.4919  0.6242 -0.2618
 4196SOL     OW24223   3.276   3.809   5.898  0.2877 -0.2720 -0.3695
 4196SOL    HW124224   3.189   3.775   5.920 -0.0310  0.7220 -0.0764
 4196SOL    HW224225   3.319   3.791   5.981  3.5029  1.6788 -1.6370
 4197SOL     OW24226   4.699   0.746  17.488 -0.7419 -0.3025  0.3373
 4197SOL    HW124227   0.010   0.800  17.424 -2.2301  1.3305  0.6387
 4197SOL    HW224228   4.643   0.813  17.526  1.6388  0.7936  1.9442
 4198SOL     OW24229   4.248   1.181   2.089  0.2034  0.3134 -0.4022
 4198SOL    HW124230   4.250   1.238   2.012 -2.4052  1.0399  0.0446
 4198SOL    HW224231   4.163   1.137   2.085  0.3106  0.0994 -0.2634
 4199SOL     OW24232   0.559   1.458  12.618  0.1652 -0.0628 -0.3564
 4199SOL    HW124233   0.470   1.479  12.646  1.2393  0.9215  2.3438
 4199SOL    HW224234   0.608   1.492  12.693 -0.3208 -1.5974  0.6505
 4200SOL     OW24235   1.132   2.093   5.446  0.7971  0.1852 -0.2823
 4200SOL    HW124236   1.183   2.174   5.452  2.4326 -0.6809 -2.3437
 4200SOL    HW224237   1.048   2.118   5.483  0.6691  1.2158 -1.2613
 4201SOL     OW24238   1.444   1.599   0.575  0.4422  0.3930 -0.0557
 4201SOL    HW124239   1.395   1.667   0.621  0.9106  1.0301 -0.5116
 4201SOL    HW224240   1.530   1.601   0.617  0.3220  0.8485  0.1665
 4202SOL     OW24241   2.148   0.024   1.703  0.6612  0.1303 -0.1974
 4202SOL    HW124242   2.174   0.096   1.646 -0.0178  0.3849 -0.1861
 4202SOL    HW224243   2.086   0.062   1.764 -0.5049 -1.8638 -0.1288
 4203SOL     OW24244   1.353   2.354   6.132 -0.6509  0.0472 -0.3716
 4203SOL    HW124245   1.349   2.405   6.212  0.0241 -0.8862  0.2553
 4203SOL    HW224246   1.262   2.323   6.129  0.5346 -3.4337 -1.0454
 4204SOL     OW24247   1.013   3.724   7.313  0.3182  0.8491  0.5910
 4204SOL    HW124248   1.040   3.643   7.357  2.1310 -0.2597 -2.5532
 4204SOL    HW224249   1.065   3.715   7.234  0.6317  0.4611  0.8400
 4205SOL     OW24250   1.459   4.062   4.039  0.2200 -0.5589 -0.1364
 4205SOL    HW124251   1.438   3.970   4.021 -0.0657 -0.6192  0.4836
 4205SOL    HW224252   1.555   4.068   4.044 -0.0631  2.5861  1.4913
 4206SOL     OW24253   1.964   0.296   9.835  0.5642  0.2501  0.1738
 4206SOL    HW124254   2.050   0.291   9.878  0.6746 -0.1782 -0.0909
 4206SOL    HW224255   1.916   0.237   9.893  0.4166 -1.5070 -1.7328
 4207SOL     OW24256   2.208   1.736  16.984 -0.3575  0.5615  0.1979
 4207SOL    HW124257   2.301   1.755  16.974  0.3839 -3.5071 -0.7624
 4207SOL    HW224258   2.170   1.821  16.962  0.2741  1.0204  0.9086
 4208SOL     OW24259   4.603   4.644   5.644 -0.0860 -0.3341  0.3730
 4208SOL    HW124260   4.519   4.676   5.611  1.0477 -0.2778 -2.4178
 4208SOL    HW224261   4.584   4.630   5.737  2.0015 -0.1271  0.8231
 4209SOL     OW24262   4.259   3.901   2.349  0.2079 -0.2147 -0.9266
 4209SOL    HW124263   4.346   3.900   2.388 -0.6499 -1.0260  0.9794
 4209SOL    HW224264   4.227   3.988   2.375 -1.8057 -0.9582 -0.9067
 4210SOL     OW24265   2.092   0.242   1.515 -0.8008 -0.0233 -0.3183
 4210SOL    HW124266   2.074   0.229   1.422  1.8430  0.5256 -0.9057
 4210SOL    HW224267   2.158   0.311   1.520  0.5297 -1.2776 -0.6889
 4211SOL     OW24268   1.755   0.308  14.745  0.4768 -0.1653 -0.2534
 4211SOL    HW124269   1.701   0.374  14.701  1.5025  0.1117 -1.1067
 4211SOL    HW224270   1.704   0.231  14.719 -1.4803  0.5328  1.5893
 4212SOL     OW24271   4.314   4.299   9.309 -0.7528 -0.3323  0.5416
 4212SOL    HW124272   4.264   4.219   9.292  1.4627 -1.9109  1.4149
 4212SOL    HW224273   4.398   4.255   9.325 -0.2747  0.7228  0.9070
 4213SOL     OW24274   2.554   4.465   8.045  0.6806  0.7788 -0.0039
 4213SOL    HW124275   2.495   4.470   8.120 -1.5361  1.4121 -1.7916
 4213SOL    HW224276   2.643   4.458   8.079  0.5622 -1.9608 -0.3024
 4214SOL     OW24277   4.704   3.590   8.891 -0.0259 -0.4534  0.1851
 4214SOL    HW124278   4.731   3.682   8.901 -0.4998 -0.3958  0.8990
 4214SOL    HW224279   4.691   3.581   8.797 -1.7302  0.0838  0.3677
 4215SOL     OW24280   1.015   1.640   8.564 -0.1958  0.0842  0.5775
 4215SOL    HW124281   0.998   1.655   8.657 -0.6547  0.6739  0.3960
 4215SOL    HW224282   0.969   1.557   8.548 -0.7084  0.5124 -0.2129
 4216SOL     OW24283   2.384   4.352   3.699 -0.0348 -0.2505 -0.6346
 4216SOL    HW124284   2.464   4.305   3.723  0.7378  0.4356 -1.8528
 4216SOL    HW224285   2.392   4.436   3.744  1.4268  0.6087 -2.5372
 4217SOL     OW24286   3.430   1.083   3.601 -0.5331  0.5702 -0.1446
 4217SOL    HW124287   3.496   1.100   3.668 -0.6347  0.9218 -0.1349
 4217SOL    HW224288   3.398   1.001   3.639  0.1237  0.1479 -0.4926
 4218SOL     OW24289   3.382   4.664   8.398  0.0091 -0.2722  0.3262
 4218SOL    HW124290   3.341   4.724   8.336  1.1464 -0.4896 -0.6387
 4218SOL    HW224291   3.474   4.656   8.375 -0.2375  0.0797 -0.7538
 4219SOL     OW24292   0.159   3.539   3.438  0.3223 -0.2543  0.1548
 4219SOL    HW124293   0.100   3.563   3.366  0.7419  0.6996  0.1337
 4219SOL    HW224294   0.097   3.498   3.498 -2.6414  0.9002 -2.0921
 4220SOL     OW24295   0.450   4.200   5.563 -0.2932  0.0112  0.2707
 4220SOL    HW124296   0.363   4.166   5.543 -0.1048 -1.4055  1.8427
 4220SOL    HW224297   0.437   4.241   5.648  0.0146  2.9025 -1.0684
 4221SOL     OW24298   0.026   1.996  15.003 -0.2607 -0.3139  0.4584
 4221SOL    HW124299   0.119   1.994  14.979 -1.0336  0.4319 -2.5744
 4221SOL    HW224300   4.723   2.027  14.922  0.6128 -3.7765 -1.2759
 4222SOL     OW24301   1.707   3.562   3.399 -0.1518  0.6261 -0.0193
 4222SOL    HW124302   1.775   3.524   3.455 -1.1912 -0.6575  0.3437
 4222SOL    HW224303   1.723   3.656   3.411  1.9322  0.3751 -0.6575
 4223SOL     OW24304   0.969   4.670   9.185  0.3955 -0.1582  0.9669
 4223SOL    HW124305   0.978   4.639   9.275  3.4291  0.0689  0.7258
 4223SOL    HW224306   1.052   4.716   9.181  0.6456 -0.5379  1.8689
 4224SOL     OW24307   4.644   1.852   2.258 -0.2292  0.1878  0.3719
 4224SOL    HW124308   4.730   1.868   2.219  0.2170  1.5891  1.9337
 4224SOL    HW224309   4.596   1.797   2.196  0.1414  0.6632 -0.3519
 4225SOL     OW24310   4.357   0.229   4.071 -0.4112  0.2273 -0.2187
 4225SOL    HW124311   4.290   0.165   4.047 -0.6753  0.8625 -1.1816
 4225SOL    HW224312   4.368   0.280   3.991  2.6710  0.1432  0.1360
 4226SOL     OW24313   1.540   1.879   2.210 -0.1864  0.3342 -0.2323
 4226SOL    HW124314   1.496   1.810   2.161  1.4997 -0.4412 -0.6892
 4226SOL    HW224315   1.617   1.896   2.154  0.5120 -0.8616  0.3653
 4227SOL     OW24316   2.326   1.743   8.308 -0.3408 -0.2409 -0.0247
 4227SOL    HW124317   2.365   1.667   8.265  0.2069  0.0382 -0.0218
 4227SOL    HW224318   2.247   1.701   8.342 -0.3326  0.1910  0.5298
 4228SOL     OW24319   3.535   2.243   8.766  0.2045 -0.1418 -0.3983
 4228SOL    HW124320   3.477   2.226   8.841  0.5687 -0.2345 -0.1401
 4228SOL    HW224321   3.543   2.338   8.773 -1.7045  0.0635 -0.8467
 4229SOL     OW24322   3.102   1.627  14.420 -0.0998  0.0050  0.1433
 4229SOL    HW124323   3.096   1.587  14.507 -1.5824  3.3952  1.6037
 4229SOL    HW224324   3.038   1.573  14.374  0.2596  0.3507 -0.7539
 4230SOL     OW24325   0.082   3.753  16.589  0.1191  0.0300 -0.3118
 4230SOL    HW124326   0.084   3.702  16.670  2.5306  1.1350  0.3252
 4230SOL    HW224327   0.031   3.831  16.612 -1.7109 -1.0203 -0.8051
 4231SOL     OW24328   2.008   0.260   5.453 -0.0306  0.0214 -0.1503
 4231SOL    HW124329   2.087   0.207   5.444 -0.0589  0.4470 -2.9240
 4231SOL    HW224330   1.980   0.239   5.542 -0.4784  0.2376 -0.2407
 4232SOL     OW24331   1.267   2.542   4.597 -0.4704 -0.0636 -0.3932
 4232SOL    HW124332   1.249   2.603   4.668 -0.2860 -0.7452  0.2347
 4232SOL    HW224333   1.357   2.520   4.622 -0.3292 -1.2972 -2.0176
 4233SOL     OW24334   3.935   3.179   5.866  0.1154  0.2171 -0.4465
 4233SOL    HW124335   3.862   3.235   5.894  1.2570  0.2602  2.4852
 4233SOL    HW224336   3.889   3.102   5.832  0.0200 -0.3913  1.0717
 4234SOL     OW24337   0.250   2.114   2.557  0.2391 -0.4191  0.2119
 4234SOL    HW124338   0.298   2.044   2.601  0.2078 -1.5471 -1.5027
 4234SOL    HW224339   0.236   2.069   2.473  1.0540  0.1154 -0.2088
 4235SOL     OW24340   3.818   2.464   2.885  0.0431 -0.7118 -0.1665
 4235SOL    HW124341   3.763   2.491   2.811  0.9284  0.0016 -0.5704
 4235SOL    HW224342   3.784   2.512   2.960  0.6977 -1.4248  0.5842
 4236SOL     OW24343   1.844   3.215   9.381 -0.6111 -0.1226 -0.0442
 4236SOL    HW124344   1.909   3.145   9.385  1.3822  1.8154  1.1723
 4236SOL    HW224345   1.826   3.226   9.474  2.4380  1.0449  0.4055
 4237SOL     OW24346   1.209   3.981   3.289  0.6117  0.1100  0.3455
 4237SOL    HW124347   1.138   4.039   3.316 -1.2410 -0.5502 -3.1073
 4237SOL    HW224348   1.256   4.045   3.237  0.9995 -0.3914  0.0831
 4238SOL     OW24349   1.831   1.057  11.619 -0.1583 -0.1305  0.1422
 4238SOL    HW124350   1.863   1.105  11.543 -1.1562  3.1257  1.7772
 4238SOL    HW224351   1.749   1.105  11.623 -0.2480 -0.1993 -0.8852
 4239SOL     OW24352   3.192   4.233  16.204 -0.4347 -0.1276  0.8817
 4239SOL    HW124353   3.123   4.198  16.147 -0.3107  0.1464  0.5599
 4239SOL    HW224354   3.214   4.158  16.259  0.0044 -1.2458 -0.8143
 4240SOL     OW24355   0.874   1.988   7.714  0.3371 -0.3555 -0.0852
 4240SOL    HW124356   0.807   1.992   7.782 -0.9189 -2.4326 -1.1871
 4240SOL    HW224357   0.949   2.004   7.771 -0.3972  1.0007  0.4884
 4241SOL     OW24358   2.220   3.540  13.060  0.1043  0.3447  0.4259
 4241SOL    HW124359   2.151   3.519  12.997  0.6437 -1.9874  0.6014
 4241SOL    HW224360   2.217   3.635  13.058 -0.8615  0.2978 -0.3403
 4242SOL     OW24361   2.091   0.441   2.090 -1.0172  0.0656  1.0893
 4242SOL    HW124362   2.184   0.447   2.109 -0.7117 -0.2185 -0.2898
 4242SOL    HW224363   2.070   0.484   2.007 -2.9815 -1.4887  0.7621
 4243SOL     OW24364   4.398   2.714   1.980  0.1263  0.3979 -0.6247
 4243SOL    HW124365   4.441   2.726   1.895 -0.2346  1.5964 -0.6336
 4243SOL    HW224366   4.391   2.802   2.015  1.2431  0.2316  0.0438
 4244SOL     OW24367   0.827   2.243   2.360  0.4746  0.4932  0.2886
 4244SOL    HW124368   0.847   2.207   2.446 -1.1707  0.0586  0.4887
 4244SOL    HW224369   0.775   2.174   2.319  1.9946  0.0889 -0.9959
 4245SOL     OW24370   1.713   1.977   6.315 -0.7061 -0.0478 -0.3804
 4245SOL    HW124371   1.667   2.023   6.244  0.1122 -0.0083 -0.8808
 4245SOL    HW224372   1.737   1.896   6.269 -0.2755 -1.6265  2.5951
 4246SOL     OW24373   1.788   3.821  14.112  0.2502  0.4585 -0.3980
 4246SOL    HW124374   1.817   3.818  14.021 -2.4114  0.8231 -1.2666
 4246SOL    HW224375   1.806   3.735  14.150  0.4312  0.1235 -1.2240
 4247SOL     OW24376   1.383   4.270   5.402  0.0956 -0.0950 -1.1638
 4247SOL    HW124377   1.353   4.258   5.312 -1.5911 -2.1008 -0.3513
 4247SOL    HW224378   1.473   4.284   5.374  0.0612 -0.2781 -1.3687
 4248SOL     OW24379   3.050   2.015   4.279 -0.5851  0.0269 -0.1844
 4248SOL    HW124380   3.042   2.040   4.187 -0.9884  1.2831  0.1774
 4248SOL    HW224381   2.959   2.038   4.297 -0.5229 -0.8610  1.2806
 4249SOL     OW24382   1.455   1.379   6.333  0.0155 -0.5931  0.4913
 4249SOL    HW124383   1.470   1.396   6.240  1.3217 -1.6109  0.5148
 4249SOL    HW224384   1.539   1.416   6.362 -0.1077 -0.6635  0.9413
 4250SOL     OW24385   1.237   0.086  17.187 -0.0602 -0.2484  0.7838
 4250SOL    HW124386   1.156   0.096  17.236 -0.9808  1.8144 -1.1698
 4250SOL    HW224387   1.283   0.151  17.240 -2.0858  0.1713  2.0327
 4251SOL     OW24388   4.450   3.317   6.899  0.0280 -0.0067 -0.0333
 4251SOL    HW124389   4.426   3.273   6.818 -0.7773  0.1534  0.1119
 4251SOL    HW224390   4.525   3.263   6.923 -0.5573 -0.3961  0.9074
 4252SOL     OW24391   4.145   4.094   6.118  0.1300  0.0964  0.1959
 4252SOL    HW124392   4.184   4.010   6.095  0.2564  0.3942 -0.6737
 4252SOL    HW224393   4.215   4.156   6.141 -0.4506  0.3920  1.1773
 4253SOL     OW24394   0.454   4.574   0.527  0.3800 -0.4317  0.7158
 4253SOL    HW124395   0.377   4.622   0.558 -0.3408 -0.2738 -1.3430
 4253SOL    HW224396   0.459   4.614   0.440 -2.1834 -1.2045  0.2165
 4254SOL     OW24397   4.464   2.986  11.924 -0.2751  0.1587 -0.4882
 4254SOL    HW124398   4.538   2.993  11.985 -0.1794 -0.0058 -0.5843
 4254SOL    HW224399   4.490   2.902  11.888  0.7192  1.0574 -1.8488
 4255SOL     OW24400   3.432   4.202   9.236 -0.2307  0.0741  0.1344
 4255SOL    HW124401   3.347   4.191   9.278  0.6229  1.1165  2.1242
 4255SOL    HW224402   3.475   4.251   9.306 -2.3171  0.5611  1.0633
 4256SOL     OW24403   3.737   0.804  15.707  0.5319  0.8082  0.0390
 4256SOL    HW124404   3.771   0.893  15.700  2.3600  0.3397  2.8981
 4256SOL    HW224405   3.785   0.768  15.781 -1.6097 -2.5173 -0.1912
 4257SOL     OW24406   2.809   0.630  10.362 -0.0204  0.1562  0.1620
 4257SOL    HW124407   2.784   0.548  10.406  2.5034 -0.1910  0.9198
 4257SOL    HW224408   2.825   0.688  10.436  0.4269  0.4474 -0.1626
 4258SOL     OW24409   3.042   3.469   1.965  0.0476 -0.1711  0.3394
 4258SOL    HW124410   3.070   3.497   2.052  0.7713 -0.9375  0.3578
 4258SOL    HW224411   2.987   3.542   1.939 -0.5290 -0.4944  0.6535
 4259SOL     OW24412   3.022   2.081   9.382  0.5749  0.7967  0.1428
 4259SOL    HW124413   2.933   2.083   9.349  1.1410 -3.1605 -1.7058
 4259SOL    HW224414   3.058   2.153   9.331  0.4258 -0.1730 -1.3408
 4260SOL     OW24415   3.146   1.737   8.940  0.2270 -0.4405  0.3794
 4260SOL    HW124416   3.226   1.789   8.938  1.0721 -1.7482  0.4970
 4260SOL    HW224417   3.137   1.719   9.034 -0.6146  0.2442  0.4344
 4261SOL     OW24418   0.297   3.704  17.113  0.4171  0.3196 -0.3881
 4261SOL    HW124419   0.370   3.766  17.120 -0.7445  1.9134 -2.4267
 4261SOL    HW224420   0.330   3.654  17.038  0.8753  2.5510 -1.6622
 4262SOL     OW24421   3.689   3.493   8.577 -0.3183  0.4071  0.1422
 4262SOL    HW124422   3.678   3.578   8.619  0.0713  0.4823  0.0953
 4262SOL    HW224423   3.693   3.531   8.489  0.3083  0.5861  0.2487
 4263SOL     OW24424   1.383   3.402   8.412  0.1193 -0.4615  0.9195
 4263SOL    HW124425   1.366   3.318   8.369  0.2143  0.8792 -1.7077
 4263SOL    HW224426   1.301   3.446   8.391 -1.0785 -3.6985 -1.1420
 4264SOL     OW24427   0.020   3.030  10.987 -0.3883 -0.0300 -0.2049
 4264SOL    HW124428   4.665   3.003  10.993 -0.4511  0.2419  0.0296
 4264SOL    HW224429   0.025   3.065  10.898  0.3998  0.7155  0.1297
 4265SOL     OW24430   0.867   3.210   8.150 -0.3337 -0.7364 -0.6444
 4265SOL    HW124431   0.794   3.266   8.125 -1.4128 -2.4218 -1.2700
 4265SOL    HW224432   0.917   3.259   8.215  0.0266 -1.7488 -0.1574
 4266SOL     OW24433   2.483   3.508   1.741  0.2388 -0.3968  0.3612
 4266SOL    HW124434   2.441   3.567   1.679  2.0174  1.4876  0.9685
 4266SOL    HW224435   2.425   3.431   1.741 -0.7839  0.3725  0.5124
 4267SOL     OW24436   4.531   2.306   5.646  0.0861  0.2623  0.2012
 4267SOL    HW124437   4.497   2.295   5.557  1.2602 -1.0146 -0.0956
 4267SOL    HW224438   4.549   2.400   5.643  0.9921  0.0436 -1.2265
 4268SOL     OW24439   3.707   2.303  13.344  0.3927 -0.5026  0.0778
 4268SOL    HW124440   3.748   2.345  13.268  0.5212 -1.5213 -0.4107
 4268SOL    HW224441   3.787   2.274  13.388  1.9921  1.0289 -1.8007
 4269SOL     OW24442   1.361   1.969   9.273 -0.2653 -0.0973  0.0761
 4269SOL    HW124443   1.307   1.954   9.196  2.1659 -1.9899 -1.2668
 4269SOL    HW224444   1.433   2.026   9.244  0.4250  0.0002  2.0358
 4270SOL     OW24445   1.711   4.118  11.558  0.4155  0.3186 -0.3322
 4270SOL    HW124446   1.667   4.038  11.585 -1.0950  1.6311  1.1186
 4270SOL    HW224447   1.655   4.191  11.584  2.0826  1.4647  0.0400
 4271SOL     OW24448   0.208   3.556  12.719 -0.1441 -0.1001  0.4826
 4271SOL    HW124449   0.223   3.592  12.806  0.3156  3.1632 -0.9565
 4271SOL    HW224450   0.220   3.635  12.667 -3.5099  0.6123  0.7593
 4272SOL     OW24451   1.957   3.347   3.835 -0.0716 -0.4751 -0.2627
 4272SOL    HW124452   2.019   3.351   3.908 -1.3144  0.0774  0.7684
 4272SOL    HW224453   1.893   3.284   3.870  0.9875 -0.7786  1.1219
 4273SOL     OW24454   1.214   2.681  12.943  0.3919  0.2172  0.4865
 4273SOL    HW124455   1.229   2.770  12.975 -1.2783  0.5372  0.3928
 4273SOL    HW224456   1.144   2.648  13.000  1.4629 -0.9974  1.1039
 4274SOL     OW24457   1.852   0.705   7.790  0.2669  0.6808  0.0082
 4274SOL    HW124458   1.787   0.770   7.816  0.4340  0.6690  0.4646
 4274SOL    HW224459   1.926   0.745   7.836  0.7776 -1.5584  1.1411
 4275SOL     OW24460   0.320   3.639   1.823 -0.3938  0.5396 -0.0539
 4275SOL    HW124461   0.396   3.681   1.781  0.3161  0.4617  1.1565
 4275SOL    HW224462   0.303   3.686   1.905 -1.4030  0.7081 -0.3596
 4276SOL     OW24463   4.276   0.163   6.935  0.3384  0.1248 -0.3601
 4276SOL    HW124464   4.257   0.240   6.990 -0.1174  0.4869 -1.0179
 4276SOL    HW224465   4.336   0.120   6.995 -0.1454  0.7850  0.6049
 4277SOL     OW24466   2.420   2.454   6.725 -0.3705  0.2866 -0.7639
 4277SOL    HW124467   2.453   2.394   6.792 -1.4706  0.5535  0.0198
 4277SOL    HW224468   2.481   2.447   6.652 -2.1923  1.7461 -2.4542
 4278SOL     OW24469   3.882   3.631   3.130 -0.0730  0.0864  0.6005
 4278SOL    HW124470   3.909   3.621   3.039  0.1999 -1.8435  0.8880
 4278SOL    HW224471   3.790   3.654   3.121 -0.3206 -0.2045  2.4034
 4279SOL     OW24472   4.194   2.522   1.981  0.0659  0.1915 -0.3973
 4279SOL    HW124473   4.234   2.452   2.032  0.5191  0.5037 -0.3267
 4279SOL    HW224474   4.269   2.581   1.981  0.3880 -0.2201  0.5761
 4280SOL     OW24475   2.299   4.412   7.619 -0.0259 -0.4212  0.1005
 4280SOL    HW124476   2.285   4.326   7.578  0.4767 -0.2048 -0.5331
 4280SOL    HW224477   2.235   4.406   7.689 -1.2070  0.0378 -0.9327
 4281SOL     OW24478   4.265   3.502   1.348  0.0426 -0.1970 -0.2859
 4281SOL    HW124479   4.193   3.560   1.323  0.4606  0.5241  0.1882
 4281SOL    HW224480   4.315   3.560   1.407 -0.0598  0.3988 -0.7796
 4282SOL     OW24481   2.765   4.006  17.553  0.3226 -0.3226  0.6865
 4282SOL    HW124482   2.799   4.091  17.581  2.8141 -0.7318 -1.0786
 4282SOL    HW224483   2.846   3.957  17.564  1.1801  0.7039 -1.0663
 4283SOL     OW24484   0.560   0.024   2.116 -0.4351  0.1797  0.1405
 4283SOL    HW124485   0.629   4.728   2.174  0.7942  0.9556 -0.8818
 4283SOL    HW224486   0.483   4.721   2.156  0.7800 -1.3786  0.9232
 4284SOL     OW24487   0.912   2.797   4.642 -0.3810  0.0097 -0.1134
 4284SOL    HW124488   0.859   2.731   4.686 -1.1826  1.0617  0.4882
 4284SOL    HW224489   0.872   2.787   4.556  0.0431  0.2317 -0.3333
 4285SOL     OW24490   2.535   1.847  11.509  0.2596  0.3679  0.1789
 4285SOL    HW124491   2.543   1.816  11.599 -1.5066  1.9960  0.8946
 4285SOL    HW224492   2.626   1.831  11.482  0.7237  0.9547  1.3901
 4286SOL     OW24493   0.603   2.258  11.871  0.1081  0.0218 -0.0676
 4286SOL    HW124494   0.624   2.188  11.810  0.2370 -0.0050  0.0085
 4286SOL    HW224495   0.596   2.215  11.956 -0.3826  0.7148  0.2412
 4287SOL     OW24496   3.972   3.418   2.089 -0.3931  0.2177  0.1945
 4287SOL    HW124497   3.991   3.495   2.142  0.6878  1.1240 -1.5121
 4287SOL    HW224498   3.907   3.363   2.134 -0.4233  1.4179  1.6068
 4288SOL     OW24499   2.034   3.469   5.408 -0.0943  0.2987  0.3089
 4288SOL    HW124500   1.964   3.451   5.346  2.1716  0.5003 -2.3206
 4288SOL    HW224501   2.081   3.390   5.381 -0.9046  0.1117 -0.5439
 4289SOL     OW24502   1.535   3.158   1.197 -0.6218 -0.1729  0.2038
 4289SOL    HW124503   1.554   3.203   1.279  2.5348 -2.4943  0.7407
 4289SOL    HW224504   1.621   3.170   1.157 -1.3399  2.0217 -0.6879
 4290SOL     OW24505   4.718   0.354   7.839  0.4518  0.8010  0.2035
 4290SOL    HW124506   4.633   0.369   7.879 -0.0839 -3.8115  0.8181
 4290SOL    HW224507   4.705   0.407   7.761  0.0266  1.1356  0.5029
 4291SOL     OW24508   0.289   4.125   8.603 -0.0369 -0.4711 -1.0667
 4291SOL    HW124509   0.200   4.138   8.569 -0.5225  0.8429  0.7137
 4291SOL    HW224510   0.339   4.132   8.521 -1.2690  3.1590 -1.5407
 4292SOL     OW24511   1.553   1.253  17.001 -0.0368 -0.2806  0.4447
 4292SOL    HW124512   1.612   1.305  17.055 -0.6143  2.1472 -1.2558
 4292SOL    HW224513   1.539   1.304  16.921 -0.3239  1.5371  1.6694
 4293SOL     OW24514   1.171   0.854   7.609 -1.0039  0.3463  0.0891
 4293SOL    HW124515   1.123   0.798   7.669  1.9937 -3.4750 -1.0591
 4293SOL    HW224516   1.134   0.939   7.634  0.0307  1.4297 -1.9856
 4294SOL     OW24517   3.714   2.015   9.418  0.0179 -0.1066 -0.3222
 4294SOL    HW124518   3.795   1.993   9.370  2.0015  1.8649  2.1421
 4294SOL    HW224519   3.706   1.954   9.491  0.3340 -0.0695 -0.2557
 4295SOL     OW24520   4.423   0.098   6.352  0.5224 -0.1748 -0.6027
 4295SOL    HW124521   4.432   0.191   6.371 -1.5489 -0.2251  0.5236
 4295SOL    HW224522   4.392   0.061   6.434 -1.7838  1.2844 -0.8255
 4296SOL     OW24523   3.743   0.229  12.946 -0.0966 -0.8776  0.1064
 4296SOL    HW124524   3.667   0.172  12.958  0.3307 -1.6561 -0.8302
 4296SOL    HW224525   3.749   0.188  12.859  0.3590 -1.2382  0.3097
 4297SOL     OW24526   3.919   0.235  16.568 -0.2643 -0.2192 -0.1678
 4297SOL    HW124527   4.015   0.232  16.573 -0.1205  2.6247 -1.0633
 4297SOL    HW224528   3.914   0.322  16.608  0.5250 -0.7139  1.0043
 4298SOL     OW24529   3.558   3.794   0.061 -0.3327 -1.1797  0.2137
 4298SOL    HW124530   3.640   3.821   0.021 -0.3729  1.2476  1.7170
 4298SOL    HW224531   3.507   3.868   0.029  0.7553 -0.8263 -0.6756
 4299SOL     OW24532   0.309   2.681   2.841  0.0671  0.1354 -0.8292
 4299SOL    HW124533   0.301   2.679   2.746  1.3663 -0.0091 -0.9420
 4299SOL    HW224534   0.234   2.629   2.869  0.3575 -0.0434 -0.3769
 4300SOL     OW24535   1.355   4.027   2.964 -0.4530 -0.0705 -0.4359
 4300SOL    HW124536   1.414   3.956   2.938  0.6193  0.0366  1.6802
 4300SOL    HW224537   1.276   4.005   2.913 -1.7438  0.4667  1.3255
 4301SOL     OW24538   4.263   2.800   8.690 -0.1676  0.5402 -0.1210
 4301SOL    HW124539   4.215   2.731   8.737 -1.7534  1.6188 -0.1672
 4301SOL    HW224540   4.239   2.785   8.599 -0.6188  1.6658 -0.1808
 4302SOL     OW24541   3.182   4.281   1.987 -0.1594  0.7167 -0.1249
 4302SOL    HW124542   3.171   4.242   1.900 -0.3547 -0.0251  0.2312
 4302SOL    HW224543   3.171   4.370   1.954  1.3977  1.1690  0.5521
 4303SOL     OW24544   1.734   0.449   4.501 -0.5163 -0.0150 -0.2291
 4303SOL    HW124545   1.743   0.481   4.411  0.7296 -1.2305 -0.5290
 4303SOL    HW224546   1.827   0.444   4.523 -0.0423  2.1662 -1.6531
 4304SOL     OW24547   2.171   3.529   8.053 -0.5294  0.1804  0.3993
 4304SOL    HW124548   2.152   3.562   8.141  2.1375 -1.3582  1.5637
 4304SOL    HW224549   2.265   3.512   8.061 -0.7834 -1.4416 -0.2063
 4305SOL     OW24550   1.671   4.463   4.627 -0.7230  1.1339  0.1704
 4305SOL    HW124551   1.602   4.413   4.584 -2.4349  2.1562  1.7108
 4305SOL    HW224552   1.700   4.521   4.557 -0.4191 -0.1092 -0.7303
 4306SOL     OW24553   4.602   3.837   0.302 -0.3294 -0.2792 -0.2508
 4306SOL    HW124554   4.637   3.748   0.300  1.8920  0.5483  1.8804
 4306SOL    HW224555   4.614   3.856   0.396 -0.6352  1.5208 -0.5741
 4307SOL     OW24556   3.941   0.006   8.505 -0.4092 -0.8804  0.4219
 4307SOL    HW124557   4.010   0.000   8.571  1.3695 -0.5035 -1.4054
 4307SOL    HW224558   3.925   4.649   8.494 -3.6940 -0.6168  2.8753
 4308SOL     OW24559   3.727   1.890   3.514 -0.7031 -0.0703  0.0563
 4308SOL    HW124560   3.633   1.905   3.504 -0.5590  0.7117 -0.1170
 4308SOL    HW224561   3.748   1.842   3.434  0.1339  1.5738 -0.7082
 4309SOL     OW24562   3.757   1.832   0.515 -0.2479  0.1850 -1.0821
 4309SOL    HW124563   3.720   1.860   0.599  0.2240  0.4982 -0.9785
 4309SOL    HW224564   3.825   1.775   0.552 -0.3439 -0.2059 -1.5115
 4310SOL     OW24565   0.859   4.722   8.064 -0.7555 -0.2556  0.4022
 4310SOL    HW124566   0.775   0.008   8.103 -0.1637  1.1026  0.9137
 4310SOL    HW224567   0.845   0.034   7.983  2.3448  1.4727  0.9178
 4311SOL     OW24568   2.695   0.338   8.546  0.2616  0.6301 -0.0030
 4311SOL    HW124569   2.758   0.268   8.530  0.5001  1.1772 -1.4185
 4311SOL    HW224570   2.656   0.302   8.626 -0.8622  0.3846 -0.6615
 4312SOL     OW24571   4.629   1.838  16.903  0.3093  0.0788 -0.0374
 4312SOL    HW124572   4.621   1.803  16.992 -2.8244 -1.5137 -0.9462
 4312SOL    HW224573   4.670   1.767  16.854  1.4343 -0.1167  1.1905
 4313SOL     OW24574   1.448   1.271   2.587  0.0224  0.9761  0.5639
 4313SOL    HW124575   1.502   1.198   2.555 -1.4841 -0.1934  0.7273
 4313SOL    HW224576   1.517   1.312   2.640  1.2771 -0.6751  0.2388
 4314SOL     OW24577   0.911   1.337  13.137  0.0434 -0.0760  0.0481
 4314SOL    HW124578   0.951   1.386  13.066 -2.1258  2.6100  0.7115
 4314SOL    HW224579   0.935   1.245  13.123 -0.2022 -0.1613  0.1742
 4315SOL     OW24580   4.354   1.753   3.644  0.6767 -0.1885  0.2402
 4315SOL    HW124581   4.424   1.818   3.633 -0.7846  0.9005 -2.3931
 4315SOL    HW224582   4.273   1.798   3.620  0.7078  0.0156  0.5097
 4316SOL     OW24583   2.057   2.437   3.011  0.4080  0.1088  0.0405
 4316SOL    HW124584   2.017   2.383   3.079 -0.9402  0.7511 -0.2364
 4316SOL    HW224585   1.979   2.475   2.972 -0.3608 -1.3715  0.1159
 4317SOL     OW24586   3.928   4.067   2.165  0.3737  0.1543 -0.8418
 4317SOL    HW124587   3.868   4.034   2.232  1.2140  1.6570  0.6282
 4317SOL    HW224588   3.868   4.114   2.108  0.5674 -0.8001 -1.8464
 4318SOL     OW24589   1.883   4.684   9.126 -0.6113 -0.4133  0.2480
 4318SOL    HW124590   1.830   0.022   9.098  0.3361 -0.9681 -3.0280
 4318SOL    HW224591   1.972   4.707   9.097 -0.2722 -1.8467  0.1306
 4319SOL     OW24592   2.762   1.315   3.412 -0.1614  0.1348 -0.0866
 4319SOL    HW124593   2.675   1.308   3.452 -0.6801 -0.0923 -1.2524
 4319SOL    HW224594   2.755   1.401   3.371 -1.9250  1.3639  2.7755
 4320SOL     OW24595   0.661   1.830   2.140  0.3173  0.2351 -0.2129
 4320SOL    HW124596   0.651   1.807   2.233 -2.4794 -0.5268 -0.6819
 4320SOL    HW224597   0.747   1.799   2.112  0.3707  0.1306  0.0649
 4321SOL     OW24598   2.961   0.192   3.925 -0.6174 -0.0816  0.1427
 4321SOL    HW124599   2.940   0.115   3.872 -0.9618  1.6044 -2.2033
 4321SOL    HW224600   2.903   0.260   3.893 -2.2551 -1.0970  0.9571
 4322SOL     OW24601   2.789   2.025   9.162 -0.6667  0.5541  0.0659
 4322SOL    HW124602   2.779   1.935   9.191  0.0347  0.1695 -0.8870
 4322SOL    HW224603   2.848   2.016   9.088 -0.7365  0.9588 -0.0399
 4323SOL     OW24604   1.059   3.018  13.538  0.3211 -0.1413  0.3133
 4323SOL    HW124605   1.118   3.060  13.476  2.8615 -2.4316  1.1269
 4323SOL    HW224606   0.973   3.046  13.510 -0.0899  0.5833  2.2856
 4324SOL     OW24607   3.171   4.129  12.360 -0.4676  0.0049 -0.6045
 4324SOL    HW124608   3.182   4.146  12.266  1.3960 -1.0294 -0.5920
 4324SOL    HW224609   3.119   4.049  12.363 -2.2444  1.2071  0.1998
 4325SOL     OW24610   4.558   4.713   8.231  0.1803 -0.4829 -0.0151
 4325SOL    HW124611   4.624   0.004   8.167 -0.6852 -0.3274 -0.8533
 4325SOL    HW224612   4.507   4.654   8.176 -1.3685  1.2538 -0.4423
 4326SOL     OW24613   2.059   2.867  16.136  0.1832 -0.1022 -0.0315
 4326SOL    HW124614   2.140   2.895  16.093  0.2973  0.8089  0.7709
 4326SOL    HW224615   2.094   2.791  16.182 -0.8987 -0.9934 -0.6682
 4327SOL     OW24616   4.434   3.245   8.815  0.8636 -0.5484  0.5368
 4327SOL    HW124617   4.456   3.208   8.729  0.3529  2.9595 -1.1014
 4327SOL    HW224618   4.517   3.222   8.857  1.0000 -0.2543  0.4305
 4328SOL     OW24619   4.251   3.691  11.051 -0.4198 -0.3851  0.0141
 4328SOL    HW124620   4.164   3.708  11.087  0.0899 -2.0023  2.0109
 4328SOL    HW224621   4.299   3.689  11.134  3.0590  0.2200 -1.9678
 4329SOL     OW24622   4.047   1.364   5.955 -0.5429  0.0989 -0.1278
 4329SOL    HW124623   4.101   1.344   5.879  1.3475 -1.4048  1.5989
 4329SOL    HW224624   3.971   1.311   5.928 -1.1296  0.0172  1.6540
 4330SOL     OW24625   4.333   1.990  11.699 -0.3285  0.7188 -0.8403
 4330SOL    HW124626   4.403   1.930  11.675 -0.7854  0.7252 -2.1782
 4330SOL    HW224627   4.277   1.930  11.748  1.5269  0.0172  0.4240
 4331SOL     OW24628   4.170   2.138   5.672 -0.3410 -0.5851  0.3726
 4331SOL    HW124629   4.135   2.099   5.591  1.5687  1.5654 -1.5146
 4331SOL    HW224630   4.255   2.094   5.664  0.8908  1.4270  2.3639
 4332SOL     OW24631   1.264   0.309  13.255  0.3344 -0.1644 -0.0427
 4332SOL    HW124632   1.349   0.269  13.237  0.9138  0.5742  1.0305
 4332SOL    HW224633   1.220   0.279  13.176  0.6979 -0.6137 -0.0702
 4333SOL     OW24634   1.714   1.629  11.633  0.2855 -0.0033  1.0485
 4333SOL    HW124635   1.744   1.538  11.627 -1.1214 -0.5938  3.2687
 4333SOL    HW224636   1.742   1.650  11.722  1.8671 -0.5311  0.6821
 4334SOL     OW24637   4.543   4.312   4.145 -0.0177 -0.6083 -0.1131
 4334SOL    HW124638   4.570   4.403   4.158 -1.0966 -0.3398  0.2313
 4334SOL    HW224639   4.449   4.331   4.144 -0.4529 -2.7440  0.9715
 4335SOL     OW24640   0.481   2.232   2.971 -0.5503 -0.3186  0.1935
 4335SOL    HW124641   0.451   2.275   2.891 -0.0241  3.0656  1.8182
 4335SOL    HW224642   0.426   2.272   3.038 -1.3106 -1.7450  0.4263
 4336SOL     OW24643   1.543   4.191  14.931  0.3932  0.5324  0.4935
 4336SOL    HW124644   1.583   4.114  14.969  0.3618 -0.0764 -0.7010
 4336SOL    HW224645   1.452   4.165  14.947  1.4384 -2.3618  1.6841
 4337SOL     OW24646   3.952   4.243   0.781  0.1156  0.7589  0.0468
 4337SOL    HW124647   3.957   4.149   0.795  1.5983  0.9602  0.8150
 4337SOL    HW224648   3.994   4.249   0.695  0.2387 -1.8790 -0.0760
 4338SOL     OW24649   2.675   1.820   6.374  0.1609 -0.1889 -0.4644
 4338SOL    HW124650   2.753   1.849   6.421 -0.3736  0.0809  0.2650
 4338SOL    HW224651   2.630   1.776   6.447 -3.8019 -0.1916 -2.9073
 4339SOL     OW24652   3.713   1.839   1.874 -0.2612 -0.0789  0.2035
 4339SOL    HW124653   3.620   1.846   1.857 -0.3560 -2.0044 -0.1220
 4339SOL    HW224654   3.709   1.834   1.969  2.7826 -1.7836  0.2456
 4340SOL     OW24655   3.741   1.706  13.214 -0.1473 -0.0848  0.1402
 4340SOL    HW124656   3.688   1.654  13.274  1.5647 -0.8300  1.0091
 4340SOL    HW224657   3.675   1.771  13.190  1.8998  1.3520 -1.6365
 4341SOL     OW24658   0.714   4.306  14.459  0.1136  0.4206  0.2190
 4341SOL    HW124659   0.690   4.219  14.429 -0.7103  1.6819 -2.7869
 4341SOL    HW224660   0.735   4.345  14.374  1.9769 -1.4808 -0.1985
 4342SOL     OW24661   2.157   3.916   3.102  0.6156 -0.2763  0.0879
 4342SOL    HW124662   2.233   3.897   3.047  0.8147 -0.8584  0.5668
 4342SOL    HW224663   2.094   3.846   3.085 -1.4682  0.6151  4.0363
 4343SOL     OW24664   1.498   0.121   3.147  0.0851 -0.3620  0.7407
 4343SOL    HW124665   1.422   0.064   3.137 -1.3658  2.0772 -1.9566
 4343SOL    HW224666   1.572   0.062   3.130 -1.2171 -1.8047  0.0644
 4344SOL     OW24667   1.745   1.361   6.431  0.1676 -0.2986 -0.4062
 4344SOL    HW124668   1.705   1.331   6.513  0.5613 -1.6960 -0.7269
 4344SOL    HW224669   1.834   1.332   6.449 -0.0181 -0.7554 -0.2119
 4345SOL     OW24670   0.040   0.835   8.578 -0.3493 -0.5165 -0.5107
 4345SOL    HW124671   0.059   0.929   8.581  0.8927 -0.7793 -0.2999
 4345SOL    HW224672   0.068   0.818   8.489 -0.4511  0.7040 -0.7741
 4346SOL     OW24673   3.490   0.306   5.003  0.0733  0.2346 -0.0344
 4346SOL    HW124674   3.515   0.301   4.911 -0.0195 -0.9080  0.0053
 4346SOL    HW224675   3.414   0.247   5.002  0.2168  0.0518 -0.6525
 4347SOL     OW24676   3.280   1.591   7.598 -0.5255 -0.0665  0.4556
 4347SOL    HW124677   3.351   1.629   7.648  1.6362 -1.9284 -1.2049
 4347SOL    HW224678   3.333   1.540   7.537  0.4348  1.0183  0.3958
 4348SOL     OW24679   2.103   4.463   7.165 -0.2644 -0.1396 -0.0237
 4348SOL    HW124680   2.102   4.368   7.176  0.4045 -0.2629 -1.1015
 4348SOL    HW224681   2.179   4.489   7.218 -0.9825 -1.0584  1.4794
 4349SOL     OW24682   3.183   2.346   2.869  0.0064 -0.2558  0.2199
 4349SOL    HW124683   3.224   2.336   2.783 -0.9796 -0.4532 -0.2266
 4349SOL    HW224684   3.217   2.431   2.899 -0.4085  0.0043 -0.0533
 4350SOL     OW24685   1.546   2.283  12.516 -0.0265 -0.8757  0.4063
 4350SOL    HW124686   1.559   2.231  12.595  0.8270  0.7088  1.3080
 4350SOL    HW224687   1.468   2.333  12.540  1.4159  1.1472  0.8822
 4351SOL     OW24688   1.155   2.061   4.060  0.0652  0.6156  0.1414
 4351SOL    HW124689   1.227   2.050   4.123 -0.1106  1.4879  0.5004
 4351SOL    HW224690   1.123   1.972   4.073 -1.8251  1.8209  3.9239
 4352SOL     OW24691   2.801   3.777   9.632 -0.1887 -0.0368 -0.4666
 4352SOL    HW124692   2.737   3.819   9.574  0.1252 -0.9034 -1.4393
 4352SOL    HW224693   2.885   3.809   9.598 -0.1119 -1.2265 -1.4122
 4353SOL     OW24694   0.459   2.316  17.679 -0.4042 -0.0059 -0.3711
 4353SOL    HW124695   0.544   2.304  17.637  0.6831  1.9914  1.2556
 4353SOL    HW224696   0.431   2.405  17.657  2.3513  0.9052 -0.1491
 4354SOL     OW24697   0.270   2.329   3.171  0.7761 -0.2189 -0.0319
 4354SOL    HW124698   0.301   2.418   3.157  0.1991  0.1065  0.8339
 4354SOL    HW224699   0.202   2.323   3.103  0.1535  0.5507  0.5329
 4355SOL     OW24700   3.286   1.782   7.281  0.2285  0.4366  0.5024
 4355SOL    HW124701   3.267   1.691   7.307  1.8725 -0.9657 -3.2531
 4355SOL    HW224702   3.238   1.781   7.198  1.7451  2.3649 -0.3995
 4356SOL     OW24703   3.752   3.572   5.341  0.6568 -0.1526 -0.7780
 4356SOL    HW124704   3.822   3.596   5.402 -0.4470  3.2924 -0.8326
 4356SOL    HW224705   3.687   3.633   5.376 -0.1186 -1.3881 -0.1027
 4357SOL     OW24706   1.245   3.829  10.088  0.6763 -0.4427  0.3793
 4357SOL    HW124707   1.332   3.864  10.069  0.8651 -1.7964 -1.1762
 4357SOL    HW224708   1.237   3.845  10.182 -0.0027  1.5558 -0.0181
 4358SOL     OW24709   1.671   3.350   0.632  0.1188  0.1403  0.3456
 4358SOL    HW124710   1.604   3.351   0.564  0.5720 -0.7657 -0.1146
 4358SOL    HW224711   1.619   3.319   0.706  0.9557 -1.3993  0.2770
 4359SOL     OW24712   2.586   0.355   2.815  0.0578  0.4284 -0.4196
 4359SOL    HW124713   2.581   0.427   2.752 -3.0438  2.2721  1.9057
 4359SOL    HW224714   2.514   0.296   2.791  0.1068 -0.7808  2.4130
 4360SOL     OW24715   2.845   1.515   8.286  0.2153 -0.5752 -0.1653
 4360SOL    HW124716   2.763   1.465   8.295 -0.0893 -0.3821 -1.9346
 4360SOL    HW224717   2.833   1.564   8.205 -3.2717  0.9984  1.2845
 4361SOL     OW24718   0.984   2.503   9.076  0.6460  0.2178 -0.3104
 4361SOL    HW124719   1.057   2.456   9.036  0.3046 -0.2290 -0.4076
 4361SOL    HW224720   1.004   2.495   9.169  0.2453  0.1667 -0.2274
 4362SOL     OW24721   2.008   0.834   5.444 -0.3022  0.4367 -0.3258
 4362SOL    HW124722   1.970   0.783   5.373 -1.1233  1.7391 -0.8395
 4362SOL    HW224723   2.093   0.791   5.447  0.7451  2.4376 -1.0835
 4363SOL     OW24724   1.250   0.200  12.833  0.5341  0.0235 -0.0695
 4363SOL    HW124725   1.211   0.152  12.760 -0.0616  1.1292 -0.4917
 4363SOL    HW224726   1.313   0.137  12.867 -0.7931 -0.1300  2.0794
 4364SOL     OW24727   1.244   1.171   7.546  0.6072 -0.0314  0.0936
 4364SOL    HW124728   1.332   1.137   7.530 -0.5061 -2.8087 -0.0972
 4364SOL    HW224729   1.239   1.170   7.641  2.8291  1.1377  0.2230
 4365SOL     OW24730   1.764   0.877   2.870  0.3266 -0.0752  0.4894
 4365SOL    HW124731   1.695   0.854   2.808  0.9483 -1.5981  0.3647
 4365SOL    HW224732   1.723   0.871   2.956  2.0848 -2.4500  1.1619
 4366SOL     OW24733   1.310   4.033   9.609 -0.0938  0.0094 -0.2431
 4366SOL    HW124734   1.292   4.124   9.633  0.1698  0.5210 -1.9661
 4366SOL    HW224735   1.270   4.028   9.522 -0.2982  0.2716 -0.1638
 4367SOL     OW24736   0.148   4.659  16.698 -0.5522 -0.1165 -0.5293
 4367SOL    HW124737   0.127   0.016  16.703  0.0133  0.1002 -2.0789
 4367SOL    HW224738   0.097   4.618  16.767  0.8046 -2.1197 -0.7108
 4368SOL     OW24739   1.787   1.138   7.841 -0.2450 -0.3547  0.1365
 4368SOL    HW124740   1.745   1.121   7.925 -0.1654  0.3169  0.3094
 4368SOL    HW224741   1.749   1.065   7.793 -2.1301  0.5541  0.2668
 4369SOL     OW24742   4.297   3.853   6.052 -0.1037 -0.0066 -0.0450
 4369SOL    HW124743   4.247   3.833   5.973  1.6305  1.8029 -1.5978
 4369SOL    HW224744   4.295   3.771   6.101  0.4811  1.2423  2.0840
 4370SOL     OW24745   0.603   0.275  10.702 -0.0598  0.3358  0.4970
 4370SOL    HW124746   0.698   0.280  10.686 -0.2018 -2.6162 -1.0779
 4370SOL    HW224747   0.585   0.340  10.770  3.4047  0.7196  1.0711
 4371SOL     OW24748   1.058   2.494   5.892 -0.3575 -0.4638 -0.2452
 4371SOL    HW124749   1.033   2.520   5.981  2.0347 -2.2848  0.9587
 4371SOL    HW224750   1.019   2.567   5.845 -0.2642 -0.7815 -0.8088
 4372SOL     OW24751   3.959   0.178   4.205  0.2793  0.1468  0.0950
 4372SOL    HW124752   3.880   0.228   4.227  0.5099 -0.3029  1.9215
 4372SOL    HW224753   3.962   0.121   4.282  2.1103 -2.2251 -1.7293
 4373SOL     OW24754   4.360   1.455   4.539 -0.1311  0.4612  0.3152
 4373SOL    HW124755   4.429   1.446   4.605 -0.4631 -2.0939  0.3151
 4373SOL    HW224756   4.410   1.438   4.459  0.0017 -1.8290  0.8799
 4374SOL     OW24757   1.145   4.199   2.890  0.3733  0.0155  0.5974
 4374SOL    HW124758   1.233   4.184   2.926  1.1984  3.5615  0.0781
 4374SOL    HW224759   1.168   4.230   2.803 -2.2345  2.8593  0.9232
 4375SOL     OW24760   4.223   3.027  13.482  0.4773  0.9169 -0.4442
 4375SOL    HW124761   4.290   3.046  13.416  0.9108  0.4864 -0.1313
 4375SOL    HW224762   4.220   2.932  13.474  0.2425  0.6819  2.1815
 4376SOL     OW24763   2.217   3.326   7.568  0.1314 -0.1453 -0.0437
 4376SOL    HW124764   2.260   3.396   7.617 -0.8999  0.0565  0.5786
 4376SOL    HW224765   2.207   3.268   7.642  1.4964  2.0929  1.8885
 4377SOL     OW24766   2.912   3.652   5.400 -0.5335 -0.3176 -0.4074
 4377SOL    HW124767   2.879   3.607   5.322 -1.1766  3.3736 -2.2405
 4377SOL    HW224768   2.840   3.710   5.424 -0.5588 -0.5319  0.0392
 4378SOL     OW24769   3.760   3.835   8.794  0.2090 -0.6073  0.1961
 4378SOL    HW124770   3.752   3.768   8.861  0.2202 -1.7931 -0.9988
 4378SOL    HW224771   3.824   3.804   8.731  0.3981  0.1314  0.0181
 4379SOL     OW24772   4.511   3.537   0.064 -0.1036  0.1453  0.0369
 4379SOL    HW124773   4.543   3.599   0.130  0.8910  1.8139 -2.0190
 4379SOL    HW224774   4.529   3.456   0.111  0.1571  1.0424  1.4935
 4380SOL     OW24775   2.898   0.092   4.154  0.3640 -0.0314 -0.5692
 4380SOL    HW124776   2.919   0.132   4.070  0.8813  0.9340  0.0098
 4380SOL    HW224777   2.956   0.145   4.210 -0.1743  2.2507 -2.1606
 4381SOL     OW24778   3.665   3.945   7.458 -0.1093 -0.2361 -0.3866
 4381SOL    HW124779   3.589   3.929   7.402  1.1183  1.5718 -2.5718
 4381SOL    HW224780   3.632   3.924   7.545  1.4526  0.8190  0.4706
 4382SOL     OW24781   1.536   3.883   2.833 -0.8537 -0.4635  0.0397
 4382SOL    HW124782   1.566   3.803   2.789  0.0730 -0.8085  1.2805
 4382SOL    HW224783   1.526   3.950   2.766  2.6567  0.4861  0.4249
 4383SOL     OW24784   2.473   3.296   8.671 -0.3970  0.4936  0.5238
 4383SOL    HW124785   2.513   3.216   8.637  0.3865  1.6064 -1.1951
 4383SOL    HW224786   2.526   3.300   8.751  1.0755 -2.2742 -0.3141
 4384SOL     OW24787   1.399   1.478  13.744  0.5601 -0.2352 -0.2941
 4384SOL    HW124788   1.390   1.522  13.829  1.2046  0.5353 -0.6252
 4384SOL    HW224789   1.431   1.555  13.697  0.1330 -0.1184 -0.3908
 4385SOL     OW24790   1.314   0.663   6.386 -0.0700 -0.5301 -0.3769
 4385SOL    HW124791   1.237   0.605   6.385 -0.3067 -0.2369  0.5797
 4385SOL    HW224792   1.275   0.740   6.346 -0.4576 -0.2485  0.5232
 4386SOL     OW24793   1.955   4.456   9.273  0.1973  0.4298  0.2151
 4386SOL    HW124794   1.940   4.540   9.231  0.8845  1.3828  1.8841
 4386SOL    HW224795   1.870   4.443   9.315 -0.6407  1.1231 -1.2695
 4387SOL     OW24796   1.645   3.081   0.333 -0.5187  0.0907  0.4922
 4387SOL    HW124797   1.643   3.092   0.238  2.1451  0.5454  0.4693
 4387SOL    HW224798   1.599   3.162   0.354  0.4416  1.1391 -1.3997
 4388SOL     OW24799   4.082   3.911  14.809  0.0628  0.7637 -0.0412
 4388SOL    HW124800   4.093   3.827  14.853  0.0083 -0.2480 -1.9589
 4388SOL    HW224801   4.151   3.911  14.743  0.5454 -0.2599  0.4736
 4389SOL     OW24802   3.626   0.863  16.461 -0.4866 -0.4238  0.0785
 4389SOL    HW124803   3.634   0.867  16.557  0.0438  1.7095 -0.0683
 4389SOL    HW224804   3.573   0.942  16.452 -0.1412 -0.3377 -1.1703
 4390SOL     OW24805   4.591   3.072  12.629 -0.1431  0.1926 -0.3248
 4390SOL    HW124806   4.668   3.129  12.630 -0.5903  0.7272  1.5949
 4390SOL    HW224807   4.554   3.101  12.546  1.0493 -1.7909 -1.5875
 4391SOL     OW24808   1.671   0.288   5.187  0.3129  0.3031  0.2482
 4391SOL    HW124809   1.643   0.242   5.107 -2.3734  2.3445  0.0272
 4391SOL    HW224810   1.730   0.225   5.229  0.7577 -0.9375 -2.2392
 4392SOL     OW24811   2.752   1.194  11.358  0.1069 -0.3173 -0.2057
 4392SOL    HW124812   2.794   1.275  11.329  0.8105 -0.1274  1.3410
 4392SOL    HW224813   2.753   1.210  11.453  0.1807 -1.3359 -0.0321
 4393SOL     OW24814   2.344   0.674   2.375 -0.3221 -0.0543  0.2152
 4393SOL    HW124815   2.395   0.703   2.450 -0.0354  1.6916 -0.6617
 4393SOL    HW224816   2.290   0.752   2.366  1.9435  1.6992  2.0015
 4394SOL     OW24817   0.728   1.278   6.542  0.2442  0.8012 -0.2447
 4394SOL    HW124818   0.636   1.252   6.549  0.0124  1.8486  0.8035
 4394SOL    HW224819   0.731   1.361   6.590  0.8899  0.4167  0.3767
 4395SOL     OW24820   2.737   3.273   4.353  0.2035  0.0271 -0.0255
 4395SOL    HW124821   2.654   3.318   4.333  0.4820  0.3963 -0.3516
 4395SOL    HW224822   2.697   3.193   4.387 -1.9267  0.1804 -2.1437
 4396SOL     OW24823   2.688   4.678   6.847  0.6449  0.0079 -0.2637
 4396SOL    HW124824   2.696   4.656   6.755  0.0224  1.9106 -0.7631
 4396SOL    HW224825   2.675   0.037   6.847 -0.1105 -0.1037 -1.0646
 4397SOL     OW24826   1.410   4.407   9.914  0.3255 -0.4154  0.5483
 4397SOL    HW124827   1.414   4.471   9.986 -1.0136  2.5088 -1.9921
 4397SOL    HW224828   1.347   4.450   9.856  0.2896  0.6146  1.3421
 4398SOL     OW24829   1.076   2.817  15.812 -0.6393  0.0798 -0.0416
 4398SOL    HW124830   1.063   2.906  15.779  0.7344  0.0233 -0.7256
 4398SOL    HW224831   1.110   2.838  15.900 -1.7183 -1.1458  0.6619
 4399SOL     OW24832   1.104   3.700  12.721  0.4320  0.1668 -0.3178
 4399SOL    HW124833   1.100   3.646  12.800 -0.0788 -2.1765 -1.9677
 4399SOL    HW224834   1.134   3.629  12.666 -0.0494  0.1986 -0.6213
 4400SOL     OW24835   0.414   2.459  14.529 -0.3543  0.5962 -0.4114
 4400SOL    HW124836   0.374   2.462  14.615  3.6923  0.7235  1.4978
 4400SOL    HW224837   0.337   2.466  14.472 -0.2428  0.1506 -0.6127
 4401SOL     OW24838   3.269   1.254   4.349 -0.4270  0.3652 -0.0138
 4401SOL    HW124839   3.188   1.293   4.318 -0.1445 -1.2983 -2.8605
 4401SOL    HW224840   3.315   1.321   4.399  0.0976  1.5885 -2.1626
 4402SOL     OW24841   2.944   1.262   7.593  0.3159 -0.3643 -0.0176
 4402SOL    HW124842   2.999   1.321   7.541 -1.0200 -0.3772 -1.4559
 4402SOL    HW224843   2.938   1.190   7.529 -3.5891 -1.2437  1.3646
 4403SOL     OW24844   3.739   3.979   2.339  0.0932 -0.2611  0.4200
 4403SOL    HW124845   3.682   3.951   2.267 -0.4733  1.0522  0.3558
 4403SOL    HW224846   3.689   3.980   2.421 -1.0966  0.0081 -0.3227
 4404SOL     OW24847   2.634   1.446   7.308  0.0242  0.0652  0.0065
 4404SOL    HW124848   2.561   1.474   7.253 -2.7890 -1.4773  2.9237
 4404SOL    HW224849   2.696   1.440   7.235  1.9196 -0.4260  1.6604
 4405SOL     OW24850   2.887   2.789   2.130  0.0134 -0.0484  0.1549
 4405SOL    HW124851   2.933   2.704   2.130  0.9282  0.4503  3.8521
 4405SOL    HW224852   2.966   2.843   2.121 -0.0736 -0.1804 -1.4844
 4406SOL     OW24853   0.743   2.657  17.627  0.4159 -0.1310 -0.5759
 4406SOL    HW124854   0.783   2.737  17.664  0.4471  0.5024 -1.9892
 4406SOL    HW224855   0.664   2.643  17.680  0.0000  2.3611 -0.5242
 4407SOL     OW24856   3.209   0.933  11.106  0.1391  0.0096 -0.0722
 4407SOL    HW124857   3.190   0.865  11.171 -1.2645 -0.9122 -1.4264
 4407SOL    HW224858   3.207   0.886  11.023 -0.7443 -1.0332  0.5333
 4408SOL     OW24859   1.789   4.549  17.097 -0.1805  0.1226  0.2784
 4408SOL    HW124860   1.704   4.556  17.141  0.8839  1.2391  2.1088
 4408SOL    HW224861   1.783   4.461  17.058  1.5863 -1.5033  3.7213
 4409SOL     OW24862   0.023   3.376  16.722 -0.1174 -0.0976  0.2257
 4409SOL    HW124863   0.023   3.458  16.772 -1.0485 -0.2811  0.5237
 4409SOL    HW224864   4.685   3.381  16.662  0.9071 -0.7564 -1.0955
 4410SOL     OW24865   3.766   4.665   1.528 -0.2305 -0.3560  0.7476
 4410SOL    HW124866   3.842   4.682   1.473 -0.7849 -1.6797 -0.4238
 4410SOL    HW224867   3.736   0.017   1.550 -2.0457 -0.1275 -2.4679
 4411SOL     OW24868   3.563   3.095   0.736 -0.2087  0.4595 -0.2156
 4411SOL    HW124869   3.515   3.168   0.696  0.3412  0.3811 -1.0192
 4411SOL    HW224870   3.537   3.030   0.670 -4.2466  1.1366  0.6860
 4412SOL     OW24871   3.569   4.635   5.609  0.2398 -0.4161 -0.1411
 4412SOL    HW124872   3.552   4.588   5.527  0.7385  1.5087 -1.3313
 4412SOL    HW224873   3.584   4.566   5.674 -2.4590 -0.4142  0.4853
 4413SOL     OW24874   2.314   1.296   5.434 -0.4432  0.4958  0.5130
 4413SOL    HW124875   2.223   1.326   5.431 -1.5879 -2.8098  2.1084
 4413SOL    HW224876   2.298   1.203   5.451 -1.3714  0.3377 -1.1516
 4414SOL     OW24877   3.188   1.607   3.596 -0.1626 -0.3381  0.3790
 4414SOL    HW124878   3.171   1.701   3.605 -1.5842 -0.6192  0.6268
 4414SOL    HW224879   3.264   1.605   3.654  0.7045 -1.9899 -0.8102
 4415SOL     OW24880   4.115   2.506  15.566 -0.0480  0.0646  0.3964
 4415SOL    HW124881   4.173   2.508  15.642 -1.6932 -3.2581  1.7349
 4415SOL    HW224882   4.165   2.446  15.511  1.0446  0.8011  0.6038
 4416SOL     OW24883   2.848   0.144   1.200 -0.0668 -0.2455  0.2037
 4416SOL    HW124884   2.838   0.075   1.266 -1.3372 -0.7987 -0.5682
 4416SOL    HW224885   2.768   0.192   1.220  0.1294  0.9606 -1.9193
 4417SOL     OW24886   3.237   4.457   4.058  0.9698  0.1289  0.1927
 4417SOL    HW124887   3.227   4.424   3.969 -0.4110 -0.7469  0.6793
 4417SOL    HW224888   3.253   4.549   4.035  0.6303  0.5070  1.4370
 4418SOL     OW24889   1.037   0.363   7.588  0.3642 -0.1365 -0.1051
 4418SOL    HW124890   0.967   0.304   7.617  0.7365  0.6095  2.2933
 4418SOL    HW224891   0.996   0.407   7.512 -1.9845  1.3080  1.9799
 4419SOL     OW24892   1.850   0.047   7.070  0.4222  0.3307  0.3934
 4419SOL    HW124893   1.911   0.106   7.113 -0.6328  2.4426 -1.0012
 4419SOL    HW224894   1.829   4.720   7.138 -0.2015 -0.5463 -0.6015
 4420SOL     OW24895   4.369   3.913   1.702  0.0705 -0.2028  0.3519
 4420SOL    HW124896   4.411   3.864   1.772  0.2432 -1.0010 -0.3157
 4420SOL    HW224897   4.442   3.972   1.686  1.8693 -1.7329  2.8370
 4421SOL     OW24898   2.158   0.788   6.292  0.5799 -0.1404 -0.0889
 4421SOL    HW124899   2.092   0.744   6.238  2.7227 -1.1593 -1.8720
 4421SOL    HW224900   2.227   0.721   6.294  1.5680  0.9236  1.3552
 4422SOL     OW24901   3.452   2.826   4.536 -0.1331  0.3641 -0.3212
 4422SOL    HW124902   3.473   2.812   4.628 -1.4518 -1.1278 -0.2556
 4422SOL    HW224903   3.473   2.919   4.527 -3.2318  0.9679 -1.3191
 4423SOL     OW24904   2.405   3.579   8.892  0.4509  0.2289 -0.1066
 4423SOL    HW124905   2.493   3.581   8.931 -1.1711  0.7005  3.4771
 4423SOL    HW224906   2.353   3.558   8.969  1.8820  2.0484  1.3623
 4424SOL     OW24907   3.388   3.419   8.482 -0.4605  0.7296 -0.3477
 4424SOL    HW124908   3.450   3.476   8.437 -0.5351  0.1620 -1.1554
 4424SOL    HW224909   3.429   3.333   8.489  0.0320  0.9404 -0.6856
 4425SOL     OW24910   0.514   3.396   4.161  0.3950  0.2549 -0.2072
 4425SOL    HW124911   0.440   3.445   4.125 -1.3001 -1.2954  1.1499
 4425SOL    HW224912   0.463   3.334   4.212  2.1858 -1.4245 -0.4896
 4426SOL     OW24913   4.703   1.310   1.049 -0.5159  0.6843  0.1517
 4426SOL    HW124914   0.053   1.321   1.008  0.1559 -1.4342  1.0171
 4426SOL    HW224915   4.665   1.250   0.985  1.0983  0.3012 -0.4600
 4427SOL     OW24916   1.610   4.111   0.217 -0.4901 -0.1383  0.0007
 4427SOL    HW124917   1.613   4.015   0.209  3.6359 -0.2805  2.8846
 4427SOL    HW224918   1.684   4.128   0.275  0.2972  1.6582 -1.5339
 4428SOL     OW24919   3.915   2.291   2.415  0.1900  0.8915 -0.4618
 4428SOL    HW124920   3.979   2.349   2.374  0.6596 -1.0693 -2.5847
 4428SOL    HW224921   3.855   2.294   2.341 -0.9384 -1.8946  0.3413
 4429SOL     OW24922   1.530   0.113   9.975 -0.2647  0.1705 -0.4137
 4429SOL    HW124923   1.618   0.146   9.995  0.1118 -0.6831 -0.6778
 4429SOL    HW224924   1.558   0.028   9.943  1.8467  0.7637 -0.1242
 4430SOL     OW24925   0.093   3.422   3.913 -0.1598 -0.2000  0.3659
 4430SOL    HW124926   0.147   3.391   3.985  2.1292  0.9971 -0.8259
 4430SOL    HW224927   0.162   3.466   3.862 -2.0287  0.5668 -1.5144
 4431SOL     OW24928   0.805   1.184   8.088  0.3958 -0.2243 -0.0726
 4431SOL    HW124929   0.803   1.198   8.183 -1.1334  0.2494 -0.1751
 4431SOL    HW224930   0.877   1.121   8.082  0.5565  0.1067 -1.7739
 4432SOL     OW24931   4.120   2.844   2.161  0.0491  0.1624  0.1879
 4432SOL    HW124932   4.054   2.865   2.094 -1.4587 -1.4040  1.2049
 4432SOL    HW224933   4.161   2.773   2.112 -0.4002  1.0665 -1.5099
 4433SOL     OW24934   3.220   2.626   2.322 -0.0719  0.6517 -0.3765
 4433SOL    HW124935   3.218   2.587   2.235 -1.4416 -2.5951  1.1159
 4433SOL    HW224936   3.251   2.716   2.311 -0.8123  0.5354 -3.3147
 4434SOL     OW24937   3.344   2.415   7.203 -0.4786 -0.0755 -0.4079
 4434SOL    HW124938   3.322   2.503   7.170  1.6513  0.4830 -0.2989
 4434SOL    HW224939   3.370   2.438   7.292  1.1876 -1.5503 -0.5246
 4435SOL     OW24940   2.748   4.593   5.966  0.1639  0.4470  0.5214
 4435SOL    HW124941   2.696   4.650   6.022 -1.0789  1.1255 -1.3064
 4435SOL    HW224942   2.767   4.513   6.015  2.3996  1.5621  1.4322
 4436SOL     OW24943   1.132   0.087   6.947  0.0403  0.2825 -0.2048
 4436SOL    HW124944   1.071   0.016   6.970  0.4551  0.3093  1.0053
 4436SOL    HW224945   1.102   0.131   6.868  2.1088  2.5586  0.2947
 4437SOL     OW24946   1.527   4.311   8.106  0.1111  0.0779  0.1554
 4437SOL    HW124947   1.553   4.381   8.047 -0.0272  0.1613  0.1935
 4437SOL    HW224948   1.606   4.272   8.145  0.3166  0.2732 -0.0714
 4438SOL     OW24949   2.298   3.084  14.248 -0.1626  0.0785  0.0462
 4438SOL    HW124950   2.293   3.012  14.312  1.0661  1.4830  1.7359
 4438SOL    HW224951   2.321   3.042  14.165  1.4743  1.4013 -0.1620
 4439SOL     OW24952   4.651   0.619  11.395 -0.0643 -0.3802 -0.6809
 4439SOL    HW124953   4.560   0.647  11.387  0.4314  0.9996 -1.4512
 4439SOL    HW224954   4.648   0.616  11.491 -0.6881 -1.0723 -0.7239
 4440SOL     OW24955   0.061   4.657  13.482  0.3844  0.1288 -0.3065
 4440SOL    HW124956   0.120   4.732  13.496 -1.8789  1.9372 -0.4882
 4440SOL    HW224957   4.716   4.700  13.509  0.1793  0.6230 -1.7600
 4441SOL     OW24958   2.385   0.797   9.767 -0.2521  0.3034  0.4393
 4441SOL    HW124959   2.394   0.737   9.841 -1.7798 -1.5313 -0.8568
 4441SOL    HW224960   2.449   0.753   9.710 -0.9578  0.1788 -0.2555
 4442SOL     OW24961   0.818   1.803   6.319  0.6347  1.0247  0.0070
 4442SOL    HW124962   0.734   1.774   6.354  1.6353 -1.2669  0.5162
 4442SOL    HW224963   0.881   1.775   6.385  1.7395  1.7147 -0.7458
 4443SOL     OW24964   4.089   1.159   3.513  0.0147 -0.1833  0.3146
 4443SOL    HW124965   4.165   1.202   3.553  0.7532 -1.9485  0.8391
 4443SOL    HW224966   4.103   1.195   3.426 -1.6101  2.7998  1.2710
 4444SOL     OW24967   2.913   1.326  17.048 -0.2800 -0.1830 -0.4111
 4444SOL    HW124968   2.817   1.328  17.044 -0.1894  2.7365 -0.8353
 4444SOL    HW224969   2.930   1.393  17.114  2.2387  1.0535 -2.3427
 4445SOL     OW24970   4.240   2.779   4.141 -0.1449 -0.2186  0.0416
 4445SOL    HW124971   4.168   2.834   4.108 -0.4244  0.0923  1.1748
 4445SOL    HW224972   4.215   2.773   4.233 -0.0883 -0.8718  0.0155
 4446SOL     OW24973   1.377   0.684  10.256 -0.0743 -0.3714 -0.0023
 4446SOL    HW124974   1.401   0.607  10.204 -0.2599 -1.1733  1.1092
 4446SOL    HW224975   1.281   0.685  10.247  0.1015  1.7204 -1.6090
 4447SOL     OW24976   3.845   3.529   0.718  0.1936  0.0687  0.7230
 4447SOL    HW124977   3.939   3.525   0.698  0.2652  0.2449  1.0200
 4447SOL    HW224978   3.811   3.590   0.654 -0.6972 -0.8538  0.3121
 4448SOL     OW24979   1.962   4.392   6.145  0.2491  0.4578  0.4040
 4448SOL    HW124980   1.876   4.418   6.112 -0.7667 -0.3824  2.3786
 4448SOL    HW224981   1.941   4.299   6.154  1.4530  0.0803 -0.7230
 4449SOL     OW24982   0.345   0.859   5.108  0.0036  0.0025 -0.2625
 4449SOL    HW124983   0.258   0.836   5.142  0.3859  0.6799  1.1961
 4449SOL    HW224984   0.376   0.774   5.079 -0.3219  0.2797 -1.4210
 4450SOL     OW24985   3.149   3.170  13.773  0.7271  0.7842  0.1157
 4450SOL    HW124986   3.120   3.165  13.864 -2.9291 -1.9985 -1.1855
 4450SOL    HW224987   3.190   3.084  13.765 -0.4520  0.1385  0.9172
 4451SOL     OW24988   0.213   2.873   7.707  0.6601 -0.2972  0.0743
 4451SOL    HW124989   0.221   2.805   7.641  0.7062 -0.5225  0.3132
 4451SOL    HW224990   0.279   2.936   7.679 -0.9619  1.3613 -0.0682
 4452SOL     OW24991   0.329   0.050   2.449  0.4369 -0.1105 -0.1535
 4452SOL    HW124992   0.236   0.054   2.427  0.9119 -0.3922 -2.2462
 4452SOL    HW224993   0.364   0.127   2.404  0.3254 -0.3086 -0.5770
 4453SOL     OW24994   1.849   0.608  10.084 -0.6016  0.1834 -0.5100
 4453SOL    HW124995   1.930   0.630  10.131  0.0216 -1.2877 -0.9139
 4453SOL    HW224996   1.817   0.695  10.109 -0.7046 -0.4680  1.6650
 4454SOL     OW24997   0.611   1.592   6.187 -0.1002  0.2039 -0.2218
 4454SOL    HW124998   0.700   1.611   6.159 -0.1874 -0.0029 -0.6439
 4454SOL    HW224999   0.597   1.507   6.144  0.7583 -0.5183  0.9335
 4455SOL     OW25000   0.606   3.603  16.359  0.4613 -0.1693  0.1684
 4455SOL    HW125001   0.614   3.620  16.265 -1.8424  1.1090  0.1916
 4455SOL    HW225002   0.570   3.517  16.341 -1.0993  0.6206 -0.5053
 4456SOL     OW25003   1.550   1.838   9.845 -0.2464 -0.0539  0.4391
 4456SOL    HW125004   1.455   1.831   9.829 -0.0328  1.1524 -1.4090
 4456SOL    HW225005   1.560   1.934   9.842 -2.9617  0.2222 -0.2646
 4457SOL     OW25006   2.050   4.553  15.860 -0.1418  0.0082  0.2482
 4457SOL    HW125007   2.066   4.481  15.799  1.9344 -0.3861  1.2804
 4457SOL    HW225008   1.960   4.580  15.842  0.2670  1.0326 -0.2466
 4458SOL     OW25009   3.532   3.232   6.036  0.4362  0.0809 -0.7719
 4458SOL    HW125010   3.485   3.151   6.051  0.6113 -0.0916 -1.1479
 4458SOL    HW225011   3.459   3.293   6.030  0.6398  0.3163 -0.8889
 4459SOL     OW25012   4.513   3.998  11.102  0.0330 -0.2755 -0.7501
 4459SOL    HW125013   4.509   4.079  11.152 -2.6269 -1.6175  1.1743
 4459SOL    HW225014   4.563   4.025  11.024  1.3701 -0.2656  0.1003
 4460SOL     OW25015   1.827   4.099   1.842  0.0636  0.0603 -0.2621
 4460SOL    HW125016   1.778   4.167   1.890 -0.5571 -0.8104  0.3401
 4460SOL    HW225017   1.791   4.020   1.881 -0.0717  0.4163  0.3324
 4461SOL     OW25018   4.614   1.167  16.899 -0.1951 -0.2278  0.2623
 4461SOL    HW125019   4.527   1.176  16.937  0.3286 -1.7584  1.8012
 4461SOL    HW225020   4.637   1.082  16.936  1.2536 -0.3285 -0.8385
 4462SOL     OW25021   3.018   3.594   4.524  0.0579 -0.1775  0.2573
 4462SOL    HW125022   3.002   3.500   4.540 -0.7499 -0.0488  0.2306
 4462SOL    HW225023   3.112   3.598   4.541 -0.4462 -0.2577  3.1409
 4463SOL     OW25024   3.691   1.624  12.050 -0.0911 -0.3158 -0.0505
 4463SOL    HW125025   3.678   1.592  11.961  1.0898  0.8809 -0.6499
 4463SOL    HW225026   3.644   1.555  12.098  0.0747 -0.0414  0.5037
 4464SOL     OW25027   2.743   1.787   6.118  0.6594 -0.2210 -0.5899
 4464SOL    HW125028   2.718   1.779   6.210  0.6809  2.3887 -0.3568
 4464SOL    HW225029   2.726   1.703   6.076  0.3342 -0.3819 -0.1317
 4465SOL     OW25030   4.380   3.195   5.010  0.3268  0.0113  0.5660
 4465SOL    HW125031   4.378   3.286   5.040  0.1569 -0.6603  2.5970
 4465SOL    HW225032   4.473   3.179   4.993  0.6423  1.4312  1.0217
 4466SOL     OW25033   0.502   4.208   4.382  0.1876  0.7552 -0.1148
 4466SOL    HW125034   0.535   4.297   4.395 -0.5378  0.9857  0.1629
 4466SOL    HW225035   0.420   4.216   4.332 -0.5960 -0.5658  0.9662
 4467SOL     OW25036   0.353   4.672  15.451 -0.0550  0.1119 -0.7573
 4467SOL    HW125037   0.308   0.006  15.498  0.7192 -1.1685  1.8668
 4467SOL    HW225038   0.296   4.671  15.374 -1.1382  0.1969  0.0365
 4468SOL     OW25039   1.529   0.902   6.075 -0.2325 -0.0328 -0.0028
 4468SOL    HW125040   1.597   0.837   6.097  1.7108  2.1072  0.3017
 4468SOL    HW225041   1.559   0.923   5.987  1.2912 -0.7318  0.3333
 4469SOL     OW25042   2.111   0.353   2.720  0.0251  0.2253 -0.1552
 4469SOL    HW125043   2.067   0.288   2.665  0.3758 -0.3169  0.2014
 4469SOL    HW225044   2.129   0.425   2.659 -1.2654  0.2160 -0.5569
 4470SOL     OW25045   1.179   3.084  10.490 -0.0513  0.3973 -0.6877
 4470SOL    HW125046   1.218   3.011  10.539 -2.8940  0.6718  2.0499
 4470SOL    HW225047   1.210   3.154  10.547 -0.5278  2.3069 -2.7663
 4471SOL     OW25048   0.976   2.199   3.044  0.1386  0.2080 -0.1746
 4471SOL    HW125049   0.909   2.190   2.976  0.3262  0.0983 -0.3483
 4471SOL    HW225050   1.058   2.172   3.002  0.0156  0.2013 -0.4096
 4472SOL     OW25051   4.209   3.272   4.167 -0.5665  0.2847 -0.2155
 4472SOL    HW125052   4.140   3.206   4.180 -1.3054  1.2107  0.5632
 4472SOL    HW225053   4.273   3.260   4.236 -0.5290 -0.2382 -0.3421
 4473SOL     OW25054   1.211   3.483  13.849  0.3672  0.1851  0.2338
 4473SOL    HW125055   1.160   3.423  13.795  0.2713 -1.2280  1.9045
 4473SOL    HW225056   1.276   3.433  13.898  0.7938 -1.4379 -1.9864
 4474SOL     OW25057   1.876   3.718  17.612  0.3682 -0.2257 -0.0941
 4474SOL    HW125058   1.863   3.811  17.627  1.6287 -0.1708  0.6030
 4474SOL    HW225059   1.944   3.704  17.677  2.9383 -2.2649 -3.1918
 4475SOL     OW25060   2.830   0.279   9.480 -0.4469  0.7079 -0.0107
 4475SOL    HW125061   2.898   0.275   9.547 -1.8198 -4.2204  1.0997
 4475SOL    HW225062   2.864   0.352   9.428  3.2352 -0.6783  0.4786
 4476SOL     OW25063   1.456   3.441  14.617 -0.1831 -0.0640  0.2892
 4476SOL    HW125064   1.502   3.369  14.661  1.6395  0.4096 -0.8264
 4476SOL    HW225065   1.471   3.421  14.525 -0.7749 -1.7241  0.5550
 4477SOL     OW25066   2.746   2.866   5.027 -1.1547  0.1301 -0.4433
 4477SOL    HW125067   2.671   2.922   5.008 -1.4901  0.1127  0.7916
 4477SOL    HW225068   2.730   2.877   5.121  2.8603 -2.5570  0.5301
 4478SOL     OW25069   3.028   0.058   7.578  0.4051 -0.1326  0.3585
 4478SOL    HW125070   3.019   0.149   7.551  2.3817 -0.1105 -0.2074
 4478SOL    HW225071   3.112   0.040   7.536  1.3355 -0.6689  2.4363
 4479SOL     OW25072   3.135   1.348   9.295 -0.5720 -0.0708 -0.4215
 4479SOL    HW125073   3.211   1.339   9.351 -0.1002 -0.3691 -1.1017
 4479SOL    HW225074   3.145   1.258   9.265 -0.0783  0.4006 -1.6751
 4480SOL     OW25075   4.055   2.941   4.045 -0.0855  0.1085 -0.7141
 4480SOL    HW125076   3.977   2.994   4.063 -1.1586 -1.4807 -0.6349
 4480SOL    HW225077   4.026   2.887   3.971 -0.1187 -1.3176  0.3227
 4481SOL     OW25078   0.777   1.755   7.489  0.3303 -0.5111 -0.6755
 4481SOL    HW125079   0.811   1.824   7.546 -0.4944 -0.7829  0.1515
 4481SOL    HW225080   0.747   1.691   7.554 -2.0856 -0.8221 -2.0843
 4482SOL     OW25081   4.051   1.357  14.622  0.2063 -0.4269  0.1014
 4482SOL    HW125082   4.140   1.387  14.604 -1.1204  2.8666 -1.1583
 4482SOL    HW225083   4.053   1.355  14.717  1.0613  1.3877  0.1217
 4483SOL     OW25084   3.224   3.309   6.291  0.0586  0.3269 -0.5403
 4483SOL    HW125085   3.238   3.242   6.224  3.3980  1.1429 -0.6586
 4483SOL    HW225086   3.143   3.276   6.331  0.4486  0.1124  0.0763
 4484SOL     OW25087   2.077   0.692   9.358  0.3258 -0.2248  0.1357
 4484SOL    HW125088   2.013   0.633   9.397  1.5058 -0.8801  1.0772
 4484SOL    HW225089   2.120   0.644   9.287  0.6810 -1.3986  1.1294
 4485SOL     OW25090   0.840   1.992   6.545 -0.4752 -0.3547 -0.2655
 4485SOL    HW125091   0.895   1.995   6.467  2.3584  0.5381  1.8084
 4485SOL    HW225092   0.812   2.080   6.568  0.4704  0.2392 -1.4386
 4486SOL     OW25093   2.476   2.083   3.538 -0.3387 -0.1974  0.4898
 4486SOL    HW125094   2.544   2.042   3.485 -1.3053  0.0206 -0.8958
 4486SOL    HW225095   2.482   2.165   3.490 -0.8470  0.1857  1.0805
 4487SOL     OW25096   4.589   1.151   7.512  0.3627 -0.0024  0.0533
 4487SOL    HW125097   4.504   1.190   7.532 -0.3490 -2.2067  1.3038
 4487SOL    HW225098   4.642   1.220   7.472 -2.4856  1.7682 -0.6205
 4488SOL     OW25099   4.610   1.142   4.580  0.1397  0.7438 -0.3819
 4488SOL    HW125100   4.699   1.110   4.592 -0.0652  0.3066  0.0039
 4488SOL    HW225101   4.621   1.171   4.490 -1.1558 -1.0741 -1.1274
 4489SOL     OW25102   0.391   0.645   6.623  0.1726  0.1465 -0.3283
 4489SOL    HW125103   0.485   0.629   6.624 -0.3650 -2.6820  1.6630
 4489SOL    HW225104   0.394   0.741   6.619  1.6320  0.0168 -2.2543
 4490SOL     OW25105   3.162   4.179   6.903 -0.3265  0.1486  0.4411
 4490SOL    HW125106   3.160   4.247   6.970  0.6000  0.1566  0.4557
 4490SOL    HW225107   3.125   4.112   6.960 -0.8967  0.6454  0.6514
 4491SOL     OW25108   1.988   0.877  14.354 -0.2249  0.4552 -0.0626
 4491SOL    HW125109   2.082   0.860  14.356 -0.3295 -0.1997 -1.0581
 4491SOL    HW225110   1.948   0.795  14.327  0.1136  0.3879 -0.3531
 4492SOL     OW25111   3.642   1.088   2.285 -0.3286 -0.0288 -0.9405
 4492SOL    HW125112   3.594   1.047   2.357  1.0473 -1.4923 -0.8491
 4492SOL    HW225113   3.732   1.066   2.309 -0.1091  0.9180 -0.9083
 4493SOL     OW25114   2.027   0.744   9.692  0.2660  0.1489 -0.4741
 4493SOL    HW125115   1.986   0.658   9.686  0.5621  0.0105 -0.5203
 4493SOL    HW225116   1.955   0.807   9.684  0.5685  0.5758  0.2637
 4494SOL     OW25117   1.727   0.596   4.958  0.7225  0.2739  0.1206
 4494SOL    HW125118   1.667   0.647   5.013 -0.2823 -0.7040 -0.0467
 4494SOL    HW225119   1.775   0.547   5.026 -0.6084 -0.0302  0.8512
 4495SOL     OW25120   4.206   3.401   2.817  0.1544  0.3403 -0.3406
 4495SOL    HW125121   4.143   3.402   2.889 -1.7934 -0.4626 -2.0230
 4495SOL    HW225122   4.290   3.434   2.849  0.6110 -1.7248  0.5758
 4496SOL     OW25123   1.453   3.925   2.146  0.1492  0.1637 -0.1278
 4496SOL    HW125124   1.358   3.914   2.159  0.5340 -1.9110  0.9101
 4496SOL    HW225125   1.489   3.840   2.172 -0.9399 -0.7479 -1.5438
 4497SOL     OW25126   1.874   1.871   9.418  0.1001 -0.2474 -0.3705
 4497SOL    HW125127   1.960   1.829   9.412 -0.1986 -0.7936 -0.8350
 4497SOL    HW225128   1.902   1.949   9.466 -1.0415  0.3959 -0.7294
 4498SOL     OW25129   3.934   2.214   8.376 -0.2197  0.8752  0.2577
 4498SOL    HW125130   3.855   2.212   8.431 -0.1505 -1.9811  0.2616
 4498SOL    HW225131   3.900   2.222   8.286  0.8198  1.9531 -0.0291
 4499SOL     OW25132   1.819   0.559   9.339 -0.3364 -0.2686  0.0998
 4499SOL    HW125133   1.790   0.610   9.415 -1.1764  0.1513 -0.5064
 4499SOL    HW225134   1.769   0.604   9.271 -0.7270 -1.4504 -0.3835
 4500SOL     OW25135   3.829   2.137  17.163 -0.4530 -0.2627 -0.4166
 4500SOL    HW125136   3.740   2.145  17.128 -0.3036 -0.4570 -0.8496
 4500SOL    HW225137   3.814   2.125  17.257  0.5036 -0.2845 -0.2663
 4501SOL     OW25138   4.288   2.937   3.664 -0.9253  0.0630  0.0732
 4501SOL    HW125139   4.368   2.913   3.617 -0.0137  1.2345  1.0424
 4501SOL    HW225140   4.232   2.954   3.588  1.3297 -0.6593 -1.7338
 4502SOL     OW25141   4.503   0.413   7.082 -0.0899 -0.6021 -0.6808
 4502SOL    HW125142   4.437   0.450   7.140  0.6682  0.2835 -0.3821
 4502SOL    HW225143   4.479   0.446   6.995  1.9998  0.9604 -0.6686
 4503SOL     OW25144   2.977   4.553   4.203  0.3088 -0.3787  0.2135
 4503SOL    HW125145   2.962   4.645   4.182 -1.5637 -0.8273 -0.3977
 4503SOL    HW225146   3.041   4.526   4.137  1.1884  0.0643  0.8856
 4504SOL     OW25147   2.877   4.140  16.314 -0.4664 -0.1328  0.6185
 4504SOL    HW125148   2.881   4.046  16.331  3.2952 -0.2413 -0.7661
 4504SOL    HW225149   2.796   4.164  16.358 -0.6552  0.3334  0.0147
 4505SOL     OW25150   1.328   4.579   2.985  0.1077 -0.4804  0.0012
 4505SOL    HW125151   1.380   4.508   3.023  2.6968  0.3575 -1.9839
 4505SOL    HW225152   1.241   4.544   3.002  0.6603 -2.2962 -0.9176
 4506SOL     OW25153   1.224   0.409   5.565  0.3125  0.3382 -0.0983
 4506SOL    HW125154   1.237   0.322   5.602 -1.5107 -1.0386 -2.7840
 4506SOL    HW225155   1.179   0.443   5.643  0.4979  3.8284 -1.4947
 4507SOL     OW25156   1.941   3.935   4.130  0.0526  0.2374 -0.1641
 4507SOL    HW125157   1.971   4.001   4.068  0.3229 -1.3472 -1.7141
 4507SOL    HW225158   1.981   3.963   4.213 -0.6132  0.1900  0.1678
 4508SOL     OW25159   2.804   0.879  13.831 -1.0891  0.1933 -0.0972
 4508SOL    HW125160   2.737   0.828  13.879  0.4596  0.2641  2.1304
 4508SOL    HW225161   2.871   0.811  13.822 -2.5640 -1.2628 -0.2999
 4509SOL     OW25162   0.693   0.955   8.505  0.0823 -0.5626  0.4589
 4509SOL    HW125163   0.721   0.979   8.593  1.6965 -0.4542 -0.0815
 4509SOL    HW225164   0.601   0.937   8.527 -0.2757  0.3657 -0.2565
 4510SOL     OW25165   3.785   0.323   5.064  0.7152  0.6794  0.0468
 4510SOL    HW125166   3.736   0.241   5.061  0.8793  0.5288  1.4009
 4510SOL    HW225167   3.758   0.358   5.149  0.0427 -0.0236  0.1244
 4511SOL     OW25168   1.375   0.785   3.142  0.3714 -0.0642 -0.6136
 4511SOL    HW125169   1.354   0.736   3.222  1.7238 -1.1127 -0.9115
 4511SOL    HW225170   1.328   0.868   3.154  0.2145 -0.2034 -0.2559
 4512SOL     OW25171   1.715   0.685   9.559 -0.7712 -0.2745  0.2252
 4512SOL    HW125172   1.644   0.749   9.571 -1.0292 -0.4453 -0.3807
 4512SOL    HW225173   1.735   0.653   9.647  2.3911 -1.5086 -0.9356
 4513SOL     OW25174   1.072   1.865   9.059  0.3523 -0.1347  0.7683
 4513SOL    HW125175   1.010   1.877   9.131  0.1712 -1.0556  0.7671
 4513SOL    HW225176   1.026   1.811   8.995  2.3714 -3.3328  1.9630
 4514SOL     OW25177   0.443   3.889   6.461  0.2910  0.2108  0.3958
 4514SOL    HW125178   0.490   3.808   6.441 -1.1090 -0.9681  1.8660
 4514SOL    HW225179   0.368   3.838   6.490 -0.7828  2.4875  1.6139
 4515SOL     OW25180   1.666   4.429  10.485 -0.3784  0.3149 -0.2748
 4515SOL    HW125181   1.663   4.397  10.395 -0.9975 -0.7508  0.1249
 4515SOL    HW225182   1.673   4.524  10.473 -1.4006  0.2864 -1.0904
 4516SOL     OW25183   3.389   2.709   1.920  0.1243  0.3381  0.0421
 4516SOL    HW125184   3.440   2.770   1.867 -2.0159  0.0952 -2.3061
 4516SOL    HW225185   3.399   2.753   2.004 -0.3342  0.3275  0.1050
 4517SOL     OW25186   1.334   3.634   7.527  0.6559 -0.5057  0.1259
 4517SOL    HW125187   1.413   3.625   7.473  1.4492  2.6490  0.7456
 4517SOL    HW225188   1.356   3.577   7.600  0.2368 -0.9538 -0.0976
 4518SOL     OW25189   2.096   1.037   2.621  0.6552 -0.1560  0.3328
 4518SOL    HW125190   2.059   1.101   2.681  1.5998  1.1758 -0.5080
 4518SOL    HW225191   2.115   0.961   2.676 -1.5042 -0.2806  0.8988
 4519SOL     OW25192   3.319   4.063   1.095  0.1046 -0.9922  0.1633
 4519SOL    HW125193   3.254   4.023   1.153  0.7894  0.2387  1.7634
 4519SOL    HW225194   3.340   4.152   1.122 -1.2144 -0.2065 -1.3579
 4520SOL     OW25195   3.119   1.066   5.485  0.0528 -0.2421 -0.2002
 4520SOL    HW125196   3.078   0.990   5.444  1.8014 -0.8297 -0.8660
 4520SOL    HW225197   3.040   1.113   5.513  0.9901  0.7483  0.7937
 4521SOL     OW25198   3.452   1.506   7.015  0.6159 -0.4799 -0.1401
 4521SOL    HW125199   3.444   1.546   6.928 -2.3581 -1.3903 -0.3046
 4521SOL    HW225200   3.503   1.577   7.052 -0.3296  0.8212 -1.3069
 4522SOL     OW25201   3.498   4.500   8.946  0.9834 -0.0748 -0.2165
 4522SOL    HW125202   3.497   4.552   8.866 -0.1408 -0.3166 -0.3611
 4522SOL    HW225203   3.470   4.567   9.008 -0.9776 -1.2407  0.1849
 4523SOL     OW25204   0.375   4.624   5.279  0.0740 -0.0208 -0.1715
 4523SOL    HW125205   0.369   4.719   5.280  0.2752 -0.0088 -0.0933
 4523SOL    HW225206   0.283   4.602   5.296  0.7657 -3.4525 -0.8029
 4524SOL     OW25207   4.162   2.018   9.894 -0.9538 -0.4185  0.3702
 4524SOL    HW125208   4.142   1.933   9.932 -1.6666  0.1804  1.3512
 4524SOL    HW225209   4.069   2.041   9.892 -0.5451  1.1856 -0.1615
 4525SOL     OW25210   3.983   2.339   5.666  0.3797 -0.6276 -0.4588
 4525SOL    HW125211   4.039   2.390   5.608  1.0039 -0.1398  0.5883
 4525SOL    HW225212   4.046   2.285   5.714  0.6296  2.0613  2.1835
 4526SOL     OW25213   1.279   2.845   5.565 -0.2101  0.0525 -0.3824
 4526SOL    HW125214   1.196   2.889   5.582  0.9019  1.3607  1.6021
 4526SOL    HW225215   1.248   2.766   5.520 -0.5897  1.1459 -2.0371
 4527SOL     OW25216   4.304   4.285  17.153  0.0783 -0.1420 -0.2344
 4527SOL    HW125217   4.227   4.281  17.210 -2.6512  0.7795 -3.8518
 4527SOL    HW225218   4.375   4.260  17.212  0.0160  1.1770  0.4122
 4528SOL     OW25219   2.640   0.109  12.506 -0.1445  1.1296  0.0790
 4528SOL    HW125220   2.569   0.163  12.472  0.7537  0.8440 -2.2448
 4528SOL    HW225221   2.662   0.155  12.587  3.3891  2.3541 -1.5536
 4529SOL     OW25222   1.186   2.510   8.620 -0.3656 -0.3587  0.3533
 4529SOL    HW125223   1.229   2.448   8.561 -0.0560 -1.3955  1.6755
 4529SOL    HW225224   1.257   2.568   8.646  2.2669 -2.4329 -2.2688
 4530SOL     OW25225   4.399   2.813   8.278  0.0034  0.6651 -0.0540
 4530SOL    HW125226   4.439   2.740   8.230 -0.6667 -0.4080  1.0104
 4530SOL    HW225227   4.330   2.764   8.324 -0.7173  1.3877 -0.3678
 4531SOL     OW25228   3.630   4.032   6.750 -0.6562  0.0615 -0.4449
 4531SOL    HW125229   3.691   3.959   6.738  0.6829  1.7978 -4.1116
 4531SOL    HW225230   3.579   4.015   6.670 -2.3738  1.3608  0.3863
 4532SOL     OW25231   1.288   2.360   9.250  0.0762  0.3332  0.2804
 4532SOL    HW125232   1.204   2.377   9.293  1.0188  0.5046  2.0648
 4532SOL    HW225233   1.265   2.365   9.157  1.0945 -0.3388 -0.0084
 4533SOL     OW25234   1.878   1.611   5.402 -0.4390  0.3148 -0.2464
 4533SOL    HW125235   1.794   1.605   5.358 -0.2503 -2.8822 -0.1309
 4533SOL    HW225236   1.873   1.694   5.451  0.1291  0.7394 -0.9029
 4534SOL     OW25237   4.233   2.595   3.938 -0.4518 -0.5453  0.8068
 4534SOL    HW125238   4.312   2.594   3.884 -0.6146 -2.2997  0.6089
 4534SOL    HW225239   4.248   2.668   3.998  1.1548 -0.0300 -0.2133
 4535SOL     OW25240   2.748   4.274   6.993  0.0604 -0.1540  0.4095
 4535SOL    HW125241   2.792   4.287   6.909 -0.1716 -0.9453  0.1627
 4535SOL    HW225242   2.662   4.313   6.980  0.1932 -0.1343 -0.4089
 4536SOL     OW25243   0.256   3.326  16.919  0.3067 -0.1485  0.6840
 4536SOL    HW125244   0.201   3.332  16.841  3.8060  2.3890 -1.5509
 4536SOL    HW225245   0.272   3.232  16.915  0.4299 -0.0801 -0.3762
 4537SOL     OW25246   3.528   1.416  16.324  0.9323 -0.0585  0.2969
 4537SOL    HW125247   3.512   1.379  16.411  1.3552 -1.3357 -0.1616
 4537SOL    HW225248   3.442   1.413  16.283 -0.5059  0.5858  3.2594
 4538SOL     OW25249   0.609   2.705   1.417  0.2616  0.4995 -0.2722
 4538SOL    HW125250   0.515   2.684   1.418  0.4798 -0.4901  0.6899
 4538SOL    HW225251   0.622   2.760   1.340  0.0482 -1.4502 -1.7162
 4539SOL     OW25252   2.428   0.575  14.094  0.0810 -0.4555  0.8602
 4539SOL    HW125253   2.382   0.514  14.036  0.8348 -1.8472  1.7175
 4539SOL    HW225254   2.369   0.579  14.169 -0.7151  3.2874  0.0210
 4540SOL     OW25255   3.320   4.273   8.395 -0.0041  0.2794  1.0885
 4540SOL    HW125256   3.331   4.309   8.308 -0.0221  1.9441  1.7769
 4540SOL    HW225257   3.264   4.346   8.422  0.9128  1.0309  0.9727
 4541SOL     OW25258   3.748   3.425   5.691 -0.0122 -0.2249 -0.5293
 4541SOL    HW125259   3.775   3.400   5.780  0.3316  1.0846 -0.2734
 4541SOL    HW225260   3.778   3.514   5.705 -0.6326 -0.1639  0.4678
 4542SOL     OW25261   2.071   4.207   4.069 -0.4778  0.2802 -0.5132
 4542SOL    HW125262   2.003   4.272   4.050 -1.3037 -0.7005 -0.8917
 4542SOL    HW225263   2.149   4.253   4.039 -0.8283  2.1929  1.5223
 4543SOL     OW25264   2.163   3.846   9.660 -0.4185  0.8638 -0.0574
 4543SOL    HW125265   2.089   3.902   9.685 -0.3805  1.0932 -0.4569
 4543SOL    HW225266   2.150   3.858   9.566  3.8037 -3.4888 -1.1808
 4544SOL     OW25267   0.746   2.651   4.797  0.7143 -0.1619  0.0172
 4544SOL    HW125268   0.659   2.616   4.780 -0.4910  2.3550  0.9752
 4544SOL    HW225269   0.737   2.656   4.892 -0.3836  0.7225 -0.1375
 4545SOL     OW25270   4.152   2.806   2.687 -0.3485 -0.1636  0.0262
 4545SOL    HW125271   4.227   2.857   2.720 -0.0999 -0.8601  0.5413
 4545SOL    HW225272   4.147   2.807   2.592 -1.9978  1.6982  0.1234
 4546SOL     OW25273   2.129   3.617  15.224  0.1025  0.3537  0.0274
 4546SOL    HW125274   2.055   3.662  15.265  0.9821  2.3535 -0.5894
 4546SOL    HW225275   2.198   3.627  15.290 -1.0739  0.3908  1.2461
 4547SOL     OW25276   2.340   1.658   9.052  0.7019  0.3164  0.1018
 4547SOL    HW125277   2.250   1.668   9.083  0.4964  2.5058 -1.1820
 4547SOL    HW225278   2.358   1.745   9.017 -0.0013  0.1115 -0.7754
 4548SOL     OW25279   1.586   0.097  11.941  0.2850 -0.9178  0.1295
 4548SOL    HW125280   1.621   0.146  11.867  0.3265 -1.2385 -0.0663
 4548SOL    HW225281   1.513   0.151  11.970 -0.6415 -1.4637 -1.1412
 4549SOL     OW25282   3.051   2.752   6.951 -0.3805  0.3481  0.6135
 4549SOL    HW125283   2.983   2.797   6.999 -2.2508 -1.6659 -0.1455
 4549SOL    HW225284   3.003   2.695   6.890 -2.1302 -0.9194  3.1960
 4550SOL     OW25285   1.369   3.364   6.748 -0.1983 -0.2579 -0.4420
 4550SOL    HW125286   1.456   3.375   6.788 -1.2366 -0.2647  1.8227
 4550SOL    HW225287   1.388   3.330   6.661 -0.3378  0.0817 -0.6020
 4551SOL     OW25288   4.080   2.862   9.449  0.4522 -0.1813  0.0975
 4551SOL    HW125289   4.070   2.912   9.530  1.0215 -2.6128  1.6350
 4551SOL    HW225290   4.135   2.787   9.471 -1.9045 -0.7146  4.0970
 4552SOL     OW25291   3.658   1.480   4.821 -0.0975 -0.4279  0.2382
 4552SOL    HW125292   3.626   1.551   4.878  1.4971  1.0618 -0.7271
 4552SOL    HW225293   3.655   1.410   4.886 -0.3337  0.4991  1.2278
 4553SOL     OW25294   1.453   4.442   4.870  0.4701  0.1042  0.1584
 4553SOL    HW125295   1.531   4.474   4.827  0.0765  1.0046  0.1232
 4553SOL    HW225296   1.381   4.466   4.812 -0.3716 -1.0754  0.6992
 4554SOL     OW25297   2.203   3.296   2.683  0.5296  0.8072 -0.0301
 4554SOL    HW125298   2.116   3.332   2.668  0.6480  0.5803 -1.2448
 4554SOL    HW225299   2.252   3.375   2.660 -1.2486  2.0423  0.4192
 4555SOL     OW25300   0.888   0.646   8.449  0.0051  0.6887 -0.4360
 4555SOL    HW125301   0.952   0.674   8.514 -0.0176  2.3933 -1.1469
 4555SOL    HW225302   0.818   0.612   8.505 -0.0913  2.2847  0.4055
 4556SOL     OW25303   0.403   4.017   3.698 -0.5095  0.1564  0.3134
 4556SOL    HW125304   0.366   3.941   3.743 -2.6434  1.4606  0.7942
 4556SOL    HW225305   0.326   4.074   3.703 -0.4913  0.4159 -2.4793
 4557SOL     OW25306   0.985   1.131   4.203 -0.1873 -0.1799  0.1846
 4557SOL    HW125307   0.909   1.094   4.159 -0.0243 -0.4538  0.1327
 4557SOL    HW225308   1.019   1.050   4.240 -0.6852 -0.0047  1.0195
 4558SOL     OW25309   0.327   3.399   2.041  0.2929  0.1349 -0.3467
 4558SOL    HW125310   0.380   3.378   2.118  0.1424  0.7173 -0.0892
 4558SOL    HW225311   0.379   3.462   1.992  1.2002  0.3087  0.8453
 4559SOL     OW25312   1.327   0.173   8.976  0.1502  0.1746 -0.0957
 4559SOL    HW125313   1.337   0.217   8.892 -0.4242  0.6331  0.0745
 4559SOL    HW225314   1.406   0.207   9.018  0.9372 -2.6064  0.6933
 4560SOL     OW25315   0.773   3.514   4.144 -0.4500  0.1059 -0.4296
 4560SOL    HW125316   0.690   3.468   4.149  0.2363 -1.1297 -0.2824
 4560SOL    HW225317   0.743   3.600   4.171 -1.2466 -0.1993 -0.3441
 4561SOL     OW25318   3.084   3.660   4.823 -0.1346  0.1473 -0.0606
 4561SOL    HW125319   3.041   3.576   4.805  3.3203 -2.1165  2.4412
 4561SOL    HW225320   3.166   3.657   4.775  0.1007  1.6834  0.2646
 4562SOL     OW25321   2.401   3.810   2.979 -0.1464  0.5786  0.4798
 4562SOL    HW125322   2.475   3.764   3.020 -1.3651 -1.0671  0.8341
 4562SOL    HW225323   2.370   3.742   2.918 -0.7457  1.2039  0.0960
 4563SOL     OW25324   1.082   2.005   6.388 -0.2321  0.1418  0.4920
 4563SOL    HW125325   1.069   1.945   6.315  0.7551  0.1610  0.3005
 4563SOL    HW225326   1.157   1.962   6.429 -1.3922 -0.9721  1.4312
 4564SOL     OW25327   1.736   4.208   8.246  0.2890  0.6632 -0.6412
 4564SOL    HW125328   1.780   4.275   8.298 -0.4823  0.6108  0.0772
 4564SOL    HW225329   1.730   4.138   8.312  0.0384  0.0400 -1.3246
 4565SOL     OW25330   3.423   3.569   4.384 -0.3531 -0.0357  0.0616
 4565SOL    HW125331   3.375   3.486   4.390  1.2366 -1.0344 -1.0285
 4565SOL    HW225332   3.373   3.617   4.318  1.9660  1.2599 -0.7222
 4566SOL     OW25333   2.480   1.935   3.829  0.2901 -0.5166  0.0154
 4566SOL    HW125334   2.536   1.988   3.772 -1.2156  0.4369 -0.5868
 4566SOL    HW225335   2.405   1.994   3.818 -2.0600 -3.4063  0.5172
 4567SOL     OW25336   1.111   3.460  10.238  0.6983  0.2473 -0.0431
 4567SOL    HW125337   1.101   3.388  10.300 -3.6828 -0.1106 -1.1691
 4567SOL    HW225338   1.065   3.413  10.168  0.1852 -0.2848  0.6505
 4568SOL     OW25339   2.747   1.896   3.988  0.2296 -0.2297 -0.3746
 4568SOL    HW125340   2.692   1.960   3.943 -0.5789 -1.4189 -1.0694
 4568SOL    HW225341   2.682   1.875   4.054  0.7132 -1.1378 -0.1791
 4569SOL     OW25342   3.427   0.658   5.984 -0.1437  0.0421  0.3786
 4569SOL    HW125343   3.416   0.579   5.930  0.0951  0.0574  0.3072
 4569SOL    HW225344   3.507   0.635   6.031 -0.9349  0.5100  1.9720
 4570SOL     OW25345   0.104   2.753   3.636  0.0114  0.4517 -0.7442
 4570SOL    HW125346   0.025   2.763   3.689  0.5712  0.3258  0.1092
 4570SOL    HW225347   0.081   2.816   3.568 -2.2331  0.4405  0.0153
 4571SOL     OW25348   4.426   0.519  15.943  0.0610 -0.0693  0.1118
 4571SOL    HW125349   4.472   0.507  15.860 -1.2694 -0.0947 -0.6132
 4571SOL    HW225350   4.470   0.593  15.985  1.2067 -0.0125 -1.1939
 4572SOL     OW25351   0.644   4.540   6.075  0.0225  0.8827 -0.1454
 4572SOL    HW125352   0.669   4.556   6.166 -2.0344  3.0251  0.0575
 4572SOL    HW225353   0.554   4.508   6.085  1.1468 -1.6103  1.8847
 4573SOL     OW25354   3.035   1.390   3.568  0.4816  0.0092  0.3626
 4573SOL    HW125355   2.973   1.438   3.513 -1.1178 -1.0581  1.2196
 4573SOL    HW225356   3.100   1.459   3.573  1.0580 -0.4929 -0.1226
 4574SOL     OW25357   0.834   0.041   6.302 -0.1705  1.0143 -0.8151
 4574SOL    HW125358   0.864   0.107   6.365 -1.0318 -0.1548  0.8059
 4574SOL    HW225359   0.876   0.071   6.222 -0.4822  0.1782 -1.2859
 4575SOL     OW25360   3.793   2.598   1.854 -0.2339 -0.1574  0.0478
 4575SOL    HW125361   3.867   2.536   1.863  0.5656  1.2012  3.0712
 4575SOL    HW225362   3.727   2.551   1.905  1.6077 -2.5809  0.2644
 4576SOL     OW25363   0.635   2.985  14.221 -0.3333  0.0499  0.0119
 4576SOL    HW125364   0.577   3.017  14.152 -0.4077  1.5435  0.7590
 4576SOL    HW225365   0.647   2.893  14.199 -1.6792 -0.2291  0.4517
 4577SOL     OW25366   2.727   2.558   4.137  0.1328  0.1423  0.0887
 4577SOL    HW125367   2.715   2.488   4.073 -2.3966 -0.0406  0.7549
 4577SOL    HW225368   2.712   2.632   4.079  1.2050 -1.1394 -1.8277
 4578SOL     OW25369   2.681   0.548   2.982  0.3942 -0.0729  0.1910
 4578SOL    HW125370   2.662   0.469   2.932  1.5411 -0.3348  0.1598
 4578SOL    HW225371   2.762   0.518   3.024  1.9330  3.5311 -0.2024
 4579SOL     OW25372   3.860   1.188   5.858 -0.1990  0.4224 -0.1260
 4579SOL    HW125373   3.769   1.172   5.883  0.6730 -1.5179  1.8145
 4579SOL    HW225374   3.846   1.191   5.763 -0.9652 -0.0371 -0.0268
 4580SOL     OW25375   3.330   0.412  11.426  0.1867  0.1628 -0.0917
 4580SOL    HW125376   3.350   0.335  11.479 -0.8840  0.4209  0.6797
 4580SOL    HW225377   3.333   0.364  11.343 -0.1784 -1.4560  0.8327
 4581SOL     OW25378   3.132   2.732   1.825 -0.0270  0.8805  0.3434
 4581SOL    HW125379   3.081   2.727   1.906 -1.3887 -2.6426 -0.7202
 4581SOL    HW225380   3.218   2.735   1.865  0.8229  2.6946 -1.5923
 4582SOL     OW25381   3.808   4.381   7.198 -0.2101  0.1220  0.3743
 4582SOL    HW125382   3.845   4.326   7.267  1.3890  0.1088 -0.5071
 4582SOL    HW225383   3.714   4.364   7.196 -0.2969  0.6475  0.0441
 4583SOL     OW25384   1.877   1.067   0.156 -0.3128 -0.0987  0.4664
 4583SOL    HW125385   1.790   1.066   0.196 -0.9571 -0.9662 -0.9553
 4583SOL    HW225386   1.867   1.109   0.070  0.6863  1.0618  0.9173
 4584SOL     OW25387   2.003   1.636   9.726  0.3828 -0.5574  0.2290
 4584SOL    HW125388   2.051   1.646   9.643  0.4939  3.7294  0.7990
 4584SOL    HW225389   2.019   1.724   9.758 -0.4399 -0.4016  0.2164
 4585SOL     OW25390   2.668   0.061  15.272 -0.1842  0.0745 -0.5592
 4585SOL    HW125391   2.651   0.135  15.331 -1.2753 -0.0463 -0.7186
 4585SOL    HW225392   2.762   0.072  15.263  0.1367 -1.8005  0.5003
 4586SOL     OW25393   3.273   2.797   7.315 -0.1720  0.7227  0.7349
 4586SOL    HW125394   3.282   2.784   7.409  1.1294 -3.1633  0.1108
 4586SOL    HW225395   3.183   2.830   7.314  0.4803  2.5124  0.9728
 4587SOL     OW25396   3.165   1.479   4.715 -0.1976 -0.6747  0.2367
 4587SOL    HW125397   3.075   1.511   4.715  0.6239  1.5847  1.4610
 4587SOL    HW225398   3.219   1.558   4.707  0.2555 -0.9291  0.7899
 4588SOL     OW25399   3.604   0.500  12.687 -0.5571 -0.7504 -0.8402
 4588SOL    HW125400   3.547   0.447  12.632 -0.6924  0.1106 -1.5179
 4588SOL    HW225401   3.569   0.589  12.685  4.6145  1.3461 -0.0530
 4589SOL     OW25402   4.599   0.677   4.403 -0.4874  0.4464 -0.4865
 4589SOL    HW125403   4.677   0.694   4.456 -1.0199 -1.0436  0.7887
 4589SOL    HW225404   4.535   0.736   4.442 -2.6998 -2.6023  0.5390
 4590SOL     OW25405   1.329   0.752   6.667  0.1402  0.3862 -0.1815
 4590SOL    HW125406   1.260   0.818   6.667  0.4627  0.7207 -2.5755
 4590SOL    HW225407   1.341   0.728   6.575  1.0490 -1.4692  0.4276
 4591SOL     OW25408   3.004   4.496  17.154  0.0859 -0.0493 -0.0438
 4591SOL    HW125409   2.996   4.403  17.175  0.6461 -0.2826 -0.8466
 4591SOL    HW225410   3.078   4.497  17.093 -0.7305 -1.3547 -1.0723
 4592SOL     OW25411   1.088   1.245   8.696 -0.0196  0.1534 -0.2986
 4592SOL    HW125412   1.165   1.287   8.735  0.7038 -0.9050 -0.6069
 4592SOL    HW225413   1.114   1.155   8.711  3.0579  1.1021  0.0676
 4593SOL     OW25414   1.184   0.498  12.247 -0.0364 -0.3234  0.7586
 4593SOL    HW125415   1.256   0.479  12.187 -1.1126  0.0646 -0.6580
 4593SOL    HW225416   1.137   0.415  12.252  1.0334 -0.8330  2.3824
 4594SOL     OW25417   1.255   2.731   5.805 -0.1260  0.1850 -0.2614
 4594SOL    HW125418   1.258   2.768   5.717 -0.1364 -1.2261 -0.8486
 4594SOL    HW225419   1.321   2.661   5.804  0.6735  0.8982  2.1650
 4595SOL     OW25420   1.571   2.704  15.442 -0.2996 -0.9104  1.0887
 4595SOL    HW125421   1.479   2.678  15.447 -0.4138 -1.0988 -1.6774
 4595SOL    HW225422   1.601   2.644  15.373  1.1927  1.3270 -0.2296
 4596SOL     OW25423   0.323   0.440  11.114 -0.1063  0.0716 -0.6395
 4596SOL    HW125424   0.280   0.515  11.154 -2.0009 -1.1473 -0.4314
 4596SOL    HW225425   0.313   0.371  11.179  2.8112  1.3264  1.1620
 4597SOL     OW25426   4.410   1.843   8.035  0.3784  0.5298  0.3176
 4597SOL    HW125427   4.500   1.837   8.066  0.7621  2.2067 -0.4247
 4597SOL    HW225428   4.408   1.780   7.962 -0.0077  0.4990  0.3508
 4598SOL     OW25429   4.670   0.174  14.156 -0.2094 -0.1338 -0.0783
 4598SOL    HW125430   0.001   0.242  14.162  1.4224 -1.5837 -2.2687
 4598SOL    HW225431   4.722   0.095  14.145  0.8866  0.4731  0.7948
 4599SOL     OW25432   3.532   4.397   7.851 -0.2249 -0.2211  0.3053
 4599SOL    HW125433   3.509   4.389   7.758  1.1320  0.4845 -0.1006
 4599SOL    HW225434   3.452   4.373   7.897 -1.0693  2.4032  0.2049
 4600SOL     OW25435   0.326   1.719   1.689  0.5258 -0.3349  0.0064
 4600SOL    HW125436   0.414   1.689   1.712  0.5646  0.6354  1.0973
 4600SOL    HW225437   0.318   1.668   1.608  1.4785  0.5748 -0.6527
 4601SOL     OW25438   3.627   1.807   4.330  0.3567 -0.5017  0.1404
 4601SOL    HW125439   3.690   1.865   4.373 -2.1235 -0.5311  3.7719
 4601SOL    HW225440   3.633   1.730   4.388  1.2940  0.9988  2.0151
 4602SOL     OW25441   1.830   2.103   8.837 -0.3220  0.1037  0.4751
 4602SOL    HW125442   1.756   2.062   8.881 -1.8563  0.8713 -1.3903
 4602SOL    HW225443   1.848   2.044   8.765  0.4209  0.4371  0.3877
 4603SOL     OW25444   1.933   1.698   1.853 -0.7299  0.1394 -0.1932
 4603SOL    HW125445   1.991   1.771   1.876 -0.7184  0.5954 -1.6697
 4603SOL    HW225446   1.939   1.644   1.931  1.8033  1.5432  0.5746
 4604SOL     OW25447   1.317   1.456  15.072  0.0621  0.2233 -0.6634
 4604SOL    HW125448   1.392   1.436  15.016 -1.5368 -2.1538 -1.9746
 4604SOL    HW225449   1.243   1.436  15.015 -2.6170  1.2003  2.4878
 4605SOL     OW25450   3.017   1.984   3.705  0.1578 -0.4428 -0.3519
 4605SOL    HW125451   2.965   1.904   3.711  1.8345 -1.4952  0.1243
 4605SOL    HW225452   3.098   1.939   3.731 -0.8554 -0.0620  3.4541
 4606SOL     OW25453   0.460   4.569   7.162  0.0529 -0.0433 -0.1101
 4606SOL    HW125454   0.404   4.564   7.239 -0.6526 -3.1168 -0.8399
 4606SOL    HW225455   0.430   4.653   7.127 -1.3246  0.4963  2.3554
 4607SOL     OW25456   1.963   3.576   4.731 -0.5789  0.7116  0.2879
 4607SOL    HW125457   1.966   3.499   4.674 -1.0619 -1.9026  3.7762
 4607SOL    HW225458   1.937   3.638   4.663  0.9309  0.4486 -0.5252
 4608SOL     OW25459   4.301   2.423   2.513  0.4258  0.1910  0.0179
 4608SOL    HW125460   4.385   2.377   2.517  0.0632 -0.4902 -0.2265
 4608SOL    HW225461   4.241   2.361   2.472  0.3646  0.8317 -0.8593
 4609SOL     OW25462   0.308   0.567  13.275  0.2234 -0.4245  0.6360
 4609SOL    HW125463   0.234   0.624  13.255  0.1256 -1.3118 -1.6324
 4609SOL    HW225464   0.382   0.625  13.255  0.7759 -0.9741  1.0760
 4610SOL     OW25465   2.649   2.269   4.330 -0.0958 -0.3439 -0.3688
 4610SOL    HW125466   2.719   2.314   4.377 -1.4266  1.3390  0.0021
 4610SOL    HW225467   2.588   2.248   4.400  0.9148 -0.2915  0.5369
 4611SOL     OW25468   2.043   3.005  11.885 -0.4114 -0.0818 -0.5117
 4611SOL    HW125469   1.961   3.046  11.915 -1.3344  1.1688 -4.6874
 4611SOL    HW225470   2.023   2.915  11.911 -2.2730  0.5166  0.1626
 4612SOL     OW25471   4.207   3.190  12.612 -0.2705 -0.4294  0.5683
 4612SOL    HW125472   4.262   3.232  12.679  0.4146 -1.1468  0.4597
 4612SOL    HW225473   4.192   3.264  12.554  0.8957 -0.7384 -0.1181
 4613SOL     OW25474   4.425   2.503   1.056 -0.1502 -0.4391 -0.0424
 4613SOL    HW125475   4.403   2.427   1.002 -1.0748  0.0566 -0.3632
 4613SOL    HW225476   4.520   2.512   1.048 -0.2156  1.6368  1.3778
 4614SOL     OW25477   1.081   4.015   9.948 -0.6919  0.1064  0.3706
 4614SOL    HW125478   1.109   3.926   9.969  3.3305  1.4691  0.8196
 4614SOL    HW225479   1.167   4.058   9.953 -1.4324  1.7117 -0.7950
 4615SOL     OW25480   0.671   0.756   6.037  0.0388 -0.2006 -0.1201
 4615SOL    HW125481   0.644   0.796   6.120  1.3307  3.2954 -1.3619
 4615SOL    HW225482   0.629   0.805   5.966  1.6444 -1.8143 -2.1907
 4616SOL     OW25483   0.533   0.115   5.200 -0.1146 -0.4699 -0.1306
 4616SOL    HW125484   0.499   0.204   5.202 -0.7200 -0.7360  1.4275
 4616SOL    HW225485   0.616   0.117   5.151 -1.3840 -1.5791 -2.3057
 4617SOL     OW25486   2.853   1.548  14.759  0.3685 -0.0649  0.3709
 4617SOL    HW125487   2.906   1.517  14.685 -1.0760  0.2666 -0.8085
 4617SOL    HW225488   2.839   1.640  14.739 -0.7909 -1.0763 -3.5758
 4618SOL     OW25489   3.028   0.033   9.255 -0.0360 -0.1933  0.3285
 4618SOL    HW125490   3.083   4.710   9.205  0.8388 -2.1952  3.6296
 4618SOL    HW225491   3.082   0.032   9.335 -0.3713  0.9006  0.5693
 4619SOL     OW25492   1.122   2.345   7.365  0.4000 -0.0781  0.0268
 4619SOL    HW125493   1.188   2.399   7.410 -0.0193 -0.1167  0.6833
 4619SOL    HW225494   1.048   2.347   7.426  0.7600 -0.8032  0.4782
 4620SOL     OW25495   1.110   1.658   2.775  0.5033  0.0132  0.3407
 4620SOL    HW125496   1.187   1.644   2.719  0.5434  1.9510 -0.0781
 4620SOL    HW225497   1.161   1.689   2.850 -2.0891 -2.6776  3.1929
 4621SOL     OW25498   2.145   2.325   7.238 -0.5307 -0.0670  0.0711
 4621SOL    HW125499   2.226   2.372   7.258 -1.2314  1.1547 -0.0098
 4621SOL    HW225500   2.113   2.380   7.166 -0.7792  1.8375  1.6408
 4622SOL     OW25501   2.313   0.889   5.346  0.5243 -0.4668 -0.3713
 4622SOL    HW125502   2.329   0.796   5.361 -0.2949 -0.6780 -0.7986
 4622SOL    HW225503   2.356   0.930   5.422  1.3380  2.3061 -2.3090
 4623SOL     OW25504   3.365   4.133   4.233 -0.5800 -0.5765 -0.1745
 4623SOL    HW125505   3.450   4.108   4.196  0.6159 -0.1396  2.3095
 4623SOL    HW225506   3.309   4.119   4.156 -1.0601 -0.8611  0.2300
 4624SOL     OW25507   2.405   0.185   1.659  0.4588 -0.5459  0.2251
 4624SOL    HW125508   2.433   0.144   1.741  0.2288 -1.0922  0.0290
 4624SOL    HW225509   2.329   0.228   1.699  1.3579  0.2013  1.1018
 4625SOL     OW25510   1.506   0.775  12.216 -0.5213 -0.4714 -0.2259
 4625SOL    HW125511   1.551   0.766  12.133 -2.3381 -2.3442 -1.0199
 4625SOL    HW225512   1.567   0.820  12.274  0.4151  0.4943 -2.0056
 4626SOL     OW25513   4.554   1.713   3.861  0.1303 -0.0204 -0.0781
 4626SOL    HW125514   4.513   1.735   3.777 -0.4643  0.0415  0.2322
 4626SOL    HW225515   4.517   1.786   3.910  0.2111 -0.0587  0.0400
 4627SOL     OW25516   0.358   4.664  15.737  0.4523 -0.1131  0.4189
 4627SOL    HW125517   0.395   0.011  15.764  0.8982  0.5363 -2.1718
 4627SOL    HW225518   0.440   4.627  15.703  0.0111 -0.6386 -0.0638
 4628SOL     OW25519   1.152   3.932  12.895  0.0398 -0.3819 -0.4908
 4628SOL    HW125520   1.058   3.950  12.882 -0.5174 -1.9680  1.3418
 4628SOL    HW225521   1.155   3.868  12.824 -0.8148 -1.1140  0.1303
 4629SOL     OW25522   4.261   3.599  10.193 -0.4465  0.3212 -0.0174
 4629SOL    HW125523   4.269   3.680  10.142  1.2778  0.8484  1.0774
 4629SOL    HW225524   4.173   3.567  10.174  0.7238 -1.1931 -2.7559
 4630SOL     OW25525   0.170   0.202   4.998 -0.2845 -0.3961 -0.1584
 4630SOL    HW125526   0.153   0.146   5.074 -1.4281  0.0689 -0.0621
 4630SOL    HW225527   0.179   0.288   5.040 -1.9743 -0.5848  0.6050
 4631SOL     OW25528   0.237   2.808   2.056 -0.5629 -0.0210  0.0970
 4631SOL    HW125529   0.154   2.823   2.013 -1.7093 -1.1611  1.8882
 4631SOL    HW225530   0.293   2.766   1.991  1.5613  0.5220  1.5608
 4632SOL     OW25531   3.657   2.864   6.812  0.1399  0.1805  0.8242
 4632SOL    HW125532   3.637   2.784   6.860  0.4816 -0.6399 -0.3854
 4632SOL    HW225533   3.738   2.836   6.769 -0.4445  0.1510 -0.2509
 4633SOL     OW25534   2.941   1.205   2.014  1.0139 -0.0180  0.1313
 4633SOL    HW125535   3.009   1.147   1.980  1.4535 -0.1031  1.1573
 4633SOL    HW225536   2.898   1.147   2.077  2.2820  1.3045  2.2111
 4634SOL     OW25537   0.747   4.519   0.043 -0.2222  0.0418 -0.0029
 4634SOL    HW125538   0.686   4.549   0.110 -0.0565  1.9447 -0.7314
 4634SOL    HW225539   0.805   4.484   0.111 -0.1345 -0.1882 -0.1944
 4635SOL     OW25540   3.040   3.620   5.111 -0.1619  0.1906 -0.0875
 4635SOL    HW125541   3.051   3.617   5.016 -1.4090  1.7285 -0.2795
 4635SOL    HW225542   3.061   3.528   5.128 -1.5585  0.1187  1.1510
 4636SOL     OW25543   1.131   2.859  10.177 -0.0895 -0.2725  0.2780
 4636SOL    HW125544   1.171   2.776  10.202 -2.0422 -1.0499  0.8258
 4636SOL    HW225545   1.054   2.830  10.127  0.2188  1.0428 -0.9617
 4637SOL     OW25546   4.506   2.569   9.973 -0.0732  0.2385 -0.1498
 4637SOL    HW125547   4.425   2.576   9.923  0.3024  3.4787 -0.3362
 4637SOL    HW225548   4.537   2.658   9.956  0.6676 -0.0126 -0.0961
 4638SOL     OW25549   3.053   0.032  17.688  0.1438 -0.5066 -0.1377
 4638SOL    HW125550   3.015   4.706   0.007 -0.0197 -3.5160 -3.1944
 4638SOL    HW225551   3.137   4.729  17.664 -0.2306 -1.1048 -0.4706
 4639SOL     OW25552   0.210   3.255   6.172 -0.2603  0.3074 -0.9321
 4639SOL    HW125553   0.173   3.185   6.227 -0.3614  2.8563  2.2744
 4639SOL    HW225554   0.295   3.271   6.214 -0.8083  0.4865  0.1208
 4640SOL     OW25555   2.976   0.955   8.143 -0.5591  0.3470 -0.3681
 4640SOL    HW125556   2.900   0.902   8.119 -0.4305  0.0795 -0.1825
 4640SOL    HW225557   3.055   0.902   8.140 -1.0280 -0.3288 -0.6708
 4641SOL     OW25558   2.691   1.137  11.852 -0.2510  0.6113  0.0996
 4641SOL    HW125559   2.764   1.193  11.825 -1.7870  0.5850 -4.0927
 4641SOL    HW225560   2.663   1.176  11.935 -1.1163 -0.3468  0.2665
 4642SOL     OW25561   2.974   0.649   6.683 -0.2503 -0.5108 -0.3535
 4642SOL    HW125562   3.014   0.633   6.598 -0.5599  1.1500 -0.8168
 4642SOL    HW225563   2.882   0.641   6.659 -0.1697 -0.4727 -0.6659
 4643SOL     OW25564   4.064   3.449   5.128  0.0357 -0.1480 -0.3666
 4643SOL    HW125565   4.109   3.460   5.044 -0.5969  2.0923 -0.4035
 4643SOL    HW225566   3.999   3.380   5.113 -0.8054  0.5485  0.0457
 4644SOL     OW25567   2.446   1.205   6.433 -0.0736 -0.1735 -0.4580
 4644SOL    HW125568   2.377   1.160   6.384  0.7356 -1.8689 -0.0382
 4644SOL    HW225569   2.525   1.152   6.418 -1.0846 -1.3257 -1.6669
 4645SOL     OW25570   4.098   3.975  17.495  0.1113 -0.7215  0.3481
 4645SOL    HW125571   4.138   3.900  17.451  1.3755  1.6021 -2.4423
 4645SOL    HW225572   4.140   3.980  17.581 -0.4657 -2.1253  0.7202
 4646SOL     OW25573   1.145   1.892   6.138  0.3375 -0.3109 -0.3909
 4646SOL    HW125574   1.196   1.814   6.114  0.6270 -0.5097  0.8908
 4646SOL    HW225575   1.187   1.960   6.085  1.9761 -1.4919 -0.5958
 4647SOL     OW25576   1.877   3.333   4.107  0.2011 -0.0991  0.1136
 4647SOL    HW125577   1.809   3.307   4.169 -0.0873  0.0207 -0.1518
 4647SOL    HW225578   1.916   3.405   4.156  0.7785 -1.7586  2.1080
 4648SOL     OW25579   1.705   3.109  16.510 -0.4021 -0.0518 -0.4655
 4648SOL    HW125580   1.688   3.179  16.446  0.8653 -0.1857 -0.9313
 4648SOL    HW225581   1.743   3.036  16.461 -0.4831 -1.4913  1.5980
 4649SOL     OW25582   0.594   4.286   2.971  0.0378  0.5117  0.6664
 4649SOL    HW125583   0.500   4.284   2.951  0.2397 -0.5357 -0.1667
 4649SOL    HW225584   0.632   4.336   2.899 -0.6503  0.2026  0.0931
 4650SOL     OW25585   3.252   0.840  14.015 -0.0922 -0.3436 -0.2227
 4650SOL    HW125586   3.200   0.799  14.084 -1.2486  0.8072 -0.4163
 4650SOL    HW225587   3.294   0.906  14.070 -0.7108 -0.6243  0.5940
 4651SOL     OW25588   3.960   4.376   1.932  0.7398 -0.2305 -0.3814
 4651SOL    HW125589   3.903   4.450   1.911  1.9941  0.9830  0.4423
 4651SOL    HW225590   3.905   4.298   1.926 -1.6422  1.5749 -2.2924
 4652SOL     OW25591   1.844   0.319   1.663 -0.7152 -0.6724 -0.0673
 4652SOL    HW125592   1.799   0.375   1.600  1.8748  1.0159 -0.4312
 4652SOL    HW225593   1.924   0.298   1.614 -0.5280  0.1282 -0.0917
 4653SOL     OW25594   1.462   1.922   5.998  0.4774 -0.1693 -0.0520
 4653SOL    HW125595   1.493   1.881   6.079 -1.7772 -2.8081 -0.5328
 4653SOL    HW225596   1.468   1.849   5.937 -0.1193 -1.1833  1.0927
 4654SOL     OW25597   2.667   4.717   5.702  0.5650 -0.0141 -0.0777
 4654SOL    HW125598   2.738   0.038   5.675  0.0109  2.0334  2.8334
 4654SOL    HW225599   2.714   4.693   5.782 -0.0780 -0.2029  0.2447
 4655SOL     OW25600   4.362   1.502  11.988 -0.0821  0.2786 -0.0138
 4655SOL    HW125601   4.313   1.495  12.070  0.3566 -1.0737  0.1286
 4655SOL    HW225602   4.374   1.410  11.964 -1.2502  0.3803 -1.0163
 4656SOL     OW25603   3.641   3.378   7.023 -0.6783  0.1370  0.1437
 4656SOL    HW125604   3.609   3.365   7.113  0.0157 -0.3610  0.3129
 4656SOL    HW225605   3.714   3.439   7.029 -2.5798  2.8371 -3.5212
 4657SOL     OW25606   2.690   1.379   1.621 -0.0435 -0.4182 -0.1008
 4657SOL    HW125607   2.700   1.303   1.563  1.3974 -0.5703  0.3510
 4657SOL    HW225608   2.697   1.337   1.706  0.2804 -0.7999 -0.3152
 4658SOL     OW25609   0.969   2.797  15.111 -0.0126 -0.4670  0.5309
 4658SOL    HW125610   0.949   2.734  15.043 -0.4914  0.2611  0.0057
 4658SOL    HW225611   1.051   2.836  15.079 -1.3305  0.5251 -1.6043
 4659SOL     OW25612   3.452   1.019   9.020  0.3541 -0.6472  0.0917
 4659SOL    HW125613   3.396   1.031   9.097  2.0920 -0.7359  1.3621
 4659SOL    HW225614   3.454   0.923   9.016  0.1849 -0.6415 -0.1712
 4660SOL     OW25615   0.119   4.613  15.858 -0.1790 -0.1676 -0.1114
 4660SOL    HW125616   0.060   4.688  15.845  0.2711  0.2795  0.3959
 4660SOL    HW225617   0.201   4.660  15.845 -1.1211  1.2533 -0.9805
 4661SOL     OW25618   1.078   1.075   4.750 -0.4364  0.0508 -0.0230
 4661SOL    HW125619   1.127   1.103   4.827  0.6747  2.5887 -1.6466
 4661SOL    HW225620   0.984   1.092   4.759 -0.6576 -1.1598  0.0109
 4662SOL     OW25621   0.474   0.033   3.912  0.1085  0.4689  0.2222
 4662SOL    HW125622   0.420   0.059   3.837 -0.4616  1.2779  0.9187
 4662SOL    HW225623   0.532   4.707   3.868  0.3782  0.6855  0.2700
 4663SOL     OW25624   0.842   1.123   6.255  0.1695 -0.8985 -0.1394
 4663SOL    HW125625   0.795   1.163   6.182 -0.4269 -2.2158 -0.4744
 4663SOL    HW225626   0.889   1.062   6.199  0.0577  0.6505 -1.9139
 4664SOL     OW25627   3.599   3.287   3.748  0.5496  0.4266 -0.1670
 4664SOL    HW125628   3.515   3.330   3.764  0.7148  0.3899  0.7969
 4664SOL    HW225629   3.593   3.216   3.811  1.4897 -0.8992 -1.5748
 4665SOL     OW25630   3.023   4.279  14.996  0.4229 -0.7785  0.3951
 4665SOL    HW125631   2.990   4.248  15.080  0.7285 -0.1762  0.7392
 4665SOL    HW225632   3.038   4.369  15.027  1.7083 -1.4801  1.8157
 4666SOL     OW25633   0.804   1.539  15.286  0.4066  1.0159 -0.0231
 4666SOL    HW125634   0.849   1.604  15.232  0.0139 -1.8599 -3.7855
 4666SOL    HW225635   0.762   1.587  15.357 -0.2870  0.1578  0.1565
 4667SOL     OW25636   2.707   1.838   1.834 -0.4188 -0.3054 -0.4168
 4667SOL    HW125637   2.740   1.893   1.905  1.1457  0.1131 -1.4501
 4667SOL    HW225638   2.656   1.773   1.882  0.2800 -1.1426 -0.8047
 4668SOL     OW25639   3.260   0.439   7.462 -0.1185  0.0348  0.1985
 4668SOL    HW125640   3.199   0.512   7.456 -0.5813 -0.2768  1.1022
 4668SOL    HW225641   3.248   0.412   7.553 -0.1124 -0.1726  0.1370
 4669SOL     OW25642   0.580   3.151  12.273  0.1242 -0.4099 -0.1258
 4669SOL    HW125643   0.551   3.199  12.350 -0.6289 -1.5746  0.3207
 4669SOL    HW225644   0.671   3.177  12.280 -0.1945  0.0088  2.3457
 4670SOL     OW25645   3.645   3.504   9.789 -0.6869 -0.3864 -0.3841
 4670SOL    HW125646   3.720   3.446   9.777 -1.7667 -1.3966 -2.4725
 4670SOL    HW225647   3.680   3.579   9.741  0.3659 -1.7996 -1.8344
 4671SOL     OW25648   3.420   1.101  14.870  0.2230 -0.3062  0.0777
 4671SOL    HW125649   3.333   1.141  14.867 -0.8902 -2.6528  1.5036
 4671SOL    HW225650   3.417   1.022  14.816  1.1006  1.0172 -1.9107
 4672SOL     OW25651   2.525   2.169   8.923  0.1643 -0.6255  0.5890
 4672SOL    HW125652   2.560   2.200   8.840  0.7040 -1.3188  0.5612
 4672SOL    HW225653   2.450   2.226   8.942 -0.3657 -0.9697 -0.4889
 4673SOL     OW25654   2.078   4.378   8.546  0.1730  0.2867 -0.2870
 4673SOL    HW125655   2.153   4.423   8.584 -0.0452 -1.5609  2.2998
 4673SOL    HW225656   2.020   4.374   8.622 -0.9432  1.5433 -1.0640
 4674SOL     OW25657   3.355   2.782   2.603  0.1175 -0.1683 -0.0482
 4674SOL    HW125658   3.405   2.702   2.589 -2.7662 -1.6319 -1.9153
 4674SOL    HW225659   3.355   2.795   2.698 -2.3760  1.0865 -0.2143
 4675SOL     OW25660   3.009   2.876  17.607  0.1746 -0.1910  0.2667
 4675SOL    HW125661   2.947   2.852  17.539  2.1816  1.8155 -2.3211
 4675SOL    HW225662   3.094   2.869  17.562 -0.3224 -1.3829 -0.4572
 4676SOL     OW25663   0.398   1.395   5.831  0.3272  0.3585  0.2236
 4676SOL    HW125664   0.303   1.400   5.822  0.1928  1.8724  2.6036
 4676SOL    HW225665   0.407   1.305   5.799 -1.7114  0.8301 -1.6434
 4677SOL     OW25666   3.497   4.541   3.273  0.0817  0.2105 -0.1921
 4677SOL    HW125667   3.556   4.616   3.282 -0.1858  0.6290 -2.0437
 4677SOL    HW225668   3.483   4.540   3.179  1.7379  0.4393 -0.4337
 4678SOL     OW25669   4.500   3.526   1.627 -0.3679  0.5436 -0.4050
 4678SOL    HW125670   4.474   3.442   1.666  1.0453  0.2746 -0.0610
 4678SOL    HW225671   4.595   3.520   1.627 -0.3655  0.6044  0.9544
 4679SOL     OW25672   4.018   1.624  13.219 -0.0287 -0.5572  0.0168
 4679SOL    HW125673   4.024   1.563  13.145  2.8176  1.2770 -1.2565
 4679SOL    HW225674   3.923   1.633  13.227 -0.1076  1.2791 -3.0237
 4680SOL     OW25675   1.412   2.281  15.902 -0.0002  0.0692 -0.4099
 4680SOL    HW125676   1.386   2.208  15.846  0.9353 -0.8275  0.3381
 4680SOL    HW225677   1.336   2.338  15.891  0.3202  0.8557  1.4140
 4681SOL     OW25678   4.265   0.392   5.686 -0.2555  0.3960 -0.1824
 4681SOL    HW125679   4.221   0.318   5.643 -1.9433  1.9086 -1.0320
 4681SOL    HW225680   4.187   0.442   5.707  0.1782 -0.5548  3.8028
 4682SOL     OW25681   2.323   1.054   2.248  0.2048 -0.3598  0.2936
 4682SOL    HW125682   2.262   0.991   2.287  0.2613 -0.1481  0.7257
 4682SOL    HW225683   2.273   1.134   2.264  0.2396 -0.4445  0.8277
 4683SOL     OW25684   1.503   3.963   8.778  0.1016 -0.0554  0.1053
 4683SOL    HW125685   1.497   4.050   8.738 -0.9400 -0.3718 -0.4062
 4683SOL    HW225686   1.419   3.965   8.823 -0.4659 -0.1400 -0.9686
 4684SOL     OW25687   2.262   1.065   6.289  0.0346  0.0052  0.0539
 4684SOL    HW125688   2.256   0.972   6.269  1.0863 -0.1651  0.5297
 4684SOL    HW225689   2.179   1.073   6.336  0.7798  1.1426  1.1751
 4685SOL     OW25690   3.902   0.479   3.764 -0.3656  0.1029  0.1965
 4685SOL    HW125691   3.895   0.569   3.797 -0.5452 -0.5022  1.8149
 4685SOL    HW225692   3.914   0.441   3.851  3.1424  1.4040  0.2489
 4686SOL     OW25693   1.210   4.073   5.532  0.2997  0.6584 -0.1754
 4686SOL    HW125694   1.150   4.125   5.479 -0.5479  1.1147  1.2342
 4686SOL    HW225695   1.161   4.065   5.614 -0.5759  2.2206 -0.5491
 4687SOL     OW25696   0.190   2.058   8.883  0.1825  0.0565 -0.2854
 4687SOL    HW125697   0.159   2.126   8.943  1.6063  0.0322  0.4489
 4687SOL    HW225698   0.129   2.072   8.810  0.6433  2.6043 -0.1970
 4688SOL     OW25699   2.086   1.305   5.963 -0.3306 -0.0488 -0.4488
 4688SOL    HW125700   2.020   1.279   5.899 -1.9059  0.9710  0.7470
 4688SOL    HW225701   2.080   1.399   5.944  0.7248  0.7153  2.9868
 4689SOL     OW25702   3.605   1.473  12.864 -0.0299  0.3692  0.0749
 4689SOL    HW125703   3.648   1.426  12.936  1.4107 -0.4522 -1.3171
 4689SOL    HW225704   3.572   1.404  12.806  0.7905 -1.1354  1.3877
 4690SOL     OW25705   3.110   2.929   9.052  0.4566  0.1116 -0.4615
 4690SOL    HW125706   3.052   2.870   9.004  0.9902 -0.3290 -0.5620
 4690SOL    HW225707   3.185   2.869   9.053 -1.0209 -1.7370 -0.7918
 4691SOL     OW25708   4.202   3.734  13.560 -0.1855  0.3222  0.1910
 4691SOL    HW125709   4.235   3.769  13.643 -0.8523 -1.8633  1.4008
 4691SOL    HW225710   4.183   3.642  13.580 -0.6064  0.2216 -0.6617
 4692SOL     OW25711   2.384   4.081   5.996  0.2096 -0.4054 -0.0272
 4692SOL    HW125712   2.472   4.043   5.990  0.4729 -0.2786  3.2408
 4692SOL    HW225713   2.391   4.139   6.072 -0.5150 -1.6036  0.9628
 4693SOL     OW25714   2.116   4.408   6.608  0.4960  0.1154  0.0842
 4693SOL    HW125715   2.054   4.477   6.582  1.9725  2.1641  2.0084
 4693SOL    HW225716   2.114   4.431   6.701  1.4003  0.0917  0.1012
 4694SOL     OW25717   3.279   1.902   9.465 -0.0160  0.3651 -0.3262
 4694SOL    HW125718   3.196   1.949   9.451  0.4985  1.1093 -0.8728
 4694SOL    HW225719   3.281   1.864   9.377  1.3169  1.9967 -1.0019
 4695SOL     OW25720   2.821   2.139  16.073  0.0015 -0.1889 -0.2054
 4695SOL    HW125721   2.830   2.082  15.996  0.9950  0.2700 -0.4258
 4695SOL    HW225722   2.887   2.117  16.138 -1.1569  3.0687  2.0588
 4696SOL     OW25723   2.158   2.388   5.731 -0.2758  0.4470 -0.7180
 4696SOL    HW125724   2.248   2.417   5.720  0.5425 -2.1044 -0.6650
 4696SOL    HW225725   2.111   2.460   5.689 -1.3607  1.0853  1.6303
 4697SOL     OW25726   2.000   4.399   2.152 -0.3756  0.5869  0.1158
 4697SOL    HW125727   2.071   4.348   2.111  0.8716  1.2411  1.4470
 4697SOL    HW225728   1.965   4.441   2.074 -1.6810  0.0629  0.4358
 4698SOL     OW25729   4.690   0.722  12.946 -0.3236 -0.4779  0.0379
 4698SOL    HW125730   4.656   0.662  12.880  0.8188 -2.0099  0.8469
 4698SOL    HW225731   0.017   0.662  12.985  0.8246  1.4615  1.1164
 4699SOL     OW25732   4.180   2.825  11.281  0.3249  0.3155 -0.5251
 4699SOL    HW125733   4.229   2.846  11.360 -1.8195  0.4739  0.7684
 4699SOL    HW225734   4.143   2.741  11.308 -0.4242  0.5069 -0.9492
 4700SOL     OW25735   1.936   1.687  14.490 -0.5850 -0.3243  0.1613
 4700SOL    HW125736   1.884   1.764  14.466  1.9772  1.7004  1.0344
 4700SOL    HW225737   2.003   1.666  14.424  1.0282  1.4281  1.2302
 4701SOL     OW25738   3.041   2.416   7.849 -0.1100  0.1449  0.3646
 4701SOL    HW125739   2.986   2.454   7.781  1.5085  1.2882 -0.3020
 4701SOL    HW225740   3.072   2.339   7.800  0.1030  0.8359 -0.5842
 4702SOL     OW25741   0.364   4.302   8.771 -0.4264  0.1383  0.0536
 4702SOL    HW125742   0.320   4.280   8.853 -0.5830  0.2425 -0.0035
 4702SOL    HW225743   0.339   4.229   8.714  3.0974  0.2164 -1.6171
 4703SOL     OW25744   2.011   1.498   2.120  0.1124 -0.0859 -0.6023
 4703SOL    HW125745   2.018   1.555   2.197 -0.8724 -1.7530  0.7143
 4703SOL    HW225746   1.945   1.434   2.146 -0.9830  0.9182 -0.9324
 4704SOL     OW25747   4.202   0.903   1.732  0.1826 -0.2250  0.4952
 4704SOL    HW125748   4.274   0.918   1.794  1.3032  1.3645 -1.2127
 4704SOL    HW225749   4.128   0.913   1.792 -0.6433 -1.2134 -0.3705
 4705SOL     OW25750   4.735   2.509   4.848 -0.0594  0.6435  0.7483
 4705SOL    HW125751   4.719   2.583   4.790 -0.3757 -1.4534 -1.8755
 4705SOL    HW225752   4.702   2.547   4.929  0.5282  1.6746  0.4899
 4706SOL     OW25753   1.648   1.629   6.427  0.1878 -0.3200  0.0965
 4706SOL    HW125754   1.723   1.679   6.461 -1.2766  1.1038  1.1993
 4706SOL    HW225755   1.685   1.541   6.429  1.7133  0.3829  4.3495
 4707SOL     OW25756   2.659   1.483   2.649 -0.4244 -0.6653  0.5315
 4707SOL    HW125757   2.710   1.557   2.682 -1.9746  1.2183 -1.2425
 4707SOL    HW225758   2.709   1.406   2.676 -2.1781 -1.8710  0.3192
 4708SOL     OW25759   1.872   2.678  11.492 -0.3315  0.6751 -0.3181
 4708SOL    HW125760   1.922   2.596  11.492  1.1533  1.5434  2.0854
 4708SOL    HW225761   1.875   2.706  11.401  0.8740 -0.6130 -0.6729
 4709SOL     OW25762   2.981   4.145  11.526  0.5288  0.0528 -0.3521
 4709SOL    HW125763   3.055   4.206  11.522  0.2455  0.3689 -0.7269
 4709SOL    HW225764   2.949   4.169  11.613  0.2812  0.7630 -0.6488
 4710SOL     OW25765   0.801   3.419   7.788 -0.2648 -0.0233 -0.2563
 4710SOL    HW125766   0.794   3.470   7.868 -0.5996 -1.4668  0.6396
 4710SOL    HW225767   0.706   3.405   7.779 -0.3938  1.7807 -1.6486
 4711SOL     OW25768   2.289   4.724   6.236 -0.8461  0.3644  0.3757
 4711SOL    HW125769   2.209   0.039   6.228 -1.2638  0.0141  2.4796
 4711SOL    HW225770   2.245   4.659   6.290 -0.8891  1.0508  1.1594
 4712SOL     OW25771   3.223   0.319   7.690  0.4735  0.8421 -0.1673
 4712SOL    HW125772   3.312   0.308   7.724 -0.1465 -2.3257  0.5364
 4712SOL    HW225773   3.179   0.257   7.749  2.6670  1.6969  2.3880
 4713SOL     OW25774   0.933   1.672   8.892  0.0782 -0.2698  0.0776
 4713SOL    HW125775   0.857   1.725   8.866 -1.0869 -1.4445  1.0647
 4713SOL    HW225776   0.900   1.585   8.871 -5.6703  1.7903  0.5801
 4714SOL     OW25777   1.791   0.942   4.800  0.1251  0.7423 -0.1226
 4714SOL    HW125778   1.738   0.914   4.875  0.9583 -1.6089 -0.4473
 4714SOL    HW225779   1.812   0.858   4.760  1.5375  1.2152 -0.3615
 4715SOL     OW25780   0.026   3.147  10.749  0.2737 -0.7049  0.5733
 4715SOL    HW125781   4.725   3.232  10.774  1.7541 -0.0135  0.4088
 4715SOL    HW225782   0.101   3.175  10.698  0.8747 -1.4990  1.0287
 4716SOL     OW25783   1.974   1.848   4.995 -0.1908  0.3429  0.5117
 4716SOL    HW125784   1.946   1.931   4.957 -0.8962  0.4634  1.3007
 4716SOL    HW225785   1.901   1.840   5.056  0.3663  3.7442  1.5979
 4717SOL     OW25786   2.106   1.754   4.147 -0.2998  0.2007 -0.1169
 4717SOL    HW125787   2.073   1.841   4.170  1.0031  0.5751  0.3136
 4717SOL    HW225788   2.129   1.784   4.059 -0.2595 -0.8306 -0.4537
 4718SOL     OW25789   3.034   1.915   6.949  0.2622 -0.8346 -0.0149
 4718SOL    HW125790   3.081   1.947   6.871  0.8542 -0.0279  0.6749
 4718SOL    HW225791   3.029   1.992   7.004  1.1611 -0.1191 -0.9257
 4719SOL     OW25792   1.633   2.380  13.067 -0.1189  0.0962  0.6863
 4719SOL    HW125793   1.574   2.402  12.995  0.8923 -2.8765 -1.0376
 4719SOL    HW225794   1.654   2.289  13.049  2.2836  0.3014  2.4212
 4720SOL     OW25795   4.351   0.275   6.673  0.5076 -0.1042  0.1804
 4720SOL    HW125796   4.393   0.189   6.686 -1.2073 -1.1379 -1.1984
 4720SOL    HW225797   4.291   0.286   6.746  0.3043  2.5999 -0.4235
 4721SOL     OW25798   2.593   4.136  16.398  0.1862  0.2283  0.0485
 4721SOL    HW125799   2.587   4.161  16.306  0.4699  2.3252  0.6022
 4721SOL    HW225800   2.548   4.208  16.443 -1.3931 -1.3729  1.0419
 4722SOL     OW25801   0.621   3.909  13.304 -0.0416  0.5685 -0.0956
 4722SOL    HW125802   0.597   3.997  13.336  0.1948  0.0432  1.4961
 4722SOL    HW225803   0.572   3.852  13.363 -0.7809  0.5912 -0.6830
 4723SOL     OW25804   4.040   1.038   7.930 -0.0341 -0.3594  0.3731
 4723SOL    HW125805   3.954   1.021   7.892  0.2399 -1.3797  0.2119
 4723SOL    HW225806   4.096   0.995   7.865  0.3616 -0.4260  0.7576
 4724SOL     OW25807   3.503   3.804  13.020 -0.2167 -0.1433 -0.1498
 4724SOL    HW125808   3.537   3.864  12.955  0.7050  0.2318  0.6709
 4724SOL    HW225809   3.584   3.755  13.037 -1.0617 -1.2858  0.6017
 4725SOL     OW25810   3.880   0.791   6.441 -0.6296 -0.4389  0.2659
 4725SOL    HW125811   3.889   0.772   6.534 -0.8583  0.4435  0.4676
 4725SOL    HW225812   3.830   0.872   6.450  1.8365  1.1794 -0.5675
 4726SOL     OW25813   4.412   1.318   6.347 -0.0505 -0.9015  0.2403
 4726SOL    HW125814   4.360   1.389   6.309  0.0963 -0.4575  0.8648
 4726SOL    HW225815   4.462   1.367   6.413  1.2142 -1.4090 -0.3394
 4727SOL     OW25816   1.807   4.125   6.424  0.0943  0.1413 -0.3005
 4727SOL    HW125817   1.740   4.093   6.484  1.0873  0.7223  1.1158
 4727SOL    HW225818   1.876   4.152   6.486 -1.2094  1.7353  0.4657
 4728SOL     OW25819   1.109   2.286  10.029  0.6114  0.7233 -0.3857
 4728SOL    HW125820   1.046   2.309  10.098  1.8437  1.2036  0.5825
 4728SOL    HW225821   1.185   2.257  10.078  0.0235 -0.7951 -0.3647
 4729SOL     OW25822   3.417   0.128   6.924 -0.5665  0.1830 -0.1515
 4729SOL    HW125823   3.343   0.189   6.916 -2.1332 -1.3338  2.7668
 4729SOL    HW225824   3.486   0.185   6.956 -1.4342  0.9540  0.3639
 4730SOL     OW25825   1.496   1.552  14.592 -0.3572 -0.0373  0.4083
 4730SOL    HW125826   1.523   1.525  14.679 -2.4068  0.3095  1.1676
 4730SOL    HW225827   1.453   1.478  14.550  0.9706 -0.5997  0.0525
 4731SOL     OW25828   1.087   4.005   5.753  0.2187  0.0802  0.2955
 4731SOL    HW125829   1.149   3.970   5.816  0.2013 -0.7417 -0.1453
 4731SOL    HW225830   1.016   3.944   5.773 -0.1933  0.7352  0.8421
 4732SOL     OW25831   0.842   2.014  13.506 -0.1669  0.2978  0.0836
 4732SOL    HW125832   0.875   1.955  13.574 -0.2157 -1.9172 -1.8047
 4732SOL    HW225833   0.801   2.079  13.563  0.2917  0.2568  0.4645
 4733SOL     OW25834   2.807   4.259   2.557  0.1195  0.2534  0.5648
 4733SOL    HW125835   2.829   4.268   2.650  1.1066  1.6661  0.1928
 4733SOL    HW225836   2.875   4.320   2.527 -0.4971  0.7385  0.1603
 4734SOL     OW25837   0.839   3.781  15.344 -0.0176  0.1109  0.2131
 4734SOL    HW125838   0.827   3.858  15.288  0.7847  0.1005  0.0295
 4734SOL    HW225839   0.886   3.820  15.418  0.2360 -1.8196  1.0708
 4735SOL     OW25840   2.567   1.949  10.574  0.2379  0.0855  0.9951
 4735SOL    HW125841   2.608   1.887  10.514  0.5322  0.9819  0.2698
 4735SOL    HW225842   2.584   2.032  10.529  2.3288 -1.0692 -0.3314
 4736SOL     OW25843   2.835   2.803   2.996  0.1258  0.5271  0.3825
 4736SOL    HW125844   2.902   2.785   3.061 -1.2436  1.4783  2.0737
 4736SOL    HW225845   2.889   2.783   2.920 -0.0677 -0.0583  0.4005
 4737SOL     OW25846   0.751   1.977   5.473  0.4184  0.0952  0.4571
 4737SOL    HW125847   0.734   1.883   5.467 -0.3897  0.3641 -1.4316
 4737SOL    HW225848   0.669   2.006   5.513 -0.0462  1.1341 -1.2353
 4738SOL     OW25849   3.834   3.840   3.413  0.5382  0.1905  0.1325
 4738SOL    HW125850   3.829   3.935   3.425 -1.0313 -0.2500  3.1908
 4738SOL    HW225851   3.913   3.809   3.458 -0.3352 -0.6858  1.0628
 4739SOL     OW25852   1.293   2.435   8.239 -0.2653  0.4065  0.1162
 4739SOL    HW125853   1.253   2.522   8.231 -0.9167  0.1601  0.6812
 4739SOL    HW225854   1.215   2.381   8.226 -0.7639  1.0307  0.5123
 4740SOL     OW25855   4.710   4.423  13.097  0.1643  0.0973 -0.0013
 4740SOL    HW125856   4.668   4.447  13.015  0.2067 -2.3759 -0.7565
 4740SOL    HW225857   0.056   4.470  13.108  1.8581 -2.9244  0.3572
 4741SOL     OW25858   0.972   2.959   4.999  0.1600  0.6342 -0.4140
 4741SOL    HW125859   1.048   2.996   4.955  1.7445  0.0086  1.7776
 4741SOL    HW225860   0.979   2.864   4.990  0.5761  0.9171 -2.9515
 4742SOL     OW25861   0.506   3.143   1.381 -0.7222 -0.0831 -0.1675
 4742SOL    HW125862   0.519   3.051   1.404  0.5934 -0.6689 -3.3076
 4742SOL    HW225863   0.440   3.156   1.449 -1.1780  0.4138 -0.7075
 4743SOL     OW25864   2.900   0.790  11.026 -0.2189  0.5685 -0.2631
 4743SOL    HW125865   2.892   0.869  11.078 -0.7578  1.1311 -1.2001
 4743SOL    HW225866   2.945   0.816  10.945 -1.9507 -1.7477 -1.9718
 4744SOL     OW25867   1.099   2.479   2.794 -0.9444  0.0590  0.2623
 4744SOL    HW125868   1.106   2.478   2.889  1.2197 -2.1849  0.0806
 4744SOL    HW225869   1.023   2.533   2.772 -0.9331  0.7855  2.0591
 4745SOL     OW25870   2.898   1.087   1.382 -0.4673 -0.0492  0.0546
 4745SOL    HW125871   2.874   0.998   1.357 -3.2239  0.9439 -0.7901
 4745SOL    HW225872   2.811   1.110   1.415 -0.9949 -1.1985 -0.5224
 4746SOL     OW25873   0.608   3.115   8.043 -0.1304  0.2783 -0.7637
 4746SOL    HW125874   0.652   3.065   8.111 -0.6404  0.0439 -0.6014
 4746SOL    HW225875   0.616   3.205   8.076 -2.2277  0.4893 -0.7990
 4747SOL     OW25876   3.306   1.716   3.372 -0.6943 -0.3947  0.5832
 4747SOL    HW125877   3.287   1.648   3.436  3.2564 -0.1553  2.0144
 4747SOL    HW225878   3.304   1.649   3.304  0.7040 -0.8277  0.9679
 4748SOL     OW25879   4.037   1.994   5.156 -0.1025 -0.3847 -0.2191
 4748SOL    HW125880   4.031   1.965   5.065  1.2142 -1.1851 -0.0547
 4748SOL    HW225881   3.954   2.036   5.180  0.6151  2.0733 -2.0162
 4749SOL     OW25882   3.722   0.720   2.107  0.0714  0.2534 -0.1217
 4749SOL    HW125883   3.774   0.791   2.144  0.3003 -0.0810  0.1983
 4749SOL    HW225884   3.703   0.668   2.186  0.9832 -1.6543 -1.1749
 4750SOL     OW25885   4.140   3.165   2.304  0.2802 -0.4589  0.1418
 4750SOL    HW125886   4.057   3.204   2.276  1.4279  1.1664 -0.9588
 4750SOL    HW225887   4.159   3.107   2.230 -0.7279  0.0842 -0.5608
 4751SOL     OW25888   2.374   0.153   7.997 -0.2224 -0.0682  0.3787
 4751SOL    HW125889   2.385   0.215   7.925  1.6627 -1.7009 -0.7490
 4751SOL    HW225890   2.370   0.076   7.940 -0.3140  1.3820 -1.5911
 4752SOL     OW25891   2.785   2.178   1.203 -0.0439  0.2074 -0.0208
 4752SOL    HW125892   2.870   2.185   1.246 -0.1266  0.4967  0.0974
 4752SOL    HW225893   2.774   2.270   1.179 -0.1037 -0.2889 -1.9057
 4753SOL     OW25894   3.710   2.513   0.007  0.6377 -0.1514 -0.0972
 4753SOL    HW125895   3.794   2.552  17.725  0.1399 -1.2397 -3.3354
 4753SOL    HW225896   3.651   2.563  17.695  0.4712  0.8607  0.9649
 4754SOL     OW25897   2.322   2.350   3.810 -0.4356  0.5100  0.5174
 4754SOL    HW125898   2.276   2.273   3.844 -0.9229  2.5834  4.6160
 4754SOL    HW225899   2.292   2.360   3.720 -0.9192 -1.6717  0.4367
 4755SOL     OW25900   3.576   1.115   3.034  0.0211  0.2304 -0.6512
 4755SOL    HW125901   3.507   1.054   3.008  0.1020  0.0946 -0.5436
 4755SOL    HW225902   3.581   1.110   3.130 -1.8982  1.5115 -0.4629
 4756SOL     OW25903   3.586   2.292   7.120  0.0999 -0.2504  0.5197
 4756SOL    HW125904   3.656   2.351   7.146  0.3871  0.2633 -1.4416
 4756SOL    HW225905   3.517   2.320   7.180  1.5587  2.2018  1.0314
 4757SOL     OW25906   2.384   0.965   2.750 -0.2820  0.2053 -0.0862
 4757SOL    HW125907   2.425   1.042   2.788 -0.6416  0.1084  0.4871
 4757SOL    HW225908   2.326   0.929   2.817 -0.1036  1.2453  0.6153
 4758SOL     OW25909   3.566   4.052   7.027 -0.0099  0.2210 -0.4146
 4758SOL    HW125910   3.555   4.085   6.938 -1.2469  2.6179  0.6639
 4758SOL    HW225911   3.657   4.020   7.031 -0.1950 -0.1409  0.9515
 4759SOL     OW25912   0.880   4.512   7.799 -0.4107  0.2213  0.3705
 4759SOL    HW125913   0.975   4.506   7.785 -0.6358 -1.6993 -0.3133
 4759SOL    HW225914   0.865   4.595   7.845  0.1445  0.4052  0.2273
 4760SOL     OW25915   3.427   2.040  14.120  0.3591  0.0167 -0.3082
 4760SOL    HW125916   3.350   1.998  14.158  0.0425  1.3482  0.5220
 4760SOL    HW225917   3.396   2.065  14.033  1.7504 -1.7022 -1.3179
 4761SOL     OW25918   1.411   2.355   6.918 -0.2086 -0.3985  0.1945
 4761SOL    HW125919   1.434   2.431   6.866 -0.8280  1.5171  2.7079
 4761SOL    HW225920   1.412   2.286   6.852  0.0884 -2.2941  2.1706
 4762SOL     OW25921   1.396   1.720   4.387 -0.3246  0.4638 -0.7027
 4762SOL    HW125922   1.454   1.670   4.329 -0.5065 -1.2277  0.5557
 4762SOL    HW225923   1.453   1.725   4.464 -1.9833  1.0896  0.4707
 4763SOL     OW25924   3.768   0.919   5.665 -0.1186 -0.4685  0.1100
 4763SOL    HW125925   3.685   0.873   5.662 -0.4731  0.2664 -1.3655
 4763SOL    HW225926   3.745   1.012   5.668  0.9963 -0.2386  1.5848
 4764SOL     OW25927   3.831   1.890   3.825 -0.1957  0.1658  0.0503
 4764SOL    HW125928   3.791   1.851   3.747  0.8408  1.5794 -1.1781
 4764SOL    HW225929   3.763   1.882   3.892  1.3245 -1.3915  1.4067
 4765SOL     OW25930   2.952   3.051   3.243  0.4858  0.2234  0.1029
 4765SOL    HW125931   2.964   3.015   3.330  2.4690  2.2419  0.6534
 4765SOL    HW225932   2.884   3.117   3.259  0.5510  0.1542  0.6608
 4766SOL     OW25933   0.635   2.636   7.253 -0.2920 -0.0918 -0.1894
 4766SOL    HW125934   0.727   2.636   7.279 -0.7550 -1.4523  1.4402
 4766SOL    HW225935   0.616   2.728   7.272 -0.7767  0.2694 -2.4035
 4767SOL     OW25936   3.534   2.281   4.697  0.3644 -0.2094  0.4985
 4767SOL    HW125937   3.560   2.317   4.782  1.3462  2.4640 -0.9413
 4767SOL    HW225938   3.560   2.190   4.709  0.9166 -0.4088 -2.2247
 4768SOL     OW25939   1.196   0.930   6.310  0.5078 -0.4056 -0.1718
 4768SOL    HW125940   1.114   0.903   6.270 -0.0238  1.0855 -0.1066
 4768SOL    HW225941   1.213   1.005   6.253  0.3804 -0.7098 -0.6100
 4769SOL     OW25942   2.478   0.234   5.480  0.4924 -0.4198  0.2344
 4769SOL    HW125943   2.571   0.226   5.461  0.2517 -1.2041 -0.6126
 4769SOL    HW225944   2.477   0.208   5.573 -1.0396 -1.7956 -0.1659
 4770SOL     OW25945   1.141   3.541   6.782 -0.2807  0.1665 -0.1860
 4770SOL    HW125946   1.224   3.495   6.795 -0.3411  0.9498  3.0071
 4770SOL    HW225947   1.163   3.610   6.719  0.3648  0.1286 -0.0035
 4771SOL     OW25948   4.649   2.613   5.546  0.6573 -0.5068  0.4536
 4771SOL    HW125949   4.608   2.614   5.632 -0.8723  2.1410 -0.3078
 4771SOL    HW225950   4.680   2.703   5.538  0.8679 -0.6669 -0.5497
 4772SOL     OW25951   1.365   3.344  13.570 -0.1276  0.4508  0.0797
 4772SOL    HW125952   1.295   3.344  13.635  0.9202  0.5943  1.2110
 4772SOL    HW225953   1.354   3.438  13.556 -0.0345  0.5702  0.8017
 4773SOL     OW25954   2.087   0.365   4.208  0.0390 -0.5373 -0.3001
 4773SOL    HW125955   2.050   0.325   4.129  2.0576  0.9265 -1.9853
 4773SOL    HW225956   2.059   0.456   4.202  0.8709 -0.1661  1.4051
 4774SOL     OW25957   0.760   4.532   6.381 -0.0643  0.7535  0.1866
 4774SOL    HW125958   0.729   4.546   6.471 -2.5638  1.8325 -0.8382
 4774SOL    HW225959   0.786   4.623   6.363 -3.0276  0.8273 -3.6518
 4775SOL     OW25960   2.203   3.301  13.183  0.7460 -0.1643 -0.1506
 4775SOL    HW125961   2.271   3.301  13.251  1.9013  0.0995 -1.3132
 4775SOL    HW225962   2.216   3.383  13.136 -0.0133 -0.1994 -0.4248
 4776SOL     OW25963   2.019   0.162   7.253  0.6592 -0.2116  0.1593
 4776SOL    HW125964   2.091   0.107   7.222  0.3641 -0.5277  0.0390
 4776SOL    HW225965   2.000   0.131   7.342  1.6331 -2.7096 -0.4959
 4777SOL     OW25966   2.751   0.374   3.856  0.2504  0.1489  0.2431
 4777SOL    HW125967   2.658   0.385   3.878  0.1711 -2.7231  1.3275
 4777SOL    HW225968   2.760   0.437   3.785 -0.4029 -0.1404 -0.1015
 4778SOL     OW25969   2.145   0.495   9.134 -0.6041 -0.2824  0.1826
 4778SOL    HW125970   2.220   0.449   9.097 -0.2205 -0.2906  0.9704
 4778SOL    HW225971   2.102   0.424   9.180 -1.6897  0.1725 -0.1272
 4779SOL     OW25972   1.378   1.998   7.309  0.3226 -0.1762 -0.3153
 4779SOL    HW125973   1.334   2.032   7.387  2.5474 -1.6104  1.5812
 4779SOL    HW225974   1.449   2.059   7.288 -0.8071  1.3234  0.2518
 4780SOL     OW25975   3.922   2.765   8.830 -0.2271 -0.1466  0.1061
 4780SOL    HW125976   3.866   2.721   8.766 -0.7349 -1.4533  1.4312
 4780SOL    HW225977   3.946   2.846   8.786  0.4915 -0.7951 -0.6858
 4781SOL     OW25978   4.397   3.145   9.130 -0.0193  0.4390 -0.1672
 4781SOL    HW125979   4.475   3.125   9.078  0.4785 -1.6267  1.3490
 4781SOL    HW225980   4.321   3.104   9.090  1.6301 -1.1043 -1.7299
 4782SOL     OW25981   2.580   3.667   5.642 -0.3179  0.4497  0.3915
 4782SOL    HW125982   2.517   3.733   5.671 -0.0195 -0.3002  2.7674
 4782SOL    HW225983   2.519   3.613   5.591 -1.0561  3.5921 -1.9710
 4783SOL     OW25984   1.219   4.535   4.744 -0.1350 -0.0417 -0.2016
 4783SOL    HW125985   1.270   4.611   4.713 -2.3893  0.5432 -2.4702
 4783SOL    HW225986   1.166   4.528   4.664  0.9627 -0.1706 -0.9290
 4784SOL     OW25987   2.647   4.028  16.108 -0.4742  0.4472  0.0883
 4784SOL    HW125988   2.588   4.058  16.039 -1.4638 -0.4313  0.5455
 4784SOL    HW225989   2.719   4.002  16.051 -0.7773 -2.1644  0.8830
 4785SOL     OW25990   3.529   2.538   8.370 -0.3236 -0.0001  0.3687
 4785SOL    HW125991   3.441   2.518   8.339  0.7168 -2.7068 -0.7784
 4785SOL    HW225992   3.504   2.610   8.429 -0.4213 -0.3877  0.8007
 4786SOL     OW25993   2.563   3.280   9.473  0.1509 -0.4586 -0.6128
 4786SOL    HW125994   2.584   3.332   9.550 -0.4984 -1.5515  0.3163
 4786SOL    HW225995   2.574   3.347   9.406 -0.1729 -0.0322 -0.2374
 4787SOL     OW25996   2.719   4.249   9.474 -0.1088  0.2036 -0.3923
 4787SOL    HW125997   2.752   4.338   9.473 -2.1848  0.9970  1.9176
 4787SOL    HW225998   2.741   4.228   9.565  0.9296  0.4858 -0.5768
 4788SOL     OW25999   2.185   3.714  16.949 -0.1068  0.1398  0.6463
 4788SOL    HW126000   2.155   3.762  17.026 -0.9450 -2.2243  1.7790
 4788SOL    HW226001   2.105   3.704  16.898  0.9345  0.1275 -1.0056
 4789SOL     OW26002   3.838   4.121  14.822 -0.2995 -0.3493 -0.3779
 4789SOL    HW126003   3.802   4.076  14.746  1.2103 -1.7937 -0.2413
 4789SOL    HW226004   3.923   4.076  14.821  0.5192  1.1288  2.7243
 4790SOL     OW26005   3.936   2.412   1.045  0.2499 -0.1047  0.0638
 4790SOL    HW126006   3.996   2.433   1.116  2.3776 -1.0739 -1.4856
 4790SOL    HW226007   3.872   2.483   1.052  0.5677 -0.2074  4.5070
 4791SOL     OW26008   2.394   4.332   2.820  0.0533  0.3878  0.8230
 4791SOL    HW126009   2.380   4.314   2.727  0.6405  2.3353  0.3560
 4791SOL    HW226010   2.398   4.244   2.859 -1.2304 -0.2059 -0.3977
 4792SOL     OW26011   1.839   3.815   7.471  0.2743 -0.5094  0.2321
 4792SOL    HW126012   1.859   3.737   7.419 -2.6323 -0.0298 -1.5901
 4792SOL    HW226013   1.899   3.804   7.544  2.1341 -1.8723 -1.5029
 4793SOL     OW26014   4.413   1.086   5.714  0.0198 -0.4707  0.1471
 4793SOL    HW126015   4.453   1.047   5.636 -0.0574  0.4700 -0.3625
 4793SOL    HW226016   4.466   1.046   5.783 -0.2052 -0.7505  0.1569
 4794SOL     OW26017   1.037   2.675   9.685 -0.2504  0.2424  0.1604
 4794SOL    HW126018   1.022   2.731   9.609 -0.6942  0.6254  0.5252
 4794SOL    HW226019   1.026   2.730   9.763  0.2805  2.6310 -1.4641
 4795SOL     OW26020   1.680   2.468   6.443 -0.6429  0.3256 -0.0992
 4795SOL    HW126021   1.586   2.462   6.427 -0.9465  1.8792  1.1175
 4795SOL    HW226022   1.684   2.422   6.527 -1.0223 -0.6756 -0.6376
 4796SOL     OW26023   3.470   2.864   7.773  0.2328 -0.0719 -1.1174
 4796SOL    HW126024   3.548   2.866   7.830 -1.8053  0.4745  1.6572
 4796SOL    HW226025   3.430   2.942   7.811  1.6333 -0.5215  1.2700
 4797SOL     OW26026   1.267   4.585   5.978  0.2041  0.0455  0.3706
 4797SOL    HW126027   1.327   4.517   6.008 -1.0919  0.1022  3.1071
 4797SOL    HW226028   1.243   4.618   6.065  2.4024  2.9714 -0.0905
 4798SOL     OW26029   4.629   0.084  11.872  0.4760  0.1568  0.3783
 4798SOL    HW126030   4.622   0.129  11.788 -0.5794  0.6145  0.7092
 4798SOL    HW226031   4.698   0.140  11.908 -2.2410  3.8051 -0.1320
 4799SOL     OW26032   0.394   0.259  16.916 -0.0845 -0.0466 -0.3850
 4799SOL    HW126033   0.487   0.282  16.912 -0.1196  0.7632  3.6230
 4799SOL    HW226034   0.369   0.321  16.984  2.6325 -1.2251  1.6924
 4800SOL     OW26035   4.613   3.244   0.468 -0.3584  0.2881  0.1797
 4800SOL    HW126036   4.693   3.211   0.428 -1.1339 -0.1103 -1.0434
 4800SOL    HW226037   4.553   3.175   0.441  0.9416 -2.0337  3.2869
 4801SOL     OW26038   1.994   3.209   2.920  0.4937  0.1986 -0.2385
 4801SOL    HW126039   2.072   3.242   2.875 -0.4896  1.0826 -1.3422
 4801SOL    HW226040   2.020   3.229   3.010 -0.7598 -0.3845  0.2450
 4802SOL     OW26041   1.289   2.638   7.203  0.4244 -0.0376 -0.4424
 4802SOL    HW126042   1.240   2.577   7.148 -0.1049  0.0099 -0.0314
 4802SOL    HW226043   1.228   2.712   7.204 -0.2198 -0.5607 -1.2388
 4803SOL     OW26044   3.382   3.189   7.256 -0.2933 -0.4768 -0.0547
 4803SOL    HW126045   3.412   3.110   7.302 -0.8706 -0.6586  0.0023
 4803SOL    HW226046   3.383   3.166   7.163 -1.2221 -1.2466  0.1290
 4804SOL     OW26047   2.463   2.175   8.607  0.4471 -0.2607  0.4655
 4804SOL    HW126048   2.485   2.095   8.559 -3.0178 -0.2176 -1.1970
 4804SOL    HW226049   2.382   2.153   8.653  0.3340  0.9242  0.8445
 4805SOL     OW26050   2.795   0.143   2.847  0.2346  0.2035 -0.1619
 4805SOL    HW126051   2.718   0.191   2.817 -0.6347 -2.4571 -2.1134
 4805SOL    HW226052   2.869   0.200   2.828  1.9243 -1.8615  0.2848
 4806SOL     OW26053   1.278   4.005   2.553 -0.2525 -0.3286  0.0881
 4806SOL    HW126054   1.202   3.965   2.595 -0.2764  0.2569  0.6023
 4806SOL    HW226055   1.237   4.036   2.472 -0.3561  0.1403  0.3182
 4807SOL     OW26056   4.214   2.854   0.601  0.2533  0.5094  0.2044
 4807SOL    HW126057   4.153   2.900   0.542  0.0318  0.4660  0.4010
 4807SOL    HW226058   4.158   2.802   0.658 -0.4464  0.6400 -0.3524
 4808SOL     OW26059   0.679   3.388  16.887 -0.4183 -0.4342 -0.0902
 4808SOL    HW126060   0.726   3.316  16.844 -0.1156  0.0616 -0.5881
 4808SOL    HW226061   0.629   3.341  16.954 -0.2702  1.2183  1.1901
 4809SOL     OW26062   0.988   2.705  14.475 -0.2420  0.4690 -0.2010
 4809SOL    HW126063   0.941   2.784  14.449 -0.0745  0.8717  0.7116
 4809SOL    HW226064   1.063   2.756  14.507  0.9817 -0.9792 -0.7967
 4810SOL     OW26065   2.889   0.993   3.974 -0.1144 -0.4678 -0.0084
 4810SOL    HW126066   2.960   1.008   4.036  0.0534  0.0571 -0.3300
 4810SOL    HW226067   2.928   1.029   3.894  1.4457  2.0379  1.8943
 4811SOL     OW26068   3.982   1.589   7.288 -0.3420 -0.1096 -0.1284
 4811SOL    HW126069   3.890   1.598   7.262 -0.5953 -2.3660 -0.0592
 4811SOL    HW226070   3.977   1.498   7.258  1.2754 -0.0604 -0.5124
 4812SOL     OW26071   0.756   0.020   2.762  0.1946  0.0531  1.1867
 4812SOL    HW126072   0.810   0.079   2.708  0.0980  0.6209  1.7149
 4812SOL    HW226073   0.669   0.049   2.737  0.2447 -0.4613  0.3964
 4813SOL     OW26074   1.440   0.987  13.355 -0.0797  0.0321 -0.1687
 4813SOL    HW126075   1.412   1.074  13.382  2.0107  0.0144  2.0863
 4813SOL    HW226076   1.446   0.935  13.435  0.2822 -2.5836 -1.8634
 4814SOL     OW26077   1.614   1.528   2.312 -0.3265  0.0697  0.3803
 4814SOL    HW126078   1.698   1.575   2.317 -0.4818  0.1032  2.7496
 4814SOL    HW226079   1.631   1.460   2.248  0.3482 -0.5987  1.2588
 4815SOL     OW26080   3.471   4.374   6.312  0.0122 -1.0338  0.1862
 4815SOL    HW126081   3.429   4.409   6.234  1.0114  2.4670  1.2271
 4815SOL    HW226082   3.493   4.457   6.354  0.2805 -1.0091 -0.0080
 4816SOL     OW26083   2.409   1.658   7.660  0.4159 -0.4291  0.5799
 4816SOL    HW126084   2.451   1.715   7.595  1.2524 -2.1262 -0.4116
 4816SOL    HW226085   2.454   1.575   7.641 -0.2293 -0.4876 -0.7381
 4817SOL     OW26086   1.667   0.179   4.417  0.0285  0.5440  0.2198
 4817SOL    HW126087   1.651   0.169   4.324  1.5861 -1.7104  0.1942
 4817SOL    HW226088   1.661   0.273   4.434 -0.6485  0.5971 -0.3283
 4818SOL     OW26089   2.386   4.693  15.294 -0.1549  0.0584  0.0448
 4818SOL    HW126090   2.385   4.618  15.354  1.9575  0.9050  1.1572
 4818SOL    HW226091   2.479   4.715  15.293 -0.3797  0.9936 -0.0073
 4819SOL     OW26092   2.537   2.658  15.114 -0.3144  0.0957  0.2527
 4819SOL    HW126093   2.572   2.646  15.026  0.6189  0.1188  0.6251
 4819SOL    HW226094   2.489   2.577  15.130 -1.7371  1.4091  2.7187
 4820SOL     OW26095   3.898   3.493   1.814 -0.1722  0.1182 -0.4767
 4820SOL    HW126096   3.901   3.497   1.910  0.1765  1.8269 -0.5476
 4820SOL    HW226097   3.941   3.576   1.794 -1.9128  1.0075 -0.4861
 4821SOL     OW26098   0.567   0.562   2.652 -0.1013  0.7621 -0.1781
 4821SOL    HW126099   0.567   0.609   2.569  0.8051  2.0639  0.5655
 4821SOL    HW226100   0.475   0.566   2.677 -0.5829  1.4482 -2.0667
 4822SOL     OW26101   1.346   0.179  12.111  0.1653 -0.0008 -0.3677
 4822SOL    HW126102   1.378   0.262  12.145 -0.4216 -0.8216  2.2666
 4822SOL    HW226103   1.391   0.114  12.165  0.3126  1.6032  1.4541
 4823SOL     OW26104   1.951   0.019   4.022 -0.3352  0.4591  0.5533
 4823SOL    HW126105   1.899   4.732   3.946 -0.9014  1.9043  0.5075
 4823SOL    HW226106   2.028   0.048   3.974  0.3695 -1.1965  0.6742
 4824SOL     OW26107   1.524   2.089   3.997  0.2215  0.2863  0.0180
 4824SOL    HW126108   1.513   2.062   4.088 -0.1771 -0.8875 -0.3750
 4824SOL    HW226109   1.486   2.176   3.994 -1.1579 -0.3181  0.0922
 4825SOL     OW26110   4.174   3.503   4.866 -0.3218  0.6258  0.9182
 4825SOL    HW126111   4.268   3.506   4.846 -0.8182  2.5371 -1.1837
 4825SOL    HW226112   4.149   3.594   4.852  1.8655  1.3943  1.9627
 4826SOL     OW26113   4.035   3.767  11.172 -0.2767  0.2972 -0.1401
 4826SOL    HW126114   3.940   3.755  11.176 -0.3125  0.3213 -0.7951
 4826SOL    HW226115   4.051   3.798  11.261 -1.2886 -2.0413  0.8405
 4827SOL     OW26116   1.828   3.588   7.313  0.2997  0.0955 -0.0995
 4827SOL    HW126117   1.814   3.611   7.221 -0.1103 -0.5271 -0.1886
 4827SOL    HW226118   1.905   3.531   7.321 -0.6173 -0.9504  1.2715
 4828SOL     OW26119   0.932   0.131  17.245  0.4049 -0.3080  0.1715
 4828SOL    HW126120   0.877   0.083  17.182  1.8113 -0.3474 -1.0259
 4828SOL    HW226121   0.971   0.070  17.306 -0.5231 -1.5349 -0.4523
 4829SOL     OW26122   0.210   4.036   6.920 -0.2328  0.1512 -0.5263
 4829SOL    HW126123   0.232   4.048   6.828  0.4457  0.2009 -0.3534
 4829SOL    HW226124   0.195   3.942   6.927  0.6704  0.1037  0.6062
 4830SOL     OW26125   1.953   3.102   8.610  0.1933  1.2022  0.6929
 4830SOL    HW126126   1.964   3.008   8.625  0.5733  1.1600  0.1363
 4830SOL    HW226127   2.033   3.137   8.650  1.0593  1.1035 -0.9687
 4831SOL     OW26128   3.288   3.556   5.509  0.3792  0.0170 -0.1539
 4831SOL    HW126129   3.376   3.536   5.541  0.3580 -0.4352 -0.3862
 4831SOL    HW226130   3.285   3.651   5.495  0.5323 -0.1490 -1.3051
 4832SOL     OW26131   4.136   3.379   4.480  0.1715 -0.5422 -0.0444
 4832SOL    HW126132   4.135   3.303   4.421 -2.0814  0.9563 -1.9651
 4832SOL    HW226133   4.230   3.395   4.489  0.2357 -0.8848 -0.1151
 4833SOL     OW26134   1.379   4.428   9.020  0.1246  0.4591 -0.4567
 4833SOL    HW126135   1.371   4.502   8.961  1.2499  0.4047 -0.6766
 4833SOL    HW226136   1.416   4.474   9.096  0.3671 -0.4922 -0.0010
 4834SOL     OW26137   0.872   2.084   5.249  0.0691 -0.4823 -0.1231
 4834SOL    HW126138   0.840   2.171   5.273 -2.0059 -1.8107  1.9088
 4834SOL    HW226139   0.856   2.026   5.323 -1.9112  1.6501  1.1104
 4835SOL     OW26140   1.042   1.440   4.694  0.1590  0.2419 -0.4051
 4835SOL    HW126141   1.135   1.437   4.719  0.3253  1.8041 -0.8651
 4835SOL    HW226142   1.006   1.454   4.781  1.8612  0.3473  0.2869
 4836SOL     OW26143   3.929   4.368   7.487  0.0805  0.3795  0.2817
 4836SOL    HW126144   3.849   4.377   7.539 -0.0161 -0.1249  0.2213
 4836SOL    HW226145   3.914   4.277   7.462 -2.0062  0.8882 -0.3430
 4837SOL     OW26146   4.635   4.444   6.991 -0.1240  0.0954 -0.0927
 4837SOL    HW126147   4.561   4.436   6.931 -0.3328 -0.1396  0.1984
 4837SOL    HW226148   4.689   4.379   6.944  0.6159  0.3573  0.4026
 4838SOL     OW26149   2.712   1.885   1.562 -0.3303  0.6562  0.1944
 4838SOL    HW126150   2.700   1.889   1.657  0.1883  1.9600  0.1971
 4838SOL    HW226151   2.760   1.802   1.565  0.3235  1.1098  2.6478
 4839SOL     OW26152   1.827   2.452  16.824 -0.4768  0.4271 -0.3536
 4839SOL    HW126153   1.741   2.471  16.862 -0.4534 -1.1156  0.4735
 4839SOL    HW226154   1.804   2.435  16.733  0.9933 -1.7611 -0.3041
 4840SOL     OW26155   0.081   3.478   7.425  0.3991 -0.5723 -0.0793
 4840SOL    HW126156   0.117   3.470   7.513  0.8429  0.5247 -0.1557
 4840SOL    HW226157   0.089   3.572   7.408  1.6449 -0.5902  0.4599
 4841SOL     OW26158   0.240   4.416  10.250 -0.0460  0.1874 -0.4802
 4841SOL    HW126159   0.240   4.352  10.321 -1.0933 -1.9938 -2.4767
 4841SOL    HW226160   0.332   4.403  10.228 -0.3523 -1.3578 -0.7913
 4842SOL     OW26161   4.673   3.174   4.427 -0.7830 -0.3176  0.3815
 4842SOL    HW126162   0.011   3.231   4.408 -1.5668  0.2283 -1.0140
 4842SOL    HW226163   4.652   3.193   4.519 -0.1134 -1.3200  0.7373
 4843SOL     OW26164   1.895   0.887  12.004 -0.0015  0.3264 -0.1451
 4843SOL    HW126165   1.923   0.942  12.077 -0.7355  0.8251 -0.2461
 4843SOL    HW226166   1.921   0.803  12.041  0.5963 -0.6752 -2.8061
 4844SOL     OW26167   4.133   3.401   6.425 -0.2315 -0.0904  0.1225
 4844SOL    HW126168   4.068   3.423   6.492 -0.8335 -0.5684 -0.2976
 4844SOL    HW226169   4.073   3.370   6.357 -1.8003 -0.5880  1.7218
 4845SOL     OW26170   1.425   1.977   8.293  0.2094 -0.2721  0.2672
 4845SOL    HW126171   1.364   1.970   8.219  1.0023 -0.2112 -0.3927
 4845SOL    HW226172   1.505   2.003   8.246 -0.0133  0.5570  0.3470
 4846SOL     OW26173   3.182   0.052  10.551  0.3923  0.2342  0.1775
 4846SOL    HW126174   3.234   0.081  10.476 -0.7852 -0.9837 -1.1313
 4846SOL    HW226175   3.186   0.131  10.604 -0.1701  0.5531 -0.2542
 4847SOL     OW26176   3.818   1.482   3.295 -0.4977 -0.4974 -0.3737
 4847SOL    HW126177   3.864   1.475   3.379 -0.1265 -0.4780 -0.5760
 4847SOL    HW226178   3.861   1.553   3.247 -0.8843 -0.3890 -0.5542
 4848SOL     OW26179   2.368   0.543   4.238  0.0370 -0.4096 -0.2360
 4848SOL    HW126180   2.384   0.623   4.289  1.4291 -1.3939  0.8506
 4848SOL    HW226181   2.279   0.556   4.205  0.1662 -1.4521 -0.9677
 4849SOL     OW26182   2.574   0.560   0.038 -0.0398 -0.0948 -0.1615
 4849SOL    HW126183   2.609   0.498  17.719 -1.1786 -0.7416 -0.1478
 4849SOL    HW226184   2.650   0.614   0.062 -0.7092 -0.1564  2.1217
 4850SOL     OW26185   1.085   2.004   2.755 -0.0457 -0.0162 -0.0286
 4850SOL    HW126186   1.019   1.935   2.769  0.5898 -0.7450 -0.6050
 4850SOL    HW226187   1.127   1.968   2.676 -0.4434 -1.8330  0.5733
 4851SOL     OW26188   3.166   3.525   3.445  0.1116 -0.2420  0.4192
 4851SOL    HW126189   3.193   3.442   3.484  0.8595 -0.7293 -1.1313
 4851SOL    HW226190   3.094   3.541   3.506 -0.4361 -0.0724 -0.2645
 4852SOL     OW26191   2.495   1.670   3.832  0.3269 -0.2055  0.2990
 4852SOL    HW126192   2.510   1.762   3.852 -2.1664  0.6598 -1.8962
 4852SOL    HW226193   2.488   1.631   3.919 -1.0239 -3.5755 -1.3084
 4853SOL     OW26194   0.174   2.013  13.236 -0.1634 -0.1441  0.5710
 4853SOL    HW126195   0.177   2.003  13.331  2.5972  0.9284  0.6086
 4853SOL    HW226196   0.266   1.992  13.221 -0.6018 -1.4989 -0.1211
 4854SOL     OW26197   2.261   1.732  10.724 -0.0608  0.3818 -0.4033
 4854SOL    HW126198   2.316   1.770  10.793 -0.8691 -1.0033  1.0088
 4854SOL    HW226199   2.201   1.802  10.701 -1.5107 -0.8655 -0.3807
 4855SOL     OW26200   2.348   3.459   9.137  0.1855  0.1351  0.4016
 4855SOL    HW126201   2.413   3.398   9.103 -2.2117 -0.7150 -2.6544
 4855SOL    HW226202   2.400   3.494   9.210 -2.4961  3.2882  0.8163
 4856SOL     OW26203   0.256   3.479   0.255  0.3173  0.1440  0.0844
 4856SOL    HW126204   0.212   3.466   0.171  2.0696  2.0900 -1.1410
 4856SOL    HW226205   0.342   3.499   0.220  1.1896  1.3947  2.9435
 4857SOL     OW26206   4.321   4.700  17.673 -0.1223 -0.2509 -0.2445
 4857SOL    HW126207   4.368   4.703   0.011 -3.7469  0.2805  1.7845
 4857SOL    HW226208   4.280   4.613  17.677 -0.9333  0.2725  2.3005
 4858SOL     OW26209   3.023   0.855  15.494 -0.0100 -0.4793 -0.2050
 4858SOL    HW126210   2.950   0.821  15.547 -0.2217  0.4077  0.0765
 4858SOL    HW226211   3.061   0.776  15.457 -0.4438  0.2424 -2.1828
 4859SOL     OW26212   0.647   3.977   6.255  0.4093 -0.1709 -0.2520
 4859SOL    HW126213   0.699   3.897   6.248  0.0519 -0.6023  2.0309
 4859SOL    HW226214   0.566   3.946   6.214  1.1818 -0.4491 -1.5414
 4860SOL     OW26215   2.179   3.868   5.926  0.0779 -0.2158 -0.3043
 4860SOL    HW126216   2.229   3.803   5.977  0.5347  0.4352  0.0842
 4860SOL    HW226217   2.248   3.895   5.865  0.0127  0.1442 -0.2207
 4861SOL     OW26218   2.190   3.295   7.956  0.1616  0.3526  0.4676
 4861SOL    HW126219   2.172   3.377   8.001  0.6306  0.3817  0.6035
 4861SOL    HW226220   2.176   3.233   8.028 -1.1528  0.8474  0.6377
 4862SOL     OW26221   0.466   0.059  17.734  0.5041  0.3445 -0.0716
 4862SOL    HW126222   0.408   0.122  17.690  3.2457  2.9131 -0.0272
 4862SOL    HW226223   0.474   0.094   0.078 -0.5033  3.6296 -1.2824
 4863SOL     OW26224   2.472   4.669   9.393  0.0764 -0.2900 -0.0400
 4863SOL    HW126225   2.550   4.698   9.346  0.9514  0.5454  1.9189
 4863SOL    HW226226   2.508   4.679   9.481  0.8833  1.1072 -0.5363
 4864SOL     OW26227   1.497   1.604   8.206 -0.5349  0.5189  0.3293
 4864SOL    HW126228   1.402   1.618   8.204 -0.6667 -0.1521  1.6935
 4864SOL    HW226229   1.508   1.643   8.119  2.5379 -1.6956 -0.2659
 4865SOL     OW26230   0.784   0.558  17.044 -0.5388 -0.0550 -0.4242
 4865SOL    HW126231   0.798   0.642  17.000 -0.8932  1.2093  1.8858
 4865SOL    HW226232   0.873   0.535  17.070 -0.5938  1.6475  1.3020
 4866SOL     OW26233   2.225   1.038   9.390  0.3955 -1.1776  0.1036
 4866SOL    HW126234   2.231   1.000   9.477 -1.0086 -0.0935  0.6559
 4866SOL    HW226235   2.149   0.997   9.349  0.7613 -1.7744  0.0165
 4867SOL     OW26236   4.083   2.722   6.313  0.2218 -0.1090  0.1764
 4867SOL    HW126237   4.120   2.748   6.229  0.7392  0.3974  0.5649
 4867SOL    HW226238   3.990   2.730   6.289  0.3147  0.5650  0.0456
 4868SOL     OW26239   1.592   3.578   2.331 -0.5861  0.2190  0.2152
 4868SOL    HW126240   1.521   3.598   2.392 -0.1747 -2.5646  1.6208
 4868SOL    HW226241   1.541   3.531   2.265  0.9604 -0.2388 -0.6617
 4869SOL     OW26242   3.515   2.758   5.063 -0.6355 -1.2373 -0.0514
 4869SOL    HW126243   3.433   2.728   5.102 -1.2762  1.9924  1.1168
 4869SOL    HW226244   3.529   2.703   4.986 -0.2596  0.9017 -1.5021
 4870SOL     OW26245   2.733   0.655   6.478  0.2651  0.0911  0.3061
 4870SOL    HW126246   2.641   0.673   6.499  1.1036  2.0779  2.3030
 4870SOL    HW226247   2.738   0.657   6.382 -2.0224 -0.9295  0.1515
 4871SOL     OW26248   3.298   2.172  17.246 -0.1137  0.5519 -0.1066
 4871SOL    HW126249   3.292   2.114  17.322  3.5793  0.3310  0.0461
 4871SOL    HW226250   3.363   2.237  17.272  1.5027 -0.6173 -1.1310
 4872SOL     OW26251   1.768   0.396   8.342 -0.3794 -0.5799  0.0518
 4872SOL    HW126252   1.784   0.486   8.314 -0.5195  0.1075  2.2112
 4872SOL    HW226253   1.691   0.405   8.399 -0.1049 -0.3716  0.3927
 4873SOL     OW26254   0.711   1.715   2.406  0.2556 -0.1956  0.2053
 4873SOL    HW126255   0.737   1.769   2.481 -1.9783  2.4912 -0.9708
 4873SOL    HW226256   0.619   1.724   2.431  0.3545 -0.7348  0.7758
 4874SOL     OW26257   2.381   0.196   7.364  0.5650  0.0242  0.5825
 4874SOL    HW126258   2.359   0.164   7.451  1.4440  2.4247  1.6722
 4874SOL    HW226259   2.321   0.271   7.357  2.2281  1.1502 -1.4951
 4875SOL     OW26260   4.112   4.128  10.430 -0.2024 -0.1865 -0.1499
 4875SOL    HW126261   4.110   4.108  10.524  1.1697 -0.5296 -0.1905
 4875SOL    HW226262   4.036   4.185  10.418  0.0115  0.3713  1.0788
 4876SOL     OW26263   3.991   3.849   0.127 -0.1865  0.4437 -0.3217
 4876SOL    HW126264   3.938   3.783   0.170  0.8457 -0.4707 -0.4673
 4876SOL    HW226265   3.925   3.869   0.060  1.1887 -0.8905 -2.0856
 4877SOL     OW26266   2.220   1.904   4.481  0.7245  0.2554 -0.4374
 4877SOL    HW126267   2.163   1.925   4.554  2.5143  1.6517  0.5264
 4877SOL    HW226268   2.163   1.940   4.412  0.2319  0.1761 -0.0696
 4878SOL     OW26269   4.054   3.574   9.355 -0.2287  0.3575  0.4968
 4878SOL    HW126270   4.104   3.501   9.321 -0.8031  0.7307 -1.1746
 4878SOL    HW226271   3.968   3.539   9.379  0.3073 -0.8945  0.5403
 4879SOL     OW26272   3.081   3.293   8.231  0.0183  0.5619  0.2480
 4879SOL    HW126273   3.097   3.201   8.254 -2.2441  0.2739  0.6809
 4879SOL    HW226274   3.170   3.317   8.204 -0.0206 -2.4819 -2.6230
 4880SOL     OW26275   2.876   1.841  12.542  1.0062  0.4463  0.1304
 4880SOL    HW126276   2.900   1.865  12.453  2.2063 -1.1830  0.0225
 4880SOL    HW226277   2.781   1.855  12.538  0.8761 -0.5512 -0.1686
 4881SOL     OW26278   1.496   0.516   3.898 -0.1792 -0.4503 -0.0177
 4881SOL    HW126279   1.472   0.433   3.857  1.6402 -0.2418 -1.4921
 4881SOL    HW226280   1.412   0.562   3.903 -0.9239 -1.9382  1.3260
 4882SOL     OW26281   4.296   3.862   2.881 -0.2933  0.0881 -0.2501
 4882SOL    HW126282   4.388   3.855   2.854 -0.4862  1.3561 -1.2327
 4882SOL    HW226283   4.297   3.930   2.948 -0.0482 -0.3107  0.1521
 4883SOL     OW26284   1.386   0.224   6.228  0.2073  0.3576  0.4513
 4883SOL    HW126285   1.321   0.256   6.166 -1.8292 -0.4974  2.1753
 4883SOL    HW226286   1.466   0.276   6.215  0.1325  1.3156  3.9384
 4884SOL     OW26287   4.037   3.869   3.619  0.2216  0.0850 -0.1848
 4884SOL    HW126288   4.049   3.948   3.671  0.6559 -0.9981  1.3518
 4884SOL    HW226289   4.125   3.848   3.589 -0.2935 -0.2473 -1.4644
 4885SOL     OW26290   2.376   2.641  14.824 -0.4626  0.3052  0.5874
 4885SOL    HW126291   2.377   2.736  14.833 -0.1939  0.2955  0.6476
 4885SOL    HW226292   2.469   2.621  14.818 -0.7765 -0.5715 -1.5239
 4886SOL     OW26293   3.441   4.106  10.440 -0.6116 -0.0491  0.1760
 4886SOL    HW126294   3.528   4.122  10.403 -0.8591  0.5782 -0.1415
 4886SOL    HW226295   3.390   4.094  10.360  0.7393  1.2109 -0.8596
 4887SOL     OW26296   2.181   3.145   3.757 -0.0588 -0.1992 -0.5655
 4887SOL    HW126297   2.265   3.171   3.720 -0.9441 -0.4371 -2.7506
 4887SOL    HW226298   2.142   3.231   3.773  0.5447 -0.4324  2.1972
 4888SOL     OW26299   1.847   3.817   5.806  0.0617 -0.3070  0.4667
 4888SOL    HW126300   1.929   3.832   5.758  1.3921 -2.0372  2.1884
 4888SOL    HW226301   1.782   3.835   5.738  0.3078 -1.7933 -0.1697
 4889SOL     OW26302   2.184   3.241   2.294 -0.6281  0.3283  0.1330
 4889SOL    HW126303   2.171   3.204   2.207  3.4382  0.5822 -0.5574
 4889SOL    HW226304   2.127   3.183   2.346 -1.7896  1.9949  0.7352
 4890SOL     OW26305   0.547   0.096   6.468 -0.2200  0.3367 -0.2391
 4890SOL    HW126306   0.494   0.131   6.540 -2.1054 -1.3413 -0.8442
 4890SOL    HW226307   0.610   0.045   6.520 -1.8911 -0.7662  0.6884
 4891SOL     OW26308   4.512   3.389  15.522  0.1816 -0.4374  0.2303
 4891SOL    HW126309   4.604   3.396  15.548  0.2235  1.1029 -0.3465
 4891SOL    HW226310   4.477   3.306  15.556  3.9502 -2.1158  0.0362
 4892SOL     OW26311   4.014   1.369   5.283 -0.1278  0.1367  0.0712
 4892SOL    HW126312   4.077   1.409   5.223  1.3805 -0.4560  1.2206
 4892SOL    HW226313   3.935   1.375   5.231 -0.6774 -0.4124  0.8427
 4893SOL     OW26314   3.176   1.270   2.901  0.2091 -0.0258 -0.1995
 4893SOL    HW126315   3.149   1.361   2.913 -1.0741 -0.4000 -0.2404
 4893SOL    HW226316   3.193   1.239   2.990 -0.9972  2.7048  0.9773
 4894SOL     OW26317   0.943   0.281  16.900  0.6710 -0.1710 -0.5108
 4894SOL    HW126318   1.004   0.208  16.910  1.0439  0.3828  1.2063
 4894SOL    HW226319   1.006   0.353  16.887  1.3311 -0.6919 -0.2107
 4895SOL     OW26320   3.803   3.565   2.635 -0.0961 -0.5103 -0.1318
 4895SOL    HW126321   3.832   3.650   2.603  0.1152 -0.2961  0.6275
 4895SOL    HW226322   3.841   3.564   2.723 -0.7696  0.5527  0.1678
 4896SOL     OW26323   3.413   4.673   2.418 -0.8526  0.2602  0.0945
 4896SOL    HW126324   3.407   0.006   2.484  3.3727  0.7981 -0.1057
 4896SOL    HW226325   3.399   4.714   2.333  2.2000  0.3808 -0.3323
 4897SOL     OW26326   0.377   3.567  16.898 -0.3677 -0.1426 -0.2103
 4897SOL    HW126327   0.334   3.482  16.898 -1.4709  0.4036  3.4509
 4897SOL    HW226328   0.438   3.555  16.825  0.2021  2.5949 -0.2078
 4898SOL     OW26329   1.131   3.044  16.768 -0.2554  0.6829 -0.5119
 4898SOL    HW126330   1.202   3.102  16.796  0.1829 -0.9036  1.6749
 4898SOL    HW226331   1.139   3.041  16.673  3.4372 -0.9330 -0.1710
 4899SOL     OW26332   0.697   4.640  12.709  0.6697  0.2575 -0.7200
 4899SOL    HW126333   0.609   4.659  12.741  0.5082 -0.2646 -0.8482
 4899SOL    HW226334   0.751   4.627  12.787 -0.5786  1.8668  0.4015
 4900SOL     OW26335   3.014   1.666   4.214 -0.0791  0.0071  0.3769
 4900SOL    HW126336   2.974   1.665   4.127 -0.1610 -0.8721  0.4292
 4900SOL    HW226337   2.940   1.659   4.275  1.0023  0.4363  1.7190
 4901SOL     OW26338   0.133   4.584   8.399  0.1690 -0.0514  0.1238
 4901SOL    HW126339   0.183   4.552   8.475  1.9025  0.9541 -0.6007
 4901SOL    HW226340   0.045   4.594   8.436 -0.5298 -0.0610 -1.5585
 4902SOL     OW26341   4.654   3.636   7.777 -0.1290  0.0833 -0.5364
 4902SOL    HW126342   4.591   3.652   7.707 -2.0883 -0.5507  1.0603
 4902SOL    HW226343   4.724   3.692   7.745  0.0104  0.0261 -0.3335
 4903SOL     OW26344   4.072   0.085   8.256 -0.3043 -0.1087  0.3802
 4903SOL    HW126345   4.166   0.087   8.272 -0.4077 -0.9473  1.0652
 4903SOL    HW226346   4.033   0.057   8.339 -3.7664 -0.6749 -1.4447
 4904SOL     OW26347   2.043   2.289   5.328  0.1608  0.5610  0.1359
 4904SOL    HW126348   1.951   2.316   5.326  0.1526  0.5223 -0.0124
 4904SOL    HW226349   2.080   2.325   5.247  1.3100  2.2488  1.4369
 4905SOL     OW26350   0.874   0.504   2.327  1.0565  0.4978  0.0531
 4905SOL    HW126351   0.962   0.471   2.346 -0.2913 -2.1040  1.7561
 4905SOL    HW226352   0.816   0.428   2.334  0.8755  0.4729 -1.5773
 4906SOL     OW26353   2.187   2.828   2.203  0.5890  0.0890 -0.5251
 4906SOL    HW126354   2.241   2.775   2.145  0.4017  1.7899 -2.2423
 4906SOL    HW226355   2.258   2.865   2.256  0.8170  0.4381 -1.0728
 4907SOL     OW26356   4.395   3.678   1.845  0.0911 -0.0199 -0.5334
 4907SOL    HW126357   4.439   3.707   1.924 -0.5637  1.6993 -0.8034
 4907SOL    HW226358   4.464   3.627   1.804  0.1588 -1.3152  1.1925
 4908SOL     OW26359   4.724   2.162   8.711  0.3375  0.4961 -0.2195
 4908SOL    HW126360   4.670   2.112   8.772  1.2079  0.6526  0.6661
 4908SOL    HW226361   4.711   2.254   8.736 -0.8575 -0.1633  1.6497
 4909SOL     OW26362   2.479   4.641   3.576 -0.0597 -0.5743 -0.4136
 4909SOL    HW126363   2.467   4.684   3.491  0.8476  0.5159 -0.0008
 4909SOL    HW226364   2.459   4.712   3.637 -1.7245 -0.8187 -0.6704
 4910SOL     OW26365   2.022   4.498  14.387  0.1565 -0.2007  0.2780
 4910SOL    HW126366   2.068   4.496  14.304 -1.0574  1.5230 -0.4335
 4910SOL    HW226367   1.979   4.414  14.372  0.2474 -0.5192  1.7902
 4911SOL     OW26368   2.684   2.502  15.369 -0.2149 -0.0835  0.3380
 4911SOL    HW126369   2.593   2.527  15.352 -0.3062 -0.0544  0.8715
 4911SOL    HW226370   2.688   2.408  15.353  0.0894 -0.3072  1.7292
 4912SOL     OW26371   4.043   3.092  16.767  0.1215 -0.8519  0.3635
 4912SOL    HW126372   3.966   3.107  16.822 -0.6269  3.6522 -1.9694
 4912SOL    HW226373   4.002   3.035  16.701 -2.4365  1.3727  0.0480
 4913SOL     OW26374   2.100   2.519   7.013 -0.2545 -0.4765 -0.0447
 4913SOL    HW126375   2.123   2.537   6.922 -2.1176 -0.7745 -0.5766
 4913SOL    HW226376   2.004   2.522   7.017 -0.2720  0.4706 -1.0888
 4914SOL     OW26377   0.342   2.648   4.692 -0.5904  0.2992 -0.2115
 4914SOL    HW126378   0.289   2.657   4.772 -2.1213 -0.3964 -1.1369
 4914SOL    HW226379   0.407   2.588   4.730 -0.4609 -0.4306 -1.5754
 4915SOL     OW26380   3.137   0.487   1.834  0.2336  0.1781 -0.2155
 4915SOL    HW126381   3.074   0.473   1.763  0.5310  2.5665 -0.9402
 4915SOL    HW226382   3.222   0.483   1.790  1.3848 -2.4813  2.2388
 4916SOL     OW26383   2.189   4.022   3.362  0.4140 -0.0533 -0.3648
 4916SOL    HW126384   2.185   4.000   3.268  3.7779 -0.5935 -0.3633
 4916SOL    HW226385   2.106   3.987   3.394  0.3755  0.2848 -0.1021
 4917SOL     OW26386   1.726   4.443   2.285  0.9213  0.1122 -0.3672
 4917SOL    HW126387   1.753   4.531   2.261 -0.1970  0.1289 -1.5687
 4917SOL    HW226388   1.781   4.383   2.235 -1.0089 -1.4906 -0.6061
 4918SOL     OW26389   3.025   4.232   4.345  0.0966 -0.4909 -0.2723
 4918SOL    HW126390   3.029   4.195   4.433 -2.4157  1.7177  0.7916
 4918SOL    HW226391   3.096   4.296   4.336 -0.5843  0.1960 -0.8506
 4919SOL     OW26392   2.120   0.110  15.862  0.1105  0.2128 -0.4135
 4919SOL    HW126393   2.093   0.018  15.853 -1.6237  0.7587 -0.8162
 4919SOL    HW226394   2.213   0.091  15.869  0.2578  0.5244 -1.4364
 4920SOL     OW26395   1.102   1.375   6.042  0.4862  0.5093  0.3533
 4920SOL    HW126396   1.085   1.284   6.065  1.1134 -0.0259 -1.2836
 4920SOL    HW226397   1.017   1.401   6.007  0.7018  2.8690  1.5677
 4921SOL     OW26398   3.207   2.202   5.810 -0.0281  0.4662 -0.2141
 4921SOL    HW126399   3.302   2.210   5.797  0.2655 -1.2913  0.7388
 4921SOL    HW226400   3.195   2.221   5.903  0.6135 -1.6347  0.2955
 4922SOL     OW26401   1.269   2.799   3.012  0.5689  0.3133  0.0096
 4922SOL    HW126402   1.239   2.842   3.092 -3.3283 -0.4221 -1.0602
 4922SOL    HW226403   1.320   2.869   2.971  1.3556 -0.6104 -0.5894
 4923SOL     OW26404   3.249   0.205  17.214  0.4246  0.0046 -0.0163
 4923SOL    HW126405   3.192   0.217  17.290  0.3310 -1.5821  0.1518
 4923SOL    HW226406   3.198   0.153  17.152  0.6880  0.5894 -0.7196
 4924SOL     OW26407   2.986   2.305   2.470 -0.1060  0.5497 -0.2962
 4924SOL    HW126408   3.009   2.397   2.479  1.0101  0.2626 -0.2301
 4924SOL    HW226409   2.891   2.309   2.484  0.4877 -0.9605  4.1120
 4925SOL     OW26410   2.727   1.443  11.518 -0.4678 -0.5448  0.5654
 4925SOL    HW126411   2.632   1.455  11.511 -0.3495  0.6368  0.8385
 4925SOL    HW226412   2.738   1.448  11.613 -1.0554  1.8782  0.5213
 4926SOL     OW26413   0.185   2.335   5.973  0.4303  0.0678 -0.3422
 4926SOL    HW126414   0.247   2.263   5.961 -1.6025 -1.4137 -2.0621
 4926SOL    HW226415   0.227   2.362   6.055 -0.5241  0.1760  0.1038
 4927SOL     OW26416   1.305   0.693   3.720 -0.0304 -0.5204  0.2977
 4927SOL    HW126417   1.290   0.673   3.812 -0.3717  2.7908  0.9790
 4927SOL    HW226418   1.386   0.744   3.717  1.5218 -3.1228 -0.9487
 4928SOL     OW26419   1.046   3.538   4.075 -0.0566  0.3794  0.3850
 4928SOL    HW126420   0.955   3.512   4.093  0.4194 -2.1248 -0.7218
 4928SOL    HW226421   1.035   3.622   4.031 -1.1540  0.8799  1.6049
 4929SOL     OW26422   1.203   3.852  13.724  0.1910 -0.4807 -0.1984
 4929SOL    HW126423   1.282   3.835  13.776 -0.2114  0.5075  0.7369
 4929SOL    HW226424   1.138   3.814  13.784  0.0610  0.1239  0.0387
 4930SOL     OW26425   2.888   2.986   3.702  0.1144 -0.4574 -0.1447
 4930SOL    HW126426   2.958   2.942   3.750 -0.5769 -0.9967  0.3649
 4930SOL    HW226427   2.915   2.957   3.615  0.4897  0.3693 -0.3081
 4931SOL     OW26428   1.673   2.900  16.855 -0.2133  0.1561 -0.0447
 4931SOL    HW126429   1.600   2.923  16.797 -0.0908 -0.5406 -0.4730
 4931SOL    HW226430   1.677   2.980  16.909  0.0640 -1.0515  1.7255
 4932SOL     OW26431   3.172   3.201  15.503 -0.8884  0.0548 -0.7140
 4932SOL    HW126432   3.110   3.173  15.570 -2.1701 -0.9898 -2.3108
 4932SOL    HW226433   3.179   3.296  15.516 -1.0924 -0.0124 -0.1150
 4933SOL     OW26434   0.974   0.168  14.830 -0.0764  0.3468  0.0511
 4933SOL    HW126435   1.007   0.231  14.765  3.8115 -1.7013  0.0171
 4933SOL    HW226436   0.902   0.133  14.778 -0.4973  1.1299  0.1133
 4934SOL     OW26437   4.482   0.409  17.545 -0.1411  0.1511 -0.5811
 4934SOL    HW126438   4.451   0.319  17.538 -0.1440  0.0981  0.0551
 4934SOL    HW226439   4.495   0.400  17.640 -1.0963  0.8430 -0.3859
 4935SOL     OW26440   3.914   2.063   4.451 -0.3320 -0.0894 -0.0403
 4935SOL    HW126441   3.942   2.112   4.373  0.4295  1.1581  1.0171
 4935SOL    HW226442   3.895   2.137   4.509 -2.3451 -0.6591 -0.0105
 4936SOL     OW26443   0.171   2.082   7.436 -0.0952  0.4453  0.1849
 4936SOL    HW126444   0.127   2.128   7.365  1.1903  0.4194 -0.6348
 4936SOL    HW226445   0.241   2.036   7.389  0.7782  1.0739  0.8616
 4937SOL     OW26446   3.930   1.418   2.081  0.6486 -0.0477  0.3913
 4937SOL    HW126447   3.856   1.400   2.138 -0.8290 -0.1188 -1.5515
 4937SOL    HW226448   3.986   1.455   2.149  0.7214  0.3538  0.1123
 4938SOL     OW26449   1.441   0.451  10.112  0.3688 -0.3503  0.2183
 4938SOL    HW126450   1.528   0.421  10.135  1.4270  1.4613 -1.3871
 4938SOL    HW226451   1.416   0.386  10.046 -2.3183  0.6733  0.2231
 4939SOL     OW26452   3.606   2.116   2.132 -0.4640  0.2879  0.2556
 4939SOL    HW126453   3.678   2.070   2.175 -0.5518 -0.0385  0.0472
 4939SOL    HW226454   3.537   2.083   2.191 -2.5046  1.2351 -1.6000
 4940SOL     OW26455   0.823   0.862   8.267 -0.3973  0.5867 -0.4153
 4940SOL    HW126456   0.767   0.924   8.313  0.9702  0.9026  0.7965
 4940SOL    HW226457   0.804   0.786   8.321  1.4302 -0.0879 -0.7464
 4941SOL     OW26458   2.030   2.091  17.505  0.3271  0.1243 -0.3324
 4941SOL    HW126459   1.941   2.076  17.537  0.8878 -1.6788  0.3694
 4941SOL    HW226460   2.066   2.148  17.573  0.6686  0.5618 -0.8779
 4942SOL     OW26461   2.854   0.861   9.489 -0.0321 -0.1199 -0.2992
 4942SOL    HW126462   2.773   0.882   9.442 -0.8982 -0.4646  1.0101
 4942SOL    HW226463   2.856   0.947   9.531 -0.9281 -1.2399  2.0845
 4943SOL     OW26464   4.709   4.408  17.323  0.9896  0.1032 -0.3299
 4943SOL    HW126465   0.032   4.355  17.269  0.8713 -1.1166  0.7382
 4943SOL    HW226466   4.734   4.385  17.412 -1.1139 -0.8945 -0.0086
 4944SOL     OW26467   3.793   0.020   5.856  0.1170 -0.1325  0.5175
 4944SOL    HW126468   3.727   4.696   5.890  0.0139 -1.2322 -1.6346
 4944SOL    HW226469   3.861   0.014   5.924  0.4849  0.6382  0.2179
 4945SOL     OW26470   0.431   2.068  12.227  0.2686 -0.2276 -0.5596
 4945SOL    HW126471   0.453   1.994  12.285  2.7056  2.0963  1.4781
 4945SOL    HW226472   0.343   2.094  12.252 -0.1469 -0.0962 -2.1671
 4946SOL     OW26473   3.256   2.378   4.815  0.1402 -0.4001 -0.6471
 4946SOL    HW126474   3.350   2.362   4.807 -0.2287 -3.4085  0.8027
 4946SOL    HW226475   3.242   2.368   4.909  0.2798  0.8002 -0.4975
 4947SOL     OW26476   2.493   0.718   0.901  0.2330 -0.2698  0.3985
 4947SOL    HW126477   2.478   0.803   0.860  2.9811  0.1378  0.1882
 4947SOL    HW226478   2.494   0.668   0.820 -0.3037 -0.7136  0.6673
 4948SOL     OW26479   3.509   0.667   8.905 -0.0139  0.4475  0.1278
 4948SOL    HW126480   3.496   0.578   8.872  1.5438  0.1818  0.2230
 4948SOL    HW226481   3.547   0.652   8.992 -0.0010  0.9464  0.2081
 4949SOL     OW26482   1.925   0.972   9.767  0.1052 -0.3140  0.4773
 4949SOL    HW126483   1.856   1.039   9.770 -0.9329 -1.2951 -1.0066
 4949SOL    HW226484   1.962   0.963   9.854  1.5591 -0.6932 -0.1777
 4950SOL     OW26485   4.127   3.534   4.144  0.1430 -0.4531  0.4009
 4950SOL    HW126486   4.055   3.530   4.082  0.6007  0.7856 -0.1990
 4950SOL    HW226487   4.166   3.447   4.128 -0.7453 -0.7661 -0.0779
 4951SOL     OW26488   0.940   3.741   1.576 -0.3792 -0.2792  0.4538
 4951SOL    HW126489   1.004   3.695   1.630 -0.4259 -2.5272 -1.3789
 4951SOL    HW226490   0.927   3.667   1.516  1.1191 -0.7928  0.7629
 4952SOL     OW26491   0.888   1.817   2.838 -0.4807  0.4856 -0.5139
 4952SOL    HW126492   0.957   1.761   2.804 -0.9474  0.0284 -0.7091
 4952SOL    HW226493   0.868   1.780   2.924 -0.0552 -0.5583 -0.8576
 4953SOL     OW26494   0.559   2.466  14.164 -0.1890  0.1022 -0.4844
 4953SOL    HW126495   0.480   2.417  14.143 -0.3925  0.1557  0.1620
 4953SOL    HW226496   0.592   2.388  14.211 -0.4048 -0.2216 -0.8708
 4954SOL     OW26497   2.213   4.412   3.516 -0.1292 -0.2725 -0.0314
 4954SOL    HW126498   2.268   4.408   3.438  0.5688  0.3334  0.4279
 4954SOL    HW226499   2.286   4.388   3.575 -0.0020 -0.7077 -0.3692
 4955SOL     OW26500   3.197   3.626   0.657 -0.1453  0.2272  0.4467
 4955SOL    HW126501   3.194   3.696   0.722  0.9914  0.7668 -0.0898
 4955SOL    HW226502   3.291   3.607   0.661 -0.0843  0.3544 -0.4093
 4956SOL     OW26503   4.296   4.669   4.887  0.1547  0.2372 -0.4596
 4956SOL    HW126504   4.282   4.611   4.962  0.3946  0.5856 -0.1397
 4956SOL    HW226505   4.327   0.011   4.933 -1.5004  1.4640 -1.4365
 4957SOL     OW26506   2.202   2.587   7.652 -0.1961  0.3286  0.1058
 4957SOL    HW126507   2.179   2.530   7.579 -0.6447 -0.9023  1.2265
 4957SOL    HW226508   2.247   2.658   7.604 -1.8392  0.9339 -0.5356
 4958SOL     OW26509   2.448   1.898   8.934 -0.2819 -0.2002  0.4694
 4958SOL    HW126510   2.462   1.993   8.931  0.5195 -0.3332  0.1259
 4958SOL    HW226511   2.535   1.867   8.911 -0.2761 -0.9439  1.5118
 4959SOL     OW26512   3.126   1.667   7.062 -0.4470  0.0173  0.3361
 4959SOL    HW126513   3.060   1.732   7.039  0.3518  0.8159  0.2785
 4959SOL    HW226514   3.162   1.643   6.977 -0.6004  0.1873  0.2247
 4960SOL     OW26515   4.469   3.244   4.666 -0.3566 -0.1903 -0.7769
 4960SOL    HW126516   4.430   3.322   4.706 -0.1713 -0.5578  0.1185
 4960SOL    HW226517   4.540   3.228   4.728 -2.1441  0.5037  1.4139
 4961SOL     OW26518   4.622   4.636   2.790 -0.5062  0.5176  0.1031
 4961SOL    HW126519   4.711   4.669   2.802 -1.2121  2.0356  1.1245
 4961SOL    HW226520   4.595   4.631   2.881 -1.5617  0.0446 -0.2335
 4962SOL     OW26521   1.388   2.683   4.222  0.2026 -0.1725  0.1742
 4962SOL    HW126522   1.309   2.629   4.223  0.2364 -0.2057  1.1481
 4962SOL    HW226523   1.374   2.746   4.293  1.3636  1.8464 -1.3952
 4963SOL     OW26524   1.819   0.926  13.610  0.1248 -0.6687 -0.1276
 4963SOL    HW126525   1.894   0.923  13.551 -0.9251 -2.3696 -1.3670
 4963SOL    HW226526   1.774   1.004  13.578 -0.6261  0.5625  3.9527
 4964SOL     OW26527   3.251   3.654   8.220 -0.4089  0.2131 -0.2925
 4964SOL    HW126528   3.190   3.614   8.281  0.1183 -1.1095 -0.6413
 4964SOL    HW226529   3.283   3.575   8.177  0.8901  0.5639  0.0097
 4965SOL     OW26530   2.959   1.562   5.855 -0.0864 -0.3193 -0.0415
 4965SOL    HW126531   3.012   1.488   5.824 -0.9727  0.0254 -2.3925
 4965SOL    HW226532   2.918   1.589   5.773 -2.4400  1.9004  1.8576
 4966SOL     OW26533   3.736   2.175   5.988  0.5041  0.7724 -0.0072
 4966SOL    HW126534   3.819   2.156   5.946  1.7872 -0.1346  2.9448
 4966SOL    HW226535   3.746   2.125   6.069  1.4996  1.8224  0.5160
 4967SOL     OW26536   3.634   2.002  13.634 -0.3332 -0.2446 -0.6479
 4967SOL    HW126537   3.589   1.919  13.620 -0.0872 -0.3133 -1.0185
 4967SOL    HW226538   3.614   2.047  13.552 -2.1997  0.2060  0.0401
 4968SOL     OW26539   4.159   1.650   5.768 -0.1605 -0.0566 -0.0283
 4968SOL    HW126540   4.195   1.561   5.771  1.2299  0.4575 -1.6370
 4968SOL    HW226541   4.140   1.667   5.676  1.2838 -2.9576 -0.8736
 4969SOL     OW26542   4.684   1.886  13.159 -0.1104 -0.1306  0.0127
 4969SOL    HW126543   4.736   1.806  13.156  0.2591  0.1810 -2.1912
 4969SOL    HW226544   0.014   1.953  13.173 -2.0322  1.9502 -0.8136
 4970SOL     OW26545   0.400   3.304   6.944  0.2198  0.0514  0.1580
 4970SOL    HW126546   0.426   3.303   7.036 -1.7759 -2.0581  0.6966
 4970SOL    HW226547   0.442   3.222   6.919  0.3724  0.1775 -0.0042
 4971SOL     OW26548   2.347   0.074   4.905 -0.3015  0.2898  0.3098
 4971SOL    HW126549   2.255   0.063   4.880  0.5414 -1.2187 -2.1265
 4971SOL    HW226550   2.385   0.086   4.818  0.7248  1.0415  0.8623
 4972SOL     OW26551   3.226   4.507  16.172  0.2994  0.5473 -0.0384
 4972SOL    HW126552   3.255   4.417  16.153 -1.2009 -0.2730  1.4820
 4972SOL    HW226553   3.149   4.506  16.114 -0.9652  2.6559  1.6208
 4973SOL     OW26554   1.773   1.564   5.864  0.0007  0.3887  0.5857
 4973SOL    HW126555   1.717   1.622   5.813  1.3632  1.2052  0.0079
 4973SOL    HW226556   1.844   1.536   5.806 -1.0156 -0.6735 -0.1509
 4974SOL     OW26557   1.484   4.649   2.152 -0.0400 -1.3489 -0.4525
 4974SOL    HW126558   1.469   4.679   2.062 -3.3955 -3.8015 -0.7487
 4974SOL    HW226559   1.564   4.697   2.171 -0.1175 -1.1407 -0.6354
 4975SOL     OW26560   2.323   2.940  10.520  0.6259 -0.5540  0.1775
 4975SOL    HW126561   2.259   2.876  10.552 -0.5720  0.6939  0.2396
 4975SOL    HW226562   2.359   2.895  10.443 -0.6006 -0.4206 -0.4748
 4976SOL     OW26563   0.667   0.361   0.331  1.2723 -0.4645 -0.2515
 4976SOL    HW126564   0.730   0.407   0.387 -1.4940  0.5487  2.0489
 4976SOL    HW226565   0.635   0.436   0.280  2.0521  0.6266  0.8450
 4977SOL     OW26566   4.194   0.503  13.372 -0.2796 -0.0864  0.1402
 4977SOL    HW126567   4.190   0.426  13.429 -0.3239 -0.0644  0.1667
 4977SOL    HW226568   4.279   0.536  13.401  0.0466  1.4605 -2.6458
 4978SOL     OW26569   4.099   1.816  11.600 -0.5389 -0.3309 -0.3029
 4978SOL    HW126570   4.127   1.791  11.512 -2.1041 -2.4096 -0.2191
 4978SOL    HW226571   4.085   1.736  11.652 -0.4007 -1.6899 -2.3466
 4979SOL     OW26572   1.424   2.229   7.150  0.0991  0.2895 -0.1863
 4979SOL    HW126573   1.421   2.292   7.079  0.6739  1.9059  1.2232
 4979SOL    HW226574   1.400   2.151   7.100 -2.6593  1.8533 -1.2988
 4980SOL     OW26575   3.730   3.789  14.809  0.3049  0.0348 -0.3285
 4980SOL    HW126576   3.677   3.738  14.748  1.6023 -0.7867 -0.7772
 4980SOL    HW226577   3.816   3.791  14.767  0.1935  0.3998 -0.5369
 4981SOL     OW26578   2.432   3.869  16.297  0.1119 -0.2771 -0.5029
 4981SOL    HW126579   2.500   3.914  16.348  2.1748 -3.7445 -0.2128
 4981SOL    HW226580   2.427   3.924  16.219  0.9251 -2.1342 -1.8713
 4982SOL     OW26581   0.716   4.079  17.684  0.2999  0.1600 -0.0565
 4982SOL    HW126582   0.780   4.126  17.738 -1.9836  1.0702  1.8678
 4982SOL    HW226583   0.638   4.093  17.738 -0.8629 -0.4830 -1.5688
 4983SOL     OW26584   4.223   2.668   7.233  0.2871  0.4743  0.6543
 4983SOL    HW126585   4.194   2.750   7.273  0.5830  0.0898  1.6569
 4983SOL    HW226586   4.251   2.620   7.311  0.7494 -1.6567 -0.8329
 4984SOL     OW26587   3.042   1.514   1.549 -0.1089  0.0616 -0.5578
 4984SOL    HW126588   3.007   1.601   1.565 -0.0064  0.0724 -0.3919
 4984SOL    HW226589   2.996   1.458   1.612  1.5751  0.6619  1.2027
 4985SOL     OW26590   2.467   3.720   9.545 -0.4648 -0.1129  0.2334
 4985SOL    HW126591   2.372   3.725   9.556 -0.2870  1.9966  0.7272
 4985SOL    HW226592   2.497   3.809   9.563  0.4226 -0.0359 -1.6229
 4986SOL     OW26593   2.957   4.482   3.622  0.3347 -0.5907  0.5361
 4986SOL    HW126594   2.865   4.460   3.610  0.2981 -0.3974  0.4582
 4986SOL    HW226595   3.002   4.404   3.591 -1.1364 -1.0393 -0.4787
 4987SOL     OW26596   1.877   1.131  12.215 -0.3030 -0.4617 -0.6930
 4987SOL    HW126597   1.817   1.187  12.165 -1.7561  0.3164  1.9318
 4987SOL    HW226598   1.962   1.149  12.175 -1.1435  0.2965 -2.1512
 4988SOL     OW26599   3.118   0.022  14.789  0.4344  0.2410 -0.8123
 4988SOL    HW126600   3.060   4.688  14.818  0.0250  0.4831 -1.0343
 4988SOL    HW226601   3.124   0.077  14.868 -3.5012 -0.7059  0.1544
 4989SOL     OW26602   3.462   3.916   4.847  0.2295  0.6002 -0.4593
 4989SOL    HW126603   3.491   3.987   4.789 -2.2940  3.0828  1.3283
 4989SOL    HW226604   3.526   3.918   4.918  0.4092 -1.8339 -0.5670
 4990SOL     OW26605   4.184   0.314   3.730  0.4676 -0.2852  0.1112
 4990SOL    HW126606   4.271   0.274   3.729  1.1344  1.1835 -0.5460
 4990SOL    HW226607   4.132   0.243   3.767 -0.6041 -0.1343 -1.0977
 4991SOL     OW26608   4.449   2.912   3.964  0.1731  0.5031 -0.1343
 4991SOL    HW126609   4.354   2.917   3.976  0.1349  0.9554 -0.6181
 4991SOL    HW226610   4.484   2.957   4.041  2.0121 -0.3287 -0.5009
 4992SOL     OW26611   0.087   0.285   4.340  0.1311 -0.1927 -0.4222
 4992SOL    HW126612   0.096   0.356   4.403 -0.7759 -0.4174 -0.0446
 4992SOL    HW226613   4.731   0.295   4.319  0.4468  3.7574  0.0852
 4993SOL     OW26614   4.393   1.610   0.042 -0.2166 -0.8711 -0.1764
 4993SOL    HW126615   4.417   1.568  17.703  2.5334 -0.4405  0.3829
 4993SOL    HW226616   4.385   1.698   0.005 -1.0876 -0.7866  0.2354
 4994SOL     OW26617   3.015   3.163   9.133 -0.5262 -0.1242 -0.0140
 4994SOL    HW126618   3.085   3.178   9.197 -1.1334  0.7306  0.4600
 4994SOL    HW226619   3.067   3.097   9.087 -1.6661  0.0427 -1.5209
 4995SOL     OW26620   3.494   1.963   6.313  0.3253  0.6566 -0.5173
 4995SOL    HW126621   3.539   1.947   6.230  0.1145 -0.3940 -0.4283
 4995SOL    HW226622   3.563   1.966   6.380  1.2264 -0.0285 -1.4220
 4996SOL     OW26623   2.820   4.179   2.005  0.7247 -0.4274 -0.4312
 4996SOL    HW126624   2.846   4.271   2.010 -1.3265  0.0315  1.7243
 4996SOL    HW226625   2.782   4.184   1.917 -1.3571  0.4262  0.4907
 4997SOL     OW26626   1.635   1.563   5.268 -0.1895 -0.0939 -0.3699
 4997SOL    HW126627   1.696   1.568   5.194  1.5097  1.0576  1.1196
 4997SOL    HW226628   1.555   1.525   5.232 -0.4091 -1.0489  1.1397
 4998SOL     OW26629   2.530   1.080  11.248  0.0348  0.2513  0.1879
 4998SOL    HW126630   2.517   1.160  11.197  1.5196 -0.9285 -2.0119
 4998SOL    HW226631   2.615   1.112  11.280  1.4303  0.6316 -3.8687
 4999SOL     OW26632   1.708   3.188   8.569  0.4038 -0.0200  0.0080
 4999SOL    HW126633   1.693   3.123   8.501 -1.8419  1.7937 -1.2098
 4999SOL    HW226634   1.796   3.156   8.593  1.3182  1.9886 -0.6485
 5000SOL     OW26635   2.123   4.243   9.212 -0.1299  0.1198 -0.5224
 5000SOL    HW126636   2.047   4.302   9.209 -0.4865 -0.2727  0.7658
 5000SOL    HW226637   2.191   4.309   9.226 -0.2037 -0.1042  0.8687
 5001SOL     OW26638   0.597   1.005   2.760  0.0290 -0.2792 -0.1516
 5001SOL    HW126639   0.686   0.982   2.735 -0.8951 -1.3464 -2.4518
 5001SOL    HW226640   0.548   0.970   2.686  0.5274  3.4157 -2.2090
 5002SOL     OW26641   0.292   0.120   4.413 -0.1268 -0.3752 -0.0880
 5002SOL    HW126642   0.304   0.147   4.504 -1.4098 -1.3123  0.3583
 5002SOL    HW226643   0.219   0.175   4.385 -0.2166 -1.0752 -1.2225
 5003SOL     OW26644   2.335   2.609   3.040  0.1724 -0.1088 -0.1482
 5003SOL    HW126645   2.388   2.688   3.050  0.1882 -0.2802  1.0676
 5003SOL    HW226646   2.401   2.554   2.998 -0.2195 -1.1949  0.6761
 5004SOL     OW26647   3.431   1.069   1.558 -0.2062  0.4352 -0.4524
 5004SOL    HW126648   3.415   0.975   1.554  1.4764  0.1692 -0.9683
 5004SOL    HW226649   3.467   1.070   1.469  0.5390 -1.3248 -0.1645
 5005SOL     OW26650   1.077   0.922   9.340 -0.8737  0.2849 -0.4946
 5005SOL    HW126651   1.043   1.012   9.339 -1.1697  0.1665 -0.7782
 5005SOL    HW226652   1.000   0.866   9.347  0.3288 -1.4705 -1.2399
 5006SOL     OW26653   3.986   2.746   5.973 -0.4447  0.6145 -0.1508
 5006SOL    HW126654   3.954   2.709   6.055  0.8762  1.0230  0.5579
 5006SOL    HW226655   3.905   2.778   5.933  0.1240  2.1314 -0.1215
 5007SOL     OW26656   3.143   1.851  14.540 -0.2802  0.3563  0.0013
 5007SOL    HW126657   3.113   1.937  14.511  0.1876  0.7952  0.8105
 5007SOL    HW226658   3.105   1.793  14.474  3.6217 -1.3180 -0.8320
 5008SOL     OW26659   4.301   4.024   5.165 -0.6141 -0.2587  0.2785
 5008SOL    HW126660   4.275   4.035   5.074 -0.3135  2.3360  0.5010
 5008SOL    HW226661   4.299   3.929   5.180 -0.0612 -0.3602 -0.3326
 5009SOL     OW26662   1.912   1.290   8.378 -1.1707 -0.0583 -0.0757
 5009SOL    HW126663   1.835   1.344   8.360  0.1609  2.0417  0.5079
 5009SOL    HW226664   1.967   1.318   8.305  1.2506  1.5384  2.3738
 5010SOL     OW26665   4.288   3.179   0.571 -0.0489  0.5963  0.1247
 5010SOL    HW126666   4.212   3.137   0.532  0.1440  0.0836  0.2997
 5010SOL    HW226667   4.358   3.115   0.562 -0.2702  0.7235 -2.3597
 5011SOL     OW26668   2.400   2.226   5.532 -0.6821 -0.4308  0.6580
 5011SOL    HW126669   2.346   2.157   5.495  1.5864 -1.3512 -0.9562
 5011SOL    HW226670   2.419   2.181   5.615  0.7452 -0.5928  0.2424
 5012SOL     OW26671   0.018   1.582   3.662  0.9701  0.2682  0.7970
 5012SOL    HW126672   0.112   1.583   3.677  1.2649  1.6284 -1.0731
 5012SOL    HW226673   4.731   1.661   3.711 -1.3979 -0.8163  1.3877
 5013SOL     OW26674   3.795   1.941   6.186 -0.1118  0.0887 -0.9015
 5013SOL    HW126675   3.856   1.881   6.229 -1.1829 -1.3788 -1.4204
 5013SOL    HW226676   3.730   1.894   6.134 -1.8151  0.5462  0.8217
 5014SOL     OW26677   0.965   1.378   1.820 -0.6367 -0.2666  0.0934
 5014SOL    HW126678   1.024   1.418   1.884  0.4638  0.0064 -1.1021
 5014SOL    HW226679   0.930   1.455   1.775 -1.1709  0.2865  1.4704
 5015SOL     OW26680   0.748   3.317   8.952 -0.0624  0.0245  0.2790
 5015SOL    HW126681   0.772   3.374   8.880 -0.6406  0.5494  0.5001
 5015SOL    HW226682   0.779   3.372   9.024 -2.5960  1.9405 -0.0861
 5016SOL     OW26683   3.182   2.792   4.413  0.1763  0.0930 -1.0212
 5016SOL    HW126684   3.185   2.697   4.420  0.7094  0.0677 -1.5848
 5016SOL    HW226685   3.264   2.814   4.458 -0.2487 -1.9359  0.7678
 5017SOL     OW26686   1.581   3.757  12.385  0.1166 -0.1988  0.7855
 5017SOL    HW126687   1.593   3.669  12.419 -0.8547 -1.2679 -1.5845
 5017SOL    HW226688   1.626   3.810  12.450  1.7941 -0.5892 -0.0587
 5018SOL     OW26689   1.486   4.026   1.813  0.5788  0.1703  0.0235
 5018SOL    HW126690   1.489   3.948   1.757  2.7299  0.4076 -0.1988
 5018SOL    HW226691   1.537   3.992   1.887  0.1141  2.6280  1.4462
 5019SOL     OW26692   1.072   4.240   8.786  0.2689 -0.5287 -0.1962
 5019SOL    HW126693   1.043   4.294   8.860  2.7936  1.6895 -0.8124
 5019SOL    HW226694   1.099   4.302   8.718  0.4798  1.5560  1.7641
 5020SOL     OW26695   1.365   0.056   7.547  0.0677 -0.2659  0.2964
 5020SOL    HW126696   1.272   0.079   7.557  0.0483 -0.3846  0.3831
 5020SOL    HW226697   1.409   0.137   7.572 -0.3074  0.6258 -1.9275
 5021SOL     OW26698   1.289   0.630  13.042 -0.4595  0.2570  0.1790
 5021SOL    HW126699   1.367   0.671  13.005 -1.7197  0.2539 -2.4452
 5021SOL    HW226700   1.302   0.550  12.991  0.9234  1.0751 -0.7545
 5022SOL     OW26701   2.429   2.029   6.607 -0.8015  0.1163 -0.0149
 5022SOL    HW126702   2.396   2.009   6.694  0.1410 -0.5381  0.1959
 5022SOL    HW226703   2.441   1.940   6.572  1.0289  0.8415 -1.2458
 5023SOL     OW26704   4.444   3.458  12.576 -0.2707  0.0731  0.0698
 5023SOL    HW126705   4.381   3.524  12.545  0.1954  0.5050  0.0407
 5023SOL    HW226706   4.514   3.518  12.601 -0.4076  0.5930 -0.7838
 5024SOL     OW26707   4.036   0.092  11.155 -0.1299  0.3975 -0.1563
 5024SOL    HW126708   4.126   0.060  11.147 -1.0323 -2.2741  0.3140
 5024SOL    HW226709   4.037   0.111  11.249  0.8677 -1.1897  0.1636
 5025SOL     OW26710   0.535   3.461   7.781  0.4249 -0.2033  0.6280
 5025SOL    HW126711   0.511   3.420   7.698 -1.6200 -0.4026  1.2998
 5025SOL    HW226712   0.455   3.507   7.808  0.2940  0.1195 -0.3081
 5026SOL     OW26713   0.454   3.503   2.792 -1.0175  0.9654 -0.5133
 5026SOL    HW126714   0.537   3.538   2.822 -0.0813 -0.0175 -1.9716
 5026SOL    HW226715   0.454   3.535   2.701 -0.8264  2.6091  0.0616
 5027SOL     OW26716   1.534   3.223   2.518 -0.2487 -0.0652  0.4110
 5027SOL    HW126717   1.546   3.196   2.609  0.4998  1.6505  0.8190
 5027SOL    HW226718   1.620   3.261   2.500  0.3386 -2.2204 -1.3193
 5028SOL     OW26719   2.469   0.395   7.042 -0.1713  1.0803  0.8171
 5028SOL    HW126720   2.452   0.452   7.117  2.9335 -0.2160  2.4851
 5028SOL    HW226721   2.426   0.452   6.978 -2.4618 -2.2617 -0.6209
 5029SOL     OW26722   0.533   1.934   3.923 -0.2621 -0.9449  0.2669
 5029SOL    HW126723   0.499   1.889   4.001  1.7981  0.4748  2.0061
 5029SOL    HW226724   0.454   1.981   3.899  0.5866  1.2332  1.7588
 5030SOL     OW26725   4.649   3.546   9.818 -0.9064  0.0619  0.0776
 5030SOL    HW126726   4.619   3.627   9.859 -0.1155 -0.2575  1.3108
 5030SOL    HW226727   0.005   3.549   9.845  0.0243 -2.0093 -2.8393
 5031SOL     OW26728   1.633   4.657   8.768 -0.7952  0.2344  0.5267
 5031SOL    HW126729   1.545   4.657   8.806 -1.2855 -1.6016 -0.5828
 5031SOL    HW226730   1.618   4.610   8.686 -0.9574 -1.5705  1.5714
 5032SOL     OW26731   0.650   2.958  15.057 -0.4666 -0.1827 -0.1196
 5032SOL    HW126732   0.623   2.872  15.088 -0.4048  0.2560  1.1910
 5032SOL    HW226733   0.711   2.973  15.130 -0.6385 -0.4253  0.0734
 5033SOL     OW26734   0.011   1.418  10.223  0.0656  0.3214  0.1562
 5033SOL    HW126735   4.735   1.333  10.264  1.5316  0.6704  1.3499
 5033SOL    HW226736   4.689   1.470  10.280 -0.8243  1.2651 -1.6274
 5034SOL     OW26737   0.565   1.661   2.932 -0.1797  0.4780  0.2340
 5034SOL    HW126738   0.600   1.648   3.021  0.2064  0.5433  0.0928
 5034SOL    HW226739   0.523   1.747   2.935  0.0547  0.6472 -1.3349
 5035SOL     OW26740   3.906   1.353   3.554  0.0678 -0.0822 -0.1626
 5035SOL    HW126741   3.989   1.393   3.578  0.1261 -0.1460 -0.2594
 5035SOL    HW226742   3.939   1.272   3.516 -0.6404  1.5807 -4.2190
 5036SOL     OW26743   0.783   0.503   5.609 -0.3858 -0.3738  0.1830
 5036SOL    HW126744   0.786   0.539   5.698  3.2342 -2.1027  0.7410
 5036SOL    HW226745   0.871   0.532   5.587 -0.7459 -0.8369 -1.8533
 5037SOL     OW26746   0.400   0.545   4.080 -0.3655 -0.3398  0.7913
 5037SOL    HW126747   0.436   0.560   3.992 -0.1363 -1.7740  0.6359
 5037SOL    HW226748   0.318   0.500   4.061 -0.0023 -0.1058 -1.4039
 5038SOL     OW26749   1.434   0.524  13.353 -0.1197 -0.6720  0.0847
 5038SOL    HW126750   1.495   0.531  13.280  0.1614 -1.0888  0.2809
 5038SOL    HW226751   1.382   0.449  13.323  1.5640 -2.4134  1.5314
 5039SOL     OW26752   0.868   2.417   4.613  0.7573 -0.1304 -0.2682
 5039SOL    HW126753   0.874   2.502   4.656  1.0633 -0.0827 -0.4075
 5039SOL    HW226754   0.820   2.370   4.682  0.2387 -0.1846 -0.6660
 5040SOL     OW26755   3.482   0.105  12.924  0.0281  0.1366  0.7103
 5040SOL    HW126756   3.405   0.067  12.966 -0.3340  0.9811  0.8049
 5040SOL    HW226757   3.437   0.184  12.898 -0.9682 -0.1293  1.6377
 5041SOL     OW26758   4.443   0.414   3.837  0.0859  0.1754  0.1134
 5041SOL    HW126759   4.502   0.477   3.878  0.4601  0.0400 -0.2090
 5041SOL    HW226760   4.368   0.471   3.824 -0.5104  0.0948  3.1399
 5042SOL     OW26761   3.390   2.304   2.697 -0.4891  0.2593  0.0107
 5042SOL    HW126762   3.382   2.258   2.613 -1.6459 -0.5337  0.5629
 5042SOL    HW226763   3.416   2.393   2.673  2.1744 -0.5852 -0.2509
 5043SOL     OW26764   0.600   0.670   2.101  1.1589 -0.1612  0.3699
 5043SOL    HW126765   0.586   0.764   2.109 -1.2466 -0.5753  0.9366
 5043SOL    HW226766   0.626   0.672   2.009  1.7847 -1.2600  0.5141
 5044SOL     OW26767   0.909   4.194  12.837 -0.3134 -0.5611  0.2844
 5044SOL    HW126768   0.950   4.280  12.850 -0.3732 -0.7584  1.7625
 5044SOL    HW226769   0.880   4.204  12.746  0.3907 -0.2004  0.0994
 5045SOL     OW26770   0.977   1.554  17.657 -0.1887  0.1708  0.1175
 5045SOL    HW126771   1.055   1.607  17.677 -0.8946  0.8380  1.1251
 5045SOL    HW226772   0.907   1.598  17.705 -0.2496 -0.2518  0.4106
 5046SOL     OW26773   2.266   2.059   7.365  0.3888 -0.3924  0.3873
 5046SOL    HW126774   2.216   2.134   7.333  1.0177 -0.5359 -0.9325
 5046SOL    HW226775   2.201   1.988   7.365 -1.0331  0.9063 -0.1358
 5047SOL     OW26776   2.443   4.033   3.476 -0.3181 -0.1469 -0.0142
 5047SOL    HW126777   2.413   4.061   3.563 -2.1931 -0.5859 -0.5059
 5047SOL    HW226778   2.359   4.049   3.433 -0.5382  0.2463  0.5609
 5048SOL     OW26779   0.758   1.779   4.188 -0.7146 -0.4588 -0.3896
 5048SOL    HW126780   0.738   1.803   4.279 -1.8333 -0.5233 -0.6125
 5048SOL    HW226781   0.817   1.708   4.211  0.7873  0.9578  0.0852
 5049SOL     OW26782   3.649   1.148  15.014 -0.4551  0.1258 -0.1125
 5049SOL    HW126783   3.635   1.242  15.007  2.1880  0.3774 -2.2229
 5049SOL    HW226784   3.561   1.121  14.990 -1.3200  1.5743  1.3850
 5050SOL     OW26785   4.289   4.329   4.212  0.6031  0.0782 -0.2239
 5050SOL    HW126786   4.306   4.373   4.296 -0.5563  1.7874 -0.8907
 5050SOL    HW226787   4.297   4.235   4.227 -2.6720 -0.3600 -1.4196
 5051SOL     OW26788   0.828   4.674  17.588  0.0422 -0.2812  0.1363
 5051SOL    HW126789   0.810   4.612  17.659 -0.2607 -0.4835 -0.1144
 5051SOL    HW226790   0.746   4.674  17.537 -0.9316 -0.4308  1.7119
 5052SOL     OW26791   2.369   1.835   2.349  0.0662  0.5507 -0.4471
 5052SOL    HW126792   2.445   1.834   2.407  0.7018  0.7049 -1.2785
 5052SOL    HW226793   2.346   1.924   2.374 -0.0144  0.7155 -1.1011
 5053SOL     OW26794   1.474   3.060  14.268 -0.1896 -0.0884 -0.5243
 5053SOL    HW126795   1.494   2.977  14.311 -2.2604  0.1858  0.9716
 5053SOL    HW226796   1.394   3.047  14.218  0.6351  1.4051 -2.2520
 5054SOL     OW26797   1.002   2.700   2.537 -0.1657  0.0191  0.1146
 5054SOL    HW126798   1.067   2.743   2.592 -1.1095 -1.2774  2.2066
 5054SOL    HW226799   1.050   2.653   2.469 -0.3906 -0.9171  0.6045
 5055SOL     OW26800   1.826   0.042  10.284 -0.2547  0.5075 -0.1995
 5055SOL    HW126801   1.755   4.736  10.236  1.1464 -0.5565 -1.3265
 5055SOL    HW226802   1.844   4.714  10.352 -2.0455 -0.7158 -0.8756
 5056SOL     OW26803   3.277   2.655   7.082  0.2307 -0.4576 -0.3742
 5056SOL    HW126804   3.210   2.689   7.022  2.2628  2.6328 -0.8499
 5056SOL    HW226805   3.262   2.713   7.157  0.9048  0.1956 -0.7506
 5057SOL     OW26806   1.967   2.474   5.936  0.5029  0.7563  0.5156
 5057SOL    HW126807   2.029   2.536   5.974  1.3069  2.5606 -3.7283
 5057SOL    HW226808   2.016   2.434   5.863 -0.6838 -0.4718  0.3874
 5058SOL     OW26809   3.315   1.302   7.780  0.2958  0.0809 -0.1887
 5058SOL    HW126810   3.303   1.289   7.874  0.2529 -1.1804 -0.3698
 5058SOL    HW226811   3.321   1.398   7.780  2.3372 -0.0938  3.8299
 5059SOL     OW26812   1.735   1.367   6.784 -0.2406  0.3270 -0.7058
 5059SOL    HW126813   1.766   1.286   6.824  0.8533 -0.0566 -2.3281
 5059SOL    HW226814   1.814   1.406   6.745  1.4896  0.5580  3.0486
 5060SOL     OW26815   2.199   0.596   5.002 -0.2077  0.1671 -0.3405
 5060SOL    HW126816   2.159   0.513   4.977  2.3317 -0.7901 -1.2389
 5060SOL    HW226817   2.132   0.661   4.981  1.1950  2.2936  1.7790
 5061SOL     OW26818   1.506   2.192   9.240 -0.3201  0.0233 -0.6037
 5061SOL    HW126819   1.543   2.220   9.156  1.6783  0.3000  0.3833
 5061SOL    HW226820   1.453   2.269   9.260 -0.8487  0.3084 -3.0342
 5062SOL     OW26821   2.393   3.615  16.773  0.1192 -0.3109 -0.3585
 5062SOL    HW126822   2.475   3.651  16.808 -0.1813  0.9859 -1.0034
 5062SOL    HW226823   2.338   3.649  16.843  0.2828 -0.3748 -0.1983
 5063SOL     OW26824   2.043   1.704  11.441 -0.0236 -0.1676 -0.4034
 5063SOL    HW126825   2.049   1.635  11.507  1.5127  1.6614  1.3723
 5063SOL    HW226826   2.097   1.771  11.482 -0.7303 -0.1653  0.5177
 5064SOL     OW26827   1.588   2.931   4.169  0.1640  0.3497  0.0926
 5064SOL    HW126828   1.579   2.861   4.234  2.3415 -0.8561 -0.8955
 5064SOL    HW226829   1.537   3.001   4.209  1.2292  1.7667 -1.0494
 5065SOL     OW26830   1.641   4.368   7.719  0.3130  0.1122 -0.1118
 5065SOL    HW126831   1.582   4.321   7.659 -0.3077 -0.5148  0.9852
 5065SOL    HW226832   1.674   4.293   7.769  2.4250  0.4453 -0.9952
 5066SOL     OW26833   0.693   2.009   8.379  0.1535  0.1050 -0.7609
 5066SOL    HW126834   0.677   1.918   8.406 -0.4138  0.1481 -0.9616
 5066SOL    HW226835   0.688   2.051   8.464  0.1139 -0.7318 -0.3433
 5067SOL     OW26836   2.545   2.285   6.905  0.3641 -0.4033 -0.1780
 5067SOL    HW126837   2.467   2.272   6.959  0.0071  1.1844 -0.3067
 5067SOL    HW226838   2.615   2.301   6.968 -0.4263 -0.8992  0.8264
 5068SOL     OW26839   2.366   0.144   9.653  0.6027 -0.1185 -0.1433
 5068SOL    HW126840   2.303   0.172   9.587 -1.2785 -0.5914  1.4434
 5068SOL    HW226841   2.323   0.187   9.727  1.6356  0.3842  0.1641
 5069SOL     OW26842   2.769   1.050   1.707  0.1342  0.0786 -0.2225
 5069SOL    HW126843   2.715   1.119   1.746  0.6707  0.1564  0.3719
 5069SOL    HW226844   2.721   1.011   1.634  0.0938 -0.8664  0.3061
 5070SOL     OW26845   2.808   2.813   5.377  0.2131 -0.6602 -0.1625
 5070SOL    HW126846   2.742   2.871   5.415 -0.4025 -2.3081  1.2742
 5070SOL    HW226847   2.875   2.881   5.377 -0.7974  0.3436 -1.5127
 5071SOL     OW26848   3.823   3.644   0.162  0.4338  0.2397 -0.2856
 5071SOL    HW126849   3.850   3.614   0.075  0.1511  1.2677 -0.7262
 5071SOL    HW226850   3.728   3.656   0.160  0.5249  1.2287  1.2889
 5072SOL     OW26851   0.097   4.559  10.887 -0.0378 -0.6110  0.6730
 5072SOL    HW126852   0.008   4.524  10.887  0.2007 -1.2307  1.1738
 5072SOL    HW226853   0.078   4.627  10.952 -0.5344 -1.3759  1.3259
 5073SOL     OW26854   3.599   2.081   6.930  0.3672  0.2574 -0.5440
 5073SOL    HW126855   3.540   2.011   6.958 -0.0310  0.5970 -0.5284
 5073SOL    HW226856   3.566   2.154   6.981  2.0346 -0.2498  1.2468
 5074SOL     OW26857   0.130   2.511   3.528  0.2806 -0.0469  0.4764
 5074SOL    HW126858   0.224   2.495   3.520  0.5618  0.9706  1.7552
 5074SOL    HW226859   0.123   2.597   3.567  1.2061 -0.3646  1.3374
 5075SOL     OW26860   2.211   2.474   3.274 -0.4329  0.6679  0.2625
 5075SOL    HW126861   2.260   2.508   3.199 -0.5012  0.2301  0.0213
 5075SOL    HW226862   2.133   2.447   3.226  0.8414 -0.3672 -1.2547
 5076SOL     OW26863   3.475   2.769   6.466 -0.1928  0.4925 -0.0997
 5076SOL    HW126864   3.383   2.756   6.442 -0.8355  1.3650  1.8955
 5076SOL    HW226865   3.489   2.682   6.503  0.5024  0.2655 -0.8839
 5077SOL     OW26866   2.102   2.750   3.002 -0.2073  0.0060  0.3711
 5077SOL    HW126867   2.176   2.689   3.004 -0.6479 -0.4806  1.6028
 5077SOL    HW226868   2.156   2.829   2.990  1.6039 -1.0013  1.9292
 5078SOL     OW26869   2.474   0.546   3.682 -0.3463  0.3061 -0.0393
 5078SOL    HW126870   2.409   0.504   3.738  1.4781 -4.6253 -1.6587
 5078SOL    HW226871   2.460   0.498   3.601  1.3372 -0.5601  0.1840
 5079SOL     OW26872   4.531   3.141  17.737 -0.8148 -0.4662 -0.0627
 5079SOL    HW126873   4.623   3.123  17.717 -0.7516  0.2144 -0.3810
 5079SOL    HW226874   4.486   3.128  17.654  0.4127  0.3828 -0.8732
 5080SOL     OW26875   1.127   4.346   1.385  0.1538 -0.1038  0.1673
 5080SOL    HW126876   1.208   4.313   1.423 -0.6824 -0.6980  1.4310
 5080SOL    HW226877   1.161   4.421   1.335  0.2530 -0.0806  0.2687
 5081SOL     OW26878   0.519   2.463  15.443 -0.9507  0.3217 -0.5321
 5081SOL    HW126879   0.541   2.554  15.424 -0.7418 -0.1718 -2.6633
 5081SOL    HW226880   0.506   2.422  15.358  0.9701 -2.5418  0.5597
 5082SOL     OW26881   1.123   0.123   0.148 -0.1376 -0.5059  0.2682
 5082SOL    HW126882   1.070   0.044   0.156  0.8155 -0.8512  3.2971
 5082SOL    HW226883   1.061   0.196   0.160  1.1493  0.7709 -0.9366
 5083SOL     OW26884   0.255   4.617   4.345 -0.3777  0.0021  0.2276
 5083SOL    HW126885   0.276   4.704   4.378  1.2104 -0.0143 -0.7420
 5083SOL    HW226886   0.302   4.604   4.263 -1.4993 -1.4859 -0.1905
 5084SOL     OW26887   1.050   0.251   1.646  0.2965  0.2110  0.4744
 5084SOL    HW126888   1.008   0.198   1.714 -1.1961 -0.0178 -0.6515
 5084SOL    HW226889   1.085   0.323   1.699  1.0903 -0.6556  1.1296
 5085SOL     OW26890   0.922   4.534   2.780 -0.3534  0.2016  0.4397
 5085SOL    HW126891   0.870   4.613   2.764  1.6475  0.8445 -3.0330
 5085SOL    HW226892   0.853   4.469   2.792  0.6313 -0.8849  0.2326
 5086SOL     OW26893   1.087   2.538   0.427 -0.4209  0.3436  0.8998
 5086SOL    HW126894   1.120   2.610   0.481 -0.4460  0.2346  1.0586
 5086SOL    HW226895   1.168   2.520   0.379  0.0183 -1.4363  2.3188
 5087SOL     OW26896   1.139   3.085   4.390 -0.7581  0.4826 -0.3827
 5087SOL    HW126897   1.078   3.100   4.462 -3.7677  1.8376 -3.1967
 5087SOL    HW226898   1.158   3.174   4.360  0.9544  0.5409  0.8745
 5088SOL     OW26899   3.739   0.302   5.334 -0.1046  0.0701  0.0988
 5088SOL    HW126900   3.740   0.206   5.330 -0.1776  0.0922 -0.4214
 5088SOL    HW226901   3.788   0.321   5.414  0.0579 -0.3496  0.0988
 5089SOL     OW26902   0.483   3.213   3.125 -0.1413 -0.1904 -0.3547
 5089SOL    HW126903   0.490   3.302   3.158 -2.5844  0.2946 -1.1203
 5089SOL    HW226904   0.556   3.171   3.169 -1.3604 -2.5173 -0.5361
 5090SOL     OW26905   0.711   0.005   2.358  0.1893 -0.3508  0.6250
 5090SOL    HW126906   0.642   4.685   2.393 -1.1460  0.9879  0.1144
 5090SOL    HW226907   0.787   4.718   2.413  0.5017  1.0636  0.7843
 5091SOL     OW26908   1.485   0.888   4.496  0.8054 -0.1809 -0.8597
 5091SOL    HW126909   1.575   0.859   4.510  0.2157 -1.9854 -0.7968
 5091SOL    HW226910   1.494   0.983   4.487 -0.0878 -0.1112 -0.9377
 5092SOL     OW26911   2.265   2.026  15.038  0.3877 -0.5246  0.2250
 5092SOL    HW126912   2.316   2.101  15.010  0.0056 -0.6323 -0.7682
 5092SOL    HW226913   2.307   1.991  15.116  0.7588 -2.8045 -0.9871
 5093SOL     OW26914   0.478   1.817   6.141 -0.2393 -0.2689  0.0918
 5093SOL    HW126915   0.532   1.825   6.062  0.3317  0.5494  0.5638
 5093SOL    HW226916   0.522   1.741   6.179 -1.0339 -1.1143 -0.6941
 5094SOL     OW26917   0.669   2.221   6.044  0.5244  0.2787  0.4478
 5094SOL    HW126918   0.701   2.306   6.013  0.9756  0.4135  1.3022
 5094SOL    HW226919   0.629   2.247   6.126  0.9049  3.4147 -0.3806
 5095SOL     OW26920   3.474   3.595   0.669  0.6275 -0.1740 -0.2980
 5095SOL    HW126921   3.515   3.580   0.754  2.2608  0.5295 -0.9655
 5095SOL    HW226922   3.546   3.605   0.607  0.1978 -2.2944 -1.1666
 5096SOL     OW26923   4.067   2.088  11.604 -0.0764 -0.6802 -0.1591
 5096SOL    HW126924   4.054   1.993  11.609 -0.3405 -0.7577 -2.2818
 5096SOL    HW226925   4.147   2.089  11.656  0.0258 -0.5096 -0.3213
 5097SOL     OW26926   3.483   1.701   7.752 -0.0429  0.0270  0.3727
 5097SOL    HW126927   3.511   1.730   7.839 -1.0451  0.1541  0.6511
 5097SOL    HW226928   3.566   1.671   7.714 -0.0967 -2.2697  2.0634
 5098SOL     OW26929   2.522   3.271   9.053  0.4711  0.0082 -0.3054
 5098SOL    HW126930   2.574   3.205   9.098  1.8421  1.8537  0.8304
 5098SOL    HW226931   2.587   3.318   9.001  0.8439  2.5927  2.5056
 5099SOL     OW26932   1.416   1.389   3.182  0.4236 -0.3245  0.3068
 5099SOL    HW126933   1.511   1.403   3.174  0.5504  0.1442  2.4767
 5099SOL    HW226934   1.379   1.388   3.094  1.2111  0.2423 -0.0312
 5100SOL     OW26935   4.663   0.858   5.814 -0.4482  0.0876 -0.0442
 5100SOL    HW126936   4.636   0.814   5.894 -1.7287 -0.0434 -0.5530
 5100SOL    HW226937   4.645   0.791   5.747 -2.1915  0.5005  0.0163
 5101SOL     OW26938   4.338   3.102   2.655  0.2510 -0.5749 -0.1526
 5101SOL    HW126939   4.302   3.104   2.744 -1.1571 -0.6966 -0.7148
 5101SOL    HW226940   4.321   3.189   2.619  3.1644 -0.8025 -2.0182
 5102SOL     OW26941   0.887   3.109   9.979  0.0584 -0.0230  0.0569
 5102SOL    HW126942   0.911   3.192   9.938 -0.0681 -0.6823 -1.3495
 5102SOL    HW226943   0.912   3.124  10.070 -0.6625 -1.6859  0.5299
 5103SOL     OW26944   0.969   1.249   8.296  0.1443  0.3119  0.2979
 5103SOL    HW126945   0.979   1.158   8.323 -3.1175 -0.6954 -1.8072
 5103SOL    HW226946   1.061   1.271   8.281 -0.2840  0.9711 -1.3595
 5104SOL     OW26947   3.199   1.968   9.814  0.2479 -0.3362  0.1044
 5104SOL    HW126948   3.282   1.984   9.770  1.1595  1.5086  2.5042
 5104SOL    HW226949   3.156   2.053   9.815 -2.0678 -1.4908  0.5131
 5105SOL     OW26950   0.178   4.502   3.229 -0.3122  0.5260 -0.0299
 5105SOL    HW126951   0.224   4.476   3.309 -1.0932 -0.4360  0.1157
 5105SOL    HW226952   0.189   4.596   3.244  2.2771  0.3239 -0.6864
 5106SOL     OW26953   2.358   4.094   4.418  0.1920 -0.2078  0.0309
 5106SOL    HW126954   2.408   4.104   4.499 -2.2022  1.1553  1.3492
 5106SOL    HW226955   2.419   4.070   4.350  0.3010 -1.4316  0.5665
 5107SOL     OW26956   1.166   2.844   6.302  0.5029  0.0177  0.1910
 5107SOL    HW126957   1.256   2.823   6.328 -0.0088 -2.5724 -0.1562
 5107SOL    HW226958   1.130   2.908   6.364 -3.6232 -0.5395 -1.6983
 5108SOL     OW26959   1.470   1.313   5.707  0.3218 -1.2238  0.6913
 5108SOL    HW126960   1.532   1.337   5.775  0.9774 -0.6103 -0.1134
 5108SOL    HW226961   1.493   1.220   5.702 -0.0406 -1.4144  2.5261
 5109SOL     OW26962   4.212   0.845   4.333 -0.1310 -0.5390 -0.0063
 5109SOL    HW126963   4.303   0.873   4.320  0.0447 -1.0279  0.1551
 5109SOL    HW226964   4.167   0.903   4.272 -0.5657  0.1521  0.9859
 5110SOL     OW26965   4.635   0.906   6.792  0.5651 -0.0264 -0.1093
 5110SOL    HW126966   4.673   0.879   6.876  1.3357  1.4771  0.0140
 5110SOL    HW226967   4.543   0.887   6.810  0.2509  1.9222  0.3598
 5111SOL     OW26968   0.708   4.017   7.742  0.0708 -0.0583 -0.0777
 5111SOL    HW126969   0.657   3.959   7.799 -0.2442 -1.1371 -1.4727
 5111SOL    HW226970   0.769   3.959   7.696 -0.6751 -0.0912 -1.0361
 5112SOL     OW26971   0.194   1.096   2.423  0.2229  0.6322 -0.0075
 5112SOL    HW126972   0.101   1.098   2.401  0.4797  3.6168 -0.8477
 5112SOL    HW226973   0.226   1.139   2.344  0.3986 -1.3914 -1.0474
 5113SOL     OW26974   3.766   0.434   8.087  0.3927  0.2831  0.1187
 5113SOL    HW126975   3.707   0.359   8.080 -1.3117  1.7213 -0.8124
 5113SOL    HW226976   3.832   0.402   8.148 -0.1735 -0.8693  0.1314
 5114SOL     OW26977   0.623   1.555  11.912  0.2196 -0.4348  0.4433
 5114SOL    HW126978   0.642   1.602  11.994  0.0898  1.0660 -0.3921
 5114SOL    HW226979   0.620   1.462  11.937 -1.9413 -0.6308 -0.6437
 5115SOL     OW26980   4.337   0.430  16.352  0.0861 -1.1146 -0.0574
 5115SOL    HW126981   4.290   0.447  16.271  0.7783  3.0378  0.4145
 5115SOL    HW226982   4.319   0.512  16.398  2.0550 -0.5877 -0.2213
 5116SOL     OW26983   4.193   0.787  12.085 -0.0566 -0.5614  0.0703
 5116SOL    HW126984   4.194   0.809  11.992 -3.1826  1.3939  0.4896
 5116SOL    HW226985   4.285   0.763  12.095 -0.0523 -0.2814  0.6786
 5117SOL     OW26986   0.875   1.235   2.713  0.3469  0.2960 -0.4083
 5117SOL    HW126987   0.905   1.249   2.803 -2.2346 -0.5112  0.5769
 5117SOL    HW226988   0.795   1.288   2.706  0.1738  0.0456 -0.3101
 5118SOL     OW26989   2.355   0.917  11.773 -0.2147 -0.3034  0.1717
 5118SOL    HW126990   2.419   0.985  11.753 -1.7303  1.1636  0.2854
 5118SOL    HW226991   2.363   0.876  11.687  3.2439  1.7535 -0.5182
 5119SOL     OW26992   1.867   0.322  10.383 -0.0946  0.2347 -0.5635
 5119SOL    HW126993   1.872   0.227  10.376  0.1381  0.2641 -0.7897
 5119SOL    HW226994   1.915   0.342  10.463  0.4043 -1.2710 -0.4922
 5120SOL     OW26995   1.474   4.488  12.756 -0.1196 -0.0180 -0.0358
 5120SOL    HW126996   1.431   4.437  12.687 -0.6867 -0.8272  0.9153
 5120SOL    HW226997   1.434   4.443  12.830  0.8081  1.2508  1.2097
 5121SOL     OW26998   3.302   1.496   7.285  0.2948  0.7605 -0.3137
 5121SOL    HW126999   3.393   1.524   7.295  0.6521 -0.9455  1.1225
 5121SOL    HW227000   3.294   1.470   7.194  0.4343 -1.2749  0.2566
 5122SOL     OW27001   3.223   0.513  10.643  0.7885 -0.5101 -0.1564
 5122SOL    HW127002   3.197   0.551  10.559 -1.2792 -1.6939 -0.0483
 5122SOL    HW227003   3.319   0.515  10.638  0.7300  0.6159 -0.7230
 5123SOL     OW27004   0.857   1.802  10.773 -0.1967 -0.2042  0.2369
 5123SOL    HW127005   0.797   1.837  10.707 -2.4236 -0.6310  2.0467
 5123SOL    HW227006   0.894   1.722  10.735  2.1413  0.5437  0.9363
 5124SOL     OW27007   3.014   0.956   8.863 -0.3726 -0.4139 -0.5235
 5124SOL    HW127008   2.953   0.886   8.840 -0.8717  0.0833 -0.7032
 5124SOL    HW227009   3.090   0.902   8.884 -1.5939 -1.2905  1.6210
 5125SOL     OW27010   3.616   4.331   6.615 -0.5955 -0.2752  0.2168
 5125SOL    HW127011   3.555   4.328   6.689 -2.5162  0.3647 -1.3394
 5125SOL    HW227012   3.588   4.416   6.580  0.4619 -0.1746 -0.3811
 5126SOL     OW27013   0.439   0.483   7.057 -0.0162  0.6747 -0.1867
 5126SOL    HW127014   0.524   0.446   7.079  1.4415  2.7616 -2.3818
 5126SOL    HW227015   0.375   0.413   7.071  2.9899 -1.6132  1.9956
 5127SOL     OW27016   1.452   1.550  15.271 -0.1375 -0.2823 -0.2719
 5127SOL    HW127017   1.471   1.642  15.253  0.8505 -0.1889  1.3014
 5127SOL    HW227018   1.393   1.518  15.203 -0.5472  1.3230 -0.6771
 5128SOL     OW27019   1.454   2.992   0.992  0.0967 -0.2672 -0.4557
 5128SOL    HW127020   1.464   3.052   1.066 -2.2688  0.0154 -0.3483
 5128SOL    HW227021   1.484   2.910   1.032 -3.2360 -0.3172  1.9347
 5129SOL     OW27022   2.198   2.214   4.349  0.5642 -0.2192  0.1396
 5129SOL    HW127023   2.238   2.275   4.287  0.5018 -1.4471 -1.1209
 5129SOL    HW227024   2.278   2.188   4.394 -0.2165 -2.9524 -0.0739
 5130SOL     OW27025   1.808   2.085   0.650 -0.2627 -0.0147 -0.2923
 5130SOL    HW127026   1.890   2.122   0.681 -0.5912 -1.0715  1.8122
 5130SOL    HW227027   1.823   2.072   0.556 -0.1425  0.8936 -0.3945
 5131SOL     OW27028   2.671   4.268  11.525 -0.1637  0.0568 -0.5003
 5131SOL    HW127029   2.738   4.241  11.589  0.5300 -1.7603 -2.0064
 5131SOL    HW227030   2.704   4.351  11.491  0.2943  0.0091 -0.1793
 5132SOL     OW27031   3.309   3.440   5.011  0.2708 -0.5286  0.0089
 5132SOL    HW127032   3.392   3.393   5.006  0.5287 -0.2383  1.4652
 5132SOL    HW227033   3.325   3.523   4.967  1.0639  0.1823  1.6359
 5133SOL     OW27034   0.232   1.052   8.946  0.0350 -0.5213 -0.0710
 5133SOL    HW127035   0.195   1.001   9.019  0.3473  0.1264  0.5381
 5133SOL    HW227036   0.155   1.086   8.901  0.2219  0.5487  0.4256
 5134SOL     OW27037   0.250   4.549   7.354  0.1364 -0.2755 -0.3346
 5134SOL    HW127038   0.169   4.576   7.396 -1.4853 -2.9102 -1.7282
 5134SOL    HW227039   0.262   4.466   7.400  1.3810  0.6515  1.0281
 5135SOL     OW27040   2.702   1.489  11.878 -0.0208  0.2835 -0.1297
 5135SOL    HW127041   2.798   1.489  11.884 -0.0116  0.1956 -0.2883
 5135SOL    HW227042   2.681   1.421  11.942 -0.6219  0.7610  0.1791
 5136SOL     OW27043   2.616   2.851   2.132 -0.4246 -0.4738 -0.0575
 5136SOL    HW127044   2.711   2.839   2.123 -0.4255 -0.3498 -0.2300
 5136SOL    HW227045   2.608   2.945   2.150  0.8355 -0.4620  0.4188
 5137SOL     OW27046   4.290   0.531   4.292  0.5464 -0.4494  0.1304
 5137SOL    HW127047   4.307   0.579   4.211  0.2599  0.0558  0.3719
 5137SOL    HW227048   4.222   0.473   4.259 -0.6089  0.8908  0.1668
 5138SOL     OW27049   1.907   2.140   4.942 -0.9139 -0.4906  0.5041
 5138SOL    HW127050   1.992   2.133   4.986 -0.2880 -1.1254 -0.8032
 5138SOL    HW227051   1.868   2.220   4.978 -1.0598 -0.0409 -0.6720
 5139SOL     OW27052   1.650   1.085   2.607  0.0973 -0.3178  0.0037
 5139SOL    HW127053   1.736   1.096   2.567  0.2910  0.3844  0.6127
 5139SOL    HW227054   1.649   0.989   2.614 -1.5421 -0.2590  0.4070
 5140SOL     OW27055   2.050   1.426   5.363  0.0537 -0.6844 -0.2447
 5140SOL    HW127056   1.969   1.477   5.374  0.7087  0.3583 -0.2263
 5140SOL    HW227057   2.076   1.435   5.271 -1.5695  0.7091 -0.5663
 5141SOL     OW27058   3.296   2.150   7.066  0.3377  0.0115 -0.3146
 5141SOL    HW127059   3.272   2.128   7.156 -0.0490  1.1911 -0.1179
 5141SOL    HW227060   3.296   2.245   7.081  1.9019 -0.3176  1.8061
 5142SOL     OW27061   1.556   4.580   7.072  0.4113  0.6789  0.3148
 5142SOL    HW127062   1.570   4.485   7.074 -0.9274  0.4422 -1.5940
 5142SOL    HW227063   1.623   4.598   7.139  3.1134 -1.9133 -1.6827
 5143SOL     OW27064   2.085   0.811   3.690 -0.0994 -0.0529 -0.0069
 5143SOL    HW127065   2.153   0.866   3.651 -0.1044 -1.7637 -2.4203
 5143SOL    HW227066   2.033   0.777   3.617  0.5256 -0.5434 -0.2207
 5144SOL     OW27067   1.323   4.197   7.114 -0.1849  0.5323 -0.3789
 5144SOL    HW127068   1.268   4.235   7.182 -1.0408  0.1384 -0.8495
 5144SOL    HW227069   1.358   4.125   7.166 -0.5687 -0.2333 -1.1821
 5145SOL     OW27070   4.504   4.090   2.016  0.1636  0.7076 -0.6208
 5145SOL    HW127071   4.441   4.134   2.073  1.9631 -0.0559  1.9852
 5145SOL    HW227072   4.589   4.098   2.060 -0.9129 -0.6395  1.7075
 5146SOL     OW27073   1.702   0.022   5.873 -0.5168  0.5032  0.1741
 5146SOL    HW127074   1.657   4.703   5.936 -0.7817  1.1003  0.5142
 5146SOL    HW227075   1.651   0.013   5.792  2.4806  0.7399 -1.7306
 5147SOL     OW27076   2.345   2.939  14.033 -0.0585  0.3303  0.2044
 5147SOL    HW127077   2.352   2.967  13.941 -2.2971 -1.9865 -0.6507
 5147SOL    HW227078   2.423   2.883  14.039  0.8627  1.6279  0.4883
 5148SOL     OW27079   1.871   0.425   3.501  0.3352  0.3513 -0.0160
 5148SOL    HW127080   1.866   0.453   3.409 -2.1516 -0.0852  0.0036
 5148SOL    HW227081   1.817   0.346   3.497  0.1802  0.4562  0.0243
 5149SOL     OW27082   3.400   0.172   5.358  0.1001 -0.1837  0.0141
 5149SOL    HW127083   3.364   0.205   5.276 -1.3834 -0.9994  0.3340
 5149SOL    HW227084   3.341   0.219   5.417 -0.3281  0.3455 -0.8315
 5150SOL     OW27085   4.039   0.312   1.847  0.1842  0.7008  0.3582
 5150SOL    HW127086   4.052   0.228   1.892  0.2946  0.3012 -0.4167
 5150SOL    HW227087   3.995   0.375   1.904  0.6900  1.0127  0.3999
 5151SOL     OW27088   3.236   2.635   5.647  0.2826  0.1051  0.3617
 5151SOL    HW127089   3.220   2.606   5.737  0.3151 -0.6234  0.1320
 5151SOL    HW227090   3.200   2.560   5.600 -0.3340  0.4606  0.2584
 5152SOL     OW27091   0.648   3.927   3.538 -0.2471  0.2697 -0.1133
 5152SOL    HW127092   0.609   3.841   3.554  0.9844 -0.0820  0.9926
 5152SOL    HW227093   0.579   3.980   3.578 -0.3777  0.0760 -0.0821
 5153SOL     OW27094   1.486   1.712   9.245 -0.3380 -0.0840 -0.0641
 5153SOL    HW127095   1.440   1.786   9.283 -0.0238 -0.9783  2.0796
 5153SOL    HW227096   1.560   1.697   9.304  2.2895  1.2405 -2.9703
 5154SOL     OW27097   1.900   1.387   9.802  0.2511  0.0842 -0.0602
 5154SOL    HW127098   1.941   1.360   9.884 -0.0030  0.2076  0.1062
 5154SOL    HW227099   1.942   1.470   9.780 -0.1663 -0.3224 -2.4290
 5155SOL     OW27100   3.564   1.724   0.319  0.2652  0.0692 -0.1810
 5155SOL    HW127101   3.559   1.636   0.357 -0.9135 -0.5557 -1.7574
 5155SOL    HW227102   3.628   1.766   0.376  0.0728  0.0914  0.0192
 5156SOL     OW27103   2.544   3.701  14.327 -0.3665 -0.3063 -0.5457
 5156SOL    HW127104   2.581   3.788  14.310 -1.1660 -0.4707 -3.1273
 5156SOL    HW227105   2.502   3.679  14.243 -0.6556  0.4463 -0.6059
 5157SOL     OW27106   0.960   2.205   8.489 -0.8966 -0.4065  0.2069
 5157SOL    HW127107   0.895   2.138   8.468 -0.9856 -0.6302  1.1857
 5157SOL    HW227108   0.984   2.177   8.577 -1.2507  1.4839  0.9015
 5158SOL     OW27109   4.422   3.465   2.970  0.2803  0.6832 -0.1141
 5158SOL    HW127110   4.418   3.545   3.023 -0.5150  0.9685 -0.6107
 5158SOL    HW227111   4.494   3.416   3.011 -1.5725 -2.0260 -0.1376
 5159SOL     OW27112   0.883   4.187   2.967 -0.0754  0.4540  0.1891
 5159SOL    HW127113   0.973   4.206   2.940  0.5767 -2.2588  0.3515
 5159SOL    HW227114   0.832   4.192   2.886  1.5576 -0.0673 -0.8743
 5160SOL     OW27115   3.608   3.114   3.491  0.9643  0.3676 -0.2441
 5160SOL    HW127116   3.631   3.136   3.582 -3.2317 -0.1691  0.9310
 5160SOL    HW227117   3.565   3.193   3.460 -1.3828 -1.0910 -0.7055
 5161SOL     OW27118   4.221   3.158   3.183  0.1500 -0.3068 -0.0514
 5161SOL    HW127119   4.141   3.184   3.229  0.6547 -0.1537  0.7282
 5161SOL    HW227120   4.296   3.190   3.232 -1.1810 -0.8528  2.3308
 5162SOL     OW27121   2.068   3.552   5.880 -0.3730  0.1172 -0.1323
 5162SOL    HW127122   2.132   3.584   5.816 -1.0306  0.4411 -0.6217
 5162SOL    HW227123   2.028   3.630   5.917 -0.3817 -0.6539  1.4959
 5163SOL     OW27124   0.559   4.330   1.775  0.3172  0.0836 -0.1902
 5163SOL    HW127125   0.598   4.414   1.799 -1.4303  0.1566  2.4584
 5163SOL    HW227126   0.498   4.320   1.848  2.4116 -1.6659  1.3169
 5164SOL     OW27127   2.652   2.438   8.766 -0.0511 -0.7351 -0.3170
 5164SOL    HW127128   2.738   2.419   8.803 -0.5039 -0.1971  1.0307
 5164SOL    HW227129   2.607   2.467   8.845 -0.0871 -0.2617 -0.5163
 5165SOL     OW27130   0.926   2.704  16.207 -0.3333 -0.2840 -0.2373
 5165SOL    HW127131   0.993   2.771  16.217 -1.6220  0.7260  1.4696
 5165SOL    HW227132   0.882   2.701  16.291  2.7143 -1.4325  1.3140
 5166SOL     OW27133   2.479   3.820   9.250  0.1732 -0.1664 -0.6395
 5166SOL    HW127134   2.420   3.808   9.325  1.2048  2.0317  0.5415
 5166SOL    HW227135   2.436   3.896   9.209 -1.9651 -0.7596  0.4737
 5167SOL     OW27136   4.227   0.376  15.532 -0.1219 -0.1139 -0.0642
 5167SOL    HW127137   4.244   0.469  15.520 -0.9989 -0.2720 -2.4564
 5167SOL    HW227138   4.285   0.360  15.457 -0.8663  0.7018 -0.8016
 5168SOL     OW27139   1.620   0.714  14.759 -0.5685  0.0174 -0.1431
 5168SOL    HW127140   1.677   0.745  14.830 -1.1467 -0.4631  0.5242
 5168SOL    HW227141   1.608   0.793  14.707  0.2896 -0.4319 -1.0094
 5169SOL     OW27142   2.196   1.545   9.548  0.2967  0.0498  0.3987
 5169SOL    HW127143   2.271   1.558   9.606  0.1350  1.3811  0.3047
 5169SOL    HW227144   2.170   1.459   9.579  2.5859 -1.0594 -0.7156
 5170SOL     OW27145   0.930   0.144   9.641 -0.1998 -0.8910  0.3535
 5170SOL    HW127146   0.984   0.162   9.719  0.2383 -1.0312  0.0826
 5170SOL    HW227147   0.988   0.084   9.594  0.1333  1.4280 -2.1863
 5171SOL     OW27148   1.284   3.277  16.401 -0.0860 -0.2400  0.3883
 5171SOL    HW127149   1.316   3.350  16.348 -0.7122 -0.7629 -0.7073
 5171SOL    HW227150   1.209   3.321  16.442  1.1124  1.1972  1.0501
 5172SOL     OW27151   3.073   4.668   1.638  0.6002 -0.5464 -0.4929
 5172SOL    HW127152   3.131   4.733   1.597 -0.3697 -0.2856 -1.4466
 5172SOL    HW227153   3.018   4.729   1.686  0.3941  0.1419 -1.6051
 5173SOL     OW27154   1.145   0.596   7.413 -0.0318 -0.3728  0.0449
 5173SOL    HW127155   1.147   0.532   7.484 -0.6821  1.5666  1.7944
 5173SOL    HW227156   1.226   0.574   7.367 -0.4611 -2.9671  0.5484
 5174SOL     OW27157   1.079   1.742   4.634 -0.4497  0.0777  0.1527
 5174SOL    HW127158   0.989   1.742   4.668  0.4290 -1.0818  2.5462
 5174SOL    HW227159   1.119   1.782   4.711 -1.4592  2.1083 -0.3880
 5175SOL     OW27160   1.402   0.525  13.873 -0.2622 -0.6304  0.3288
 5175SOL    HW127161   1.371   0.495  13.958 -1.2596 -0.1377  0.1377
 5175SOL    HW227162   1.414   0.619  13.879 -1.0159 -0.4300 -1.1963
 5176SOL     OW27163   3.493   2.524  14.818 -0.1969  0.1356  0.3169
 5176SOL    HW127164   3.483   2.615  14.845  1.6350  0.7078 -0.9059
 5176SOL    HW227165   3.444   2.477  14.885  0.2157  0.1515  0.6320
 5177SOL     OW27166   4.339   0.393   2.903 -0.3641 -0.6672 -0.2552
 5177SOL    HW127167   4.271   0.442   2.858 -1.4731 -1.5494  0.4673
 5177SOL    HW227168   4.358   0.322   2.842 -0.8887  0.2289 -1.4605
 5178SOL     OW27169   1.102   0.581   1.528  0.0414  0.5981 -0.2700
 5178SOL    HW127170   1.142   0.625   1.603  0.8326 -2.1554  0.9062
 5178SOL    HW227171   1.093   0.651   1.463 -1.9904  0.2763 -0.3443
 5179SOL     OW27172   3.804   4.128  14.300 -0.3832 -0.3088 -0.1010
 5179SOL    HW127173   3.793   4.037  14.274 -1.5338 -0.4494  0.9107
 5179SOL    HW227174   3.746   4.167  14.234  1.6773  0.6375 -1.3775
 5180SOL     OW27175   3.608   4.203   4.364  0.6278  0.3481 -0.0009
 5180SOL    HW127176   3.620   4.111   4.384 -1.9383  0.5420  2.5752
 5180SOL    HW227177   3.512   4.202   4.362  0.5995  0.5295  1.1812
 5181SOL     OW27178   0.715   1.320  11.728  0.1836  0.1946  0.2525
 5181SOL    HW127179   0.638   1.326  11.672  0.7826  1.2419 -0.4614
 5181SOL    HW227180   0.667   1.304  11.809 -0.6829  2.1607  0.1284
 5182SOL     OW27181   4.341   0.696   6.376 -0.2825 -0.2594  0.4215
 5182SOL    HW127182   4.396   0.766   6.340 -0.3870 -0.4437 -0.0991
 5182SOL    HW227183   4.256   0.740   6.367 -1.8846 -3.3729  0.3265
 5183SOL     OW27184   0.595   1.080   6.073 -0.0970 -0.1507  0.2562
 5183SOL    HW127185   0.579   0.997   6.119  2.3327 -0.4294  0.5711
 5183SOL    HW227186   0.572   1.052   5.985 -3.9724  0.2718  1.1228
 5184SOL     OW27187   4.321   4.411  17.468  0.2746 -0.0674 -0.4875
 5184SOL    HW127188   4.292   4.446  17.552 -0.1880  2.9116 -1.8939
 5184SOL    HW227189   4.238   4.389  17.424  0.9033  0.3851 -1.8958
 5185SOL     OW27190   0.983   2.838  12.850 -0.2368  0.2141 -0.4423
 5185SOL    HW127191   1.028   2.914  12.886  0.0196  0.0692 -0.4543
 5185SOL    HW227192   1.016   2.770  12.910 -2.0129  0.1578  0.4604
 5186SOL     OW27193   3.014   4.101   8.262  0.5572 -0.4317 -0.2848
 5186SOL    HW127194   3.100   4.094   8.219  0.9086 -0.9491  0.5015
 5186SOL    HW227195   3.004   4.194   8.281 -0.3914 -0.9445  1.7114
 5187SOL     OW27196   4.257   2.722   3.235 -0.4147 -0.0988  0.3897
 5187SOL    HW127197   4.276   2.788   3.169 -3.9689  1.3860  0.8459
 5187SOL    HW227198   4.186   2.672   3.195 -1.0910  0.4486  0.9207
 5188SOL     OW27199   0.121   1.152   2.102  0.0445  0.1031 -0.4829
 5188SOL    HW127200   0.214   1.137   2.118  0.5716  2.6861 -1.1936
 5188SOL    HW227201   0.128   1.206   2.023 -0.0272 -1.4936 -1.5818
 5189SOL     OW27202   2.277   3.905  14.046 -0.1008  0.0844  0.4055
 5189SOL    HW127203   2.216   3.952  14.103 -0.2667  2.0433 -1.3661
 5189SOL    HW227204   2.323   3.982  14.013  2.3865 -2.0873 -1.2063
 5190SOL     OW27205   0.790   0.663   3.626  0.3632  0.3295  0.0328
 5190SOL    HW127206   0.885   0.657   3.621  0.1048 -2.1200 -1.8330
 5190SOL    HW227207   0.780   0.646   3.720  0.4079 -0.4155 -0.0967
 5191SOL     OW27208   2.001   0.349  13.610 -0.1764  0.1710 -0.5255
 5191SOL    HW127209   1.990   0.259  13.580 -2.0770 -0.2369  1.3979
 5191SOL    HW227210   1.947   0.398  13.548  1.1289  0.4255 -1.4667
 5192SOL     OW27211   1.365   3.819  11.322 -0.0919  0.6966 -0.4176
 5192SOL    HW127212   1.443   3.764  11.325  1.5328  2.9463 -1.3827
 5192SOL    HW227213   1.323   3.797  11.405 -0.4658  0.6032 -0.6342
 5193SOL     OW27214   4.596   1.716  12.471  0.3717  0.1776  0.0551
 5193SOL    HW127215   4.507   1.718  12.506 -0.6553  0.8215 -2.6170
 5193SOL    HW227216   4.609   1.797  12.422 -1.9071  1.2843  1.2435
 5194SOL     OW27217   4.355   1.727   2.446  0.0117 -0.1619  0.7370
 5194SOL    HW127218   4.417   1.800   2.444 -0.1336 -0.0776 -1.1874
 5194SOL    HW227219   4.322   1.734   2.356  0.1563  3.4849  0.9807
 5195SOL     OW27220   4.680   1.060   4.958 -0.0358 -0.0172  0.1708
 5195SOL    HW127221   4.606   1.006   4.984  0.8292 -1.0592  0.4978
 5195SOL    HW227222   4.719   1.000   4.894  0.3933  0.2642  0.1699
 5196SOL     OW27223   1.594   4.089  13.435 -0.3861 -0.4791 -0.0460
 5196SOL    HW127224   1.524   4.039  13.392 -1.2823  0.7593 -0.0032
 5196SOL    HW227225   1.597   4.036  13.515 -1.8394 -0.1044  0.2650
 5197SOL     OW27226   4.586   2.087   7.160 -0.8136 -0.0988  0.0708
 5197SOL    HW127227   4.525   2.158   7.140  0.4937  0.9145 -0.3209
 5197SOL    HW227228   4.558   2.068   7.250 -0.9230 -0.1815  0.0196
 5198SOL     OW27229   2.899   3.442   1.455  0.0830  0.6613  0.3103
 5198SOL    HW127230   2.826   3.486   1.412 -0.7273 -1.4856 -0.4865
 5198SOL    HW227231   2.907   3.360   1.406  3.3576  0.4622  1.1746
 5199SOL     OW27232   1.327   4.354   5.666 -0.1112  0.1658  0.2278
 5199SOL    HW127233   1.327   4.314   5.580  0.6890 -1.6318  1.0707
 5199SOL    HW227234   1.318   4.447   5.643  0.0613  0.0281 -0.3817
 5200SOL     OW27235   1.755   4.701   3.067  0.3054 -0.3069 -0.0661
 5200SOL    HW127236   1.761   4.660   3.153 -1.3845 -0.7503 -0.1667
 5200SOL    HW227237   1.812   4.641   3.019  1.1801  1.5120 -1.3191
 5201SOL     OW27238   2.932   2.073   9.650 -0.0432 -0.3251  0.8901
 5201SOL    HW127239   2.921   1.980   9.670 -0.9667 -0.6262 -1.0191
 5201SOL    HW227240   2.946   2.074   9.555 -1.9472  3.3208  0.6316
 5202SOL     OW27241   0.910   4.167  11.738 -0.0614 -0.1303 -0.6318
 5202SOL    HW127242   0.840   4.117  11.779  0.7325 -1.0748 -0.4325
 5202SOL    HW227243   0.900   4.133  11.649 -1.7657 -1.2753  0.0099
 5203SOL     OW27244   0.330   3.539   3.870 -0.2828  0.0099 -0.1072
 5203SOL    HW127245   0.402   3.493   3.828 -0.1968  0.9267 -0.9709
 5203SOL    HW227246   0.311   3.608   3.806 -2.3276  0.5006  1.0174
 5204SOL     OW27247   0.003   0.822   4.790 -0.6340 -0.3071 -0.1257
 5204SOL    HW127248   0.055   0.807   4.711  0.6238  0.7979  0.5038
 5204SOL    HW227249   4.653   0.838   4.751 -1.2786 -2.2834  0.4446
 5205SOL     OW27250   0.835   1.417   6.334  0.1535 -0.1898  0.3098
 5205SOL    HW127251   0.797   1.422   6.421  2.7220  0.9050  1.3732
 5205SOL    HW227252   0.827   1.323   6.320 -1.6143  0.3900 -2.4972
 5206SOL     OW27253   1.575   3.983   4.844  0.0226 -0.3898  0.2614
 5206SOL    HW127254   1.490   3.951   4.815 -2.0561  3.7446  1.9385
 5206SOL    HW227255   1.614   4.023   4.766  1.3004 -0.2230  0.9788
 5207SOL     OW27256   2.016   1.807   3.543 -0.1122 -0.0522  0.5876
 5207SOL    HW127257   2.032   1.888   3.591  3.4332 -0.5266  0.2008
 5207SOL    HW227258   2.099   1.802   3.495 -0.2482 -0.4327  0.3940
 5208SOL     OW27259   0.908   3.906   9.462  0.5487 -0.5336  0.4346
 5208SOL    HW127260   0.822   3.942   9.484  0.5299 -0.0140 -0.4928
 5208SOL    HW227261   0.946   3.876   9.544 -0.6428  1.0524  1.5404
 5209SOL     OW27262   3.292   0.131   5.079 -0.0649 -0.3715  0.2589
 5209SOL    HW127263   3.291   0.049   5.128 -1.3970 -0.5824 -0.1053
 5209SOL    HW227264   3.239   0.099   5.006  0.2113  3.2160 -1.4911
 5210SOL     OW27265   1.436   1.097   7.337 -1.5026 -0.2894  0.1373
 5210SOL    HW127266   1.479   1.110   7.252 -0.5025  1.0028  0.8499
 5210SOL    HW227267   1.442   1.188   7.366  1.3177 -0.7449  0.9726
 5211SOL     OW27268   4.696   2.349   8.506 -0.3005 -0.2645  0.7650
 5211SOL    HW127269   4.732   2.281   8.563 -0.2560 -1.4845 -0.7204
 5211SOL    HW227270   0.022   2.359   8.435 -0.6085  0.0870  0.5403
 5212SOL     OW27271   2.536   2.392   3.002  0.0706 -0.2629  0.0193
 5212SOL    HW127272   2.463   2.331   2.992  2.0671 -2.4199 -1.3058
 5212SOL    HW227273   2.588   2.368   2.926  0.5930  0.7832  0.0393
 5213SOL     OW27274   0.177   1.528   6.286 -0.0142 -0.3686 -0.0284
 5213SOL    HW127275   0.209   1.588   6.219 -0.1651 -2.1730 -1.7175
 5213SOL    HW227276   0.261   1.496   6.319 -0.0626 -2.1554 -1.6303
 5214SOL     OW27277   2.278   1.629   6.143  0.0009  0.0920  0.1077
 5214SOL    HW127278   2.265   1.606   6.051 -2.0975 -1.9115  0.8922
 5214SOL    HW227279   2.364   1.593   6.161  0.3059  0.6256 -0.2755
 5215SOL     OW27280   3.881   0.706  15.902 -0.0929  0.1899  0.0512
 5215SOL    HW127281   3.852   0.632  15.955 -3.4426 -0.1003 -2.2077
 5215SOL    HW227282   3.927   0.750  15.974  1.8691 -0.4071 -0.8355
 5216SOL     OW27283   4.734   4.249   6.305  0.6584 -0.1130  0.2245
 5216SOL    HW127284   0.008   4.336   6.345 -0.2313  0.0877  0.0198
 5216SOL    HW227285   0.038   4.179   6.356 -1.8758 -1.5516  0.2876
 5217SOL     OW27286   2.836   4.622   7.691 -0.2425 -0.1375  0.0110
 5217SOL    HW127287   2.902   4.680   7.653  0.5550 -1.9223 -1.2952
 5217SOL    HW227288   2.797   4.561   7.629 -0.5049 -0.1512  0.1856
 5218SOL     OW27289   4.383   2.923   3.063 -0.4837 -0.5073 -0.0001
 5218SOL    HW127290   4.405   2.989   2.998 -1.4823  0.4182  0.6168
 5218SOL    HW227291   4.435   2.965   3.131  1.5867 -3.5416  0.3027
 5219SOL     OW27292   0.830   2.893   5.233 -0.2121 -0.3507 -0.0547
 5219SOL    HW127293   0.897   2.902   5.166  0.4510 -0.7446  0.5447
 5219SOL    HW227294   0.867   2.969   5.278 -0.7961  0.4939 -1.0247
 5220SOL     OW27295   4.361   4.717   6.592 -0.0386 -0.5847 -0.5674
 5220SOL    HW127296   4.398   4.634   6.562  0.7579 -1.2982  2.4003
 5220SOL    HW227297   4.267   4.699   6.592  0.0747 -1.1709 -0.6644
 5221SOL     OW27298   2.542   3.682   5.031  0.6198 -0.3690 -0.1213
 5221SOL    HW127299   2.634   3.668   5.055  0.5861  0.7350  0.6078
 5221SOL    HW227300   2.551   3.771   4.997 -0.3216 -0.1943  0.0900
 5222SOL     OW27301   1.521   4.567  11.918  0.2088  1.0034  0.3352
 5222SOL    HW127302   1.534   4.533  12.007  0.8395  0.9774  0.2361
 5222SOL    HW227303   1.535   4.661  11.932  0.2391  0.9071  0.9496
 5223SOL     OW27304   0.198   4.639   7.700  0.1366 -0.3079 -0.5055
 5223SOL    HW127305   0.282   4.612   7.737 -0.2479 -1.0553 -0.1624
 5223SOL    HW227306   0.163   4.691   7.772  1.2239  0.7685 -0.7624
 5224SOL     OW27307   4.024   0.897   5.795 -0.4257  0.2119  0.1761
 5224SOL    HW127308   3.951   0.877   5.736  0.3688  0.0481 -0.7649
 5224SOL    HW227309   4.047   0.989   5.777  2.3834 -0.1265  2.0492
 5225SOL     OW27310   3.908   4.516   5.651 -0.1213 -0.1366 -0.3813
 5225SOL    HW127311   3.845   4.587   5.664 -0.0857 -0.3499  0.8992
 5225SOL    HW227312   3.968   4.520   5.725  1.9926 -2.2206 -1.9813
 5226SOL     OW27313   3.382   0.629   6.857  0.5803  0.3834  0.1947
 5226SOL    HW127314   3.318   0.567   6.890  0.9072 -0.2601 -0.3782
 5226SOL    HW227315   3.373   0.701   6.919 -0.1111  0.3641  0.1090
 5227SOL     OW27316   4.598   0.334   3.586 -0.0927 -0.5951 -0.0851
 5227SOL    HW127317   4.531   0.388   3.628 -1.7509 -0.8163 -2.4594
 5227SOL    HW227318   4.626   0.387   3.511 -1.2782 -0.8671 -0.7177
 5228SOL     OW27319   2.822   0.881  11.643 -0.4245  0.7783  0.3699
 5228SOL    HW127320   2.899   0.827  11.660 -0.4897  0.9754  1.3240
 5228SOL    HW227321   2.784   0.894  11.730 -1.5839 -1.0678  0.1310
 5229SOL     OW27322   4.442   0.121   3.494  0.7881  0.2958 -0.5899
 5229SOL    HW127323   4.502   0.180   3.539  1.8760 -1.2368 -0.0033
 5229SOL    HW227324   4.366   0.124   3.553  0.5703 -0.6601 -0.8247
 5230SOL     OW27325   3.008   4.712   9.668  0.5147 -0.0944  0.3803
 5230SOL    HW127326   3.031   4.690   9.758  0.6874 -1.2840  0.0455
 5230SOL    HW227327   2.994   0.070   9.675 -1.6652 -0.3682 -0.1440
 5231SOL     OW27328   1.462   3.964   5.606  0.7758  0.2219  0.6636
 5231SOL    HW127329   1.533   4.023   5.583 -0.7714  1.9114  0.1980
 5231SOL    HW227330   1.384   3.990   5.556  0.4960  0.7263  1.3599
 5232SOL     OW27331   0.335   1.485   6.586  0.8462  0.3450 -0.1051
 5232SOL    HW127332   0.247   1.447   6.591  1.1194 -0.3502 -0.5953
 5232SOL    HW227333   0.354   1.450   6.499 -0.4702  1.6024 -0.9056
 5233SOL     OW27334   2.107   1.880  14.892  0.8233 -0.5461 -0.1346
 5233SOL    HW127335   2.036   1.943  14.882  1.3792  0.5665  2.9405
 5233SOL    HW227336   2.170   1.924  14.948  1.3318 -2.3277  0.7129
 5234SOL     OW27337   2.414   2.539   6.283 -0.2358 -0.6255 -0.2239
 5234SOL    HW127338   2.349   2.474   6.313  0.0114 -1.6015 -1.8396
 5234SOL    HW227339   2.470   2.541   6.361  0.8655  0.4269 -1.0541
 5235SOL     OW27340   4.190   1.804   5.260  0.0835  0.1091  0.4450
 5235SOL    HW127341   4.139   1.875   5.223  2.4975  1.7003  0.1894
 5235SOL    HW227342   4.192   1.738   5.191  0.6810  0.1552  0.4199
 5236SOL     OW27343   3.859   0.102   4.692 -0.5836  0.3160  0.3656
 5236SOL    HW127344   3.902   0.165   4.634 -0.2533 -0.9466 -0.7499
 5236SOL    HW227345   3.827   0.164   4.757  1.7229 -0.9486  2.6809
 5237SOL     OW27346   2.638   1.231  12.568  0.1134  0.1283 -0.2628
 5237SOL    HW127347   2.725   1.237  12.606  0.3241 -1.1352 -0.5443
 5237SOL    HW227348   2.598   1.305  12.615  0.0907  0.1971 -0.3907
 5238SOL     OW27349   0.045   1.586  12.626  0.1232  0.0183  0.0432
 5238SOL    HW127350   4.715   1.632  12.575 -1.4149 -1.4303  0.7431
 5238SOL    HW227351   4.726   1.542  12.691  0.8358  0.4466  0.9390
 5239SOL     OW27352   4.386   2.113  10.032  0.2187  0.2640 -0.1473
 5239SOL    HW127353   4.328   2.146  10.101 -1.4627  0.3150 -1.5960
 5239SOL    HW227354   4.320   2.066   9.982  0.5046  0.8481 -1.0689
 5240SOL     OW27355   3.804   0.932  13.310 -0.2179  0.5999  0.6187
 5240SOL    HW127356   3.729   0.915  13.367 -0.2483 -3.4459 -0.6344
 5240SOL    HW227357   3.808   0.844  13.273 -0.7610  0.9358 -0.2396
 5241SOL     OW27358   0.262   2.408   7.986  0.3534 -0.0453 -0.7387
 5241SOL    HW127359   0.261   2.433   7.894 -0.3722 -0.0839 -0.7424
 5241SOL    HW227360   0.338   2.350   7.984  0.0473 -0.4966  0.7649
 5242SOL     OW27361   3.373   0.164   3.416 -0.8121  0.5125 -0.1882
 5242SOL    HW127362   3.450   0.181   3.471 -1.1239  0.7171  0.1863
 5242SOL    HW227363   3.336   0.252   3.420  1.3228  1.3094  2.2899
 5243SOL     OW27364   2.261   2.454   4.869  0.2906  0.1541 -0.1867
 5243SOL    HW127365   2.282   2.515   4.798 -1.0073 -1.8015 -2.2345
 5243SOL    HW227366   2.254   2.366   4.832  0.6828  0.5359 -1.1606
 5244SOL     OW27367   0.203   1.387  11.952 -0.6250  1.0563  0.2511
 5244SOL    HW127368   0.205   1.403  12.046 -1.5861 -1.4997  0.6752
 5244SOL    HW227369   0.234   1.297  11.942 -0.5237  1.2340 -1.1265
 5245SOL     OW27370   2.536   3.383  16.270  0.3985 -0.6728 -0.2737
 5245SOL    HW127371   2.477   3.404  16.342  0.4403 -1.5241  0.0161
 5245SOL    HW227372   2.621   3.406  16.309 -0.2230  1.8718 -0.4650
 5246SOL     OW27373   1.744   3.323   3.204 -0.2109  0.5053  0.1919
 5246SOL    HW127374   1.806   3.294   3.271  0.4205  0.0332 -0.6082
 5246SOL    HW227375   1.716   3.409   3.237 -0.0042  0.7715 -0.3350
 5247SOL     OW27376   3.887   1.039  10.606 -0.5648  0.2601  0.0120
 5247SOL    HW127377   3.844   1.125  10.606 -1.5790 -0.2395 -0.8794
 5247SOL    HW227378   3.945   1.051  10.681  1.0008 -2.4901 -0.7413
 5248SOL     OW27379   0.318   3.171  10.869  0.7933 -0.3400 -0.1301
 5248SOL    HW127380   0.297   3.093  10.919  1.1945 -1.0946 -1.1315
 5248SOL    HW227381   0.404   3.179  10.910  0.8221  2.2285 -0.6999
 5249SOL     OW27382   3.859   3.452   3.342  0.2223 -0.2359  0.1409
 5249SOL    HW127383   3.863   3.516   3.271 -0.2995 -0.9473 -0.5334
 5249SOL    HW227384   3.920   3.485   3.407 -0.4356  0.5716  0.3548
 5250SOL     OW27385   3.626   3.121   6.889 -0.4794 -0.0514  0.0316
 5250SOL    HW127386   3.649   3.029   6.873  1.6200  0.1869  1.6554
 5250SOL    HW227387   3.691   3.149   6.953  1.8423 -1.3240 -1.7253
 5251SOL     OW27388   0.496   3.337   5.473 -0.2806  0.1151 -0.0970
 5251SOL    HW127389   0.528   3.326   5.383 -2.8298  1.5020 -1.1736
 5251SOL    HW227390   0.405   3.308   5.466  0.6486 -2.2030 -2.2770
 5252SOL     OW27391   0.240   0.246  10.926  0.0570 -0.8887  0.4388
 5252SOL    HW127392   0.308   0.213  10.984  0.5796 -0.3395  0.1382
 5252SOL    HW227393   0.264   0.338  10.920 -1.4306 -0.5956 -0.9973
 5253SOL     OW27394   0.941   2.656   7.937  0.2402 -0.1449  0.1976
 5253SOL    HW127395   0.939   2.700   8.022 -0.6779 -0.0725  0.1363
 5253SOL    HW227396   0.864   2.600   7.935  0.4477 -0.5245  2.6836
 5254SOL     OW27397   1.632   0.722  16.184  0.3266 -0.4469 -0.2729
 5254SOL    HW127398   1.661   0.631  16.191  1.3822  0.0321  1.7088
 5254SOL    HW227399   1.648   0.744  16.276  1.4563  0.1376 -0.6036
 5255SOL     OW27400   4.519   0.889   6.330  0.6227  0.3888  0.3987
 5255SOL    HW127401   4.591   0.890   6.393  1.5283 -1.1577 -0.5875
 5255SOL    HW227402   4.540   0.973   6.291 -3.2417  0.4039 -1.6257
 5256SOL     OW27403   3.281   2.168   8.375  0.1749  0.8955  0.1730
 5256SOL    HW127404   3.274   2.077   8.404  3.2858  0.5230 -0.2616
 5256SOL    HW227405   3.347   2.150   8.307  0.5823 -2.0864  1.3584
 5257SOL     OW27406   2.839   3.923  11.561 -0.3109  0.3872  0.5420
 5257SOL    HW127407   2.863   4.008  11.523  1.0512 -0.0474  0.4212
 5257SOL    HW227408   2.925   3.889  11.587 -1.3483 -1.2769  1.7757
 5258SOL     OW27409   0.689   0.342  16.195  0.2638  0.3479  0.6435
 5258SOL    HW127410   0.764   0.397  16.219 -0.1101  1.2363 -0.1751
 5258SOL    HW227411   0.630   0.352  16.269 -0.7730  0.9560 -0.2579
 5259SOL     OW27412   2.357   0.215   6.743  0.0360  0.1372  0.5936
 5259SOL    HW127413   2.428   0.166   6.784  0.4320  0.3880  0.2058
 5259SOL    HW227414   2.382   0.213   6.651  0.4933 -3.2365  0.8076
 5260SOL     OW27415   2.965   2.682   8.447  0.1811  0.2586  0.4915
 5260SOL    HW127416   2.978   2.633   8.529  1.6561 -0.5099 -0.1898
 5260SOL    HW227417   2.883   2.723   8.473 -0.2635 -0.1476 -0.2722
 5261SOL     OW27418   1.302   1.667   3.354 -0.2436 -0.0553 -0.4500
 5261SOL    HW127419   1.286   1.642   3.445  1.4665  0.5225  0.0138
 5261SOL    HW227420   1.254   1.750   3.345  0.4171  0.4257  0.5133
 5262SOL     OW27421   2.159   0.552   0.617 -0.6036  0.1261 -0.1418
 5262SOL    HW127422   2.163   0.541   0.522  2.7276  0.8288 -0.0936
 5262SOL    HW227423   2.130   0.643   0.622  0.7510  0.4893  1.1148
 5263SOL     OW27424   4.708   3.027  17.027 -0.2381 -0.2988  0.4729
 5263SOL    HW127425   0.047   3.033  16.969  1.7202 -0.8711  2.9556
 5263SOL    HW227426   4.661   3.107  17.002  0.3890 -1.4605 -4.4891
 5264SOL     OW27427   2.940   4.054   2.859 -0.2668 -0.4325 -0.4982
 5264SOL    HW127428   3.033   4.076   2.869 -0.0499 -0.7666 -1.8085
 5264SOL    HW227429   2.898   4.140   2.859  0.4418 -0.0874  0.7009
 5265SOL     OW27430   1.408   3.432  12.406 -0.0418  0.3103 -0.5934
 5265SOL    HW127431   1.483   3.454  12.350  0.9801 -1.4824  0.0718
 5265SOL    HW227432   1.436   3.361  12.464 -1.2777  0.3629  0.0598
 5266SOL     OW27433   0.055   4.482  12.050  0.1820  0.2672 -0.0508
 5266SOL    HW127434   4.718   4.522  12.003 -0.3343 -1.0922 -0.4163
 5266SOL    HW227435   0.135   4.517  12.011 -0.7714  1.8942 -0.5313
 5267SOL     OW27436   3.489   2.454  14.577 -0.4591 -0.1285  0.2084
 5267SOL    HW127437   3.501   2.483  14.668  3.4432 -0.9080 -0.0518
 5267SOL    HW227438   3.556   2.386  14.571 -0.8910 -0.7149  2.0173
 5268SOL     OW27439   0.228   2.317  11.995  0.3300  0.3183  0.2887
 5268SOL    HW127440   0.192   2.367  12.068 -0.6874  1.4106 -0.9704
 5268SOL    HW227441   0.160   2.306  11.929 -0.1093  3.0718  0.3071
 5269SOL     OW27442   2.206   3.005  17.363  0.1412 -0.1913 -0.2062
 5269SOL    HW127443   2.219   2.933  17.301 -2.0993 -1.3476  0.6815
 5269SOL    HW227444   2.292   3.048  17.355  0.4473 -0.9847 -1.2497
 5270SOL     OW27445   0.937   4.417   0.231  0.0199  0.5192  0.3185
 5270SOL    HW127446   1.021   4.458   0.252 -0.1998  1.6051 -0.9820
 5270SOL    HW227447   0.905   4.419   0.322  2.8664 -0.7369  1.3648
 5271SOL     OW27448   2.851   0.349   4.623  0.0020  0.3864 -0.1101
 5271SOL    HW127449   2.841   0.372   4.530  0.2284 -1.5243 -0.6063
 5271SOL    HW227450   2.824   0.257   4.616 -1.1904  0.5206  2.7605
 5272SOL     OW27451   0.333   0.169   5.801  0.0223  0.1140  0.2973
 5272SOL    HW127452   0.246   0.190   5.767 -0.1377 -0.2008  0.5046
 5272SOL    HW227453   0.316   0.113   5.876 -0.0495  1.5278  1.3287
 5273SOL     OW27454   4.476   0.042  10.078  0.0044 -0.3162 -0.3412
 5273SOL    HW127455   4.468   4.693  10.035  1.2334  0.0583 -1.3046
 5273SOL    HW227456   4.386   0.073  10.070 -0.5467 -0.7506  3.8230
 5274SOL     OW27457   2.880   0.154  17.491  0.7877 -0.0646 -0.1694
 5274SOL    HW127458   2.952   0.128  17.548  1.7718 -0.2348 -1.4822
 5274SOL    HW227459   2.901   0.089  17.424 -0.7425  1.6127 -2.2933
 5275SOL     OW27460   2.134   4.201   7.691  0.0250  0.3563 -0.5496
 5275SOL    HW127461   2.137   4.151   7.610 -2.5419  0.1048 -0.4965
 5275SOL    HW227462   2.054   4.253   7.684 -0.8397 -1.0302 -1.0602
 5276SOL     OW27463   1.587   0.248   4.912 -0.0421  0.3171  0.0012
 5276SOL    HW127464   1.632   0.239   4.829 -0.3675  1.1664 -0.2693
 5276SOL    HW227465   1.538   0.329   4.899 -0.3295  0.5641  2.5134
 5277SOL     OW27466   3.295   1.385   9.063 -0.5992 -0.1134  0.7899
 5277SOL    HW127467   3.229   1.354   9.001 -0.7057  0.3896  0.6511
 5277SOL    HW227468   3.244   1.404   9.142  0.3902  1.4763  1.0542
 5278SOL     OW27469   0.314   3.382  17.423 -0.3418  0.0553 -0.0739
 5278SOL    HW127470   0.235   3.334  17.450  0.0494 -0.3232  0.4060
 5278SOL    HW227471   0.347   3.427  17.501 -0.5802 -2.3976  1.4666
 5279SOL     OW27472   3.673   3.473   4.176 -0.1155  0.0001 -0.0028
 5279SOL    HW127473   3.708   3.477   4.087  3.9680 -1.6988  1.5195
 5279SOL    HW227474   3.583   3.442   4.168 -0.3941  0.7895  0.0335
 5280SOL     OW27475   4.275   2.027   6.355  0.3763  0.0854 -0.1375
 5280SOL    HW127476   4.260   2.085   6.280 -1.0280 -0.8062 -0.5435
 5280SOL    HW227477   4.300   2.099   6.412  2.1524 -0.6397 -0.0053
 5281SOL     OW27478   2.077   0.902   0.028  0.9352  0.1269  0.1122
 5281SOL    HW127479   1.986   0.927   0.045  0.7293 -1.3331  1.2227
 5281SOL    HW227480   2.114   0.911   0.116 -0.8573  0.6860  0.8201
 5282SOL     OW27481   4.271   3.853   8.254 -0.6053  0.1160  0.0985
 5282SOL    HW127482   4.250   3.894   8.338 -0.6928 -0.8760  0.5594
 5282SOL    HW227483   4.341   3.794   8.282  0.9629  2.1390  0.3898
 5283SOL     OW27484   3.869   3.186   4.163 -0.8964 -0.4287 -0.6227
 5283SOL    HW127485   3.868   3.206   4.070  3.4647  2.0388 -0.1433
 5283SOL    HW227486   3.780   3.150   4.174 -0.8984 -0.0167  0.7078
 5284SOL     OW27487   2.141   1.856   5.317  0.1990  0.2470  0.7558
 5284SOL    HW127488   2.062   1.813   5.353 -0.5044  0.8611 -0.0542
 5284SOL    HW227489   2.187   1.772   5.319 -2.1419 -1.1075 -2.1093
 5285SOL     OW27490   1.100   4.047   2.332  0.1823 -0.7027  0.0148
 5285SOL    HW127491   1.132   3.970   2.285 -1.9759 -1.3934 -0.2921
 5285SOL    HW227492   1.028   4.059   2.270  0.8019 -1.3164 -0.8249
 5286SOL     OW27493   2.516   0.980   0.824  0.5863  0.5123  0.2430
 5286SOL    HW127494   2.445   1.044   0.825  1.7674  1.7923  2.1960
 5286SOL    HW227495   2.537   0.974   0.731 -0.8325 -5.0377  0.2788
 5287SOL     OW27496   0.376   4.379   3.419 -0.2719  0.2298 -0.5134
 5287SOL    HW127497   0.422   4.425   3.489 -1.4420 -1.4573  1.3424
 5287SOL    HW227498   0.449   4.355   3.362  0.3214  2.9099 -0.8922
 5288SOL     OW27499   0.987   3.949  15.885 -0.1399  0.1759 -0.5167
 5288SOL    HW127500   0.919   3.956  15.819 -1.3668  1.9780  0.9339
 5288SOL    HW227501   1.006   4.041  15.902 -0.6168  0.0210  0.8692
 5289SOL     OW27502   3.009   4.336   1.212  0.3550  0.1212  0.6713
 5289SOL    HW127503   3.063   4.411   1.187 -1.9267  0.6773 -2.5524
 5289SOL    HW227504   3.072   4.265   1.204  2.1864  1.7592  0.5248
 5290SOL     OW27505   1.847   1.676   8.727 -0.6373 -0.2249  0.1678
 5290SOL    HW127506   1.862   1.768   8.705 -0.0141 -0.9475 -2.4071
 5290SOL    HW227507   1.757   1.674   8.694 -0.5940 -1.1940  0.1130
 5291SOL     OW27508   1.546   1.550   6.115 -0.0924  0.6316 -0.0777
 5291SOL    HW127509   1.514   1.571   6.028 -0.7529 -0.5943 -0.1247
 5291SOL    HW227510   1.503   1.621   6.163 -2.4157 -0.8893  0.0828
 5292SOL     OW27511   4.664   0.346  12.228 -0.0074  0.2591  0.2703
 5292SOL    HW127512   4.699   0.257  12.225  0.4622  0.4052  1.3698
 5292SOL    HW227513   4.573   0.336  12.199  0.3585 -0.9759 -0.4587
 5293SOL     OW27514   1.424   1.794   5.621  0.2677  0.7982  0.7289
 5293SOL    HW127515   1.329   1.803   5.625  0.2753 -0.1057  2.9233
 5293SOL    HW227516   1.444   1.842   5.540 -0.4408 -0.0810  0.0339
 5294SOL     OW27517   1.869   3.990   6.003  0.2825  0.0141 -0.0611
 5294SOL    HW127518   1.921   4.054   5.955  2.2931 -2.6037 -1.3272
 5294SOL    HW227519   1.853   3.925   5.935  0.6304  0.1113 -0.2375
 5295SOL     OW27520   3.197   2.987   3.129  0.0148 -0.1710 -0.3191
 5295SOL    HW127521   3.108   2.995   3.162  0.7121 -0.2440  1.5582
 5295SOL    HW227522   3.247   2.925   3.182 -0.3169 -0.4089 -0.2887
 5296SOL     OW27523   0.571   3.101  14.832 -0.0849  0.0974 -0.2685
 5296SOL    HW127524   0.626   3.058  14.897 -3.8961 -1.1335  2.1487
 5296SOL    HW227525   0.612   3.077  14.749 -2.6339 -2.1953 -0.8553
 5297SOL     OW27526   1.600   2.675  13.472  0.0991  0.1805 -0.1233
 5297SOL    HW127527   1.547   2.754  13.482 -0.2226 -0.0763  0.1609
 5297SOL    HW227528   1.588   2.656  13.379  1.0316  0.8542 -0.3864
 5298SOL     OW27529   4.228   3.520   3.704 -0.3773  0.2773 -0.8114
 5298SOL    HW127530   4.262   3.492   3.789 -1.6040  2.9440  0.5627
 5298SOL    HW227531   4.279   3.601   3.698  4.8921 -2.8554  0.9968
 5299SOL     OW27532   2.668   3.836   3.211 -0.5241  0.6055 -0.0170
 5299SOL    HW127533   2.587   3.815   3.257  2.1910 -2.5318  3.3164
 5299SOL    HW227534   2.706   3.904   3.266 -0.3248 -1.3689  2.3006
 5300SOL     OW27535   1.770   1.705   6.101 -0.4674  0.1005  0.5159
 5300SOL    HW127536   1.723   1.651   6.165 -0.3332 -1.8978 -1.0823
 5300SOL    HW227537   1.765   1.651   6.022 -0.7417  1.3178 -0.3091
 5301SOL     OW27538   0.548   3.367  12.443  0.0262 -1.0598 -0.1535
 5301SOL    HW127539   0.462   3.354  12.404 -0.6354  0.9176  0.6643
 5301SOL    HW227540   0.517   3.395  12.529 -0.9392  0.9219 -1.1481
 5302SOL     OW27541   4.501   1.198   8.246  0.0060 -0.2597 -0.3826
 5302SOL    HW127542   4.468   1.161   8.164 -0.9283 -1.4373  0.5228
 5302SOL    HW227543   4.419   1.207   8.293 -0.4510  0.5095 -1.3401
 5303SOL     OW27544   4.202   4.668   9.930  0.1388 -0.0379 -0.3137
 5303SOL    HW127545   4.274   4.623   9.887 -0.2425  0.0705 -1.0739
 5303SOL    HW227546   4.204   4.619  10.012 -1.9063  1.1658  0.4459
 5304SOL     OW27547   3.106   4.568   1.113  0.1893  0.3653  0.4780
 5304SOL    HW127548   3.170   4.539   1.048  1.2991  1.5157  1.0616
 5304SOL    HW227549   3.165   4.588   1.186  1.7542  1.2835 -1.0518
 5305SOL     OW27550   0.997   0.317   9.018  0.2515  0.0558 -0.1108
 5305SOL    HW127551   1.046   0.382   8.968  0.1959 -0.3734 -0.7218
 5305SOL    HW227552   0.954   0.383   9.073 -1.8885 -1.6335  0.2231
 5306SOL     OW27553   3.467   4.279   2.089 -0.0638  0.0008 -0.4825
 5306SOL    HW127554   3.444   4.225   2.165 -0.2950 -0.4262 -0.8536
 5306SOL    HW227555   3.375   4.279   2.061  0.1207  0.0037 -1.0664
 5307SOL     OW27556   1.595   4.665  12.559  0.1852  0.0245  0.1552
 5307SOL    HW127557   1.548   4.605  12.618 -2.7825 -0.4768 -2.6783
 5307SOL    HW227558   1.644   4.594  12.517 -1.1189 -1.8029  1.7093
 5308SOL     OW27559   1.724   1.802   5.718  0.0633  0.0815  0.6987
 5308SOL    HW127560   1.663   1.826   5.649  0.0721 -0.5633  0.4639
 5308SOL    HW227561   1.808   1.799   5.671  0.3900 -0.0707  1.2850
 5309SOL     OW27562   0.932   1.711   7.199 -0.7733 -0.1642 -0.1785
 5309SOL    HW127563   0.983   1.683   7.275 -2.7743  0.1919  1.2952
 5309SOL    HW227564   0.971   1.797   7.180 -0.6185 -0.0766  0.5491
 5310SOL     OW27565   0.617   1.926   1.189  0.0693  0.9750 -0.4393
 5310SOL    HW127566   0.573   1.914   1.273 -0.1688 -0.0288 -0.7078
 5310SOL    HW227567   0.546   1.952   1.130  0.7767  2.2958 -0.7264
 5311SOL     OW27568   2.736   1.111   7.206 -0.4616 -0.5860  0.1821
 5311SOL    HW127569   2.800   1.087   7.273 -0.0281  3.0233  1.0632
 5311SOL    HW227570   2.764   1.199   7.180  1.6351 -0.8176  1.6332
 5312SOL     OW27571   3.941   0.256   2.328  0.0398 -0.5386  0.0847
 5312SOL    HW127572   3.894   0.334   2.357 -0.6382 -0.4483 -1.2396
 5312SOL    HW227573   3.874   0.205   2.282  0.8284 -0.5493 -1.0459
 5313SOL     OW27574   3.128   4.284   3.536  0.5101 -0.7304 -0.4098
 5313SOL    HW127575   3.143   4.301   3.443 -1.7770 -0.8947 -0.7932
 5313SOL    HW227576   3.205   4.229   3.556  0.2881 -1.1996 -0.8302
 5314SOL     OW27577   2.902   0.083   5.655  0.1588 -0.5470 -0.0881
 5314SOL    HW127578   2.974   0.124   5.704  0.8349 -2.7447  0.8017
 5314SOL    HW227579   2.944   0.018   5.598 -1.8908 -0.7877 -1.2944
 5315SOL     OW27580   4.153   2.102  14.631  0.3038 -0.0341  0.0420
 5315SOL    HW127581   4.155   2.006  14.625 -0.8481 -0.1647  1.7496
 5315SOL    HW227582   4.067   2.130  14.599  0.3232 -0.7369 -0.6324
 5316SOL     OW27583   3.731   4.579   2.606 -0.6614 -0.0672 -0.1814
 5316SOL    HW127584   3.701   4.666   2.634  0.1751  0.4391 -0.8945
 5316SOL    HW227585   3.812   4.601   2.561  0.1362  0.4105  1.4574
 5317SOL     OW27586   3.370   2.722  10.726 -0.8088  0.6731  0.0348
 5317SOL    HW127587   3.405   2.805  10.760 -0.0261  1.0208 -1.6319
 5317SOL    HW227588   3.398   2.730  10.635 -0.8374  0.4637  0.0079
 5318SOL     OW27589   2.382   3.427  14.465  0.0078 -0.4513 -0.5437
 5318SOL    HW127590   2.381   3.393  14.376 -3.0639 -1.1268 -0.2326
 5318SOL    HW227591   2.431   3.510  14.460  1.3806 -1.0922  2.0878
 5319SOL     OW27592   1.465   3.539   6.425 -0.2811  0.0696 -0.1125
 5319SOL    HW127593   1.430   3.589   6.351 -0.9447 -2.2140 -1.3294
 5319SOL    HW227594   1.551   3.516   6.390  0.2195  0.8946  0.5847
 5320SOL     OW27595   0.342   4.524  13.612  0.0554 -0.1590 -0.3582
 5320SOL    HW127596   0.273   4.480  13.562  0.5938  1.6377 -2.6893
 5320SOL    HW227597   0.376   4.598  13.562  1.1837 -0.2655  0.2463
 5321SOL     OW27598   4.033   1.007   4.219 -0.2339 -0.2220  0.2290
 5321SOL    HW127599   4.082   1.051   4.149  0.9604 -0.5797  0.8367
 5321SOL    HW227600   3.945   1.029   4.190  1.2257  1.5770 -2.8649
 5322SOL     OW27601   0.840   3.429   7.518 -0.6335  0.0328 -0.4565
 5322SOL    HW127602   0.814   3.435   7.610 -0.4260  2.4431 -0.5648
 5322SOL    HW227603   0.923   3.476   7.528 -2.2691  2.1144  3.2143
 5323SOL     OW27604   3.363   2.760   9.115 -0.2117 -0.2463  0.5070
 5323SOL    HW127605   3.427   2.772   9.045  0.6617 -0.4825  1.2517
 5323SOL    HW227606   3.390   2.675   9.150 -1.0920  0.2749  2.4303
 5324SOL     OW27607   0.703   2.036  12.080 -0.4206 -0.5014  0.2100
 5324SOL    HW127608   0.631   2.045  12.142 -0.0507 -0.4346  0.6299
 5324SOL    HW227609   0.779   2.056  12.135  0.0341 -0.6374 -0.3624
 5325SOL     OW27610   3.606   4.033  12.022  0.1035  0.4643 -0.1251
 5325SOL    HW127611   3.603   3.946  11.982 -1.5728 -0.1869  1.4140
 5325SOL    HW227612   3.637   4.003  12.108 -0.8193 -0.9654 -0.2872
 5326SOL     OW27613   0.432   1.513   4.223  0.0122 -0.6827  0.6302
 5326SOL    HW127614   0.391   1.436   4.262  0.8028 -2.0650 -1.2341
 5326SOL    HW227615   0.502   1.476   4.168  0.5554  1.6575 -0.2527
 5327SOL     OW27616   2.997   0.491   1.021  0.0243 -0.2733 -0.0164
 5327SOL    HW127617   2.914   0.494   1.069  0.2480 -1.5925  0.4523
 5327SOL    HW227618   3.017   0.397   1.020 -1.9422 -0.6883 -1.2005
 5328SOL     OW27619   2.790   4.673  11.931  0.1817 -0.3868  0.0406
 5328SOL    HW127620   2.758   4.682  12.021  0.3345  1.5849 -0.0994
 5328SOL    HW227621   2.845   0.014  11.929  1.3690 -1.2410 -0.1944
 5329SOL     OW27622   0.815   2.699   1.104 -0.1598 -0.7762 -0.2758
 5329SOL    HW127623   0.882   2.726   1.041  0.0079  0.0649  0.2629
 5329SOL    HW227624   0.755   2.774   1.107  0.5266 -0.1632 -1.8424
 5330SOL     OW27625   3.501   1.064   5.447 -0.2194 -0.0542  0.0377
 5330SOL    HW127626   3.587   1.033   5.420 -0.7335 -0.9970 -0.4946
 5330SOL    HW227627   3.442   0.995   5.419 -0.1352  0.7890 -2.1895
 5331SOL     OW27628   0.083   1.437   4.848 -0.2281 -0.4026 -0.1785
 5331SOL    HW127629   0.096   1.413   4.756 -0.0202  1.4006 -0.6140
 5331SOL    HW227630   0.164   1.485   4.861  0.4242 -1.5615  0.0146
 5332SOL     OW27631   0.423   3.113   3.791 -0.1020  0.1436  0.5237
 5332SOL    HW127632   0.353   3.049   3.808  0.8478 -0.8932  0.5445
 5332SOL    HW227633   0.427   3.171   3.867 -1.4687 -1.1248  1.5617
 5333SOL     OW27634   1.519   3.246   5.752  0.6983  0.1954 -0.1436
 5333SOL    HW127635   1.597   3.260   5.698  0.3856 -0.5831 -0.7870
 5333SOL    HW227636   1.528   3.154   5.777 -1.4309  0.0428  0.0645
 5334SOL     OW27637   2.056   1.675   2.745 -0.1718  0.5619 -0.4989
 5334SOL    HW127638   2.138   1.641   2.710  0.0587 -0.1024  0.6634
 5334SOL    HW227639   2.012   1.593   2.772  1.1295  0.0344  0.0174
 5335SOL     OW27640   2.760   0.069   8.486  0.7222 -0.0755 -0.4629
 5335SOL    HW127641   2.681   0.088   8.435 -0.4555 -2.1446  0.5667
 5335SOL    HW227642   2.752   4.711   8.501  2.8405 -0.8235 -4.0216
 5336SOL     OW27643   1.656   3.778   6.699  0.1110  0.8433  0.0581
 5336SOL    HW127644   1.656   3.818   6.786 -0.6577 -0.9418  0.8727
 5336SOL    HW227645   1.659   3.685   6.721 -3.6123  0.7222  0.1263
 5337SOL     OW27646   4.525   1.180   5.972  0.2915  0.1717  0.1161
 5337SOL    HW127647   4.510   1.156   6.064  1.4133 -1.0162 -0.0143
 5337SOL    HW227648   4.488   1.268   5.973 -3.2480 -1.3351  0.9364
 5338SOL     OW27649   3.449   3.887   7.663 -0.4848  0.5146  0.1718
 5338SOL    HW127650   3.471   3.900   7.755  1.1012  0.6644 -0.2338
 5338SOL    HW227651   3.358   3.858   7.671  0.3297 -1.9713  0.3375
 5339SOL     OW27652   4.601   1.072   2.022  0.5200  0.0106 -0.4375
 5339SOL    HW127653   4.576   1.154   2.066  0.3490 -1.4590  2.1824
 5339SOL    HW227654   4.694   1.079   2.043  0.7290 -0.6724 -1.1489
 5340SOL     OW27655   0.510   0.164   0.239  0.5201 -0.1946 -0.1028
 5340SOL    HW127656   0.461   0.191   0.317  0.3531  1.5119 -0.7903
 5340SOL    HW227657   0.591   0.214   0.249  0.3103 -0.1640  1.4627
 5341SOL     OW27658   2.860   0.884   4.613 -0.4192 -0.1160 -0.5075
 5341SOL    HW127659   2.804   0.824   4.564 -0.3631  0.6009 -1.4516
 5341SOL    HW227660   2.946   0.844   4.602  0.3289  1.3613 -0.0471
 5342SOL     OW27661   3.854   0.344  11.450 -0.1217 -0.3620  0.7018
 5342SOL    HW127662   3.907   0.271  11.419 -1.7869 -0.8606 -0.9670
 5342SOL    HW227663   3.815   0.294  11.522 -2.1688  0.4279  0.1537
 5343SOL     OW27664   1.011   3.286  11.573  0.0974 -0.3691  0.2123
 5343SOL    HW127665   1.103   3.262  11.562  0.9647  2.6864  0.7740
 5343SOL    HW227666   1.003   3.324  11.485  0.8374 -0.8388 -0.0509
 5344SOL     OW27667   2.045   0.914   9.198  0.2407 -0.0398 -0.4580
 5344SOL    HW127668   2.033   0.835   9.250 -3.5288  1.3775  0.8265
 5344SOL    HW227669   1.965   0.965   9.211  0.2926 -0.3551  1.1329
 5345SOL     OW27670   3.175   0.770   8.363 -0.4792 -0.0001  0.2471
 5345SOL    HW127671   3.221   0.845   8.401  0.7489 -1.4494  1.6928
 5345SOL    HW227672   3.111   0.748   8.431  0.7463  2.6820  2.2652
 5346SOL     OW27673   1.772   1.444   2.654  0.7483  0.0898 -0.1073
 5346SOL    HW127674   1.722   1.525   2.671  1.3258  0.7822 -1.7138
 5346SOL    HW227675   1.771   1.398   2.738 -1.8619  0.8147  0.2722
 5347SOL     OW27676   0.264   1.901   8.294  0.0665 -0.5009 -0.2849
 5347SOL    HW127677   0.243   1.970   8.357 -1.1323 -0.1600 -1.0733
 5347SOL    HW227678   0.234   1.939   8.211  0.7268  0.6447  0.0011
 5348SOL     OW27679   2.319   1.101   8.832  0.3024 -0.3809 -0.2921
 5348SOL    HW127680   2.375   1.155   8.887  0.8656 -0.0805 -1.1514
 5348SOL    HW227681   2.286   1.177   8.785 -0.2191 -1.0683 -1.0561
 5349SOL     OW27682   1.971   3.386  11.910  0.3818  0.1079  0.1516
 5349SOL    HW127683   1.934   3.457  11.857  1.4554 -0.5524 -1.4847
 5349SOL    HW227684   1.932   3.409  11.994  0.0640  1.3945 -0.3506
 5350SOL     OW27685   3.302   2.823   2.884 -0.0610  0.0279 -0.2984
 5350SOL    HW127686   3.236   2.867   2.939  1.3783  1.1582  0.5104
 5350SOL    HW227687   3.310   2.746   2.939 -2.5938  1.6224  2.3624
 5351SOL     OW27688   3.903   4.430   6.151  0.5855  0.4062  0.3116
 5351SOL    HW127689   3.860   4.404   6.232 -1.5221  1.2589 -0.5140
 5351SOL    HW227690   3.977   4.463   6.202 -0.3368  0.4276  1.6250
 5352SOL     OW27691   3.807   1.512   9.529 -0.5157  0.2726  0.1336
 5352SOL    HW127692   3.726   1.464   9.541  0.0732 -0.2453  2.0700
 5352SOL    HW227693   3.840   1.479   9.445 -1.9880  1.4268 -0.9103
 5353SOL     OW27694   3.068   0.727   1.512 -0.4893  0.4875  0.0904
 5353SOL    HW127695   2.990   0.677   1.538  0.5719 -1.2493 -0.0570
 5353SOL    HW227696   3.073   0.708   1.418 -1.5372  2.7244 -0.4249
 5354SOL     OW27697   1.759   4.324   9.596 -0.0010 -0.1286  0.2435
 5354SOL    HW127698   1.724   4.357   9.513 -0.8622 -2.0334 -0.1542
 5354SOL    HW227699   1.722   4.236   9.594  0.2829 -0.2517  0.4092
 5355SOL     OW27700   4.701   2.034   6.059 -0.3082 -0.1372  0.4012
 5355SOL    HW127701   4.710   2.102   5.993  0.7518 -0.1875  0.4950
 5355SOL    HW227702   0.052   1.996   6.066  0.3422  1.0384 -1.3920
 5356SOL     OW27703   0.955   0.853   5.814  0.6732  0.3758  0.3487
 5356SOL    HW127704   0.906   0.858   5.732  1.0506 -2.7317 -0.0731
 5356SOL    HW227705   1.035   0.896   5.785  0.3589  0.1910 -0.8051
 5357SOL     OW27706   0.452   2.009  10.429 -0.6485 -0.2652 -0.0244
 5357SOL    HW127707   0.495   1.991  10.345 -2.6342 -0.9314 -0.9049
 5357SOL    HW227708   0.365   2.042  10.406 -1.6192 -2.4436  0.4910
 5358SOL     OW27709   1.114   0.580   7.880  0.6194 -0.3772 -0.2684
 5358SOL    HW127710   1.114   0.620   7.966 -0.2516 -0.0930 -0.4066
 5358SOL    HW227711   1.072   0.645   7.824 -1.7078 -1.2058  0.5495
 5359SOL     OW27712   2.576   0.396   9.545 -0.1234  0.1421  0.2110
 5359SOL    HW127713   2.513   0.324   9.547  0.4752 -0.3155  1.8474
 5359SOL    HW227714   2.661   0.352   9.536  0.0040  0.4272 -0.0207
 5360SOL     OW27715   4.126   4.377  16.550  0.3121 -0.6662 -0.8582
 5360SOL    HW127716   4.192   4.378  16.619 -1.1626 -1.6054  0.5730
 5360SOL    HW227717   4.054   4.336  16.597  0.4187  0.2785  0.1404
 5361SOL     OW27718   2.559   1.288  11.079 -0.3105  0.5397  0.3995
 5361SOL    HW127719   2.568   1.353  11.009 -1.3366  0.8536  0.5675
 5361SOL    HW227720   2.483   1.329  11.119 -1.2992 -0.7278 -0.1665
 5362SOL     OW27721   1.901   2.522   6.306  1.0058  0.2656 -0.0871
 5362SOL    HW127722   1.814   2.502   6.342  0.6031  0.0537 -1.1601
 5362SOL    HW227723   1.896   2.618   6.307 -1.6304  0.1683 -1.4428
 5363SOL     OW27724   3.452   0.866   7.057  0.2805  0.1507 -0.2509
 5363SOL    HW127725   3.516   0.935   7.039 -0.5818  0.9602 -0.2244
 5363SOL    HW227726   3.484   0.831   7.141 -0.0376 -2.2993 -1.1392
 5364SOL     OW27727   3.255   2.380  14.974  0.1136  0.2616  0.1625
 5364SOL    HW127728   3.238   2.337  14.890 -0.7468 -0.0833  0.5175
 5364SOL    HW227729   3.214   2.463  14.952 -0.6622 -0.3692 -0.7785
 5365SOL     OW27730   4.073   4.671   3.189 -0.0492 -0.1254  0.4249
 5365SOL    HW127731   4.056   4.733   3.118 -0.2261 -0.4235  0.2038
 5365SOL    HW227732   4.074   4.718   3.272  0.0994  0.0986  0.2963
 5366SOL     OW27733   2.743   3.508   4.123 -0.1392  0.0334 -0.0456
 5366SOL    HW127734   2.791   3.459   4.057 -1.1606 -1.3681  0.2424
 5366SOL    HW227735   2.741   3.438   4.189  0.0555  3.5527  3.7039
 5367SOL     OW27736   3.679   2.299   8.456  0.1753  0.5365  0.2871
 5367SOL    HW127737   3.627   2.272   8.532  0.1563  2.0641  0.8203
 5367SOL    HW227738   3.617   2.359   8.415 -1.2970 -0.1611  1.4552
 5368SOL     OW27739   1.687   3.893  13.572  0.7405 -0.2249 -0.2336
 5368SOL    HW127740   1.621   3.840  13.616  0.4044  0.4751  0.1066
 5368SOL    HW227741   1.773   3.860  13.600  1.2392  1.6056  0.4121
 5369SOL     OW27742   0.569   1.986   8.904 -0.2868 -0.6917 -0.1646
 5369SOL    HW127743   0.496   1.958   8.959 -0.5669  0.1827 -0.0879
 5369SOL    HW227744   0.641   1.993   8.967 -0.5908  1.2884 -0.0410
 5370SOL     OW27745   3.273   0.009   7.169  0.2502  0.2144  0.1126
 5370SOL    HW127746   3.365   0.033   7.176  0.5701 -1.1307  0.5452
 5370SOL    HW227747   3.278   4.651   7.153 -0.8080 -0.4582  3.6474
 5371SOL     OW27748   2.534   1.006   7.893  0.0698  0.4933  0.3699
 5371SOL    HW127749   2.463   1.042   7.840 -1.0690 -1.2788  0.7140
 5371SOL    HW227750   2.609   1.023   7.836  0.0924 -0.8047  0.0334
 5372SOL     OW27751   4.531   2.513  10.258 -0.1925  0.1656 -0.4101
 5372SOL    HW127752   4.535   2.538  10.165  1.4411  0.2657 -0.3181
 5372SOL    HW227753   4.624   2.522  10.279 -0.4721  0.6505  0.6057
 5373SOL     OW27754   0.706   0.208  13.011  0.2758  0.1467  0.5798
 5373SOL    HW127755   0.757   0.272  13.062  1.1532  2.3017 -3.0096
 5373SOL    HW227756   0.756   0.127  13.023  0.2165  0.2869  1.7374
 5374SOL     OW27757   4.085   3.002  13.045 -0.2531 -0.4862 -0.1246
 5374SOL    HW127758   4.027   3.044  12.982 -0.5413 -0.4685  0.1501
 5374SOL    HW227759   4.029   3.010  13.122 -1.5337 -1.5928 -0.9449
 5375SOL     OW27760   1.872   0.667   2.054  0.0681 -0.2094 -0.0386
 5375SOL    HW127761   1.859   0.705   1.968 -2.7719  2.2992  1.5041
 5375SOL    HW227762   1.963   0.693   2.068 -0.7657  1.6752  1.8628
 5376SOL     OW27763   1.207   1.291   0.039  0.0054 -0.0351 -0.2241
 5376SOL    HW127764   1.261   1.225  17.740 -0.8037  0.0409 -1.3581
 5376SOL    HW227765   1.134   1.245   0.080  0.3384 -0.1004  0.2829
 5377SOL     OW27766   4.646   3.624   6.486 -0.2551  0.8900 -0.4194
 5377SOL    HW127767   4.579   3.689   6.506 -0.8981 -0.1807  0.9288
 5377SOL    HW227768   4.696   3.656   6.411 -0.4662  3.9752  0.7683
 5378SOL     OW27769   1.767   0.746   5.599  0.4725  0.0706  0.9305
 5378SOL    HW127770   1.789   0.654   5.583 -1.7814 -0.1534 -0.9529
 5378SOL    HW227771   1.834   0.795   5.551  0.1310  1.3996  1.8090
 5379SOL     OW27772   1.400   3.481   5.622 -0.1096  0.4445 -0.6000
 5379SOL    HW127773   1.453   3.489   5.702 -1.0801  2.0835 -0.1257
 5379SOL    HW227774   1.459   3.434   5.564  0.0268 -1.4579  1.0924
 5380SOL     OW27775   2.226   2.844   7.887  0.0267 -0.2573  0.6086
 5380SOL    HW127776   2.163   2.774   7.876 -1.1408  1.2187 -1.9920
 5380SOL    HW227777   2.283   2.807   7.955 -1.0016 -1.1544  0.9896
 5381SOL     OW27778   1.053   4.000  15.028 -0.3868  0.5957  0.2206
 5381SOL    HW127779   0.976   4.008  15.084 -1.2141  0.1859 -0.8366
 5381SOL    HW227780   1.024   3.919  14.985 -1.2767  0.4117  1.1694
 5382SOL     OW27781   2.821   0.841   0.532 -0.1512  0.0573  0.0167
 5382SOL    HW127782   2.897   0.854   0.588  0.8992 -0.3931 -1.3029
 5382SOL    HW227783   2.806   0.748   0.514 -2.4959  0.5161 -0.5002
 5383SOL     OW27784   0.353   2.319   4.045 -0.1030  0.4332 -0.0951
 5383SOL    HW127785   0.323   2.403   4.079 -1.6206 -0.3018  0.4057
 5383SOL    HW227786   0.300   2.323   3.966 -1.8753  1.1117  1.1230
 5384SOL     OW27787   4.622   0.602   2.249 -0.0764 -0.1461  0.6216
 5384SOL    HW127788   4.558   0.609   2.179 -0.1313 -1.0005  0.5859
 5384SOL    HW227789   4.692   0.551   2.207  0.2139 -0.3356  1.3312
 5385SOL     OW27790   1.109   2.850   8.554  0.1336 -0.0088  0.2527
 5385SOL    HW127791   1.036   2.793   8.531 -0.1183  1.2587 -2.0667
 5385SOL    HW227792   1.098   2.845   8.649  1.4801 -0.1352  0.4100
 5386SOL     OW27793   0.244   4.121   8.066 -0.1235 -0.1813  0.6501
 5386SOL    HW127794   0.331   4.094   8.095  0.7942  1.2618 -0.7390
 5386SOL    HW227795   0.225   4.193   8.126  0.7875  0.7068 -0.1317
 5387SOL     OW27796   2.239   2.444   5.446 -0.6535  0.4568 -0.3794
 5387SOL    HW127797   2.161   2.401   5.412  0.6116 -1.0757 -1.3562
 5387SOL    HW227798   2.291   2.368   5.474  0.1125  1.2433  0.3305
 5388SOL     OW27799   1.765   4.072  16.458 -0.5874  0.1646  0.3091
 5388SOL    HW127800   1.758   4.151  16.405 -0.2134  0.1788  0.2749
 5388SOL    HW227801   1.798   4.013  16.390  1.5730  0.0911  1.4074
 5389SOL     OW27802   3.321   0.805   2.186 -0.1704  0.3124 -0.2703
 5389SOL    HW127803   3.363   0.880   2.144  0.7331 -0.2833 -0.4155
 5389SOL    HW227804   3.283   0.767   2.107 -0.6357  0.7803 -0.2729
 5390SOL     OW27805   2.365   3.729   6.110  0.0805  0.0861 -0.1314
 5390SOL    HW127806   2.321   3.694   6.188 -1.0703  3.5192  0.7440
 5390SOL    HW227807   2.375   3.822   6.129  0.4444  0.1118 -0.4486
 5391SOL     OW27808   2.860   0.581   4.743  0.1595  0.1614  0.0413
 5391SOL    HW127809   2.832   0.520   4.675  1.3331  0.5312 -0.7690
 5391SOL    HW227810   2.775   0.618   4.765  0.7223  1.5683 -0.1470
 5392SOL     OW27811   2.653   2.560   8.493 -0.0043 -0.0958  0.4200
 5392SOL    HW127812   2.660   2.496   8.564 -1.1819 -1.1044 -0.3720
 5392SOL    HW227813   2.676   2.642   8.536  1.8156  0.3372 -1.3624
 5393SOL     OW27814   4.037   1.437   6.579  0.2284 -0.2745  0.1451
 5393SOL    HW127815   4.070   1.394   6.500 -1.5881 -0.2537 -0.6214
 5393SOL    HW227816   4.118   1.479   6.607  0.4865 -0.9579  0.4101
 5394SOL     OW27817   2.161   4.426   5.649  0.1219 -0.1190 -0.3071
 5394SOL    HW127818   2.235   4.398   5.595  3.4123  0.8475  3.6936
 5394SOL    HW227819   2.192   4.388   5.731  0.8017  0.9292 -0.0702
 5395SOL     OW27820   4.406   3.942   7.000  0.4980 -0.3756 -0.4448
 5395SOL    HW127821   4.444   3.858   7.025  1.9388  0.3999 -0.0122
 5395SOL    HW227822   4.469   4.007   7.030 -1.2293  0.8154  0.6116
 5396SOL     OW27823   4.661   2.848   2.154  0.1085  0.2897  0.4992
 5396SOL    HW127824   0.006   2.839   2.203  0.8248  1.0784 -0.5503
 5396SOL    HW227825   4.674   2.804   2.070 -1.5743 -0.7039  0.7632
 5397SOL     OW27826   4.513   2.805   1.734 -0.3020  0.8007 -0.0045
 5397SOL    HW127827   4.449   2.792   1.664 -0.9225 -1.8425  1.0349
 5397SOL    HW227828   4.544   2.895   1.725  0.7853  0.4659  0.3485
 5398SOL     OW27829   1.559   0.531   4.710  0.0985 -0.2870 -0.2823
 5398SOL    HW127830   1.596   0.614   4.739 -0.5869  0.1849 -0.7668
 5398SOL    HW227831   1.616   0.519   4.634  0.6636 -1.8792  0.3859
 5399SOL     OW27832   4.150   4.541  17.048  0.4284 -0.3020  0.6815
 5399SOL    HW127833   4.066   4.551  17.093 -1.7518 -3.2094 -2.8110
 5399SOL    HW227834   4.157   4.446  17.056  0.4611 -0.4384 -1.0653
 5400SOL     OW27835   0.907   2.976   4.054  0.7446  0.3463  0.0249
 5400SOL    HW127836   0.955   3.043   4.007 -0.5576  0.2030 -1.5134
 5400SOL    HW227837   0.976   2.925   4.096 -0.0797 -1.3791 -0.7222
 5401SOL     OW27838   2.817   4.046   5.140 -0.0252  0.3807 -0.1583
 5401SOL    HW127839   2.894   4.030   5.086 -0.2941  0.1633 -0.4852
 5401SOL    HW227840   2.769   4.114   5.093  2.4142  0.8403 -1.9616
 5402SOL     OW27841   0.514   0.986   8.722  0.0274 -0.4200  0.4400
 5402SOL    HW127842   0.467   0.926   8.779  3.4593 -1.7151  1.9257
 5402SOL    HW227843   0.581   1.024   8.779 -0.6526  0.2971  0.7504
 5403SOL     OW27844   0.525   0.313   3.524  0.1840 -0.7517  1.2059
 5403SOL    HW127845   0.521   0.360   3.608 -3.6503 -0.1470  0.6794
 5403SOL    HW227846   0.617   0.314   3.500 -0.2401  0.1093 -0.3843
 5404SOL     OW27847   1.231   3.503  12.590  0.1526  0.0279  0.0683
 5404SOL    HW127848   1.271   3.503  12.503  0.6841 -1.6571  0.3073
 5404SOL    HW227849   1.273   3.418  12.605 -0.0946 -0.1594 -0.3293
 5405SOL     OW27850   4.193   2.649   0.319 -0.1057  0.1438  0.2501
 5405SOL    HW127851   4.149   2.589   0.257  3.2297 -1.0585 -0.9331
 5405SOL    HW227852   4.187   2.605   0.404 -0.6146 -0.3601 -0.0364
 5406SOL     OW27853   4.195   4.736   4.055 -0.1288  0.4465  0.1514
 5406SOL    HW127854   4.133   0.070   4.036 -1.6106 -0.2792  2.4084
 5406SOL    HW227855   4.137   4.662   4.073 -1.2226  1.2383 -0.1319
 5407SOL     OW27856   1.513   0.749   4.158  0.2170 -0.2556  0.0447
 5407SOL    HW127857   1.483   0.703   4.079  0.2677  0.2249 -0.2544
 5407SOL    HW227858   1.528   0.835   4.119  0.8715 -0.8844 -1.0904
 5408SOL     OW27859   3.406   0.215  12.128 -0.0367  0.4961 -0.3646
 5408SOL    HW127860   3.418   0.181  12.217  0.2130  1.9948  0.1710
 5408SOL    HW227861   3.311   0.225  12.125 -0.0520  0.2408 -0.7837
 5409SOL     OW27862   1.300   0.955   7.042  0.1140  0.2031 -0.0584
 5409SOL    HW127863   1.364   0.895   7.002 -2.2941 -0.3027 -3.1922
 5409SOL    HW227864   1.215   0.936   7.002 -0.8558  2.2657  1.0350
 5410SOL     OW27865   2.393   4.535   1.978 -0.2061  0.4722  0.5596
 5410SOL    HW127866   2.407   4.454   2.027 -4.0692 -0.1767  0.6239
 5410SOL    HW227867   2.305   4.521   1.942  0.0677 -0.6019  0.3077
 5411SOL     OW27868   1.685   0.227   8.732  0.1082 -0.0010 -0.0896
 5411SOL    HW127869   1.645   0.144   8.759  0.3252  0.3284  1.2477
 5411SOL    HW227870   1.777   0.206   8.748 -0.0066  0.1414  0.7434
 5412SOL     OW27871   2.852   0.306   6.778 -0.4178 -0.2197 -0.3809
 5412SOL    HW127872   2.785   0.373   6.777 -1.7330 -1.5021  2.1456
 5412SOL    HW227873   2.865   0.276   6.868  1.3658  0.8566 -0.2745
 5413SOL     OW27874   2.707   0.866  14.169  0.2218 -0.5011  1.0341
 5413SOL    HW127875   2.648   0.936  14.142  0.0503 -0.1879  2.1968
 5413SOL    HW227876   2.682   0.805  14.099  2.6622  0.6606 -0.8419
 5414SOL     OW27877   0.013   1.840   5.213  0.2485  0.4065  0.4381
 5414SOL    HW127878   4.711   1.924   5.188 -0.9886 -0.5408 -0.8198
 5414SOL    HW227879   0.086   1.871   5.266 -0.6415  2.6630  0.3533
 5415SOL     OW27880   3.193   4.562   1.861  0.1341 -0.6772  0.2655
 5415SOL    HW127881   3.144   4.584   1.782 -0.9016  0.4082  1.1978
 5415SOL    HW227882   3.124   4.576   1.927  0.8145  0.5793  0.7075
 5416SOL     OW27883   2.308   2.283   2.887  0.3125  0.4920 -0.1244
 5416SOL    HW127884   2.353   2.322   2.813 -2.9622  4.8187  0.0997
 5416SOL    HW227885   2.232   2.342   2.892  0.8904  1.2153  0.1631
 5417SOL     OW27886   2.363   2.926   5.355  0.7463  0.0962 -0.4383
 5417SOL    HW127887   2.269   2.941   5.342  0.7996 -0.2356 -1.2397
 5417SOL    HW227888   2.370   2.830   5.354  0.9765  0.1102  0.6889
 5418SOL     OW27889   3.904   4.165  15.149 -0.8418  0.7807  0.0744
 5418SOL    HW127890   3.922   4.246  15.196 -0.2922  0.8929 -0.3230
 5418SOL    HW227891   3.985   4.115  15.164 -1.9061 -0.5247  1.4535
 5419SOL     OW27892   1.392   0.051   4.436  0.4684 -0.6813  0.0751
 5419SOL    HW127893   1.483   0.082   4.430  0.0036  0.6617 -0.0253
 5419SOL    HW227894   1.358   0.133   4.401  2.0688  1.3736  3.3547
 5420SOL     OW27895   3.228   4.119  14.729 -0.4871  0.6290  0.6862
 5420SOL    HW127896   3.140   4.123  14.691 -0.8537  0.7743  1.5625
 5420SOL    HW227897   3.255   4.207  14.754  1.7016  0.0141  0.5567
 5421SOL     OW27898   0.807   4.461   5.485  0.0702  0.4651 -0.5264
 5421SOL    HW127899   0.767   4.374   5.495 -1.1145  1.0822  0.0924
 5421SOL    HW227900   0.734   4.518   5.509  0.1218 -0.4814  1.8630
 5422SOL     OW27901   1.457   2.179  17.647  0.8554 -0.1378  0.3880
 5422SOL    HW127902   1.431   2.214  17.732 -0.5614 -1.3819  0.4670
 5422SOL    HW227903   1.509   2.257  17.627 -0.2724  0.4929 -0.0974
 5423SOL     OW27904   2.519   0.494  11.067 -0.2286 -0.0616 -0.5419
 5423SOL    HW127905   2.567   0.420  11.105  0.0806 -1.1250 -3.0080
 5423SOL    HW227906   2.481   0.525  11.149 -1.8796 -0.9362 -0.9773
 5424SOL     OW27907   0.058   1.409   6.658 -0.2362  0.0767 -0.2053
 5424SOL    HW127908   4.702   1.426   6.641 -0.7386 -0.7914  1.7237
 5424SOL    HW227909   0.070   1.320   6.623 -1.1110  0.2036 -0.8218
 5425SOL     OW27910   1.023   3.772   3.961  0.1264  0.3301 -0.0933
 5425SOL    HW127911   1.038   3.824   3.883  1.6197 -1.1696 -0.7903
 5425SOL    HW227912   0.941   3.811   3.992 -0.4915 -0.1924 -1.0720
 5426SOL     OW27913   2.590   4.317   9.238 -0.0116 -0.1144  0.4683
 5426SOL    HW127914   2.628   4.402   9.260 -2.9219  0.9438  1.4558
 5426SOL    HW227915   2.599   4.268   9.320 -1.7673 -1.1690  0.0314
 5427SOL     OW27916   1.045   0.073   8.460  0.2238 -0.3475  0.3544
 5427SOL    HW127917   1.050   0.084   8.364  0.7419  0.6550  0.4896
 5427SOL    HW227918   1.010   4.721   8.463 -0.3888 -0.0604  1.6045
 5428SOL     OW27919   0.143   0.438  16.674  0.1040 -0.2775  0.1131
 5428SOL    HW127920   0.123   0.518  16.723  1.0426  0.2035 -0.3066
 5428SOL    HW227921   0.163   0.470  16.587 -2.0445 -0.1354 -0.3308
 5429SOL     OW27922   4.046   4.148  14.179  0.3503 -0.0994  0.3734
 5429SOL    HW127923   3.988   4.156  14.254 -1.8229  1.0857 -1.4007
 5429SOL    HW227924   3.995   4.165  14.099 -0.0156  0.1265  0.6554
 5430SOL     OW27925   3.912   4.393   7.975  0.2396  0.3710 -0.1833
 5430SOL    HW127926   3.929   4.470   8.029 -1.0055 -0.2851  1.1571
 5430SOL    HW227927   3.968   4.406   7.899  1.0389  0.5491  0.4388
 5431SOL     OW27928   0.586   4.197   5.220  0.0785 -0.1198 -0.6634
 5431SOL    HW127929   0.566   4.271   5.277  0.1057 -0.3298 -0.3807
 5431SOL    HW227930   0.531   4.128   5.259  1.9077 -1.1559  0.0861
 5432SOL     OW27931   1.745   0.748   6.199 -0.2188  0.2050 -0.4694
 5432SOL    HW127932   1.835   0.723   6.221  0.3983  2.1845 -0.7848
 5432SOL    HW227933   1.711   0.782   6.282 -2.7662  0.9263 -1.8191
 5433SOL     OW27934   0.856   2.109   8.918 -0.2086  0.0375 -0.0218
 5433SOL    HW127935   0.937   2.102   8.867 -0.3648  0.1992 -0.2942
 5433SOL    HW227936   0.817   2.189   8.882  2.0051  1.3912  0.5464
 5434SOL     OW27937   3.617   4.042   6.100  0.1288 -0.0107  0.0084
 5434SOL    HW127938   3.684   4.089   6.049 -1.2569  1.3506 -0.5415
 5434SOL    HW227939   3.676   3.994   6.158 -1.1224 -0.9449  0.5010
 5435SOL     OW27940   2.918   0.590   9.493 -0.0111 -0.5586 -0.1655
 5435SOL    HW127941   2.889   0.582   9.403 -0.7824 -1.0398  0.1280
 5435SOL    HW227942   2.885   0.679   9.507  1.5649  0.1298 -0.8402
 5436SOL     OW27943   4.643   0.821   2.935 -0.4561 -0.4383  0.0093
 5436SOL    HW127944   4.664   0.732   2.965  1.1570  0.4681  1.6067
 5436SOL    HW227945   4.554   0.819   2.968 -0.6328 -1.4219 -0.5180
 5437SOL     OW27946   1.749   4.732  12.788 -0.7062  0.3128 -0.1934
 5437SOL    HW127947   1.830   0.029  12.749 -0.1764  0.1828  0.7937
 5437SOL    HW227948   1.701   4.708  12.709 -1.2420  1.8729 -0.3383
 5438SOL     OW27949   4.579   1.024   2.567  0.1676  0.0385 -0.5000
 5438SOL    HW127950   4.562   0.966   2.493 -2.1032  0.1087 -0.0232
 5438SOL    HW227951   4.646   0.981   2.620  1.6191  1.4261 -1.1888
 5439SOL     OW27952   4.306   2.318   4.664  0.2653  0.1972 -0.1495
 5439SOL    HW127953   4.401   2.317   4.652  0.3942 -0.3999  1.0224
 5439SOL    HW227954   4.276   2.360   4.583 -0.7942  1.1828  0.7623
 5440SOL     OW27955   3.196   1.966   6.726 -0.1789 -0.2627  0.2493
 5440SOL    HW127956   3.151   2.013   6.655  0.0481  2.0284  1.6216
 5440SOL    HW227957   3.286   1.997   6.715 -0.3170 -0.4560 -1.5598
 5441SOL     OW27958   1.449   1.370  11.043  0.1402  0.4901 -0.3223
 5441SOL    HW127959   1.511   1.403  11.108  0.5467 -0.7205 -0.0855
 5441SOL    HW227960   1.439   1.278  11.071 -0.3750  0.6179 -0.0796
 5442SOL     OW27961   1.216   1.940   3.314 -0.1170 -0.0389 -0.0280
 5442SOL    HW127962   1.209   1.924   3.408 -2.1533 -1.4654 -0.4123
 5442SOL    HW227963   1.207   2.035   3.312  0.9784  0.0813  1.4231
 5443SOL     OW27964   2.117   0.765   4.794  0.5376 -0.1961 -0.0762
 5443SOL    HW127965   2.022   0.769   4.781  0.5071  0.1488  0.2225
 5443SOL    HW227966   2.152   0.732   4.712 -0.1231  1.6829 -1.1151
 5444SOL     OW27967   3.192   0.167   8.982 -0.0134  0.2140 -0.7183
 5444SOL    HW127968   3.171   0.079   9.013 -1.2520  0.6298 -0.3767
 5444SOL    HW227969   3.280   0.141   8.954 -1.0374 -4.5943  0.5727
 5445SOL     OW27970   3.984   1.889   4.628  0.4234  0.8490  0.1191
 5445SOL    HW127971   4.070   1.858   4.600  0.5450  0.3194  1.0485
 5445SOL    HW227972   3.963   1.936   4.548 -1.6729  0.1576  0.2805
 5446SOL     OW27973   1.340   4.723   6.357  0.0698  0.1595  0.4866
 5446SOL    HW127974   1.249   4.706   6.333  0.0690 -1.0874  1.3438
 5446SOL    HW227975   1.362   0.068   6.312 -1.9288  1.4351  1.8314
 5447SOL     OW27976   2.983   2.928   4.923 -0.2064  0.5832  0.1602
 5447SOL    HW127977   2.906   2.886   4.960  1.2368 -2.4394 -0.2517
 5447SOL    HW227978   3.055   2.876   4.960 -0.2496  2.0845  2.3608
 5448SOL     OW27979   1.725   4.082   8.493 -0.5604 -0.7470 -0.0239
 5448SOL    HW127980   1.655   4.098   8.557  0.5018  0.7057  0.7950
 5448SOL    HW227981   1.792   4.040   8.547  1.0728 -1.3953 -2.5570
 5449SOL     OW27982   2.490   3.878   5.270 -1.0156 -0.2867 -0.6264
 5449SOL    HW127983   2.426   3.949   5.259  0.5278  0.8889 -2.1980
 5449SOL    HW227984   2.521   3.861   5.181  1.1044  2.2283 -0.3775
 5450SOL     OW27985   0.408   1.855  15.717 -0.0847  0.0735 -0.9723
 5450SOL    HW127986   0.341   1.918  15.691  0.3148 -0.0827 -2.3456
 5450SOL    HW227987   0.478   1.872  15.654 -0.4888  1.2614 -1.0964
 5451SOL     OW27988   4.374   2.992   5.206 -0.1723  0.3626  0.0504
 5451SOL    HW127989   4.398   3.055   5.138  0.0096  0.7834  0.5036
 5451SOL    HW227990   4.281   2.974   5.194  0.0628 -0.7903 -0.0255
 5452SOL     OW27991   3.398   1.675  14.633 -0.4551  0.5491 -0.1982
 5452SOL    HW127992   3.408   1.581  14.647  1.8223  0.9157  0.7577
 5452SOL    HW227993   3.307   1.690  14.610 -0.3683  1.6312  0.1599
 5453SOL     OW27994   2.515   3.209   4.674  0.4752  0.3250 -0.0573
 5453SOL    HW127995   2.433   3.213   4.626  1.0178 -2.0688 -1.1678
 5453SOL    HW227996   2.554   3.289   4.639 -1.4814  1.0336 -0.6174
 5454SOL     OW27997   1.600   2.389   2.219  0.3213  0.2812 -0.0941
 5454SOL    HW127998   1.632   2.299   2.214 -0.5507 -0.0391  0.0310
 5454SOL    HW227999   1.505   2.380   2.211  0.1894  0.6909  0.9870
 5455SOL     OW28000   3.992   4.692  16.630 -0.0012 -0.8035 -0.0013
 5455SOL    HW128001   4.063   4.647  16.677  0.5977  0.4348  0.2823
 5455SOL    HW228002   4.029   4.720  16.547  1.2130  0.9024  1.1026
 5456SOL     OW28003   4.069   1.954  10.991 -0.3033 -0.5183  0.3018
 5456SOL    HW128004   4.107   1.876  10.951  1.0281  1.0500 -1.4854
 5456SOL    HW228005   3.978   1.925  10.999 -0.6963  0.1488 -1.7479
 5457SOL     OW28006   0.574   3.152   9.093  0.3359 -0.4908  0.1329
 5457SOL    HW128007   0.616   3.134   9.177  1.7600 -0.6220 -0.5982
 5457SOL    HW228008   0.650   3.136   9.036 -1.0346 -0.2228 -1.7726
 5458SOL     OW28009   3.723   2.689   7.682  0.4775  0.0394 -0.5545
 5458SOL    HW128010   3.683   2.629   7.745  1.8776 -0.6871 -0.3530
 5458SOL    HW228011   3.810   2.651   7.676 -0.0456 -0.9312 -2.0518
 5459SOL     OW28012   4.435   4.118   7.546  0.0270 -0.1959 -0.3465
 5459SOL    HW128013   4.504   4.090   7.607  0.5221  0.0444 -0.8001
 5459SOL    HW228014   4.418   4.043   7.489 -1.6654  0.6423 -0.9443
 5460SOL     OW28015   2.612   2.900   7.224  0.0532 -0.3669  0.2968
 5460SOL    HW128016   2.625   2.982   7.176  2.4559 -1.4907 -0.9895
 5460SOL    HW228017   2.683   2.920   7.285  0.3455  0.6641 -0.3779
 5461SOL     OW28018   4.036   4.148   1.748 -0.0497 -0.4481  0.1067
 5461SOL    HW128019   3.978   4.137   1.823 -1.3752 -0.4324 -0.9215
 5461SOL    HW228020   3.974   4.188   1.687 -1.2285  1.3087  2.4384
 5462SOL     OW28021   3.414   0.039   8.886 -0.5058 -0.1194 -0.4605
 5462SOL    HW128022   3.419   4.727   8.803  0.5017 -0.1394 -0.3839
 5462SOL    HW228023   3.506   0.050   8.910 -1.1799  0.8441  1.7061
 5463SOL     OW28024   4.548   3.235  12.409 -0.9454  0.1142  0.2302
 5463SOL    HW128025   4.476   3.234  12.345 -1.4878 -0.3865  0.8469
 5463SOL    HW228026   4.509   3.304  12.463 -0.9176  0.1594  0.1930
 5464SOL     OW28027   3.001   2.859   3.444  0.2812 -0.1611  0.2479
 5464SOL    HW128028   2.948   2.782   3.464 -0.1849 -0.0778 -0.6400
 5464SOL    HW228029   3.082   2.830   3.486 -0.8166 -3.4269  0.0360
 5465SOL     OW28030   2.715   2.166   5.151  0.4397 -0.4053 -0.2259
 5465SOL    HW128031   2.657   2.093   5.129 -1.0623  0.5105  0.6821
 5465SOL    HW228032   2.676   2.197   5.233  0.5686  0.2092 -0.3918
 5466SOL     OW28033   1.860   1.715  10.692 -0.3868 -0.1494 -0.5523
 5466SOL    HW128034   1.824   1.717  10.780  1.0302  0.0969  0.0338
 5466SOL    HW228035   1.838   1.802  10.660  0.3536  0.4135  0.4763
 5467SOL     OW28036   2.071   0.755  15.290 -0.0543  0.2165  0.3161
 5467SOL    HW128037   2.166   0.746  15.287 -0.2382 -1.7290  0.3187
 5467SOL    HW228038   2.050   0.697  15.216  1.4514  2.3244 -1.7527
 5468SOL     OW28039   3.573   0.181   3.883  0.3697 -0.2498  0.8276
 5468SOL    HW128040   3.513   0.111   3.860 -1.1731  0.6567  2.1253
 5468SOL    HW228041   3.660   0.139   3.883 -0.3214 -1.6681  0.0734
 5469SOL     OW28042   3.826   0.035   3.818 -0.1526  0.3347 -0.9607
 5469SOL    HW128043   3.793   4.703   3.760 -2.2978 -1.7644  2.7423
 5469SOL    HW228044   3.886   4.718   3.869 -0.1543  2.5373  1.3664
 5470SOL     OW28045   2.718   1.843  12.092 -0.4765 -0.0873  0.1016
 5470SOL    HW128046   2.735   1.901  12.017 -2.9951  1.6632  0.8599
 5470SOL    HW228047   2.645   1.897  12.124 -0.0837 -0.5406  1.7457
 5471SOL     OW28048   4.182   1.122   9.379  0.2084 -0.0195 -0.0754
 5471SOL    HW128049   4.260   1.070   9.361  1.1809  1.9278 -1.5864
 5471SOL    HW228050   4.160   1.091   9.467 -1.2762 -2.1225 -1.1810
 5472SOL     OW28051   2.657   2.078   5.552 -0.1832 -0.3519  0.2169
 5472SOL    HW128052   2.665   2.168   5.520  1.2860 -0.2301  0.9451
 5472SOL    HW228053   2.585   2.086   5.615  0.1937 -0.9743  0.7327
 5473SOL     OW28054   4.626   3.300  11.058  0.2350  0.1829 -0.0412
 5473SOL    HW128055   4.720   3.281  11.065  0.7183  2.3608 -0.5439
 5473SOL    HW228056   4.602   3.233  11.122 -0.9892  0.0017 -0.6968
 5474SOL     OW28057   3.830   4.453   2.828 -0.4500  0.0439  0.3639
 5474SOL    HW128058   3.799   4.483   2.742 -1.5975  3.4145  1.9826
 5474SOL    HW228059   3.851   4.361   2.809  1.9667  0.4882  0.9226
 5475SOL     OW28060   2.703   0.839  17.674  0.3902 -0.2963 -0.6446
 5475SOL    HW128061   2.667   0.927  17.678 -3.2266 -1.6631 -2.3083
 5475SOL    HW228062   2.616   0.798  17.674 -0.8853  2.4499 -0.5973
 5476SOL     OW28063   3.860   1.059  15.724  0.5601  0.0979 -0.5192
 5476SOL    HW128064   3.819   1.083  15.806 -2.5889 -0.7406 -1.8367
 5476SOL    HW228065   3.828   1.128  15.666 -0.3732  0.6971  0.7181
 5477SOL     OW28066   4.516   4.114   3.141 -0.5119  0.5332  0.0402
 5477SOL    HW128067   4.529   4.106   3.235  1.9043 -1.8936 -0.4938
 5477SOL    HW228068   4.437   4.064   3.124 -1.0749  1.2706  0.5050
 5478SOL     OW28069   3.431   0.437   5.771  0.0445 -0.4442  0.0841
 5478SOL    HW128070   3.433   0.359   5.825 -1.0099  0.0556  0.8497
 5478SOL    HW228071   3.520   0.453   5.738  0.0400  0.7506  0.6595
 5479SOL     OW28072   3.682   3.031   9.369 -0.1880 -0.7001  0.0914
 5479SOL    HW128073   3.755   3.091   9.352 -0.9136  0.3379  0.6473
 5479SOL    HW228074   3.729   2.948   9.379 -1.2960 -1.5300 -1.6283
 5480SOL     OW28075   2.350   0.644  13.252  0.2760  0.2070  0.5004
 5480SOL    HW128076   2.358   0.663  13.346  2.0356  1.0239  0.1799
 5480SOL    HW228077   2.271   0.590  13.251  0.9348 -0.7537 -0.2739
 5481SOL     OW28078   3.108   3.971   0.198 -0.6542 -0.2354 -0.0011
 5481SOL    HW128079   3.044   3.917   0.151 -1.3886  0.2767  0.4016
 5481SOL    HW228080   3.149   3.906   0.255  0.5975  0.3260 -0.2586
 5482SOL     OW28081   1.461   2.099   9.814 -0.3513 -0.0644 -0.3169
 5482SOL    HW128082   1.368   2.092   9.792 -0.2183 -0.7114 -0.6777
 5482SOL    HW228083   1.466   2.174   9.873 -1.2338 -0.7764  0.6539
 5483SOL     OW28084   1.098   0.441   3.525  0.2402 -0.1862  0.0131
 5483SOL    HW128085   1.094   0.537   3.523 -2.3552 -0.3567 -2.4154
 5483SOL    HW228086   1.088   0.427   3.620  0.8341  2.1586  0.4243
 5484SOL     OW28087   0.277   2.662   1.815 -0.1019  0.2504  0.4111
 5484SOL    HW128088   0.293   2.583   1.762  0.0731  1.1833 -0.9231
 5484SOL    HW228089   0.254   2.721   1.743 -0.2950 -2.3062 -1.6418
 5485SOL     OW28090   3.001   4.683  16.060 -0.3635  0.7264  0.7683
 5485SOL    HW128091   2.951   4.612  16.101 -0.9692 -1.6459 -4.0224
 5485SOL    HW228092   3.028   4.657  15.972  1.8428 -0.6465  1.8440
 5486SOL     OW28093   0.999   2.588  10.494 -0.5439 -0.0468  0.5402
 5486SOL    HW128094   0.982   2.494  10.491 -0.5911 -0.0523  1.0077
 5486SOL    HW228095   1.001   2.595  10.589 -0.5203 -1.2899  0.6253
 5487SOL     OW28096   1.744   1.969   7.570  0.0141 -0.0611 -0.8829
 5487SOL    HW128097   1.814   1.985   7.633  0.9540 -0.0452 -1.9150
 5487SOL    HW228098   1.711   1.881   7.588 -0.0956  0.4329  1.2393
 5488SOL     OW28099   2.374   2.872  15.146  0.2173  0.1764 -0.3642
 5488SOL    HW128100   2.292   2.823  15.144  0.6339 -0.5479  0.4056
 5488SOL    HW228101   2.441   2.806  15.126 -0.5762 -0.3903 -1.1377
 5489SOL     OW28102   4.702   1.061   8.948 -0.5247 -0.4432  0.9000
 5489SOL    HW128103   4.682   1.140   8.999  0.7530  0.6501 -0.2915
 5489SOL    HW228104   4.637   1.058   8.878  1.2991 -2.2085 -0.6994
 5490SOL     OW28105   2.121   2.271   9.422 -0.1385  0.7602 -0.2924
 5490SOL    HW128106   2.204   2.241   9.459 -0.2962  1.5391  0.6976
 5490SOL    HW228107   2.117   2.209   9.349  1.9030 -1.3284  1.3322
 5491SOL     OW28108   1.122   1.880   2.511 -0.2791 -0.3465 -0.5944
 5491SOL    HW128109   1.060   1.807   2.515 -1.7530  1.1238  2.9673
 5491SOL    HW228110   1.181   1.842   2.445  2.9121  0.0611  2.0510
 5492SOL     OW28111   3.162   3.667   8.995 -0.2872 -0.0326  0.3990
 5492SOL    HW128112   3.185   3.678   9.087  0.1732  1.0884  0.1410
 5492SOL    HW228113   3.173   3.572   8.987 -0.1137  0.1135 -1.1912
 5493SOL     OW28114   3.462   3.633   4.815 -0.2890  0.7173  0.7025
 5493SOL    HW128115   3.556   3.618   4.824 -0.5996 -0.1717  2.5166
 5493SOL    HW228116   3.456   3.724   4.844  2.3121  1.6798 -1.7877
 5494SOL     OW28117   3.719   2.498  13.792  0.3241  0.0294 -0.4740
 5494SOL    HW128118   3.653   2.483  13.859  1.4128 -0.2058  0.5412
 5494SOL    HW228119   3.759   2.412  13.779  0.0718  0.2922 -3.1009
 5495SOL     OW28120   1.913   1.945   6.023 -0.0632  0.2268 -0.1854
 5495SOL    HW128121   1.921   1.986   6.110 -1.7536 -0.8382  0.4601
 5495SOL    HW228122   1.867   1.862   6.035 -0.4364  0.7495  2.0089
 5496SOL     OW28123   3.069   2.493   4.171 -0.5472 -0.1391  0.0460
 5496SOL    HW128124   3.075   2.477   4.265 -0.0220 -1.5195 -0.2188
 5496SOL    HW228125   2.975   2.479   4.161 -0.0891 -2.2314 -1.2697
 5497SOL     OW28126   3.489   1.527   9.433 -0.1503 -0.0528 -0.4885
 5497SOL    HW128127   3.522   1.504   9.520  0.5391  1.4465 -0.3378
 5497SOL    HW228128   3.412   1.577   9.461  0.1295  0.3495 -0.4267
 5498SOL     OW28129   3.177   0.571   2.784 -0.0871  0.0017 -0.1354
 5498SOL    HW128130   3.188   0.518   2.862 -0.7053 -0.0278 -0.0684
 5498SOL    HW228131   3.156   0.653   2.830 -1.4731 -1.2468  1.4267
 5499SOL     OW28132   3.941   2.224   0.353  0.0342  0.5013 -0.8499
 5499SOL    HW128133   3.866   2.262   0.307 -0.6419 -2.7349 -2.3565
 5499SOL    HW228134   3.916   2.252   0.441  0.8328 -0.6512 -0.2616
 5500SOL     OW28135   0.268   3.243  14.094  0.6970 -0.3593 -0.4551
 5500SOL    HW128136   0.267   3.188  14.172 -1.2598 -0.8201 -0.7852
 5500SOL    HW228137   0.360   3.267  14.098  0.4841  0.4739 -0.5131
 5501SOL     OW28138   3.598   3.582   2.275 -0.2199  0.9034 -0.1020
 5501SOL    HW128139   3.606   3.561   2.182  0.5278  0.2621  0.1093
 5501SOL    HW228140   3.550   3.502   2.299 -1.3295  1.9269  1.0811
 5502SOL     OW28141   1.229   3.116   6.696  0.3197 -0.2736  0.6193
 5502SOL    HW128142   1.148   3.150   6.734  0.4886  1.5982 -0.6987
 5502SOL    HW228143   1.211   3.117   6.602  0.0157  1.8739  0.6882
 5503SOL     OW28144   3.398   1.661   2.867  1.2680 -0.5930 -0.0235
 5503SOL    HW128145   3.450   1.623   2.796 -1.1250 -0.9560 -1.6127
 5503SOL    HW228146   3.464   1.649   2.935 -1.7186 -2.2781  2.5873
 5504SOL     OW28147   1.817   3.516   0.850  0.1399 -0.5784 -0.3224
 5504SOL    HW128148   1.739   3.490   0.801 -0.6046 -0.6160  0.8720
 5504SOL    HW228149   1.890   3.470   0.809  0.3387 -1.4812  1.0632
 5505SOL     OW28150   1.596   2.328   3.727  0.4294  0.1922  0.7391
 5505SOL    HW128151   1.517   2.362   3.686  1.2517 -1.5578 -2.2902
 5505SOL    HW228152   1.668   2.377   3.688  0.1100  0.8589  0.9987
 5506SOL     OW28153   0.324   1.129   7.480 -0.3266 -0.0093 -0.3943
 5506SOL    HW128154   0.314   1.080   7.398  1.3492 -0.3708 -0.3750
 5506SOL    HW228155   0.327   1.056   7.542  1.8689  0.6955  0.3392
 5507SOL     OW28156   4.129   0.852   6.303  0.1276 -0.0229  0.1891
 5507SOL    HW128157   4.139   0.943   6.332 -1.9750 -0.4108  2.1542
 5507SOL    HW228158   4.041   0.837   6.337 -0.3762  0.9651 -0.6708
 5508SOL     OW28159   2.559   0.892   6.128 -0.6842  0.1422  0.0371
 5508SOL    HW128160   2.573   0.820   6.189  0.7014 -0.4079 -0.9493
 5508SOL    HW228161   2.542   0.963   6.190  0.5775 -1.2395  1.9406
 5509SOL     OW28162   1.457   0.052  12.365 -0.4731  0.0442 -0.2130
 5509SOL    HW128163   1.461   0.138  12.407 -0.8776  0.9502 -2.0673
 5509SOL    HW228164   1.489   0.002  12.441  1.8738  3.1251  0.8588
 5510SOL     OW28165   0.677   1.467  10.662  0.1173  0.4485  0.1201
 5510SOL    HW128166   0.627   1.517  10.727 -1.2961  1.9073 -2.0845
 5510SOL    HW228167   0.752   1.431  10.709 -1.2418 -1.7863  0.5591
 5511SOL     OW28168   3.056   1.709   6.039  0.7297 -0.4623  0.3151
 5511SOL    HW128169   3.111   1.761   5.980 -0.2414  2.8492  2.3240
 5511SOL    HW228170   3.008   1.661   5.971  1.6056 -1.3753  0.3425
 5512SOL     OW28171   0.339   0.876   7.625 -0.3490 -0.2998  0.4524
 5512SOL    HW128172   0.322   0.938   7.696 -0.7504  2.1677 -1.8250
 5512SOL    HW228173   0.265   0.817   7.637  0.1321 -0.8563  0.7519
 5513SOL     OW28174   2.076   3.409   9.150  0.1693 -0.6646  0.5148
 5513SOL    HW128175   2.036   3.362   9.076 -1.2946  3.9168 -1.5551
 5513SOL    HW228176   2.168   3.412   9.124  0.6449  2.3730  2.6029
 5514SOL     OW28177   1.170   4.490   3.921 -0.0700  0.3843 -0.0274
 5514SOL    HW128178   1.209   4.553   3.982 -0.4421  1.2272 -0.6639
 5514SOL    HW228179   1.186   4.410   3.971  0.6735 -1.0471 -2.5746
 5515SOL     OW28180   3.058   2.389   6.973 -0.4692 -0.4035 -0.2360
 5515SOL    HW128181   2.972   2.417   6.943 -0.5765 -1.6779 -1.1408
 5515SOL    HW228182   3.088   2.467   7.019  0.2860  0.0640 -1.5374
 5516SOL     OW28183   4.182   3.814   2.619 -0.2425  0.4564  0.2381
 5516SOL    HW128184   4.200   3.744   2.557 -0.3861 -0.2300  0.9565
 5516SOL    HW228185   4.242   3.786   2.688 -0.6838  0.7546  0.7541
 5517SOL     OW28186   4.580   3.899   8.257 -0.3130 -0.1687 -0.1773
 5517SOL    HW128187   4.596   3.977   8.203 -0.3276 -0.3355 -0.4198
 5517SOL    HW228188   4.498   3.920   8.302 -0.4534 -0.8716 -0.1020
 5518SOL     OW28189   3.400   0.095   6.302  0.0573  0.0069 -0.1174
 5518SOL    HW128190   3.433   0.148   6.375  0.5430 -0.4133 -0.0303
 5518SOL    HW228191   3.307   0.114   6.318  0.6300  1.4158  1.5767
 5519SOL     OW28192   4.509   1.491   4.811 -0.2910  0.1894 -0.1460
 5519SOL    HW128193   4.540   1.410   4.850 -1.5848  0.1743  0.8321
 5519SOL    HW228194   4.550   1.558   4.866 -1.0346  0.7135 -0.2396
 5520SOL     OW28195   2.052   1.320   0.560 -0.9000 -0.2522  0.1031
 5520SOL    HW128196   2.071   1.241   0.510 -1.0212  0.5555 -1.2077
 5520SOL    HW228197   1.971   1.333   0.511 -1.1505 -1.6741  0.1485
 5521SOL     OW28198   2.442   2.135   2.524 -0.3876  0.8970 -0.8169
 5521SOL    HW128199   2.426   2.155   2.616  1.8617  0.4344 -0.3176
 5521SOL    HW228200   2.360   2.086   2.527 -0.1572  0.6175  0.9561
 5522SOL     OW28201   2.510   1.295   2.355  0.0139  0.9461 -0.5201
 5522SOL    HW128202   2.551   1.212   2.330 -0.0937  1.3554 -2.0114
 5522SOL    HW228203   2.417   1.275   2.367  0.0785 -0.4407 -2.3500
 5523SOL     OW28204   0.785   4.390  11.830  0.3825  0.5482  0.0197
 5523SOL    HW128205   0.836   4.316  11.798 -0.0564  0.1648  0.2038
 5523SOL    HW228206   0.781   4.451  11.755 -0.1979 -1.1626 -1.3334
 5524SOL     OW28207   2.933   2.461   2.827 -0.0979 -0.0400 -0.1036
 5524SOL    HW128208   3.015   2.412   2.831 -0.5550 -0.6599  1.4094
 5524SOL    HW228209   2.964   2.551   2.814  1.4769 -0.6972 -0.8839
 5525SOL     OW28210   0.533   1.447   8.752 -0.4303 -0.0277  0.1573
 5525SOL    HW128211   0.537   1.442   8.656  0.3493  0.4859  0.1595
 5525SOL    HW228212   0.440   1.469   8.761 -0.0344  1.8956 -0.2430
 5526SOL     OW28213   2.395   0.084   2.983 -0.5168 -0.0283  0.8430
 5526SOL    HW128214   2.395   0.128   2.898 -1.9057 -3.8669 -1.1406
 5526SOL    HW228215   2.359   4.734   2.961 -1.6853 -0.4068  4.1086
 5527SOL     OW28216   0.103   2.922   5.189 -0.4797  0.2883 -0.6502
 5527SOL    HW128217   0.162   2.939   5.263 -0.5521  0.0007 -0.5228
 5527SOL    HW228218   0.132   2.985   5.124 -2.9214 -1.1247 -3.0971
 5528SOL     OW28219   4.116   1.089   5.067 -0.1515 -0.1988 -0.3224
 5528SOL    HW128220   4.052   1.049   5.007  1.0425 -2.1147 -0.2908
 5528SOL    HW228221   4.088   1.060   5.153  1.1688 -2.0332 -0.5338
 5529SOL     OW28222   2.814   4.081   8.069  0.4701 -0.1974 -0.0532
 5529SOL    HW128223   2.870   4.040   8.003 -1.1752  1.2333 -2.3425
 5529SOL    HW228224   2.876   4.073   8.142  1.3888  2.9545 -0.4607
 5530SOL     OW28225   4.274   1.602   6.590 -0.4790 -0.0578  0.8655
 5530SOL    HW128226   4.303   1.644   6.509 -0.1753 -3.1335 -0.6248
 5530SOL    HW228227   4.249   1.678   6.642 -1.0303  0.9165 -0.8450
 5531SOL     OW28228   1.793   1.986   2.849 -0.2659  0.2404  0.1685
 5531SOL    HW128229   1.786   1.891   2.850 -1.4966  0.3438  1.1142
 5531SOL    HW228230   1.860   2.001   2.915 -0.3954  0.3977  0.2659
 5532SOL     OW28231   1.296   4.256   7.776 -0.1758  0.2720  0.4517
 5532SOL    HW128232   1.364   4.208   7.823  2.1737  1.8118 -1.4516
 5532SOL    HW228233   1.338   4.252   7.690 -1.4063 -0.3876 -0.1342
 5533SOL     OW28234   1.660   2.488  15.280  1.0668 -0.4674  0.2832
 5533SOL    HW128235   1.667   2.415  15.340  2.9293  0.3971  1.1215
 5533SOL    HW228236   1.603   2.452  15.212  1.7928  0.5279 -0.8556
 5534SOL     OW28237   4.144   0.455   4.061 -0.2777 -0.3322  0.4374
 5534SOL    HW128238   4.175   0.489   3.977 -2.3459  3.3825  1.1858
 5534SOL    HW228239   4.087   0.380   4.044 -3.1771  1.6984  1.1283
 5535SOL     OW28240   3.252   4.500   1.339  0.6673  0.5758  0.4696
 5535SOL    HW128241   3.249   4.572   1.402  1.5194  1.6613 -0.7357
 5535SOL    HW228242   3.225   4.426   1.394  1.0833 -0.9867 -1.4377
 5536SOL     OW28243   1.815   1.135  17.632  0.5332  0.4699 -0.3851
 5536SOL    HW128244   1.820   1.229  17.616  0.2084  0.6355  0.4986
 5536SOL    HW228245   1.721   1.122  17.619  0.2560  2.2964 -0.2307
 5537SOL     OW28246   3.230   2.987  12.247  0.8388 -0.0293 -0.4530
 5537SOL    HW128247   3.295   3.022  12.308 -2.2739  2.5039  1.3833
 5537SOL    HW228248   3.236   2.894  12.267  2.0763  0.5408  1.7537
 5538SOL     OW28249   1.077   1.823   4.128 -0.8638 -0.1673 -0.1862
 5538SOL    HW128250   1.089   1.817   4.222  0.7941  3.7297 -0.1547
 5538SOL    HW228251   0.985   1.796   4.125 -0.7140 -0.6544 -0.4572
 5539SOL     OW28252   1.024   3.116   0.673  0.4883 -0.3008  0.1194
 5539SOL    HW128253   1.078   3.102   0.751 -0.1001 -1.0296  0.3909
 5539SOL    HW228254   1.034   3.028   0.638 -0.6296  0.0914 -1.1717
 5540SOL     OW28255   3.716   4.385   5.943  0.2734 -0.1456 -0.0175
 5540SOL    HW128256   3.671   4.469   5.947 -0.2892 -0.5249  1.6354
 5540SOL    HW228257   3.779   4.387   6.015 -0.0471  3.0867  0.1519
 5541SOL     OW28258   4.449   3.203   3.373  0.0470  0.0842  0.0231
 5541SOL    HW128259   4.474   3.188   3.464 -1.4786  0.8568  0.5662
 5541SOL    HW228260   4.505   3.131   3.342  1.4290  0.9930  0.4092
 5542SOL     OW28261   4.487   2.551   8.538  0.1414  0.3107 -0.3711
 5542SOL    HW128262   4.521   2.604   8.466  0.4849 -0.9095 -1.1061
 5542SOL    HW228263   4.537   2.470   8.530  0.5307  0.3122  2.0645
 5543SOL     OW28264   1.982   3.644  16.519 -0.0713 -0.2728 -0.1373
 5543SOL    HW128265   1.976   3.650  16.614  3.0335  1.1347 -0.0555
 5543SOL    HW228266   2.073   3.618  16.513  0.1491  0.0865  1.7428
 5544SOL     OW28267   2.007   0.998  10.132  0.5336  0.5558  0.3428
 5544SOL    HW128268   1.917   0.990  10.162 -0.2466  0.1448 -2.1528
 5544SOL    HW228269   2.022   0.919  10.079 -0.6167  0.0689  0.7372
 5545SOL     OW28270   2.314   3.210  10.464 -0.4453  0.5492 -0.1599
 5545SOL    HW128271   2.368   3.154  10.408 -0.9302  0.0535 -0.1254
 5545SOL    HW228272   2.251   3.144  10.493  0.2157 -0.4372 -0.9432
 5546SOL     OW28273   2.056   1.771   2.270  0.4792  0.1326 -0.0117
 5546SOL    HW128274   2.101   1.707   2.326 -0.9188 -0.6788  0.1922
 5546SOL    HW228275   1.989   1.783   2.337  0.2338 -2.1681  0.1762
 5547SOL     OW28276   3.688   0.742   6.877 -0.3214 -0.0327 -0.1926
 5547SOL    HW128277   3.616   0.723   6.937 -1.3740 -0.3233 -1.5337
 5547SOL    HW228278   3.718   0.833   6.884  0.7326 -0.2433 -1.8105
 5548SOL     OW28279   2.480   0.786   5.050  0.5775  0.4198 -0.2908
 5548SOL    HW128280   2.389   0.798   5.024  1.5508 -0.3484 -3.9651
 5548SOL    HW228281   2.464   0.747   5.137  2.4140 -0.7034 -0.4478
 5549SOL     OW28282   3.025   3.951   9.548  0.4380  0.0067 -0.3079
 5549SOL    HW128283   3.102   3.898   9.526 -0.7026  0.2693 -4.8850
 5549SOL    HW228284   3.043   3.971   9.640  0.1671  0.0718 -0.2685
 5550SOL     OW28285   1.981   4.115   9.407 -0.2257  0.2053 -0.2000
 5550SOL    HW128286   1.916   4.056   9.368  1.3266 -2.2855  1.0132
 5550SOL    HW228287   2.032   4.146   9.331  0.3043  0.2252  0.1624
 5551SOL     OW28288   2.464   3.301   4.975 -0.3944 -0.0715  0.1384
 5551SOL    HW128289   2.382   3.303   4.926 -0.4056  1.2536  0.2158
 5551SOL    HW228290   2.521   3.351   4.917 -0.2814 -0.1213  0.2068
 5552SOL     OW28291   2.572   4.679   1.158  0.6858 -0.2448  0.2941
 5552SOL    HW128292   2.648   4.669   1.216  2.0962 -0.4475 -1.5899
 5552SOL    HW228293   2.556   4.587   1.138 -0.0937 -0.2723  1.0438
 5553SOL     OW28294   1.069   4.607  12.960  0.3769  0.0644 -0.5629
 5553SOL    HW128295   1.115   4.562  13.031 -2.6315 -0.1359  1.2469
 5553SOL    HW228296   1.081   4.541  12.891  0.9488  0.8242 -1.1775
 5554SOL     OW28297   1.391   4.176   3.176 -0.3661 -0.1913 -0.0925
 5554SOL    HW128298   1.409   4.253   3.121 -2.4206 -0.5803 -1.3436
 5554SOL    HW228299   1.373   4.117   3.102  0.8830 -1.4453  0.6244
 5555SOL     OW28300   2.646   2.616   2.621  0.0197  0.5994  0.0393
 5555SOL    HW128301   2.633   2.632   2.527 -2.6553  1.0741  0.5061
 5555SOL    HW228302   2.719   2.677   2.636  0.5897 -0.2718  0.8525
 5556SOL     OW28303   2.498   3.379   5.469  0.3941  0.1446  0.1044
 5556SOL    HW128304   2.529   3.393   5.379  0.4583  0.2447  0.1422
 5556SOL    HW228305   2.428   3.443   5.463 -1.2245 -1.6937 -0.7300
 5557SOL     OW28306   4.119   1.381   3.896 -0.2869 -0.2711 -0.0502
 5557SOL    HW128307   4.030   1.408   3.875  0.6927  2.0926 -1.1103
 5557SOL    HW228308   4.172   1.396   3.818 -0.8727 -0.6259 -0.5216
 5558SOL     OW28309   0.813   1.903   3.933 -0.0850  0.5695 -0.2046
 5558SOL    HW128310   0.793   1.841   4.004 -0.1457 -0.2995 -0.9875
 5558SOL    HW228311   0.726   1.921   3.896 -0.6169 -1.2134  0.1768
 5559SOL     OW28312   2.762   0.708   4.437  0.2796  0.2014  0.5033
 5559SOL    HW128313   2.758   0.612   4.433 -0.7774  0.3439 -1.7941
 5559SOL    HW228314   2.778   0.723   4.344 -0.3652 -1.5394  0.1062
 5560SOL     OW28315   0.369   3.664   4.104  0.4031  0.7129  0.2270
 5560SOL    HW128316   0.311   3.739   4.089 -0.1096  0.3532  0.4295
 5560SOL    HW228317   0.374   3.630   4.015 -1.5156  0.1103  0.3556
 5561SOL     OW28318   0.665   3.579  15.277  0.4751  0.2055  0.4484
 5561SOL    HW128319   0.597   3.610  15.217  1.7608  1.6376 -0.2582
 5561SOL    HW228320   0.707   3.663  15.298 -2.6793  2.0278 -0.4858
 5562SOL     OW28321   3.467   2.049   6.681 -0.3668  0.6395  0.0883
 5562SOL    HW128322   3.542   2.027   6.625 -0.8126  0.5941 -0.4868
 5562SOL    HW228323   3.519   2.074   6.757  0.3495  1.0256 -0.5279
 5563SOL     OW28324   4.287   1.938   1.169 -0.1545 -0.1961  0.3103
 5563SOL    HW128325   4.195   1.926   1.148  0.0722  1.2525 -1.5084
 5563SOL    HW228326   4.330   1.940   1.083 -1.7449 -0.6654 -0.4855
 5564SOL     OW28327   0.852   0.873   7.465  0.4215 -0.2747  0.0845
 5564SOL    HW128328   0.817   0.957   7.436  1.1777 -0.0143 -0.0772
 5564SOL    HW228329   0.780   0.837   7.516  1.1508  0.6173  1.7572
 5565SOL     OW28330   3.186   4.644   9.086  0.2571  0.4766  0.2118
 5565SOL    HW128331   3.164   4.554   9.060 -3.1855  1.7328 -1.2270
 5565SOL    HW228332   3.270   4.636   9.130 -0.1999  1.9052  1.3719
 5566SOL     OW28333   2.781   0.606   6.159 -0.0450  0.0289 -0.3751
 5566SOL    HW128334   2.845   0.536   6.144  2.0163  1.4355  1.8617
 5566SOL    HW228335   2.835   0.679   6.188 -2.5744  1.2791  1.1448
 5567SOL     OW28336   1.482   2.691   6.443 -0.2354  0.1157  0.3578
 5567SOL    HW128337   1.541   2.740   6.385 -1.3696  1.2017  0.1300
 5567SOL    HW228338   1.484   2.760   6.508  0.6646  0.8139 -0.4135
 5568SOL     OW28339   0.395   0.939   5.506 -0.6626  0.3717  0.0330
 5568SOL    HW128340   0.355   0.910   5.424  2.6518 -0.2898 -1.3748
 5568SOL    HW228341   0.357   0.876   5.566 -0.9824  0.7282  0.2064
 5569SOL     OW28342   2.633   4.438  10.773  0.5151  0.5372  0.0559
 5569SOL    HW128343   2.667   4.447  10.684 -0.2422  0.4523 -0.2381
 5569SOL    HW228344   2.668   4.521  10.808 -1.1452  1.1844  0.1625
 5570SOL     OW28345   1.172   1.118   2.545  0.3844  0.1978  0.3244
 5570SOL    HW128346   1.089   1.143   2.504  0.7016  0.6421 -0.0486
 5570SOL    HW228347   1.231   1.170   2.491 -1.6409  0.9257 -1.2080
 5571SOL     OW28348   4.637   1.999  12.503 -0.2942 -0.2871  0.3917
 5571SOL    HW128349   4.602   2.083  12.534 -0.4638  0.2513 -1.2349
 5571SOL    HW228350   4.701   1.975  12.570  0.7653  0.7363 -0.2423
 5572SOL     OW28351   1.482   1.107   6.352 -0.1014  0.0134 -0.1818
 5572SOL    HW128352   1.460   1.119   6.259 -0.2809  0.0910 -0.1305
 5572SOL    HW228353   1.449   1.191   6.385  0.9803  0.5686 -0.5039
 5573SOL     OW28354   2.680   1.765   2.235  0.0198  0.8958  0.5618
 5573SOL    HW128355   2.774   1.757   2.219 -0.2903 -0.1520 -0.6891
 5573SOL    HW228356   2.668   1.685   2.286  1.2512  1.1668  1.2849
 5574SOL     OW28357   2.220   3.355  11.273 -0.5462  0.5629 -0.8604
 5574SOL    HW128358   2.261   3.290  11.331  1.0689  2.6207  0.2996
 5574SOL    HW228359   2.202   3.425  11.336  1.4721  0.0343  0.3123
 5575SOL     OW28360   0.482   3.585  11.216 -0.6558 -0.3924  0.2981
 5575SOL    HW128361   0.534   3.512  11.247 -0.8284 -0.3447  0.6978
 5575SOL    HW228362   0.407   3.533  11.188 -1.1693 -0.9965  2.8527
 5576SOL     OW28363   3.704   3.636   3.533  0.5114  0.3090 -0.3512
 5576SOL    HW128364   3.720   3.717   3.484  0.4712  0.8412  0.5131
 5576SOL    HW228365   3.651   3.591   3.468 -1.2790 -0.2200  1.4824
 5577SOL     OW28366   4.547   0.816  10.070 -0.0057  0.1976  0.0817
 5577SOL    HW128367   4.530   0.903  10.107  0.3300  0.0876  0.4840
 5577SOL    HW228368   4.601   0.776  10.138 -1.3861 -2.6809 -0.5359
 5578SOL     OW28369   0.908   1.795  11.543 -0.3813  0.0978  0.1472
 5578SOL    HW128370   0.825   1.828  11.508  0.2993  1.3005 -0.3122
 5578SOL    HW228371   0.921   1.852  11.618 -0.1704 -0.4098  0.4994
 5579SOL     OW28372   3.760   0.842   7.606 -0.5468 -0.1300 -0.3972
 5579SOL    HW128373   3.741   0.893   7.528  2.7686 -0.2843 -1.3201
 5579SOL    HW228374   3.849   0.809   7.593 -0.5901  0.6635 -2.5828
 5580SOL     OW28375   3.762   4.187   1.997 -0.9988  0.2326 -0.1100
 5580SOL    HW128376   3.673   4.223   2.002 -1.5387 -0.7686 -2.3656
 5580SOL    HW228377   3.747   4.125   1.926 -1.4917 -0.2818  0.4382
 5581SOL     OW28378   1.332   0.460  12.844  0.0568 -0.6031 -0.1372
 5581SOL    HW128379   1.294   0.374  12.828 -1.6870  0.0382  0.5282
 5581SOL    HW228380   1.340   0.488  12.753 -0.1068  0.6627  0.2323
 5582SOL     OW28381   1.926   0.573  16.590 -0.1128  0.4219  0.0013
 5582SOL    HW128382   2.011   0.617  16.583 -0.3588  0.8900 -0.0476
 5582SOL    HW228383   1.928   0.526  16.674 -0.6309  2.7148  1.2979
 5583SOL     OW28384   3.958   4.540   5.306 -0.0342 -0.9241  0.0748
 5583SOL    HW128385   4.013   4.579   5.374  1.8605 -2.7391 -0.4169
 5583SOL    HW228386   3.973   4.607   5.239 -0.4754  0.6209  1.5406
 5584SOL     OW28387   2.267   0.950  10.229  0.1128  0.4971  0.0047
 5584SOL    HW128388   2.231   0.936  10.317 -0.1038  0.9328 -0.0111
 5584SOL    HW228389   2.194   0.983  10.176  1.4759 -0.5757 -2.5438
 5585SOL     OW28390   1.940   1.295   5.603 -0.6965  0.4792  0.0506
 5585SOL    HW128391   1.857   1.302   5.555  0.1468  1.6718 -1.2279
 5585SOL    HW228392   2.001   1.339   5.544  1.7342 -1.7091  0.9629
 5586SOL     OW28393   0.353   4.091   2.120  0.2364 -0.0429 -0.4325
 5586SOL    HW128394   0.385   4.175   2.087  1.5293 -0.5935 -0.5828
 5586SOL    HW228395   0.297   4.108   2.196  1.6938 -0.4578  0.7289
 5587SOL     OW28396   0.755   3.662  11.111 -0.3317  0.2468 -0.0539
 5587SOL    HW128397   0.665   3.661  11.145  0.0764 -2.3901  0.9047
 5587SOL    HW228398   0.809   3.624  11.180  0.4607  0.5179 -0.5309
 5588SOL     OW28399   2.995   2.061  13.360 -0.2632 -0.2247  0.1812
 5588SOL    HW128400   3.002   2.056  13.265 -0.9784 -1.6428  0.2082
 5588SOL    HW228401   2.942   1.983  13.377 -2.3715  0.5784 -2.8313
 5589SOL     OW28402   3.790   0.930   7.874  0.0390  0.2467  0.0016
 5589SOL    HW128403   3.756   0.917   7.785  0.8352 -1.2299 -0.0964
 5589SOL    HW228404   3.761   0.848   7.914 -1.9418  0.5671 -0.7584
 5590SOL     OW28405   4.634   3.293   5.903 -0.2807 -0.0581  0.2469
 5590SOL    HW128406   4.551   3.334   5.879  0.8754  0.8693 -2.1308
 5590SOL    HW228407   4.661   3.339   5.983 -1.6521  2.0676 -0.5269
 5591SOL     OW28408   2.197   0.302  17.686 -0.1072 -0.0079 -0.1106
 5591SOL    HW128409   2.230   0.222  17.727  1.8724 -0.1317 -1.9890
 5591SOL    HW228410   2.161   0.260  17.608  0.5974 -0.7661 -0.0274
 5592SOL     OW28411   3.981   2.280  10.043  0.0490  0.5756  0.5190
 5592SOL    HW128412   4.034   2.217  10.092 -2.2692 -1.0971  0.8493
 5592SOL    HW228413   3.894   2.239  10.038 -0.5414  1.4789  3.5479
 5593SOL     OW28414   0.777   1.122   7.351  0.5278  0.1647 -0.3915
 5593SOL    HW128415   0.801   1.086   7.266  3.3665 -0.1690  0.5307
 5593SOL    HW228416   0.693   1.158   7.324 -0.2914  0.0896  2.0379
 5594SOL     OW28417   0.376   2.558   7.149  0.6180 -0.3681 -0.4180
 5594SOL    HW128418   0.450   2.600   7.193 -0.1604 -1.1412  1.6274
 5594SOL    HW228419   0.427   2.491   7.103 -1.7211 -0.6918 -2.4907
 5595SOL     OW28420   0.025   0.590   5.571 -0.1567 -0.0309  0.4129
 5595SOL    HW128421   4.677   0.585   5.616 -0.0833  0.3619  0.5938
 5595SOL    HW228422   4.732   0.634   5.492 -0.5409 -0.5643  0.2600
 5596SOL     OW28423   2.232   4.377  10.209 -0.0377  0.1105  0.2542
 5596SOL    HW128424   2.212   4.410  10.121  0.0513 -2.8743 -0.8734
 5596SOL    HW228425   2.147   4.392  10.251  0.8944  1.6378  1.5968
 5597SOL     OW28426   3.887   3.185   3.883  0.3529 -0.5144  0.2913
 5597SOL    HW128427   3.892   3.245   3.809  0.5908 -1.7580 -0.7067
 5597SOL    HW228428   3.877   3.105   3.830 -0.7735  1.3985 -2.3862
 5598SOL     OW28429   0.649   1.846  10.584 -0.2693 -0.7404 -0.4111
 5598SOL    HW128430   0.583   1.893  10.533 -1.8767 -0.3366  2.0472
 5598SOL    HW228431   0.656   1.767  10.529  1.8479  0.1999 -1.5029
 5599SOL     OW28432   4.042   1.267   4.713  0.6405 -0.2682 -0.2762
 5599SOL    HW128433   4.063   1.229   4.628  0.5502  2.2018 -1.4032
 5599SOL    HW228434   3.975   1.209   4.748  1.0235 -0.1875  0.6037
 5600SOL     OW28435   1.659   0.291  15.571  0.0654 -0.6709 -0.0604
 5600SOL    HW128436   1.686   0.375  15.608 -1.1395  0.7607 -2.4572
 5600SOL    HW228437   1.654   0.314  15.479 -0.9875  0.6218  0.3160
 5601SOL     OW28438   0.663   0.865  16.485 -0.4679 -0.1382 -0.1547
 5601SOL    HW128439   0.686   0.780  16.447 -0.8384 -0.2218 -0.1901
 5601SOL    HW228440   0.575   0.879  16.449  0.8424  2.1629 -2.4672
 5602SOL     OW28441   3.251   3.499   6.701 -0.3614 -0.3828  0.1658
 5602SOL    HW128442   3.269   3.517   6.609 -1.5820 -0.6091 -0.1154
 5602SOL    HW228443   3.330   3.448   6.720  0.8372  2.4561  2.8383
 5603SOL     OW28444   1.113   4.526   4.465  0.6006 -0.0881 -0.3932
 5603SOL    HW128445   1.074   4.596   4.518 -0.0200 -0.4022 -0.4362
 5603SOL    HW228446   1.042   4.467   4.442  0.6078 -0.1049 -0.3729
 5604SOL     OW28447   4.422   3.272  12.790 -0.2268 -0.2439 -0.4336
 5604SOL    HW128448   4.510   3.282  12.755 -0.7386  0.3720 -1.5293
 5604SOL    HW228449   4.396   3.359  12.821  0.9507 -0.3488  0.8520
 5605SOL     OW28450   3.163   3.447  13.690  0.0530  0.1762  0.5068
 5605SOL    HW128451   3.227   3.471  13.623  1.0526 -0.3266  1.2905
 5605SOL    HW228452   3.195   3.358  13.707 -1.4816 -0.2350  1.2540
 5606SOL     OW28453   2.646   2.430   6.050 -0.0880 -0.3276 -0.4070
 5606SOL    HW128454   2.685   2.395   6.130  1.2127 -0.1408 -0.9468
 5606SOL    HW228455   2.563   2.384   6.049 -0.6905  0.7874 -2.6478
 5607SOL     OW28456   1.012   0.118   8.783 -0.4154  0.3394 -0.4742
 5607SOL    HW128457   1.036   0.186   8.846  1.8742  0.6183 -1.6648
 5607SOL    HW228458   1.065   0.143   8.708 -2.1718  2.3165 -1.0754
 5608SOL     OW28459   2.017   3.409   6.109 -0.4533  0.1000  0.1208
 5608SOL    HW128460   2.029   3.457   6.027  1.5010 -1.9695 -0.8067
 5608SOL    HW228461   2.016   3.482   6.170 -1.9608  0.0411  0.1719
 5609SOL     OW28462   0.530   3.685   3.624 -0.1060 -0.2056  0.2945
 5609SOL    HW128463   0.438   3.689   3.649  0.0523 -1.0134  1.0069
 5609SOL    HW228464   0.526   3.622   3.553 -1.8878  0.4554 -0.1710
 5610SOL     OW28465   3.871   2.611   5.657  0.1667  0.7962 -0.5795
 5610SOL    HW128466   3.928   2.535   5.645  1.8591  1.9014  0.4203
 5610SOL    HW228467   3.849   2.629   5.566  0.5101  1.0036 -0.6223
 5611SOL     OW28468   2.056   1.964   6.573  0.2813  0.6742  0.1564
 5611SOL    HW128469   2.011   2.039   6.613 -1.0787  1.1909 -2.3339
 5611SOL    HW228470   2.118   1.944   6.643  0.3384  2.3322  0.5943
 5612SOL     OW28471   4.049   3.141   4.363  0.1104 -0.1408 -0.2822
 5612SOL    HW128472   4.028   3.070   4.424 -0.4325  0.0813 -0.2075
 5612SOL    HW228473   3.971   3.155   4.309 -0.8454  0.5223  1.2502
 5613SOL     OW28474   1.947   2.932   4.361 -0.1641 -0.0969 -0.1108
 5613SOL    HW128475   1.863   2.891   4.342 -0.0256 -1.6671  2.5898
 5613SOL    HW228476   1.979   2.939   4.271 -0.0048 -0.2890 -0.0704
 5614SOL     OW28477   3.775   2.640   9.088  0.1021 -0.0763  0.5865
 5614SOL    HW128478   3.856   2.655   9.041  0.0881 -1.5915  0.0834
 5614SOL    HW228479   3.813   2.646   9.176 -4.0472  1.2922  2.3058
 5615SOL     OW28480   0.549   4.168   3.390 -0.3090 -0.4088  0.1033
 5615SOL    HW128481   0.617   4.154   3.323  1.3515 -0.1116  1.7415
 5615SOL    HW228482   0.591   4.145   3.472 -1.9107 -1.4284  0.6258
 5616SOL     OW28483   1.513   2.622   3.115 -0.1975  0.0255  0.9003
 5616SOL    HW128484   1.591   2.645   3.064 -0.0917  0.9058  1.4640
 5616SOL    HW228485   1.492   2.707   3.155 -0.7542 -0.4269  1.5685
 5617SOL     OW28486   2.839   0.457   9.216 -0.2517 -0.2036  0.0823
 5617SOL    HW128487   2.805   0.392   9.155  0.1637  1.4730 -1.9485
 5617SOL    HW228488   2.930   0.455   9.188  0.1871  0.3151  1.4479
 5618SOL     OW28489   3.421   3.455   9.057 -0.0644  0.8827 -0.0212
 5618SOL    HW128490   3.468   3.528   9.015  3.7054 -1.6346 -0.1157
 5618SOL    HW228491   3.495   3.399   9.079 -1.1769 -0.8326 -0.6617
 5619SOL     OW28492   1.844   2.092   8.353  0.4079 -0.0078  0.1275
 5619SOL    HW128493   1.772   2.126   8.299  0.9734  1.8407  0.5319
 5619SOL    HW228494   1.918   2.101   8.293 -0.1997  0.0656 -0.6240
 5620SOL     OW28495   1.952   0.720   2.500  0.3354  0.6355 -0.0583
 5620SOL    HW128496   1.943   0.634   2.460  2.6144 -0.4798  1.8405
 5620SOL    HW228497   1.900   0.769   2.437 -2.0507 -2.1298 -0.2616
 5621SOL     OW28498   3.434   0.349   7.209 -0.5396 -0.5217 -0.3269
 5621SOL    HW128499   3.381   0.353   7.289  0.5375 -1.4996  0.4396
 5621SOL    HW228500   3.379   0.407   7.156 -1.9416 -2.0708 -0.5732
 5622SOL     OW28501   0.274   3.877   2.540 -0.6546  0.0610  0.1289
 5622SOL    HW128502   0.359   3.834   2.549 -0.4922  0.1751 -0.8689
 5622SOL    HW228503   0.220   3.800   2.521  2.4463 -1.2072 -3.7041
 5623SOL     OW28504   2.367   2.394   7.878 -0.6572  0.5982  1.0049
 5623SOL    HW128505   2.280   2.431   7.866 -0.4827  0.5323 -0.4718
 5623SOL    HW228506   2.338   2.310   7.843  0.2594 -0.0510  1.8200
 5624SOL     OW28507   4.603   1.517   4.274  0.0069 -0.5715 -0.2915
 5624SOL    HW128508   4.636   1.580   4.337 -1.1916 -0.2647  0.0225
 5624SOL    HW228509   4.650   1.548   4.196 -1.6090 -1.1871 -1.5150
 5625SOL     OW28510   3.476   1.933   3.459  0.0356  0.4054  0.1273
 5625SOL    HW128511   3.477   1.956   3.366  0.2935  1.2431  0.3437
 5625SOL    HW228512   3.405   1.869   3.451  1.0294 -0.5713 -0.8868
 5626SOL     OW28513   1.517   2.490  10.201  0.2050 -0.0756  0.0470
 5626SOL    HW128514   1.494   2.489  10.108 -1.1123  0.8060  0.3674
 5626SOL    HW228515   1.430   2.500  10.240  0.3464 -0.4010  0.4468
 5627SOL     OW28516   0.610   4.345  17.594 -0.3347 -0.1367  0.1561
 5627SOL    HW128517   0.638   4.271  17.648  0.7958 -1.3205 -2.0492
 5627SOL    HW228518   0.636   4.419  17.650  1.0352  0.1971 -0.9086
 5628SOL     OW28519   2.431   0.534  11.314  0.1545  0.5244  0.0646
 5628SOL    HW128520   2.484   0.557  11.390  0.5462  0.3992 -0.1696
 5628SOL    HW228521   2.345   0.561  11.346  0.7255  0.7777  1.3665
 5629SOL     OW28522   1.671   4.361  11.658  0.5343 -0.1272 -1.0378
 5629SOL    HW128523   1.657   4.384  11.750 -0.2435 -0.1442 -1.1487
 5629SOL    HW228524   1.648   4.443  11.614  2.7849  1.7055  1.2542
 5630SOL     OW28525   1.058   2.074   9.446  0.3966  0.2623 -0.4260
 5630SOL    HW128526   0.999   2.057   9.519 -1.2505  1.1285 -1.5374
 5630SOL    HW228527   1.005   2.084   9.366 -1.1536  1.1959  0.7271
 5631SOL     OW28528   2.620   2.854  12.968 -1.0015  0.4675 -0.2219
 5631SOL    HW128529   2.625   2.811  12.882 -0.5476  2.8129 -1.3679
 5631SOL    HW228530   2.581   2.934  12.933  0.7284  1.3598 -0.0906
 5632SOL     OW28531   3.723   2.442   3.173  0.2240  0.0043 -0.2035
 5632SOL    HW128532   3.785   2.514   3.181 -0.8901  0.8172  1.0299
 5632SOL    HW228533   3.782   2.366   3.174  0.4156  0.1504 -0.3384
 5633SOL     OW28534   3.412   3.665  11.248 -0.1622 -0.3238 -0.1091
 5633SOL    HW128535   3.482   3.730  11.252  1.1438 -1.6691 -1.2676
 5633SOL    HW228536   3.337   3.709  11.289 -0.6834  0.3466 -1.7842
 5634SOL     OW28537   2.297   0.133   2.502  0.0244  0.4685  0.0197
 5634SOL    HW128538   2.206   0.164   2.502 -1.0001 -2.6402  2.2628
 5634SOL    HW228539   2.318   0.161   2.413  0.6842  0.8669  0.3058
 5635SOL     OW28540   2.986   3.559   6.757  0.4047  0.1567  0.1217
 5635SOL    HW128541   3.065   3.506   6.749  0.2995 -0.0088  0.1953
 5635SOL    HW228542   2.921   3.502   6.716 -0.4665 -0.2609  2.0933
 5636SOL     OW28543   3.307   0.054   7.501 -0.0542 -0.4310 -0.1923
 5636SOL    HW128544   3.301   0.147   7.479 -1.3143 -0.6745 -0.8603
 5636SOL    HW228545   3.368   0.035   7.429  0.9596 -0.2543  0.6208
 5637SOL     OW28546   0.891   4.029   6.538  0.2735  0.0052 -0.0478
 5637SOL    HW128547   0.833   4.100   6.510  0.3662 -0.6121 -1.8335
 5637SOL    HW228548   0.977   4.042   6.498 -0.8012 -0.3865 -2.5253
 5638SOL     OW28549   4.261   0.798   8.270 -0.0958 -0.2626  0.1810
 5638SOL    HW128550   4.196   0.773   8.336 -1.7834 -0.1245 -1.4520
 5638SOL    HW228551   4.212   0.863   8.221 -0.2635 -2.7724 -2.9341
 5639SOL     OW28552   3.768   3.700   4.329  0.5499  0.1264 -0.9728
 5639SOL    HW128553   3.863   3.703   4.324  0.5360  0.9530 -0.7451
 5639SOL    HW228554   3.750   3.616   4.286 -2.7950  0.0898  0.4472
 5640SOL     OW28555   2.148   2.488   8.632 -0.1567  1.0316 -0.2643
 5640SOL    HW128556   2.152   2.447   8.546  4.0287  1.3354 -0.1700
 5640SOL    HW228557   2.069   2.450   8.671  1.2252  0.3876  1.9237
 5641SOL     OW28558   0.498   4.591   5.847 -0.0405  0.0372  0.4104
 5641SOL    HW128559   0.577   4.571   5.897  0.9701  0.8230 -0.8473
 5641SOL    HW228560   0.466   4.665   5.899  1.5994 -0.3438  1.9570
 5642SOL     OW28561   3.231   1.550   7.882 -0.2298  0.2035 -0.0537
 5642SOL    HW128562   3.155   1.495   7.900 -0.7870  0.1151 -2.6976
 5642SOL    HW228563   3.233   1.586   7.794 -1.3225  0.0380 -0.1372
 5643SOL     OW28564   2.149   1.754   2.985 -0.2196 -0.5599  0.0702
 5643SOL    HW128565   2.084   1.687   3.006  0.2670 -0.9127  0.4619
 5643SOL    HW228566   2.125   1.762   2.893 -0.0774  1.1097  0.1829
 5644SOL     OW28567   3.127   2.073   2.902 -0.5215 -0.3487  0.1120
 5644SOL    HW128568   3.170   2.026   2.831 -1.1953 -2.3087  1.0072
 5644SOL    HW228569   3.166   2.160   2.892  0.2736 -0.3774  3.0203
 5645SOL     OW28570   1.966   0.857  10.721  0.2663 -0.5750  0.3926
 5645SOL    HW128571   1.907   0.819  10.656 -1.0052 -0.1369  1.3032
 5645SOL    HW228572   1.899   0.911  10.762  0.6987  0.2410  0.0120
 5646SOL     OW28573   3.861   3.017   6.188 -0.1691 -0.2769 -0.0552
 5646SOL    HW128574   3.813   2.976   6.260 -0.5778  1.5188  0.6742
 5646SOL    HW228575   3.817   2.994   6.106 -1.5414  1.2595  0.2607
 5647SOL     OW28576   2.621   4.323   2.992  0.2346 -0.1147  0.0157
 5647SOL    HW128577   2.540   4.332   2.941 -0.7399 -0.6235  1.4652
 5647SOL    HW228578   2.589   4.304   3.080  0.9482  3.3169  1.0053
 5648SOL     OW28579   1.082   0.814  14.568 -0.2274 -0.2317  0.2074
 5648SOL    HW128580   1.104   0.725  14.594 -1.2030 -0.2981  0.7861
 5648SOL    HW228581   1.036   0.806  14.484 -2.2130 -3.4209  1.5769
 5649SOL     OW28582   1.872   4.359   3.912  0.1226 -0.2128  0.1677
 5649SOL    HW128583   1.784   4.386   3.887 -0.1861 -0.6524  0.7743
 5649SOL    HW228584   1.894   4.291   3.847  0.4445  0.3141 -0.2698
 5650SOL     OW28585   0.898   2.864   0.341 -0.0200 -0.0696 -0.6505
 5650SOL    HW128586   0.811   2.833   0.366  0.7781 -0.5008  1.5576
 5650SOL    HW228587   0.885   2.946   0.293  0.5513 -0.5137 -1.5666
 5651SOL     OW28588   0.634   3.726   3.105  0.1446  0.5465 -0.4747
 5651SOL    HW128589   0.724   3.752   3.126  0.5424 -1.0992 -0.1357
 5651SOL    HW228590   0.605   3.807   3.064 -0.8281  1.1264  1.3865
 5652SOL     OW28591   4.400   1.179   6.909 -0.4191 -0.3111 -0.5747
 5652SOL    HW128592   4.435   1.187   6.820 -0.1726 -0.3262 -0.4792
 5652SOL    HW228593   4.390   1.085   6.919  2.5993 -0.5761 -0.0803
 5653SOL     OW28594   0.891   0.090   7.755 -0.0216  0.3854  0.1117
 5653SOL    HW128595   0.970   0.071   7.704  2.0710  2.3595  2.5804
 5653SOL    HW228596   0.817   0.058   7.705  0.0068  2.5356 -1.2968
 5654SOL     OW28597   3.206   3.437   9.225  0.3833  0.1461 -0.0158
 5654SOL    HW128598   3.231   3.388   9.303  2.9666 -0.4244 -1.2086
 5654SOL    HW228599   3.279   3.441   9.164  1.1256 -1.7212  0.7519
 5655SOL     OW28600   4.177   2.961   6.922 -0.8487 -0.0847 -0.0310
 5655SOL    HW128601   4.092   2.977   6.964 -0.2012  0.6616  0.9875
 5655SOL    HW228602   4.174   3.026   6.851 -2.8814  0.0430  0.1589
 5656SOL     OW28603   0.007   3.803  17.140  0.4541 -0.0679 -0.0019
 5656SOL    HW128604   0.092   3.779  17.177  1.2644  0.2542 -1.6955
 5656SOL    HW228605   0.035   3.831  17.053  1.4516 -0.4125  0.2031
 5657SOL     OW28606   2.923   1.119   4.418 -0.6250  0.1608  0.3611
 5657SOL    HW128607   2.907   1.027   4.442 -1.6876  0.1519 -0.3584
 5657SOL    HW228608   2.990   1.150   4.478  0.5733 -0.7519 -0.4962
 5658SOL     OW28609   1.664   2.129  11.637 -0.2892 -0.2740  0.2485
 5658SOL    HW128610   1.684   2.136  11.543  0.9368 -0.0844  0.5329
 5658SOL    HW228611   1.597   2.060  11.639  0.5034 -1.0540 -0.3800
 5659SOL     OW28612   0.917   3.940   1.870 -0.2260 -0.1702 -1.1041
 5659SOL    HW128613   0.997   3.965   1.823  0.3622  1.0869  0.5614
 5659SOL    HW228614   0.861   4.006   1.830  2.3476  1.5881 -1.8137
 5660SOL     OW28615   1.216   3.326   4.541 -0.0309 -0.3881 -0.3370
 5660SOL    HW128616   1.138   3.380   4.535  0.1663  0.2747  2.9225
 5660SOL    HW228617   1.284   3.389   4.518 -0.6936  0.6648  0.5813
 5661SOL     OW28618   0.214   1.675   7.584  0.6210  0.2648  0.0032
 5661SOL    HW128619   0.150   1.725   7.534 -0.9660  0.8732  2.6355
 5661SOL    HW228620   0.290   1.688   7.528  0.9250 -0.5793  0.2151
 5662SOL     OW28621   3.408   1.608   2.222 -0.5835  0.1497  0.5457
 5662SOL    HW128622   3.371   1.675   2.279  0.8295  1.0195  0.4267
 5662SOL    HW228623   3.466   1.568   2.286 -1.0494  2.0963  2.1822
 5663SOL     OW28624   1.903   0.736   3.198  0.2071  0.1989  0.9475
 5663SOL    HW128625   1.833   0.778   3.148  0.2148 -0.1845  0.6216
 5663SOL    HW228626   1.880   0.644   3.199  0.3244  0.1136 -2.4988
 5664SOL     OW28627   3.110   4.313   4.842 -0.6778 -0.4165  0.4443
 5664SOL    HW128628   3.130   4.266   4.761 -1.1145  0.4913 -0.1917
 5664SOL    HW228629   3.078   4.246   4.902  2.5009 -0.9374  1.5244
 5665SOL     OW28630   3.969   4.488  17.258 -0.0169 -0.5567 -0.0393
 5665SOL    HW128631   3.876   4.492  17.236  0.3517 -1.3376 -1.7115
 5665SOL    HW228632   3.974   4.569  17.309  0.4308  0.1363 -1.1792
 5666SOL     OW28633   1.610   1.771  13.392  0.1653  0.4534 -0.0630
 5666SOL    HW128634   1.644   1.858  13.371 -1.5801  0.2477 -3.7752
 5666SOL    HW228635   1.590   1.750  13.300  1.3614  0.7979 -0.4008
 5667SOL     OW28636   1.138   3.627   5.973 -0.5170 -0.1463  0.0389
 5667SOL    HW128637   1.150   3.610   5.879 -1.3823 -2.1429  0.2956
 5667SOL    HW228638   1.163   3.720   5.972 -0.4918 -0.1359  1.3930
 5668SOL     OW28639   3.025   4.643   5.915 -0.5823  0.4430  0.5531
 5668SOL    HW128640   2.930   4.633   5.919 -0.7146  2.6758  2.6761
 5668SOL    HW228641   3.046   4.642   6.008  0.2176 -0.1446  0.3743
 5669SOL     OW28642   2.740   0.153   5.420 -0.6861 -0.0829 -0.2247
 5669SOL    HW128643   2.822   0.200   5.430 -0.1469 -0.6288 -2.1051
 5669SOL    HW228644   2.780   0.075   5.383 -0.9777 -0.6744  0.6913
 5670SOL     OW28645   1.607   0.416   5.548  0.0240 -0.0649 -0.4128
 5670SOL    HW128646   1.569   0.449   5.630 -3.6292 -0.9681 -1.7540
 5670SOL    HW228647   1.697   0.426   5.579 -0.9963  0.8478  2.2271
 5671SOL     OW28648   2.214   4.603  12.570  0.1118 -0.0603  0.4114
 5671SOL    HW128649   2.295   4.562  12.602  0.5193  1.3960  1.2345
 5671SOL    HW228650   2.246   4.693  12.569 -0.6665  0.2066 -0.4654
 5672SOL     OW28651   4.123   3.027   3.474 -0.0263 -0.7490 -0.2398
 5672SOL    HW128652   4.083   3.104   3.514 -0.8804 -2.0812  1.4388
 5672SOL    HW228653   4.048   2.973   3.452  0.1150 -1.5933  1.3685
 5673SOL     OW28654   2.160   2.840   2.589  0.0329 -0.8796 -0.5012
 5673SOL    HW128655   2.219   2.904   2.629  0.5443 -0.6593 -1.6328
 5673SOL    HW228656   2.121   2.889   2.517 -2.1571  1.3326  2.1542
 5674SOL     OW28657   1.714   2.508   7.353 -0.2351 -0.1899 -0.4871
 5674SOL    HW128658   1.655   2.531   7.425 -0.6444 -0.6756 -0.6624
 5674SOL    HW228659   1.692   2.415   7.345 -2.4361  0.3024 -0.1090
 5675SOL     OW28660   2.449   4.194   6.242 -0.0725 -0.0732 -0.1559
 5675SOL    HW128661   2.505   4.118   6.260 -0.7033 -0.8634 -1.5371
 5675SOL    HW228662   2.368   4.170   6.287 -1.4408  0.8136 -2.1561
 5676SOL     OW28663   4.424   3.324   1.823  0.2691 -0.0602 -0.2372
 5676SOL    HW128664   4.358   3.361   1.882 -1.0282 -0.9576 -1.1155
 5676SOL    HW228665   4.375   3.242   1.814 -0.0010 -0.0064  0.7235
 5677SOL     OW28666   2.479   3.639  16.408  0.0480  0.0902 -0.3926
 5677SOL    HW128667   2.571   3.650  16.431  0.7463 -0.7576 -2.7393
 5677SOL    HW228668   2.459   3.721  16.362  0.0430 -0.4033 -1.2652
 5678SOL     OW28669   4.083   2.924  12.758 -0.6975  0.6011 -0.0094
 5678SOL    HW128670   4.159   2.982  12.762 -0.8302  0.6196  2.7620
 5678SOL    HW228671   4.119   2.858  12.816  0.0123  0.0480 -1.0983
 5679SOL     OW28672   1.473   0.757  12.876  0.3326  0.0366  0.0632
 5679SOL    HW128673   1.482   0.837  12.825 -0.1632 -0.3434 -0.6327
 5679SOL    HW228674   1.495   0.702  12.801 -3.9896 -1.4586 -0.1278
 5680SOL     OW28675   3.299   4.456   8.197 -0.1266  0.0197  0.8510
 5680SOL    HW128676   3.362   4.527   8.207 -0.0296 -0.2051  1.7442
 5680SOL    HW228677   3.276   4.449   8.104  2.6837  0.2263  0.1527
 5681SOL     OW28678   3.166   4.728   5.444  0.3579  0.2535 -0.4149
 5681SOL    HW128679   3.205   0.078   5.457  0.5076 -0.1931  2.1385
 5681SOL    HW228680   3.167   4.696   5.534  2.1147  2.7324  0.4483
 5682SOL     OW28681   4.078   4.123   6.688 -0.5726 -0.0682  0.0778
 5682SOL    HW128682   4.021   4.059   6.646 -0.5804 -1.0620  1.6396
 5682SOL    HW228683   4.021   4.200   6.676 -1.0427 -0.4555 -0.1583
 5683SOL     OW28684   4.261   1.014   4.839 -0.2948 -0.0964  0.6762
 5683SOL    HW128685   4.221   1.019   4.926 -1.5654  0.1150  0.0807
 5683SOL    HW228686   4.316   1.092   4.837  2.0300 -1.6927  3.0731
 5684SOL     OW28687   2.938   1.678   3.946  0.1545 -0.5253  0.0343
 5684SOL    HW128688   2.931   1.674   3.851  2.7123 -1.5449 -0.0881
 5684SOL    HW228689   2.876   1.749   3.964  0.8186 -0.5621  2.4825
 5685SOL     OW28690   2.806   0.057   6.575 -0.5803  0.0873 -0.7122
 5685SOL    HW128691   2.897   0.085   6.562 -0.1140 -0.8279  0.5989
 5685SOL    HW228692   2.764   0.138   6.545 -0.3551  0.0108 -1.2291
 5686SOL     OW28693   0.701   0.578   6.348 -0.6654 -1.1802 -0.2801
 5686SOL    HW128694   0.668   0.603   6.435  1.5090 -1.5645  0.6601
 5686SOL    HW228695   0.657   0.493   6.344  3.1748 -3.2620  1.8053
 5687SOL     OW28696   1.528   0.565   1.633  0.5593 -0.0052  0.4509
 5687SOL    HW128697   1.613   0.528   1.658  1.0804  0.2060 -0.9956
 5687SOL    HW228698   1.562   0.638   1.582  1.1655 -2.0051 -2.0186
 5688SOL     OW28699   0.283   1.988   4.499 -0.0175  0.4842  0.0621
 5688SOL    HW128700   0.207   1.995   4.440 -0.0604 -4.0074 -0.3591
 5688SOL    HW228701   0.244   1.963   4.583  0.4442  0.5552  0.2933
 5689SOL     OW28702   0.163   1.758  17.132 -0.4232 -0.0616 -0.1723
 5689SOL    HW128703   0.160   1.687  17.068 -1.1543  0.6543 -0.9443
 5689SOL    HW228704   0.167   1.712  17.215 -1.6835  0.7501  0.3388
 5690SOL     OW28705   1.167   0.905  12.973  0.0510  0.2204  0.2420
 5690SOL    HW128706   1.248   0.859  12.950  1.1366  1.6332  1.2324
 5690SOL    HW228707   1.161   0.893  13.068 -2.3129  0.8856  0.1841
 5691SOL     OW28708   1.093   4.608   6.262  0.3309  0.9700  0.9960
 5691SOL    HW128709   1.008   4.644   6.290  0.5543  1.9542  0.4030
 5691SOL    HW228710   1.072   4.525   6.220 -0.8019  1.4221  0.6703
 5692SOL     OW28711   1.988   3.833   7.711 -0.4500 -0.4444 -0.6219
 5692SOL    HW128712   2.074   3.874   7.724 -0.3203 -0.5024 -1.3184
 5692SOL    HW228713   1.995   3.750   7.758  0.4253 -0.2837 -0.4744
 5693SOL     OW28714   1.497   3.931   9.982  0.1950  0.4246 -0.4571
 5693SOL    HW128715   1.467   3.891   9.900  1.4831  0.8026 -1.1132
 5693SOL    HW228716   1.453   4.016   9.975 -1.5966 -0.5959 -1.7334
 5694SOL     OW28717   2.593   3.732   1.910  0.3782 -0.2610 -0.1766
 5694SOL    HW128718   2.544   3.706   1.987  2.0219  3.4465  2.1223
 5694SOL    HW228719   2.538   3.694   1.842  1.8673 -2.6084 -0.0538
 5695SOL     OW28720   2.223   2.213   4.718 -0.1536 -0.8201 -0.0343
 5695SOL    HW128721   2.162   2.146   4.688 -1.7936  0.8757 -0.4479
 5695SOL    HW228722   2.267   2.150   4.774  2.0566  0.0514 -0.7593
 5696SOL     OW28723   0.706   2.363  10.908  0.2753 -0.5453 -0.1501
 5696SOL    HW128724   0.702   2.271  10.934 -2.8907  0.1725  2.0136
 5696SOL    HW228725   0.682   2.401  10.993  1.4747 -0.1208 -0.0133
 5697SOL     OW28726   4.479   0.569   6.868  0.1321  0.0994  0.2339
 5697SOL    HW128727   4.442   0.622   6.798  0.0623 -0.9177 -0.5057
 5697SOL    HW228728   4.560   0.546   6.822 -0.8212 -1.5979 -0.6077
 5698SOL     OW28729   4.106   2.578  11.625 -0.2532  0.2965 -0.2644
 5698SOL    HW128730   4.037   2.607  11.686 -0.6465  1.9672 -1.5155
 5698SOL    HW228731   4.076   2.488  11.615 -1.6938  1.0039 -2.1952
 5699SOL     OW28732   1.865   2.034   0.396  0.3817  0.5373  0.1796
 5699SOL    HW128733   1.939   2.049   0.338  2.3998 -2.3194  2.0601
 5699SOL    HW228734   1.806   1.987   0.337 -0.8230  2.4980 -0.1715
 5700SOL     OW28735   0.839   0.152  10.913  0.2778 -0.0167 -0.4378
 5700SOL    HW128736   0.757   0.127  10.870 -0.4540  3.6293 -1.1471
 5700SOL    HW228737   0.863   0.226  10.857  1.0317 -0.8560 -1.2187
 5701SOL     OW28738   2.494   1.666  16.617  0.3187  0.9058 -0.1553
 5701SOL    HW128739   2.413   1.617  16.632  0.7069 -0.1391 -1.4538
 5701SOL    HW228740   2.475   1.752  16.656  0.9118  1.4482 -1.0624
 5702SOL     OW28741   4.126   0.822   2.916 -0.4606 -0.0936  0.1648
 5702SOL    HW128742   4.079   0.832   2.999 -0.9977 -0.7100 -0.0653
 5702SOL    HW228743   4.140   0.911   2.883  0.2876 -0.5752 -0.7924
 5703SOL     OW28744   2.264   1.285  11.716  0.3813 -0.1852  0.4242
 5703SOL    HW128745   2.248   1.243  11.801  1.6745  0.6618  1.0902
 5703SOL    HW228746   2.212   1.229  11.658 -2.8348  3.7717 -0.5511
 5704SOL     OW28747   4.027   3.686   1.518 -0.7033 -0.2706 -1.2483
 5704SOL    HW128748   4.099   3.633   1.553 -2.6856 -0.7503  2.0566
 5704SOL    HW228749   4.050   3.771   1.555  2.0430 -1.8490  0.6491
 5705SOL     OW28750   1.643   4.071   6.204 -0.4450  0.1925 -0.2265
 5705SOL    HW128751   1.689   4.009   6.148 -1.2519 -2.9585  2.5554
 5705SOL    HW228752   1.714   4.084   6.266 -1.5441  0.2822  1.0256
 5706SOL     OW28753   3.244   2.560   1.091  0.3782  0.0358  0.4676
 5706SOL    HW128754   3.219   2.648   1.064  1.2814  0.7025  1.8023
 5706SOL    HW228755   3.333   2.560   1.127  1.0073  2.2606 -1.1474
 5707SOL     OW28756   1.664   0.612   3.559  0.8371  0.0742  0.9868
 5707SOL    HW128757   1.617   0.569   3.630  1.1672 -1.1611  0.4557
 5707SOL    HW228758   1.737   0.550   3.559  0.7655  0.0259 -2.8364
 5708SOL     OW28759   2.532   3.762   8.459  0.2744  0.5529 -0.0278
 5708SOL    HW128760   2.497   3.684   8.503 -1.9645  0.9907 -1.0041
 5708SOL    HW228761   2.606   3.778   8.518  2.6933 -1.6532 -2.4714
 5709SOL     OW28762   1.597   3.653   4.098  0.8645  0.2602 -0.1677
 5709SOL    HW128763   1.689   3.667   4.077  1.0272  2.9211  2.3169
 5709SOL    HW228764   1.607   3.590   4.170  1.3611  3.3637  2.5052
 5710SOL     OW28765   1.856   2.258  11.785  0.2193  0.2271  0.2751
 5710SOL    HW128766   1.798   2.205  11.731  1.3000 -1.2483  0.5507
 5710SOL    HW228767   1.813   2.257  11.871 -0.0653  2.6488  0.1510
 5711SOL     OW28768   1.103   2.866   0.539 -0.0478  0.1778 -0.9920
 5711SOL    HW128769   1.145   2.922   0.473  1.5120 -3.0379 -2.7487
 5711SOL    HW228770   1.020   2.866   0.492  0.6189  0.8731 -2.1662
 5712SOL     OW28771   3.132   0.573   7.987  0.3545 -0.9624 -0.5140
 5712SOL    HW128772   3.082   0.587   7.906 -0.8194 -0.9207  0.2236
 5712SOL    HW228773   3.079   0.502   8.022  1.4319 -1.4355  0.1510
 5713SOL     OW28774   2.008   2.162   3.952 -0.0108 -0.3538  0.3440
 5713SOL    HW128775   2.075   2.119   3.898 -0.1572  2.8729 -2.4259
 5713SOL    HW228776   1.940   2.097   3.969 -2.1155  2.0130  0.9947
 5714SOL     OW28777   0.662   1.994   3.619  0.0591  1.1453  0.1457
 5714SOL    HW128778   0.605   1.986   3.695 -0.4961  0.7492 -0.3111
 5714SOL    HW228779   0.619   1.928   3.564 -2.1463  3.7698 -1.2719
 5715SOL     OW28780   1.630   1.115   5.593  0.3443 -0.3245 -0.3763
 5715SOL    HW128781   1.659   1.177   5.526 -0.2825 -0.3445 -0.6664
 5715SOL    HW228782   1.580   1.051   5.543 -0.6723  0.7566 -0.7435
 5716SOL     OW28783   2.989   1.281  11.132 -0.1013  0.4410 -0.1658
 5716SOL    HW128784   2.921   1.338  11.166  1.0429  1.3883  0.5322
 5716SOL    HW228785   3.064   1.340  11.132 -0.8359  1.3752 -0.4280
 5717SOL     OW28786   1.618   2.369  14.177  0.4120 -0.0522  0.1666
 5717SOL    HW128787   1.638   2.373  14.270 -1.2902  0.8937  0.4956
 5717SOL    HW228788   1.543   2.311  14.166  0.6230 -0.1677 -0.6961
 5718SOL     OW28789   1.163   3.585   8.366  0.1570 -0.2730  0.1120
 5718SOL    HW128790   1.194   3.641   8.295  0.2205  1.0410  1.1803
 5718SOL    HW228791   1.105   3.644   8.416  0.5318 -0.3054  0.5841
 5719SOL     OW28792   1.736   3.005   5.618  0.4020 -0.3274 -0.5037
 5719SOL    HW128793   1.710   2.997   5.710  1.1335  2.3865 -0.0784
 5719SOL    HW228794   1.830   3.017   5.636 -0.2733  2.5442  1.0799
 5720SOL     OW28795   4.033   1.014  10.845 -0.3847 -0.6135  0.2886
 5720SOL    HW128796   4.118   1.055  10.833 -0.5964  0.0800  1.1240
 5720SOL    HW228797   4.029   1.004  10.940  0.1575  0.0912  0.3790
 5721SOL     OW28798   3.405   3.532   0.363 -0.2763 -0.4079 -0.0226
 5721SOL    HW128799   3.486   3.486   0.338  0.3420  0.6230  0.0923
 5721SOL    HW228800   3.448   3.606   0.405 -0.0342 -1.6294  1.8942
 5722SOL     OW28801   1.160   3.329   4.213  0.1849 -0.6635  0.3519
 5722SOL    HW128802   1.076   3.300   4.249  0.2413 -0.6832  0.4660
 5722SOL    HW228803   1.135   3.407   4.163 -0.3540 -0.5381  0.8179
 5723SOL     OW28804   2.915   3.811   6.652 -0.0320  0.2179 -0.0167
 5723SOL    HW128805   2.929   3.760   6.732  1.7583 -2.8822 -2.3417
 5723SOL    HW228806   2.880   3.740   6.598  1.0157 -0.2050 -0.1471
 5724SOL     OW28807   2.335   0.087   4.078 -0.1053 -0.0467 -0.4278
 5724SOL    HW128808   2.259   0.099   4.021 -1.2225 -1.8272  0.6808
 5724SOL    HW228809   2.294   0.088   4.165 -1.6133 -0.8344 -1.1161
 5725SOL     OW28810   2.718   2.716   7.014  1.0148 -0.0310  0.2342
 5725SOL    HW128811   2.743   2.806   7.039  0.1055  0.3853 -0.3588
 5725SOL    HW228812   2.633   2.733   6.975  0.7534 -0.4583  0.6254
 5726SOL     OW28813   0.998   0.462   7.183 -0.1349 -0.5396 -0.0438
 5726SOL    HW128814   0.971   0.440   7.273 -0.6957 -1.5061 -0.4550
 5726SOL    HW228815   1.011   0.555   7.202 -0.1498 -0.0102 -2.6185
 5727SOL     OW28816   2.317   3.901   8.842 -0.2480 -0.0056 -0.7669
 5727SOL    HW128817   2.274   3.986   8.830 -1.1617 -0.1892  1.1692
 5727SOL    HW228818   2.407   3.908   8.812 -0.0024  2.2372  0.5046
 5728SOL     OW28819   3.685   0.545  15.632 -0.2194 -0.0410 -0.3125
 5728SOL    HW128820   3.693   0.639  15.649  0.4058  0.1692 -1.7665
 5728SOL    HW228821   3.771   0.514  15.604 -0.4314 -0.5118 -0.4318
 5729SOL     OW28822   4.328   4.212   6.926  0.4691  0.0669  0.2143
 5729SOL    HW128823   4.349   4.198   7.018 -2.5291  1.1342  1.0724
 5729SOL    HW228824   4.327   4.122   6.895 -0.6560  0.7108 -1.6290
 5730SOL     OW28825   2.958   0.593   5.883 -0.4285  0.1236  0.8026
 5730SOL    HW128826   3.006   0.643   5.817 -1.7554 -0.8955 -0.9456
 5730SOL    HW228827   2.897   0.658   5.917 -1.0713  0.8595 -1.8015
 5731SOL     OW28828   1.370   3.769   4.782 -0.5038  0.1780 -0.6129
 5731SOL    HW128829   1.393   3.712   4.855 -0.5302  3.3546  1.8812
 5731SOL    HW228830   1.446   3.751   4.727 -0.0385  1.9627 -0.5570
 5732SOL     OW28831   0.585   2.769  15.346 -0.0869  0.0093  0.0172
 5732SOL    HW128832   0.659   2.730  15.393  0.0368 -0.9063 -0.9370
 5732SOL    HW228833   0.594   2.725  15.261 -0.3497  3.8765 -1.9856
 5733SOL     OW28834   1.669   2.568   9.311 -0.6903 -0.1602  0.3204
 5733SOL    HW128835   1.670   2.632   9.240 -2.6597 -0.2700  0.1851
 5733SOL    HW228836   1.720   2.500   9.267  0.7837 -0.3717  2.3565
 5734SOL     OW28837   0.456   1.102   4.572  0.1853  0.3491  0.2545
 5734SOL    HW128838   0.526   1.085   4.509 -0.5574  0.8623 -0.6908
 5734SOL    HW228839   0.420   1.013   4.569  0.6694  0.0710  2.7835
 5735SOL     OW28840   1.536   1.824   4.643  0.2026 -0.1186  1.1743
 5735SOL    HW128841   1.442   1.820   4.660  0.3419 -1.4427  1.6196
 5735SOL    HW228842   1.551   1.917   4.623 -0.4858 -0.7171 -2.1808
 5736SOL     OW28843   3.161   0.463   5.031  0.7328  0.3126  0.1323
 5736SOL    HW128844   3.123   0.467   4.943  2.2801 -2.0156 -0.6099
 5736SOL    HW228845   3.187   0.371   5.036  0.0290  0.1200  0.2521
 5737SOL     OW28846   1.470   3.314   7.580  0.1305  0.0461 -0.5890
 5737SOL    HW128847   1.468   3.219   7.591  1.2780 -0.1669 -2.3145
 5737SOL    HW228848   1.482   3.322   7.485  1.6862  1.1274 -0.2949
 5738SOL     OW28849   4.679   0.629   5.014 -0.5367 -0.1406 -0.3350
 5738SOL    HW128850   4.646   0.546   4.980  2.0069 -0.3424 -2.3802
 5738SOL    HW228851   4.661   0.683   4.937  0.4670  2.8945  1.5511
 5739SOL     OW28852   1.929   1.211   2.761  0.8980 -0.8951  0.3183
 5739SOL    HW128853   1.920   1.164   2.844  2.5850 -2.6518 -0.5136
 5739SOL    HW228854   1.990   1.279   2.787  0.5166 -0.5908  0.4287
 5740SOL     OW28855   2.599   1.094   6.780 -0.4933  0.4957 -0.0034
 5740SOL    HW128856   2.646   1.052   6.851 -1.4155 -0.1745  0.2119
 5740SOL    HW228857   2.655   1.169   6.757 -1.1661  0.2253 -2.5951
 5741SOL     OW28858   3.255   3.251   2.152 -0.1006  0.3224 -0.6534
 5741SOL    HW128859   3.325   3.212   2.204 -0.2375  1.4532  0.3778
 5741SOL    HW228860   3.251   3.209   2.067  0.0962 -1.2004  0.0839
 5742SOL     OW28861   3.816   4.592   3.597  0.2292 -0.5441  0.0113
 5742SOL    HW128862   3.740   4.533   3.590  0.3247 -0.7723  0.8744
 5742SOL    HW228863   3.880   4.548   3.541  1.0295 -0.6492  1.0226
 5743SOL     OW28864   0.316   4.090   6.676  0.1150 -0.3695 -0.1498
 5743SOL    HW128865   0.396   4.045   6.650 -0.9906 -1.6158 -1.4232
 5743SOL    HW228866   0.317   4.172   6.626 -0.0395 -0.8085 -0.8728
 5744SOL     OW28867   3.214   2.581  12.024  0.1368  0.4107 -0.4894
 5744SOL    HW128868   3.205   2.486  12.032  0.2256  0.4162 -0.3165
 5744SOL    HW228869   3.301   2.592  12.064  0.1066 -2.2795  0.3317
 5745SOL     OW28870   2.752   3.132   9.185  0.0562 -0.1030 -0.2816
 5745SOL    HW128871   2.766   3.116   9.279 -0.1383 -0.4081 -0.3031
 5745SOL    HW228872   2.839   3.157   9.156  0.8144 -2.9586 -0.4325
 5746SOL     OW28873   1.534   3.402  16.861  0.5257  0.0692 -0.7965
 5746SOL    HW128874   1.575   3.467  16.917 -0.4625  0.8904 -1.0173
 5746SOL    HW228875   1.609   3.348  16.837 -0.3318 -1.2565 -0.5126
 5747SOL     OW28876   1.753   3.153   4.515 -0.0190  0.1171 -0.4696
 5747SOL    HW128877   1.676   3.192   4.556  0.8070  1.8897 -0.5960
 5747SOL    HW228878   1.824   3.211   4.544  1.3544 -2.2471  0.8583
 5748SOL     OW28879   0.953   0.604  16.770 -0.5336  0.6318  0.2265
 5748SOL    HW128880   0.939   0.694  16.741  3.7575  0.9830 -0.7945
 5748SOL    HW228881   0.989   0.619  16.858  0.1591  0.3486 -0.0022
 5749SOL     OW28882   0.441   4.226  11.634  0.9038 -0.1033 -0.2155
 5749SOL    HW128883   0.498   4.249  11.561 -0.3113  0.5773 -0.9558
 5749SOL    HW228884   0.491   4.157  11.677  1.2353  1.1078  1.3189
 5750SOL     OW28885   3.771   3.363   2.910  0.2064  0.2962  0.0255
 5750SOL    HW128886   3.751   3.305   2.836 -1.7309 -1.4261  1.9038
 5750SOL    HW228887   3.700   3.426   2.923  1.4725  1.5020  1.1252
 5751SOL     OW28888   0.911   3.174   7.860  0.5002 -0.2577  0.0738
 5751SOL    HW128889   0.885   3.201   7.949 -1.9857 -1.3477 -0.3230
 5751SOL    HW228890   0.878   3.252   7.815 -1.2511  0.3259  2.3416
 5752SOL     OW28891   0.624   4.618   8.738 -0.4790 -0.2173  0.2548
 5752SOL    HW128892   0.684   4.692   8.748 -1.2819  0.4930 -0.2097
 5752SOL    HW228893   0.573   4.619   8.819 -0.9429 -0.7334 -0.0317
 5753SOL     OW28894   2.508   3.414  10.722 -0.0677 -0.5314  0.4955
 5753SOL    HW128895   2.483   3.327  10.690 -0.4758 -1.0363  2.1482
 5753SOL    HW228896   2.593   3.436  10.685 -0.2529  0.4936  0.6744
 5754SOL     OW28897   0.671   3.180   2.920  0.2988  0.4521  0.0193
 5754SOL    HW128898   0.610   3.189   2.993  1.4756  0.6571  0.9851
 5754SOL    HW228899   0.741   3.222   2.969  3.4200 -3.3794 -1.0840
 5755SOL     OW28900   2.405   0.158   3.729 -0.3548  0.7300 -0.0723
 5755SOL    HW128901   2.488   0.182   3.769 -1.1478 -0.6428  2.3856
 5755SOL    HW228902   2.357   0.161   3.811  2.9078 -0.2388  1.8757
 5756SOL     OW28903   4.573   0.939  12.811  0.0110  0.0728 -0.0250
 5756SOL    HW128904   4.629   0.882  12.862 -0.1638 -0.9732 -1.0105
 5756SOL    HW228905   4.494   0.943  12.866 -0.5936 -1.5408 -0.7788
 5757SOL     OW28906   3.717   1.231  15.591  0.6138  0.1665  0.4154
 5757SOL    HW128907   3.735   1.301  15.528 -0.4251 -0.8837 -1.0420
 5757SOL    HW228908   3.649   1.276  15.641 -1.0602 -2.6904  0.6764
 5758SOL     OW28909   4.217   0.603   3.842 -0.2220 -0.0006  0.0398
 5758SOL    HW128910   4.147   0.577   3.782 -0.3028  0.4256 -0.0504
 5758SOL    HW228911   4.195   0.693   3.868 -0.7154  0.7221 -2.8956
 5759SOL     OW28912   4.361   2.071   9.091 -0.1643  0.3239  0.1839
 5759SOL    HW128913   4.284   2.014   9.085  2.0236 -2.6544  0.3129
 5759SOL    HW228914   4.332   2.127   9.164  0.8380  0.1170  0.7340
 5760SOL     OW28915   4.236   1.797  15.303 -0.6084  0.2593 -0.2266
 5760SOL    HW128916   4.265   1.882  15.271 -5.2720  1.8551 -0.2251
 5760SOL    HW228917   4.172   1.829  15.367 -2.9783 -2.0155 -1.4212
 5761SOL     OW28918   1.351   4.097   4.707 -0.4823 -0.2101  0.0720
 5761SOL    HW128919   1.305   4.025   4.666  2.2748 -1.4000 -0.8994
 5761SOL    HW228920   1.282   4.161   4.726 -0.8091  0.4033 -3.1435
 5762SOL     OW28921   0.639   4.028   4.896  0.6762  0.1581 -0.0348
 5762SOL    HW128922   0.599   4.108   4.930  1.5134  1.0143 -1.0548
 5762SOL    HW228923   0.732   4.049   4.898  0.5221  0.7458  0.8818
 5763SOL     OW28924   3.696   0.515   6.062 -0.5468  0.1314  0.0802
 5763SOL    HW128925   3.681   0.436   6.010 -1.3306 -0.0492  0.5804
 5763SOL    HW228926   3.668   0.488   6.150  1.1756 -0.6626  0.3927
 5764SOL     OW28927   4.655   1.268   4.313  0.6263 -0.0403 -0.2820
 5764SOL    HW128928   4.585   1.224   4.266  0.0850  1.5067 -0.9290
 5764SOL    HW228929   4.628   1.358   4.294 -1.5641 -0.6148  0.2249
 5765SOL     OW28930   2.390   4.079  15.930  0.1449  0.7374 -0.4021
 5765SOL    HW128931   2.398   4.103  15.838 -3.2958 -0.6355 -1.0951
 5765SOL    HW228932   2.344   4.159  15.955 -0.5478  0.2880 -0.2177
 5766SOL     OW28933   3.142   3.780   5.343  0.1089 -0.4404 -0.1544
 5766SOL    HW128934   3.081   3.729   5.397 -0.0092 -1.1985 -1.0067
 5766SOL    HW228935   3.126   3.746   5.255  0.5771 -0.3541 -0.2712
 5767SOL     OW28936   3.472   2.012   8.624  0.1290 -0.5644 -0.2097
 5767SOL    HW128937   3.497   2.098   8.658 -3.0801  0.5090 -0.6031
 5767SOL    HW228938   3.511   1.956   8.691  0.8115  1.9378  1.5084
 5768SOL     OW28939   0.270   1.371   7.895 -0.0405  0.3677 -0.9639
 5768SOL    HW128940   0.183   1.354   7.859 -0.1174  1.0876 -1.1091
 5768SOL    HW228941   0.255   1.401   7.984 -1.0621  2.2197 -1.7724
 5769SOL     OW28942   2.438   1.041   3.075  0.2235 -0.5140 -0.2125
 5769SOL    HW128943   2.444   0.946   3.086  0.2594 -0.7301 -2.1698
 5769SOL    HW228944   2.517   1.077   3.115 -0.1352 -0.5057  0.4997
 5770SOL     OW28945   1.435   0.331  10.519 -0.2027  0.0252 -0.1073
 5770SOL    HW128946   1.466   0.271  10.452 -0.9390  1.2463 -1.5217
 5770SOL    HW228947   1.414   0.270  10.590  0.5180  1.3622  1.2627
 5771SOL     OW28948   0.551   1.647   5.315  0.4337 -0.1367  0.4818
 5771SOL    HW128949   0.595   1.653   5.400  0.6056  2.6508  0.1930
 5771SOL    HW228950   0.591   1.724   5.276  1.8101 -1.1027 -0.0352
 5772SOL     OW28951   3.414   2.962   6.145 -0.4251  0.7822 -0.1520
 5772SOL    HW128952   3.410   2.930   6.055  0.4732 -0.9807  0.4275
 5772SOL    HW228953   3.375   2.881   6.179  0.3126  0.3324 -0.3786
 5773SOL     OW28954   0.680   2.771   2.047  0.1409 -0.1963 -0.2701
 5773SOL    HW128955   0.639   2.707   2.106 -0.0693 -1.2690 -1.5746
 5773SOL    HW228956   0.677   2.848   2.103 -0.3147 -2.3867  2.7330
 5774SOL     OW28957   4.021   0.278   4.540 -0.3143 -0.2190  0.2622
 5774SOL    HW128958   4.089   0.286   4.606  0.2416  1.0648 -0.4684
 5774SOL    HW228959   4.063   0.208   4.489  1.4806  0.6702  0.5062
 5775SOL     OW28960   2.049   2.981   3.556  0.2537 -0.3886 -0.1109
 5775SOL    HW128961   2.136   2.978   3.517  0.5778  0.2718  0.5567
 5775SOL    HW228962   2.080   3.015   3.640 -1.3210  0.1763  0.2520
 5776SOL     OW28963   3.490   3.942   7.924 -0.4536 -0.0359  0.0966
 5776SOL    HW128964   3.454   3.902   8.003  0.5002  0.6425  0.8687
 5776SOL    HW228965   3.565   3.997   7.945 -0.3920  0.5740 -1.7914
 5777SOL     OW28966   2.022   4.657   9.693  0.0921  0.3608 -0.0332
 5777SOL    HW128967   2.087   4.669   9.762  0.0503  1.3179 -0.1561
 5777SOL    HW228968   2.073   4.613   9.624 -0.1382  0.3060 -0.1696
 5778SOL     OW28969   4.226   4.548  16.248 -0.1194  0.2527  0.6188
 5778SOL    HW128970   4.132   4.545  16.231 -0.0272 -1.7754  0.4453
 5778SOL    HW228971   4.223   4.602  16.327 -0.8346 -0.3752  1.0179
 5779SOL     OW28972   3.865   1.609  12.858 -0.5160 -0.3792 -0.2773
 5779SOL    HW128973   3.795   1.561  12.814  0.2185 -2.1672  0.5395
 5779SOL    HW228974   3.916   1.537  12.893  1.1618  1.1601  0.4680
 5780SOL     OW28975   0.917   4.627   6.997  0.1865 -0.1143  0.6369
 5780SOL    HW128976   0.955   4.548   7.035  0.2097 -1.4283 -2.0616
 5780SOL    HW228977   0.896   4.677   7.075 -3.8767 -1.8329  0.6778
 5781SOL     OW28978   0.065   0.297   5.783 -0.5121  0.4879 -0.4008
 5781SOL    HW128979   0.096   0.350   5.857 -2.8751 -0.7081  1.4464
 5781SOL    HW228980   0.021   0.230   5.836  0.6911 -0.7116 -0.8898
 5782SOL     OW28981   2.835   3.999   8.443  0.4332  0.0730  0.0849
 5782SOL    HW128982   2.855   4.083   8.485  1.8352 -0.8425  1.2019
 5782SOL    HW228983   2.883   4.007   8.361 -0.2570 -3.4018 -0.6544
 5783SOL     OW28984   1.797   0.532   9.779 -0.5552 -0.4235  0.2514
 5783SOL    HW128985   1.808   0.530   9.875  1.5309  1.5391  0.0522
 5783SOL    HW228986   1.845   0.454   9.750 -1.4447 -0.6415 -0.6230
 5784SOL     OW28987   0.402   0.629   7.431  0.0758 -0.7666 -0.2476
 5784SOL    HW128988   0.421   0.553   7.486 -0.0232 -0.1848  0.5867
 5784SOL    HW228989   0.310   0.653   7.442  0.6304  1.0107  0.5969
 5785SOL     OW28990   4.523   0.757   8.493 -0.7438 -0.0932  0.1627
 5785SOL    HW128991   4.610   0.782   8.523  0.2147 -0.2763 -2.4235
 5785SOL    HW228992   4.478   0.841   8.485 -0.9414 -0.2595 -0.5444
 5786SOL     OW28993   2.206   2.660  16.240 -0.1574  0.6261  0.3982
 5786SOL    HW128994   2.188   2.626  16.152 -0.3109  1.7729 -0.0104
 5786SOL    HW228995   2.302   2.663  16.242 -0.0974 -0.0620 -1.0473
 5787SOL     OW28996   2.666   0.279  12.712  0.0758 -0.4178 -0.3348
 5787SOL    HW128997   2.597   0.288  12.778 -1.5308 -1.0210 -1.9112
 5787SOL    HW228998   2.647   0.362  12.668  1.0451 -0.0439 -0.0413
 5788SOL     OW28999   0.849   0.144  13.464 -0.0474  1.0578 -0.5916
 5788SOL    HW129000   0.828   0.237  13.471 -1.3758  0.3852  4.2770
 5788SOL    HW229001   0.779   0.094  13.505  0.0713  0.1698 -1.4563
 5789SOL     OW29002   3.563   4.439   3.529 -0.3771  0.2440  0.8480
 5789SOL    HW129003   3.481   4.488   3.531 -1.1818 -1.0872  0.4857
 5789SOL    HW229004   3.579   4.420   3.437  1.8798 -0.1885  1.3199
 5790SOL     OW29005   4.064   4.495   6.891  0.1148  0.2970  0.0839
 5790SOL    HW129006   4.066   4.401   6.906 -1.5236  0.2865  0.1821
 5790SOL    HW229007   4.125   4.522   6.960 -0.4177  0.7071  0.3942
 5791SOL     OW29008   4.069   2.728   3.453 -0.2435  0.1736 -0.0113
 5791SOL    HW129009   4.144   2.750   3.397  0.1205 -0.7402  0.1195
 5791SOL    HW229010   4.094   2.636   3.459  2.2854  0.6919 -2.4401
 5792SOL     OW29011   2.000   2.120   6.797  0.1158  0.2660 -0.2289
 5792SOL    HW129012   2.002   2.152   6.887 -3.2219 -1.4717  0.4422
 5792SOL    HW229013   2.047   2.196   6.763  0.6033 -0.1009 -0.3730
 5793SOL     OW29014   1.545   3.057   6.917 -0.1043  0.0523 -0.2495
 5793SOL    HW129015   1.604   3.100   6.856  0.3972 -0.8037 -0.3688
 5793SOL    HW229016   1.591   2.975   6.936  1.3636  1.1800  0.9843
 5794SOL     OW29017   3.965   3.274  10.401  0.5127  0.0067  0.4528
 5794SOL    HW129018   3.886   3.328  10.388  1.2162  0.9140 -0.0163
 5794SOL    HW229019   3.949   3.206  10.337 -0.9463  1.0591 -0.3106
 5795SOL     OW29020   2.421   3.247   3.667  0.3696  0.1224 -0.2118
 5795SOL    HW129021   2.472   3.185   3.614 -0.9930  0.2108 -1.6305
 5795SOL    HW229022   2.448   3.333   3.635  2.6448 -0.1073  1.1205
 5796SOL     OW29023   2.054   1.766   7.643  0.3539  0.1708 -0.1934
 5796SOL    HW129024   1.972   1.772   7.692 -0.0602 -0.3826 -0.8370
 5796SOL    HW229025   2.107   1.829   7.693 -0.8059  2.5177 -1.9429
 5797SOL     OW29026   2.084   0.080   7.669  0.3702  0.4908 -0.4203
 5797SOL    HW129027   2.115   4.726   7.673 -0.9018  0.0731  0.1685
 5797SOL    HW229028   2.163   0.132   7.659  0.6848  0.4424  1.8588
 5798SOL     OW29029   3.496   1.029   2.504 -0.5226 -0.3394  0.3043
 5798SOL    HW129030   3.424   1.017   2.567  0.1202 -1.3319  0.8510
 5798SOL    HW229031   3.567   1.000   2.561 -0.8588 -0.4332  0.6728
 5799SOL     OW29032   0.078   3.812   8.990  0.4630 -1.1870  0.0687
 5799SOL    HW129033   0.147   3.838   8.929 -1.6243 -0.4174 -1.9814
 5799SOL    HW229034   0.126   3.812   9.072 -2.3320  0.1618  1.7095
 5800SOL     OW29035   0.080   0.884  17.252  0.3998  0.0615  0.0104
 5800SOL    HW129036   0.119   0.885  17.165  0.9970  1.6254  0.2989
 5800SOL    HW229037   4.724   0.882  17.228 -0.0828  1.5245  1.6637
 5801SOL     OW29038   2.326   1.047   7.702  0.2095 -0.0512  0.6516
 5801SOL    HW129039   2.292   0.979   7.645  2.4791  0.6246 -1.5693
 5801SOL    HW229040   2.316   1.118   7.639  1.0171  0.6035  1.2545
 5802SOL     OW29041   3.018   0.449   6.382  0.0835  0.2611 -0.2384
 5802SOL    HW129042   3.018   0.439   6.287 -0.1985  0.2128 -0.2334
 5802SOL    HW229043   3.066   0.532   6.388 -1.2391  1.1216 -1.5085
 5803SOL     OW29044   2.960   4.367   8.351 -0.2083  0.4471  0.1932
 5803SOL    HW129045   3.036   4.418   8.380  0.5491 -0.0283 -0.9409
 5803SOL    HW229046   2.925   4.339   8.435 -0.1637  0.9037  0.3635
 5804SOL     OW29047   1.628   3.033   4.865 -0.1036  0.1597  0.4757
 5804SOL    HW129048   1.627   3.024   4.960 -1.9344  0.1292  0.4665
 5804SOL    HW229049   1.638   3.128   4.862  1.5051 -0.0482 -0.5350
 5805SOL     OW29050   0.971   1.175   6.474  0.3899 -0.6927 -0.2526
 5805SOL    HW129051   0.938   1.154   6.386  0.6313 -0.6531 -0.3523
 5805SOL    HW229052   0.889   1.193   6.519  1.4037  1.2949  0.8064
 5806SOL     OW29053   0.184   4.293   7.799 -0.9063 -0.2059 -0.2539
 5806SOL    HW129054   0.264   4.248   7.827 -0.9408 -0.9326 -1.3274
 5806SOL    HW229055   0.159   4.328   7.885  0.7282  1.3114 -0.3711
 5807SOL     OW29056   2.275   3.196   7.319 -0.9659  0.1685 -0.0445
 5807SOL    HW129057   2.258   3.103   7.336  0.3004  0.0805  0.8002
 5807SOL    HW229058   2.235   3.233   7.398 -2.0875 -0.7570 -0.1704
 5808SOL     OW29059   3.936   2.121   9.078 -0.2791 -0.7204 -0.4372
 5808SOL    HW129060   3.866   2.096   9.019 -1.5308 -1.0732  1.1953
 5808SOL    HW229061   3.993   2.045   9.088 -0.0714 -0.6077 -0.7657
 5809SOL     OW29062   0.642   1.420   3.827  0.0448  0.1933  0.3648
 5809SOL    HW129063   0.681   1.430   3.914  1.3262 -2.4406  0.0831
 5809SOL    HW229064   0.554   1.457   3.839  0.3045  0.5169  1.3323
 5810SOL     OW29065   4.415   1.217   0.161  0.4950 -0.1095 -0.6004
 5810SOL    HW129066   4.338   1.259   0.122 -0.2070 -0.4391  0.4228
 5810SOL    HW229067   4.400   1.126   0.135  0.0370 -0.2791  0.2550
 5811SOL     OW29068   0.700   1.793  10.987  0.3667 -0.4592  0.2396
 5811SOL    HW129069   0.764   1.814  10.918 -0.6359 -0.8240 -0.7906
 5811SOL    HW229070   0.748   1.801  11.069 -2.2107  2.1522  1.4929
 5812SOL     OW29071   2.117   1.730   9.352 -0.6989  0.0976  0.0490
 5812SOL    HW129072   2.193   1.789   9.355 -1.4013  0.9977  0.0520
 5812SOL    HW229073   2.143   1.661   9.413 -0.1661 -0.3644 -0.7133
 5813SOL     OW29074   4.060   4.595   6.337 -0.4185  0.2419  0.6105
 5813SOL    HW129075   4.095   4.673   6.380 -1.3311 -0.1485  2.0711
 5813SOL    HW229076   4.138   4.559   6.296 -1.5178 -0.7124 -0.6186
 5814SOL     OW29077   2.504   1.789   2.624 -0.0314 -0.2355 -0.3639
 5814SOL    HW129078   2.446   1.824   2.691 -1.0474  2.4958 -2.6567
 5814SOL    HW229079   2.584   1.840   2.638 -0.6047  0.3921  0.6229
 5815SOL     OW29080   4.200   3.639   8.517  0.2300 -0.3315 -0.2423
 5815SOL    HW129081   4.289   3.639   8.481  0.0609  1.7293 -0.6624
 5815SOL    HW229082   4.197   3.559   8.568 -1.0210 -0.1011  0.0378
 5816SOL     OW29083   0.441   1.367   2.381 -0.2324  0.3023  1.2512
 5816SOL    HW129084   0.359   1.384   2.425 -0.6959  0.8410  0.1876
 5816SOL    HW229085   0.487   1.293   2.421 -0.4913  0.7973  2.4406
 5817SOL     OW29086   1.006   0.945  12.282  0.2387 -0.2037 -0.2667
 5817SOL    HW129087   0.956   0.926  12.361 -0.6796 -0.5940 -0.9331
 5817SOL    HW229088   1.081   0.887  12.296  0.1534 -0.5453 -1.1840
 5818SOL     OW29089   2.317   2.470   4.485 -0.2377  0.2464  0.1856
 5818SOL    HW129090   2.235   2.479   4.437  0.7615  0.7987 -1.4111
 5818SOL    HW229091   2.307   2.384   4.526  2.8733 -0.6432 -0.9293
 5819SOL     OW29092   2.878   0.204   4.883  0.2961 -0.6220  0.3045
 5819SOL    HW129093   2.844   0.240   4.801  2.3543  0.9335  0.1446
 5819SOL    HW229094   2.799   0.201   4.937  0.2913 -0.4309  0.3074
 5820SOL     OW29095   1.683   2.567  11.077 -0.4611  0.2857 -0.2989
 5820SOL    HW129096   1.663   2.480  11.111 -0.0235  1.1701  2.2184
 5820SOL    HW229097   1.708   2.613  11.157  3.1350 -1.3558 -0.4763
 5821SOL     OW29098   3.766   0.273   6.490 -0.3466  0.9480  0.4406
 5821SOL    HW129099   3.740   0.272   6.582  0.4158 -1.4004  0.6357
 5821SOL    HW229100   3.831   0.343   6.489  0.6368  0.0244  0.1037
 5822SOL     OW29101   4.432   4.622  14.449 -0.0303 -0.3799  0.1347
 5822SOL    HW129102   4.474   4.699  14.411  0.4060 -0.2090  0.9511
 5822SOL    HW229103   4.384   4.590  14.373 -1.3218 -1.0131  1.2157
 5823SOL     OW29104   4.639   0.881   7.463 -0.2463  0.0874  0.1485
 5823SOL    HW129105   4.623   0.973   7.482 -2.5293  0.1296 -2.0847
 5823SOL    HW229106   4.626   0.846   7.551  0.2063 -0.3872  0.0317
 5824SOL     OW29107   2.335   1.810   7.892 -0.4837 -0.2399 -0.1989
 5824SOL    HW129108   2.402   1.878   7.884  0.6224 -1.4407 -1.1574
 5824SOL    HW229109   2.365   1.745   7.828 -1.6878  0.2636 -1.2627
 5825SOL     OW29110   3.821   3.215   1.781  0.6700  0.8224 -0.4829
 5825SOL    HW129111   3.863   3.261   1.855  1.3693 -2.1969  1.0174
 5825SOL    HW229112   3.731   3.247   1.786  0.5838  0.7823 -1.9229
 5826SOL     OW29113   0.651   0.589   6.605  0.4747 -0.1863 -0.4926
 5826SOL    HW129114   0.699   0.662   6.644  1.1760 -0.5784 -0.6401
 5826SOL    HW229115   0.657   0.520   6.671  0.2015  2.7145  2.6144
 5827SOL     OW29116   3.262   4.367   4.327 -0.1329  0.1998  0.5207
 5827SOL    HW129117   3.301   4.282   4.306 -1.8432 -0.6933  0.9724
 5827SOL    HW229118   3.298   4.423   4.258 -1.0560 -1.9313 -1.6930
 5828SOL     OW29119   1.320   0.025   9.359 -0.3261  0.1417  0.1551
 5828SOL    HW129120   1.395   0.072   9.322 -0.6562  2.3040  2.2987
 5828SOL    HW229121   1.251   0.064   9.305  0.0299 -0.6096 -0.8703
 5829SOL     OW29122   1.787   3.337  16.695 -0.9072 -0.2116 -0.1944
 5829SOL    HW129123   1.707   3.386  16.678 -0.5140  0.5266  0.1045
 5829SOL    HW229124   1.783   3.282  16.616 -1.8762 -1.8188  0.9839
 5830SOL     OW29125   2.081   2.905   0.529  0.4891 -0.7411 -0.4332
 5830SOL    HW129126   2.057   2.825   0.482  0.3849 -1.5882  1.0799
 5830SOL    HW229127   2.062   2.973   0.464  0.0892  0.0272  0.4879
 5831SOL     OW29128   0.230   3.584  17.631 -0.2589 -0.0296 -0.1070
 5831SOL    HW129129   0.192   3.506  17.671  2.4917 -0.9623  0.6609
 5831SOL    HW229130   0.158   3.638  17.597 -0.8149 -0.8799 -0.2549
 5832SOL     OW29131   3.283   1.264   8.075 -0.9597  0.5857 -0.3346
 5832SOL    HW129132   3.195   1.249   8.108 -0.9055  2.0612  0.4646
 5832SOL    HW229133   3.323   1.179   8.092 -1.4742  0.2011 -1.0452
 5833SOL     OW29134   3.446   4.071  12.387  0.1392  0.0437  0.0804
 5833SOL    HW129135   3.445   4.028  12.302  1.8918 -0.8896  0.5160
 5833SOL    HW229136   3.367   4.125  12.392 -0.2439 -0.3872 -1.6913
 5834SOL     OW29137   0.554   3.068   6.921  0.3987 -0.3716  0.5390
 5834SOL    HW129138   0.571   3.001   6.854 -1.2603  3.5134 -3.7366
 5834SOL    HW229139   0.630   3.034   6.967  2.3628 -1.5542 -3.5366
 5835SOL     OW29140   0.832   0.439   4.428  0.2012  0.5525 -0.0529
 5835SOL    HW129141   0.755   0.434   4.371  0.5385  1.1074 -0.5521
 5835SOL    HW229142   0.898   0.484   4.377  1.6903  1.1067  2.3888
 5836SOL     OW29143   2.062   4.721   8.867  0.0556 -0.5771  0.6104
 5836SOL    HW129144   2.051   0.079   8.864  0.8488 -0.4900  0.4892
 5836SOL    HW229145   2.107   4.708   8.783  1.1366  0.1730  1.0662
 5837SOL     OW29146   1.182   3.960  16.186  0.0506 -0.2397  0.5112
 5837SOL    HW129147   1.183   4.053  16.208 -1.4784 -0.2498  0.6435
 5837SOL    HW229148   1.187   3.914  16.270  0.2408  1.5992  1.5020
 5838SOL     OW29149   4.017   3.454   6.657 -0.7618  0.1220 -0.2263
 5838SOL    HW129150   3.927   3.421   6.663 -0.1423 -1.5193  0.2612
 5838SOL    HW229151   4.041   3.452   6.750 -3.6390  1.0910  0.5300
 5839SOL     OW29152   3.250   4.344   5.874  0.2651 -0.6077 -0.2800
 5839SOL    HW129153   3.259   4.249   5.879 -0.8521 -0.6618  0.6882
 5839SOL    HW229154   3.281   4.358   5.784  0.3126 -0.2466 -0.2072
 5840SOL     OW29155   4.098   3.635   8.891  0.8414 -0.3296 -0.3699
 5840SOL    HW129156   4.167   3.575   8.863  0.1117 -0.1241 -2.6401
 5840SOL    HW229157   4.104   3.632   8.986 -0.1196  0.6415 -0.2770
 5841SOL     OW29158   2.385   3.073   6.595  0.5189  0.2763 -0.0052
 5841SOL    HW129159   2.325   3.017   6.644  2.1955  0.9879  2.9074
 5841SOL    HW229160   2.409   3.138   6.662 -0.6911 -0.4855  1.1651
 5842SOL     OW29161   4.298   2.093   3.569 -0.5016  0.5703 -0.5446
 5842SOL    HW129162   4.261   2.089   3.657  0.3114 -0.6805 -0.2533
 5842SOL    HW229163   4.369   2.156   3.584  1.3132 -1.8616  1.1566
 5843SOL     OW29164   0.742   0.744   0.491  0.5637 -0.2162 -0.4315
 5843SOL    HW129165   0.751   0.835   0.465 -1.7021  0.0619 -0.2784
 5843SOL    HW229166   0.646   0.751   0.494  0.3862 -2.1489 -1.2072
 5844SOL     OW29167   3.541   0.469   3.911 -0.0273  0.4713 -0.1803
 5844SOL    HW129168   3.551   0.374   3.904  0.1563  0.5001 -0.2982
 5844SOL    HW229169   3.539   0.493   4.004  0.2192 -0.2610  0.0162
 5845SOL     OW29170   2.047   3.775   6.770 -0.7333  0.2031  0.1791
 5845SOL    HW129171   2.136   3.790   6.802  0.3289 -0.1881 -2.6241
 5845SOL    HW229172   2.028   3.712   6.839 -0.9876  0.2193  0.1220
 5846SOL     OW29173   1.565   2.892   0.501 -0.1349 -0.3020 -0.7003
 5846SOL    HW129174   1.507   2.831   0.456 -1.7688 -0.3378  1.4431
 5846SOL    HW229175   1.597   2.949   0.431 -2.3836  1.8835  0.0643
 5847SOL     OW29176   0.099   2.271   9.018 -0.0447 -0.4189  0.5376
 5847SOL    HW129177   0.018   2.245   9.062  0.7493 -4.6873 -0.6100
 5847SOL    HW229178   0.053   2.322   8.952  0.6548 -0.7279 -0.1772
 5848SOL     OW29179   0.506   2.199   4.729  0.6227 -0.3998 -0.0729
 5848SOL    HW129180   0.565   2.150   4.671 -0.5625  0.2049 -1.8106
 5848SOL    HW229181   0.528   2.165   4.816 -1.1904 -1.4410 -0.0194
 5849SOL     OW29182   3.686   2.353   5.158 -0.0781  0.0970 -0.0681
 5849SOL    HW129183   3.679   2.286   5.226 -0.8842  0.0833 -0.1612
 5849SOL    HW229184   3.725   2.419   5.215  3.7015 -2.5750  0.4342
 5850SOL     OW29185   2.424   2.494   5.733  0.0590 -0.0118  0.1213
 5850SOL    HW129186   2.456   2.422   5.788 -0.7932 -0.0449  0.5908
 5850SOL    HW229187   2.500   2.550   5.747  0.4341 -0.4744 -0.0527
 5851SOL     OW29188   2.201   3.243   5.841  0.4226 -0.3410 -0.0802
 5851SOL    HW129189   2.284   3.268   5.801  0.8083 -0.0798  0.8891
 5851SOL    HW229190   2.205   3.312   5.907 -0.2263 -1.3224  0.9788
 5852SOL     OW29191   3.398   4.358   4.584 -0.2794  0.6230 -0.1978
 5852SOL    HW129192   3.338   4.362   4.510  1.4663 -0.3170 -1.6646
 5852SOL    HW229193   3.426   4.449   4.573  0.2415  0.2245 -2.0702
 5853SOL     OW29194   3.306   2.551   6.774  0.4678 -0.3536  0.2776
 5853SOL    HW129195   3.285   2.458   6.766  1.1489 -0.4268 -0.5783
 5853SOL    HW229196   3.266   2.576   6.858 -0.7726  1.9361 -1.0056
 5854SOL     OW29197   3.937   0.732   3.927  1.3337 -0.0356 -0.2277
 5854SOL    HW129198   4.010   0.786   3.897  0.9321  1.4509  1.4766
 5854SOL    HW229199   3.871   0.801   3.939  0.3127 -0.6465 -2.2322
 5855SOL     OW29200   0.361   2.629   1.423  0.3280  0.1023  0.2620
 5855SOL    HW129201   0.369   2.551   1.477 -1.0942  0.2880  0.7308
 5855SOL    HW229202   0.282   2.665   1.462 -0.3515 -1.9518  0.7379
 5856SOL     OW29203   0.345   3.835  16.833  0.4958  0.0784  0.4681
 5856SOL    HW129204   0.420   3.839  16.893  2.0819 -3.7628 -1.2790
 5856SOL    HW229205   0.341   3.742  16.810  1.6388  0.3351 -0.7825
 5857SOL     OW29206   2.121   2.051   8.477  0.0298 -0.0023  0.0517
 5857SOL    HW129207   2.067   1.983   8.518 -1.1286  0.5321 -0.5668
 5857SOL    HW229208   2.173   2.056   8.557  1.2311 -3.0558 -0.5655
 5858SOL     OW29209   2.760   2.200   8.594 -0.0163  0.6716 -0.2088
 5858SOL    HW129210   2.667   2.214   8.576 -0.1108 -0.5817 -0.6988
 5858SOL    HW229211   2.790   2.176   8.507  2.5718  0.5296  0.7270
 5859SOL     OW29212   4.231   0.461   6.881 -0.5507  0.1634 -0.1086
 5859SOL    HW129213   4.190   0.547   6.871 -1.9767 -0.5766 -0.6259
 5859SOL    HW229214   4.324   0.480   6.875 -0.5078 -0.1864 -0.5377
 5860SOL     OW29215   0.754   2.424   5.891 -0.1249 -0.4707 -0.5431
 5860SOL    HW129216   0.799   2.503   5.860 -1.1033 -0.1007 -1.0240
 5860SOL    HW229217   0.665   2.457   5.877 -1.3964 -2.1287  3.7597
 5861SOL     OW29218   0.565   0.531   4.316  0.4295  0.2100  0.3523
 5861SOL    HW129219   0.556   0.446   4.358 -2.6718 -1.0737 -2.8973
 5861SOL    HW229220   0.507   0.517   4.242  0.0131  2.2645  0.2832
 5862SOL     OW29221   3.564   1.701   8.055 -0.3796  0.0763 -0.0630
 5862SOL    HW129222   3.654   1.723   8.030  0.2121 -0.3994  1.6137
 5862SOL    HW229223   3.574   1.625   8.112 -0.7906  1.2009  1.5301
 5863SOL     OW29224   0.837   2.448   8.518  0.2082 -0.4016  0.1171
 5863SOL    HW129225   0.778   2.433   8.444  2.1858  1.3096 -1.8071
 5863SOL    HW229226   0.876   2.361   8.526  1.0244  0.0365  0.9044
 5864SOL     OW29227   4.475   2.436  17.642  0.1199 -0.6386 -0.4002
 5864SOL    HW129228   4.412   2.411  17.574 -0.6066 -0.4464  0.1953
 5864SOL    HW229229   4.514   2.510  17.596 -0.0491 -0.2965 -0.0055
 5865SOL     OW29230   2.474   3.026   9.415  0.4233 -0.1637 -0.0883
 5865SOL    HW129231   2.558   2.988   9.439  0.1167 -0.6759  0.1868
 5865SOL    HW229232   2.497   3.118   9.426  0.7581 -0.1300 -1.0482
 5866SOL     OW29233   1.678   1.188   9.780  0.6771  0.0487  0.5132
 5866SOL    HW129234   1.745   1.255   9.784  0.3824  0.4242 -0.9375
 5866SOL    HW229235   1.627   1.206   9.859  0.5593  1.3980  0.1193
 5867SOL     OW29236   1.617   4.595   9.906  0.6136 -0.0165  0.2158
 5867SOL    HW129237   1.682   4.611   9.838  0.9721 -1.9205  0.1281
 5867SOL    HW229238   1.558   4.530   9.867  0.5704  0.2940 -0.2346
 5868SOL     OW29239   2.297   4.138   6.882  0.8394  0.8131 -0.4012
 5868SOL    HW129240   2.334   4.205   6.824 -0.3246  0.5380 -1.4501
 5868SOL    HW229241   2.354   4.143   6.958  1.1195 -0.5163 -0.5219
 5869SOL     OW29242   1.563   2.454   8.997 -0.0501  0.2586  0.9956
 5869SOL    HW129243   1.645   2.406   9.004  0.9437  1.7421 -0.5308
 5869SOL    HW229244   1.527   2.436   8.910  0.0137 -0.1206  1.0456
 5870SOL     OW29245   1.469   0.059   5.706 -0.1762 -0.7906 -0.2299
 5870SOL    HW129246   1.390   0.103   5.675 -0.2338  0.9416  2.3998
 5870SOL    HW229247   1.487   0.004   5.630  2.7028  0.8155 -0.7158
 5871SOL     OW29248   0.320   0.277   6.165 -0.2910 -0.1611  0.0938
 5871SOL    HW129249   0.317   0.295   6.071  0.1189  3.6497  0.7931
 5871SOL    HW229250   0.326   0.182   6.170 -1.6380 -0.1957  1.1022
 5872SOL     OW29251   4.660   4.354   6.044  0.1851  0.6581  0.1902
 5872SOL    HW129252   4.607   4.279   6.017  1.4723 -0.4870  0.9078
 5872SOL    HW229253   4.677   4.319   6.131  1.2377 -1.1086 -0.7273
 5873SOL     OW29254   3.464   2.392  17.263  0.0765 -0.4030 -0.0772
 5873SOL    HW129255   3.442   2.443  17.341  1.5334  0.0990 -0.0050
 5873SOL    HW229256   3.497   2.458  17.203  0.8629  0.0323  0.8365
 5874SOL     OW29257   2.581   2.937   4.763 -0.3518  0.1361  0.4368
 5874SOL    HW129258   2.638   2.927   4.687 -1.2937  0.4474 -0.3020
 5874SOL    HW229259   2.562   3.031   4.770 -0.4565  0.2057 -0.7845
 5875SOL     OW29260   4.281   4.283   6.545 -0.3318  0.0419 -0.3000
 5875SOL    HW129261   4.233   4.256   6.467  0.3325 -2.4427  0.1529
 5875SOL    HW229262   4.225   4.241   6.610 -0.3126  2.0920  1.0528
 5876SOL     OW29263   4.573   3.335   6.398  0.2379 -0.1817 -0.2322
 5876SOL    HW129264   4.523   3.308   6.475 -1.0595  3.3301  0.1595
 5876SOL    HW229265   4.614   3.413   6.433 -0.0142  0.5381 -1.5397
 5877SOL     OW29266   2.543   0.950  10.764 -0.0395 -0.1149  0.0049
 5877SOL    HW129267   2.616   1.000  10.800  0.3121 -0.4164 -0.2975
 5877SOL    HW229268   2.517   1.006  10.690  0.1537 -2.4598 -1.8293
 5878SOL     OW29269   0.476   3.952  16.600  0.0214  0.0759 -0.3775
 5878SOL    HW129270   0.441   4.030  16.558  0.7437 -0.6802 -2.3650
 5878SOL    HW229271   0.421   3.940  16.678 -1.5126 -0.9726 -1.6355
 5879SOL     OW29272   0.300   1.580   9.152 -0.3204  0.9132 -0.4866
 5879SOL    HW129273   0.361   1.654   9.143  0.3584  0.1399 -2.2388
 5879SOL    HW229274   0.346   1.506   9.113 -0.6394  0.0523  0.7790
 5880SOL     OW29275   3.706   3.684   0.492  0.1743 -0.6643 -0.0097
 5880SOL    HW129276   3.669   3.765   0.458  1.0290 -0.3639 -0.2329
 5880SOL    HW229277   3.794   3.670   0.458  0.7042  0.5670  0.8766
 5881SOL     OW29278   3.605   1.137  14.200 -0.0314  0.3242 -0.3021
 5881SOL    HW129279   3.601   1.222  14.156  0.3788 -0.2005 -1.3659
 5881SOL    HW229280   3.699   1.124  14.190  0.3559 -0.4129  4.1409
 5882SOL     OW29281   4.006   1.420  13.031  0.1750  0.0624  0.0468
 5882SOL    HW129282   4.082   1.363  13.023 -1.0409 -1.5591 -0.1012
 5882SOL    HW229283   3.938   1.356  13.053  0.6811 -0.3970  0.2909
 5883SOL     OW29284   2.956   4.219   4.067 -0.7623  0.5698 -0.0834
 5883SOL    HW129285   2.962   4.227   4.162  1.2473 -0.2735 -0.1507
 5883SOL    HW229286   3.042   4.191   4.036 -2.3287 -0.8410 -3.1546
 5884SOL     OW29287   0.544   1.648   1.843  0.0907  0.7882 -0.3757
 5884SOL    HW129288   0.608   1.667   1.913 -0.2170 -2.6866  0.8492
 5884SOL    HW229289   0.543   1.553   1.835  1.2121  0.8109 -0.7707
 5885SOL     OW29290   4.590   1.742  12.072 -0.2113 -0.3148  0.0771
 5885SOL    HW129291   4.581   1.807  12.141  2.5295 -1.3131  1.3957
 5885SOL    HW229292   4.641   1.678  12.122 -0.6057  0.7029  1.7732
 5886SOL     OW29293   4.514   2.944   7.332 -0.3792  0.3232 -0.0475
 5886SOL    HW129294   4.463   2.925   7.253 -1.1150  0.4739  0.3914
 5886SOL    HW229295   4.543   2.856   7.354 -2.9088 -0.5851 -0.3130
 5887SOL     OW29296   3.283   0.769   9.234  0.1008 -0.6538 -0.4722
 5887SOL    HW129297   3.221   0.773   9.162  0.8457  1.6007 -0.9807
 5887SOL    HW229298   3.354   0.720   9.192  2.7515  1.4703  1.5048
 5888SOL     OW29299   2.901   4.109   3.750  0.3485  0.9769 -0.7253
 5888SOL    HW129300   2.950   4.058   3.814  0.1851  0.2221 -1.1992
 5888SOL    HW229301   2.942   4.086   3.666  2.7455  0.8854  0.4696
 5889SOL     OW29302   2.017   1.817   7.370 -0.0277  0.0199  0.4915
 5889SOL    HW129303   2.008   1.794   7.463  3.3570  0.6223  0.9721
 5889SOL    HW229304   1.994   1.730   7.336 -2.4637  0.7803  0.2123
 5890SOL     OW29305   4.082   2.552   2.782  0.1425  0.4725 -0.0344
 5890SOL    HW129306   4.016   2.549   2.713 -2.8096  1.8395  2.7377
 5890SOL    HW229307   4.133   2.624   2.745 -0.2385  0.6776 -0.1566
 5891SOL     OW29308   0.282   1.966   0.752 -0.4182 -0.1117 -0.6556
 5891SOL    HW129309   0.210   1.912   0.723 -0.7056  0.5206 -1.1117
 5891SOL    HW229310   0.348   1.947   0.685  1.8237  0.4362  1.3488
 5892SOL     OW29311   1.263   0.221   4.092 -0.4669 -0.0609  0.0201
 5892SOL    HW129312   1.245   0.128   4.078 -1.6179 -0.0079  1.1595
 5892SOL    HW229313   1.356   0.225   4.116 -0.8546 -1.8386  1.7970
 5893SOL     OW29314   2.298   1.609   5.371  0.1112 -0.3354 -0.1660
 5893SOL    HW129315   2.256   1.545   5.429 -0.6675 -0.5063 -0.9220
 5893SOL    HW229316   2.278   1.576   5.284  1.3847  1.5964 -1.1863
 5894SOL     OW29317   3.690   2.709  13.160  0.0546 -0.4040 -0.8736
 5894SOL    HW129318   3.754   2.744  13.098  0.4273  0.3340 -0.0581
 5894SOL    HW229319   3.747   2.658  13.217  0.3650 -1.1513 -1.8491
 5895SOL     OW29320   0.067   3.788   8.560 -0.1374  0.6569 -0.1540
 5895SOL    HW129321   0.128   3.817   8.627 -0.8235 -0.5137  0.9620
 5895SOL    HW229322   0.014   3.868   8.554 -2.1027 -0.5016  1.7080
 5896SOL     OW29323   4.711   2.693   3.995  0.4322 -0.1865 -0.2840
 5896SOL    HW129324   4.644   2.666   4.057  0.1588 -1.1754 -1.0068
 5896SOL    HW229325   4.660   2.705   3.915 -0.9008  2.6598  1.0092
 5897SOL     OW29326   3.793   3.924  17.674  0.5234 -0.7029  0.3293
 5897SOL    HW129327   3.794   4.019  17.662  0.7435 -1.0701 -2.6280
 5897SOL    HW229328   3.802   3.909  17.580 -0.9035 -3.2157  0.5886
 5898SOL     OW29329   4.423   0.555  13.485 -0.0417  0.1702 -0.1811
 5898SOL    HW129330   4.500   0.556  13.428  1.5059 -0.7677  1.9039
 5898SOL    HW229331   4.443   0.607  13.562 -3.9688 -1.8993  2.2573
 5899SOL     OW29332   2.977   3.511   3.636  0.0963 -0.1299  0.0997
 5899SOL    HW129333   2.979   3.444   3.705  1.3651 -2.9888 -2.6978
 5899SOL    HW229334   2.948   3.592   3.679 -1.4377  0.0163 -1.2058
 5900SOL     OW29335   1.359   3.582   5.252  0.2102 -0.0136 -0.2232
 5900SOL    HW129336   1.391   3.574   5.342  0.0815  1.1698 -0.0668
 5900SOL    HW229337   1.270   3.618   5.257 -0.3817 -1.6353  0.8542
 5901SOL     OW29338   1.894   3.596  11.739  0.3618  0.0777  0.0435
 5901SOL    HW129339   1.940   3.574  11.659 -4.0447 -0.3601 -2.3678
 5901SOL    HW229340   1.890   3.691  11.726  1.6423  0.1166 -0.0812
 5902SOL     OW29341   3.349   1.936   1.992  0.1637  0.2720 -0.0928
 5902SOL    HW129342   3.367   1.900   1.905 -1.5757 -0.6183 -0.0761
 5902SOL    HW229343   3.430   1.925   2.043  0.4435  1.9174 -0.1884
 5903SOL     OW29344   3.605   1.395   6.784  0.3462  0.1494 -0.2124
 5903SOL    HW129345   3.514   1.378   6.756  0.1133 -0.0299  0.6742
 5903SOL    HW229346   3.649   1.408   6.700  2.1640 -0.9165  0.5971
 5904SOL     OW29347   2.370   0.092   5.185 -0.5803 -0.5381  0.0775
 5904SOL    HW129348   2.367   0.102   5.090  0.5415  0.8414  0.1917
 5904SOL    HW229349   2.462   0.070   5.197 -0.1070  1.4633  0.0095
 5905SOL     OW29350   0.872   3.378  14.328 -0.4397 -0.4371  0.4009
 5905SOL    HW129351   0.820   3.456  14.346  0.8038  0.9007 -1.7360
 5905SOL    HW229352   0.844   3.360  14.238  0.3697 -0.4919  0.1574
 5906SOL     OW29353   3.077   1.548   8.426 -0.3274 -0.3965  0.2127
 5906SOL    HW129354   2.996   1.520   8.384 -1.0586  1.9520  0.0408
 5906SOL    HW229355   3.055   1.616   8.489  1.4027  1.1228 -0.8094
 5907SOL     OW29356   1.147   1.853   5.575  0.0921 -0.0939  0.4415
 5907SOL    HW129357   1.133   1.923   5.511  0.9552 -0.8259 -0.5339
 5907SOL    HW229358   1.097   1.892   5.647 -0.3546  1.7504 -0.8672
 5908SOL     OW29359   0.099   3.323   5.695  0.3217 -0.0400  0.1489
 5908SOL    HW129360   0.021   3.369   5.725 -1.8421 -3.4035 -0.2484
 5908SOL    HW229361   0.128   3.275   5.772 -0.9706 -2.1475 -0.6643
 5909SOL     OW29362   2.459   0.502   2.576  0.5149  0.1874 -0.9650
 5909SOL    HW129363   2.412   0.526   2.496 -0.6120  1.8610  0.2318
 5909SOL    HW229364   2.396   0.534   2.640 -0.0803 -0.1822 -1.3588
 5910SOL     OW29365   0.632   2.955  16.984  0.0639 -0.4184  0.2843
 5910SOL    HW129366   0.610   3.048  16.979  0.9498 -0.2677 -0.6040
 5910SOL    HW229367   0.727   2.956  16.986  0.1363 -2.1435 -2.3208
 5911SOL     OW29368   3.369   1.821   2.410 -0.6762 -0.3579 -0.7349
 5911SOL    HW129369   3.426   1.869   2.470 -0.8462 -1.8376  0.6091
 5911SOL    HW229370   3.359   1.737   2.455  1.1024 -1.2300 -1.9825
 5912SOL     OW29371   1.757   2.557   8.146  0.7178  0.3964  0.0480
 5912SOL    HW129372   1.817   2.491   8.179 -0.2786  0.6761  2.4308
 5912SOL    HW229373   1.679   2.502   8.135 -0.1553  1.2625  1.8491
 5913SOL     OW29374   3.826   3.459   9.454  0.2262  0.1763 -0.3758
 5913SOL    HW129375   3.851   3.398   9.524 -0.1415  1.2850  0.7269
 5913SOL    HW229376   3.779   3.529   9.500  0.4265 -0.3068  0.5771
 5914SOL     OW29377   0.675   1.508  11.099  0.1089 -0.5284 -0.4786
 5914SOL    HW129378   0.734   1.584  11.093 -0.9924  0.5343  2.2036
 5914SOL    HW229379   0.630   1.515  11.014  1.3544  0.2761 -1.0794
 5915SOL     OW29380   2.186   3.069  13.290  0.0240 -0.6940  0.7871
 5915SOL    HW129381   2.192   3.004  13.220  2.8082  0.1354  0.2584
 5915SOL    HW229382   2.169   3.149  13.240 -1.4908 -0.6407  1.3833
 5916SOL     OW29383   2.254   3.840   3.847  0.2685  0.1443  0.1489
 5916SOL    HW129384   2.251   3.887   3.930 -2.0119  1.7451 -0.8425
 5916SOL    HW229385   2.298   3.906   3.794 -0.1609 -1.2504 -1.9236
 5917SOL     OW29386   3.750   4.668  17.565  0.1159 -0.5064  0.3183
 5917SOL    HW129387   3.720   4.729  17.498  1.0522 -2.4767 -1.8969
 5917SOL    HW229388   3.845   4.663  17.550  0.1678  0.4041  0.3307
 5918SOL     OW29389   0.371   3.134  10.417  0.4354  0.1578 -0.3671
 5918SOL    HW129390   0.323   3.187  10.481 -1.3027 -4.0446  1.8103
 5918SOL    HW229391   0.446   3.189  10.394  1.7544 -0.7602  1.6855
 5919SOL     OW29392   1.915   1.103   8.905 -0.3363 -0.1655  0.4651
 5919SOL    HW129393   1.845   1.123   8.967 -0.6900 -1.3365  0.4559
 5919SOL    HW229394   1.990   1.152   8.937 -1.1797  0.3407  1.6386
 5920SOL     OW29395   3.869   3.612   2.280  0.2768  0.3188 -0.0532
 5920SOL    HW129396   3.775   3.595   2.294 -0.3227  3.8718  0.1516
 5920SOL    HW229397   3.904   3.634   2.366  0.2868 -1.7610  0.4847
 5921SOL     OW29398   0.238   4.291   4.283 -0.7658  0.3389  0.0858
 5921SOL    HW129399   0.215   4.337   4.202  3.1121 -0.6854 -1.6369
 5921SOL    HW229400   0.186   4.344   4.343 -3.0371 -1.4596 -0.3116
 5922SOL     OW29401   1.396   1.652   4.918  0.1846  0.6749  0.2186
 5922SOL    HW129402   1.328   1.718   4.934  0.4303  1.5121 -2.1656
 5922SOL    HW229403   1.478   1.702   4.918  2.3039 -2.8086 -0.8508
 5923SOL     OW29404   0.503   0.050   8.418 -0.8522  0.3199  0.4968
 5923SOL    HW129405   0.453   0.126   8.449 -2.3156 -0.8348  0.9596
 5923SOL    HW229406   0.531   0.021   8.505  2.3213  1.5521 -0.1181
 5924SOL     OW29407   3.442   4.108  16.798  0.4405 -0.4268 -0.1376
 5924SOL    HW129408   3.524   4.059  16.803 -0.5645 -2.0616  0.1146
 5924SOL    HW229409   3.451   4.156  16.880 -1.6713  1.5779 -1.0558
 5925SOL     OW29410   2.945   0.342   5.570  1.0544  0.2777 -0.0845
 5925SOL    HW129411   2.891   0.396   5.628 -0.0780 -0.4339 -0.4784
 5925SOL    HW229412   2.921   0.258   5.608  1.1768  0.3572  0.1617
 5926SOL     OW29413   1.724   2.754   3.994 -0.0262  0.9320 -0.1375
 5926SOL    HW129414   1.704   2.829   4.050  1.6853  0.7147  0.7614
 5926SOL    HW229415   1.637   2.715   3.996  1.0484 -1.5289 -1.4345
 5927SOL     OW29416   4.019   4.679  17.474  0.1384 -0.2440  0.2737
 5927SOL    HW129417   4.106   4.683  17.432 -0.6766  2.7435 -1.1557
 5927SOL    HW229418   4.040   0.006  17.543 -1.0609 -1.5722  1.8572
 5928SOL     OW29419   0.615   3.583   5.444 -0.2105 -0.0755  0.3652
 5928SOL    HW129420   0.568   3.586   5.361 -0.4545  0.1357  0.5120
 5928SOL    HW229421   0.575   3.506   5.483 -1.0616 -0.0180 -0.3906
 5929SOL     OW29422   1.205   0.845   0.193 -0.4518 -0.0448 -0.2803
 5929SOL    HW129423   1.128   0.899   0.210  0.4796  0.6299  1.7654
 5929SOL    HW229424   1.225   0.824   0.284 -3.0356 -0.7419  0.1329
 5930SOL     OW29425   4.186   4.297  16.903 -0.6184  0.0866  0.4372
 5930SOL    HW129426   4.278   4.306  16.927  0.1231  1.7134 -3.1066
 5930SOL    HW229427   4.189   4.377  16.852 -0.6014  0.1551  0.5450
 5931SOL     OW29428   3.300   2.329  12.055 -1.4749  0.3323 -0.0540
 5931SOL    HW129429   3.218   2.320  12.104 -1.0053 -0.3848  0.5929
 5931SOL    HW229430   3.369   2.307  12.117 -0.0712 -0.9570 -2.0888
 5932SOL     OW29431   2.695   1.077  10.954  0.1901 -0.4006  0.6562
 5932SOL    HW129432   2.656   1.134  11.020  1.5038 -1.2574  2.1745
 5932SOL    HW229433   2.719   1.001  11.007 -0.5801 -1.9933 -1.2719
 5933SOL     OW29434   1.324   3.193   2.984 -0.3432 -0.4587 -0.3778
 5933SOL    HW129435   1.419   3.188   2.985 -0.2198  1.6389 -0.5601
 5933SOL    HW229436   1.308   3.157   2.896 -1.6351 -0.4917 -0.1277
 5934SOL     OW29437   0.942   1.145  15.046  0.3326  0.2512 -0.4156
 5934SOL    HW129438   0.933   1.052  15.025 -0.1633  0.2219 -0.0746
 5934SOL    HW229439   0.919   1.196  14.969  2.2542 -0.2379 -1.3187
 5935SOL     OW29440   1.778   0.542   7.254 -0.1142 -0.1177  0.3755
 5935SOL    HW129441   1.743   0.466   7.208  0.1793 -1.2644  2.0383
 5935SOL    HW229442   1.718   0.607   7.217 -0.0744 -0.4001 -0.1749
 5936SOL     OW29443   2.109   0.508  13.198  0.1424 -0.2923  0.1520
 5936SOL    HW129444   2.041   0.450  13.232  1.3065  0.3512  3.5890
 5936SOL    HW229445   2.060   0.591  13.200  1.8974  0.6775  3.3042
 5937SOL     OW29446   2.262   1.407  17.213 -0.0961 -0.0226 -0.1551
 5937SOL    HW129447   2.327   1.470  17.245  1.5528 -2.0786  0.4826
 5937SOL    HW229448   2.258   1.346  17.286  1.5638  0.4716  0.3554
 5938SOL     OW29449   0.737   2.336   8.845  0.0540 -0.1771 -0.1261
 5938SOL    HW129450   0.669   2.391   8.806  1.7157  1.6583 -0.4706
 5938SOL    HW229451   0.778   2.392   8.911 -0.6086  1.5217 -1.1504
 5939SOL     OW29452   0.922   1.129  14.346  0.4139 -0.3753 -0.3085
 5939SOL    HW129453   0.947   1.215  14.312 -0.0991 -0.7042 -1.5241
 5939SOL    HW229454   1.004   1.081  14.339  0.6095 -0.3775  2.0180
 5940SOL     OW29455   0.287   1.542  11.731  0.9300 -0.1732  0.3848
 5940SOL    HW129456   0.251   1.500  11.809  1.4264 -0.0295  0.6889
 5940SOL    HW229457   0.206   1.574  11.690  2.6625 -0.2885 -3.1570
 5941SOL     OW29458   3.356   1.771   5.928 -0.4754 -0.0987 -0.2765
 5941SOL    HW129459   3.283   1.803   5.875  1.1312  0.3349 -2.2301
 5941SOL    HW229460   3.394   1.701   5.875  0.9747 -0.8315  1.7394
 5942SOL     OW29461   4.230   0.503   2.648 -0.3396 -0.0212  0.1563
 5942SOL    HW129462   4.315   0.546   2.648 -0.8642  1.0345  3.3269
 5942SOL    HW229463   4.222   0.463   2.562 -1.8275 -0.6876  0.5950
 5943SOL     OW29464   0.493   0.069   2.664  0.5639 -0.2677  0.6948
 5943SOL    HW129465   0.433   0.049   2.592  2.4687  1.5375 -1.3955
 5943SOL    HW229466   0.465   0.158   2.683  0.5031 -0.6367  2.3378
 5944SOL     OW29467   2.361   2.677   8.139  0.5671 -0.7859 -0.2230
 5944SOL    HW129468   2.277   2.660   8.096 -0.3033 -0.5697  1.4003
 5944SOL    HW229469   2.358   2.742   8.209 -0.3019  0.8216 -1.7641
 5945SOL     OW29470   1.768   0.463  16.160 -0.3739  0.2130  0.3581
 5945SOL    HW129471   1.832   0.421  16.103 -0.0232 -0.7578  1.4757
 5945SOL    HW229472   1.754   0.393  16.224 -1.5163  0.3064  0.2208
 5946SOL     OW29473   1.404   1.462   0.155 -0.0648 -0.5484  0.2076
 5946SOL    HW129474   1.339   1.499   0.214  1.0340  2.4217 -0.4795
 5946SOL    HW229475   1.331   1.441   0.097  0.5670 -2.5367  0.1071
 5947SOL     OW29476   2.977   4.665  12.613 -0.1059 -0.5195  0.2398
 5947SOL    HW129477   3.015   4.611  12.683  1.2479  0.3720  0.1829
 5947SOL    HW229478   2.907   4.704  12.667  0.1019 -1.5306  1.2506
 5948SOL     OW29479   1.717   4.442  12.456  0.6459  0.7742 -0.1853
 5948SOL    HW129480   1.809   4.436  12.484 -0.1174 -1.4010  1.7941
 5948SOL    HW229481   1.673   4.358  12.463  0.7516  1.0054  3.1788
 5949SOL     OW29482   2.889   1.139   8.698  0.1398  0.9324 -1.2719
 5949SOL    HW129483   2.944   1.094   8.762  0.1598 -0.2086 -2.0721
 5949SOL    HW229484   2.815   1.079   8.685  0.3615 -0.0037  1.7317
 5950SOL     OW29485   0.137   3.368   0.011  0.3999  0.3703 -0.2938
 5950SOL    HW129486   0.071   3.359   0.080  0.4693 -0.0587 -0.2846
 5950SOL    HW229487   0.117   3.287  17.709 -0.6945 -0.3996  1.4973
 5951SOL     OW29488   2.309   1.531   1.707  0.1604 -0.6340  0.2365
 5951SOL    HW129489   2.323   1.578   1.789  0.4854  0.2857 -0.3381
 5951SOL    HW229490   2.214   1.543   1.699  0.2560  1.0326  1.4153
 5952SOL     OW29491   4.263   4.058   4.213 -0.1991  0.0020 -0.3385
 5952SOL    HW129492   4.234   3.995   4.279 -4.3652  1.4500 -0.7975
 5952SOL    HW229493   4.182   4.091   4.175  1.3117  2.6753 -1.2585
 5953SOL     OW29494   1.618   0.966   7.757  0.3602 -0.2022 -0.0436
 5953SOL    HW129495   1.562   1.040   7.782 -0.6076 -1.1607  0.6815
 5953SOL    HW229496   1.553   0.901   7.730  0.3739 -0.1166 -0.2798
 5954SOL     OW29497   3.060   1.438  13.548  0.6536  0.1267 -0.4784
 5954SOL    HW129498   2.972   1.430  13.584  1.2558 -1.3934  0.6409
 5954SOL    HW229499   3.074   1.533  13.549 -1.8105  0.5471 -4.1134
 5955SOL     OW29500   3.697   4.688   7.025  0.3111 -0.3380 -0.2833
 5955SOL    HW129501   3.784   4.684   7.064  0.8180 -3.0109 -1.7108
 5955SOL    HW229502   3.682   0.043   7.001 -0.1943 -1.0177 -2.5655
 5956SOL     OW29503   2.650   3.013   4.376 -0.1269 -0.0195  0.0214
 5956SOL    HW129504   2.710   2.950   4.337  2.2480  2.3042 -0.0853
 5956SOL    HW229505   2.679   3.005   4.467  0.5539  1.0526 -0.0989
 5957SOL     OW29506   1.108   2.745  13.590  0.2640  0.6952  0.6408
 5957SOL    HW129507   1.135   2.833  13.561  4.3762 -0.8284 -0.2513
 5957SOL    HW229508   1.015   2.764  13.602  0.6285  1.4228  2.3536
 5958SOL     OW29509   4.076   3.281   0.002  0.7589 -0.4975  0.0861
 5958SOL    HW129510   3.986   3.267  17.718  0.9993  1.4548 -1.6678
 5958SOL    HW229511   4.077   3.231   0.084  0.1882 -0.4577  0.1143
 5959SOL     OW29512   3.609   0.556   9.887 -0.0814  0.2080 -0.3948
 5959SOL    HW129513   3.632   0.614   9.960  1.2342  0.3637 -0.9265
 5959SOL    HW229514   3.688   0.512   9.856 -0.3233 -0.4004 -0.1413
 5960SOL     OW29515   0.374   3.925   7.692 -0.1715 -0.2661  0.1172
 5960SOL    HW129516   0.447   3.877   7.655 -1.0644 -1.5179 -0.0016
 5960SOL    HW229517   0.405   4.016   7.693  2.1876 -1.0538 -1.5335
 5961SOL     OW29518   1.294   3.860   6.224 -0.0567  0.2507  0.1605
 5961SOL    HW129519   1.368   3.906   6.265 -0.3964  0.2755  0.7422
 5961SOL    HW229520   1.228   3.901   6.278 -0.7530  0.4709 -0.8615
 5962SOL     OW29521   0.802   3.485   6.006 -0.0332  0.3861  0.1913
 5962SOL    HW129522   0.833   3.401   5.973 -1.4143 -0.0625  0.0391
 5962SOL    HW229523   0.714   3.504   5.972  1.1877 -1.3135 -3.8955
 5963SOL     OW29524   0.129   2.829  17.605 -0.5112 -0.4436  0.2093
 5963SOL    HW129525   0.215   2.869  17.592 -0.4319 -1.0012 -1.0443
 5963SOL    HW229526   0.140   2.747  17.557 -0.6073 -0.9062  0.9794
 5964SOL     OW29527   0.092   2.530  11.781  0.0906 -0.0984  0.0317
 5964SOL    HW129528   0.104   2.555  11.690 -0.6198  3.3316  0.8838
 5964SOL    HW229529   0.055   2.442  11.772 -0.6611  0.4402 -1.9664
 5965SOL     OW29530   2.882   3.851  11.199  0.1853 -0.1616 -0.0401
 5965SOL    HW129531   2.817   3.875  11.133 -0.0092 -0.6825 -0.0413
 5965SOL    HW229532   2.921   3.936  11.216 -0.7523  0.8083 -2.6962
 5966SOL     OW29533   0.793   3.289   6.472  0.2964  0.3014 -0.2264
 5966SOL    HW129534   0.862   3.286   6.539  0.9400  1.0270 -0.8471
 5966SOL    HW229535   0.725   3.316   6.534  0.3157  0.9548 -0.4858
 5967SOL     OW29536   3.072   0.198  16.023 -0.3220 -1.1237 -0.5026
 5967SOL    HW129537   3.050   0.108  16.047  0.6814 -1.3904 -0.6029
 5967SOL    HW229538   3.094   0.194  15.930  1.1890  0.5695 -0.2064
 5968SOL     OW29539   0.624   2.328   4.137 -0.4375  0.5594 -0.6833
 5968SOL    HW129540   0.542   2.332   4.088 -0.1302 -0.8084 -1.3105
 5968SOL    HW229541   0.686   2.370   4.078 -0.6698  2.1443  0.1930
 5969SOL     OW29542   3.545   3.681   8.972 -0.2010 -0.2830  0.4421
 5969SOL    HW129543   3.530   3.775   8.961  0.2364 -0.1959  0.5804
 5969SOL    HW229544   3.526   3.643   8.887 -0.3578 -0.6746  0.6502
 5970SOL     OW29545   4.662   3.442   3.506  0.5280 -0.2575  1.0037
 5970SOL    HW129546   4.595   3.455   3.439  2.5853  0.7280 -0.8774
 5970SOL    HW229547   4.624   3.380   3.568 -0.0402 -0.3559  0.5564
 5971SOL     OW29548   0.754   2.046  11.295  0.3811  0.1820 -0.1898
 5971SOL    HW129549   0.714   1.997  11.367 -0.6278 -0.8778 -1.4736
 5971SOL    HW229550   0.810   2.109  11.342  0.0967  0.1202  0.2260
 5972SOL     OW29551   0.200   0.443   3.504  0.0496 -0.6980 -0.2518
 5972SOL    HW129552   0.284   0.488   3.514 -1.1209  1.3713  0.2385
 5972SOL    HW229553   0.226   0.354   3.529  1.3718 -0.0316  0.7548
 5973SOL     OW29554   1.641   3.308   6.035 -0.0780  0.1457 -0.0444
 5973SOL    HW129555   1.712   3.295   5.973 -0.7932  0.1962 -0.8694
 5973SOL    HW229556   1.577   3.365   5.992 -0.7648  0.4949  1.4128
 5974SOL     OW29557   2.393   2.307   4.171 -0.8866 -0.0959  0.3098
 5974SOL    HW129558   2.485   2.308   4.197 -0.5672 -2.4878 -0.6444
 5974SOL    HW229559   2.408   2.294   4.077 -0.7142 -1.3491  0.5134
 5975SOL     OW29560   1.803   0.424   6.344  0.0338 -0.2125 -0.2656
 5975SOL    HW129561   1.709   0.438   6.345 -0.0564 -0.8224 -0.5173
 5975SOL    HW229562   1.814   0.442   6.438  3.3284  1.2235 -0.9085
 5976SOL     OW29563   3.867   0.762   5.437  0.4019 -0.5230  0.5407
 5976SOL    HW129564   3.784   0.741   5.395  0.7060  1.6088 -1.1393
 5976SOL    HW229565   3.836   0.809   5.514 -1.1548 -0.0267 -0.4031
 5977SOL     OW29566   4.563   1.134  13.441 -0.5869 -0.3981 -0.1205
 5977SOL    HW129567   4.601   1.220  13.422  0.2745 -0.4534  1.4013
 5977SOL    HW229568   4.589   1.122  13.532  1.7934 -1.5235 -0.9427
 5978SOL     OW29569   3.748   1.324   8.107 -0.3084 -0.2456 -0.5835
 5978SOL    HW129570   3.703   1.402   8.142  0.9749 -0.5492  1.7546
 5978SOL    HW229571   3.687   1.299   8.038  0.2405 -1.5982 -0.5646
 5979SOL     OW29572   4.596   2.534  14.685 -0.2605 -0.0579  0.2779
 5979SOL    HW129573   4.567   2.557  14.773 -2.4677  1.6605 -0.8900
 5979SOL    HW229574   4.572   2.442  14.668 -1.4178  0.2672  0.1328
 5980SOL     OW29575   1.077   3.705   0.451 -0.3277  0.2486  0.4482
 5980SOL    HW129576   1.036   3.699   0.537 -2.5944  0.9219 -0.6060
 5980SOL    HW229577   1.004   3.710   0.390  1.2521  1.9048 -1.2772
 5981SOL     OW29578   2.873   2.560  15.903  1.1746 -0.1742 -0.0545
 5981SOL    HW129579   2.926   2.614  15.845 -0.6530  0.9727 -0.6563
 5981SOL    HW229580   2.941   2.508  15.945  0.8902 -0.0799  0.5167
 5982SOL     OW29581   0.137   3.787  16.298 -0.1583 -0.1200 -0.1971
 5982SOL    HW129582   0.140   3.699  16.262 -1.1820 -1.0089  1.8663
 5982SOL    HW229583   0.107   3.771  16.388  1.9455 -0.5993  0.4040
 5983SOL     OW29584   3.857   1.013   3.967  0.0791 -0.4767  0.6176
 5983SOL    HW129585   3.810   1.096   3.969  1.9223  0.5937 -0.3294
 5983SOL    HW229586   3.903   1.018   3.883 -0.3881 -1.0126  0.3277
 5984SOL     OW29587   0.576   0.157  14.277 -0.5062 -0.1028  0.1057
 5984SOL    HW129588   0.485   0.131  14.293 -0.9781  0.6293 -1.4328
 5984SOL    HW229589   0.572   0.209  14.197 -1.9250 -0.6757 -0.2032
 5985SOL     OW29590   1.533   2.279   7.830  0.1694 -0.5784  0.1845
 5985SOL    HW129591   1.574   2.279   7.743  2.8185  0.4708  1.4237
 5985SOL    HW229592   1.541   2.187   7.853  0.1972 -0.5141  0.4338
 5986SOL     OW29593   0.041   0.135   3.503  0.0101  0.5814  0.0658
 5986SOL    HW129594   4.702   0.189   3.482 -0.4616 -0.6361 -1.3470
 5986SOL    HW229595   0.059   0.171   3.590 -1.1452  0.1912  0.4636
 5987SOL     OW29596   2.916   2.173   0.257  0.1534 -0.6391  0.0969
 5987SOL    HW129597   2.841   2.151   0.313  0.6221 -0.2815  0.8658
 5987SOL    HW229598   2.987   2.139   0.313 -1.2142 -1.3057  1.4348
 5988SOL     OW29599   2.616   1.105   0.171 -0.0079  0.4004 -0.2871
 5988SOL    HW129600   2.705   1.087   0.142 -0.0267  0.5476 -0.4347
 5988SOL    HW229601   2.568   1.026   0.146 -2.2188  1.6059  0.0394
 5989SOL     OW29602   1.691   3.990   3.202  0.1135  0.9043 -0.2841
 5989SOL    HW129603   1.729   3.903   3.210 -1.8572 -0.1309 -2.2998
 5989SOL    HW229604   1.597   3.983   3.217  0.0577  1.0161 -0.5774
 5990SOL     OW29605   3.108   1.681   9.206  0.2322 -0.2967 -0.1025
 5990SOL    HW129606   3.190   1.727   9.223  0.7740 -0.9586 -0.9211
 5990SOL    HW229607   3.070   1.676   9.294 -0.7978 -1.4411 -0.6235
 5991SOL     OW29608   2.329   3.776   2.443  0.1467 -0.1917  0.4111
 5991SOL    HW129609   2.244   3.766   2.401  0.2074  0.7557  0.0681
 5991SOL    HW229610   2.363   3.846   2.387 -0.7802  1.2011  1.6083
 5992SOL     OW29611   1.001   0.421  17.198  0.0260  0.6582  0.1755
 5992SOL    HW129612   1.095   0.403  17.195 -0.3798 -1.3752 -0.6471
 5992SOL    HW229613   0.961   0.336  17.221  0.8418  0.3215  0.3540
 5993SOL     OW29614   4.323   3.786   1.436  0.2532  0.5716 -0.5491
 5993SOL    HW129615   4.336   3.771   1.530 -3.2709 -0.8052 -0.2515
 5993SOL    HW229616   4.274   3.868   1.447 -0.4915  0.2121 -1.1897
 5994SOL     OW29617   0.783   0.733   1.435 -0.8095  0.0922 -0.3097
 5994SOL    HW129618   0.749   0.711   1.348 -1.8064 -1.3637  0.4465
 5994SOL    HW229619   0.736   0.815   1.452  1.4055  1.7626 -2.2794
 5995SOL     OW29620   3.701   4.657   4.176 -0.0629  0.2078 -0.3763
 5995SOL    HW129621   3.700   4.733   4.236 -0.9546  0.3118 -0.5193
 5995SOL    HW229622   3.692   4.588   4.241  1.4345 -1.6901 -2.2189
 5996SOL     OW29623   3.427   4.005  17.695  0.1984 -0.1276 -0.0611
 5996SOL    HW129624   3.482   4.074  17.732  0.6394  0.3100 -1.5512
 5996SOL    HW229625   3.467   3.991  17.609 -0.5081  2.4705 -0.7915
 5997SOL     OW29626   2.457   1.978  16.652  0.2184  0.1521  0.0043
 5997SOL    HW129627   2.375   2.022  16.632 -0.7187 -0.5956  2.2379
 5997SOL    HW229628   2.446   1.993  16.746 -1.0888  1.1860 -0.3199
 5998SOL     OW29629   2.067   3.314   3.142 -0.0283 -0.2748 -0.0424
 5998SOL    HW129630   2.028   3.294   3.226  0.2561 -0.9650 -0.0707
 5998SOL    HW229631   2.060   3.410   3.137 -0.6097 -0.2003  2.4440
 5999SOL     OW29632   2.521   1.762   5.799  0.1653  0.7320  0.1318
 5999SOL    HW129633   2.521   1.771   5.704  1.3346  3.7068  0.4286
 5999SOL    HW229634   2.604   1.806   5.815  0.7831 -1.1372  1.9415
 6000SOL     OW29635   2.013   4.657   5.663 -0.0211  0.0297 -0.1949
 6000SOL    HW129636   2.057   4.658   5.578  3.3289  0.5545  1.5523
 6000SOL    HW229637   2.034   4.565   5.679  0.3198  0.2117  0.4295
 6001SOL     OW29638   1.092   3.640   5.261 -0.2486  0.3210 -0.8189
 6001SOL    HW129639   1.062   3.571   5.202 -0.8385  1.0726 -1.4054
 6001SOL    HW229640   1.040   3.633   5.341  0.0798  1.6053 -0.4849
 6002SOL     OW29641   0.736   4.302   4.690  0.3784  0.1255  0.2012
 6002SOL    HW129642   0.648   4.297   4.727  0.0041  2.4333 -0.3921
 6002SOL    HW229643   0.776   4.226   4.731  0.9111  1.1109  1.4790
 6003SOL     OW29644   0.663   0.403   6.801 -0.1547 -0.4405 -0.0398
 6003SOL    HW129645   0.621   0.325   6.838 -0.6323 -0.2176 -0.1140
 6003SOL    HW229646   0.728   0.413   6.871  0.3774 -1.6037 -0.3741
 6004SOL     OW29647   1.513   0.570  10.649  0.4145  0.5894 -0.3381
 6004SOL    HW129648   1.462   0.499  10.609  1.0127  0.5236 -0.9920
 6004SOL    HW229649   1.589   0.520  10.679  1.8657  0.8016 -3.6588
 6005SOL     OW29650   1.902   4.596  10.027 -0.0054 -0.1361  0.5158
 6005SOL    HW129651   1.883   4.508   9.995  0.0907  0.1515 -0.3367
 6005SOL    HW229652   1.996   4.606  10.020 -0.0373  0.1378  0.4752
 6006SOL     OW29653   1.435   0.602   9.112 -0.4075  0.2758  0.1012
 6006SOL    HW129654   1.411   0.635   9.198 -0.8246  0.5881 -0.1348
 6006SOL    HW229655   1.369   0.648   9.060 -0.2983  2.3977  1.8476
 6007SOL     OW29656   0.656   1.928   5.954  0.2871  0.1137 -0.7605
 6007SOL    HW129657   0.731   1.974   5.993  0.9202 -2.4107  0.9580
 6007SOL    HW229658   0.694   1.886   5.877  3.2962  1.7176 -0.1515
 6008SOL     OW29659   2.593   2.284   9.321  0.3486  0.8557 -0.2298
 6008SOL    HW129660   2.528   2.348   9.349  1.1308  1.8267 -0.6606
 6008SOL    HW229661   2.542   2.208   9.291 -0.2148  0.2923  2.1260
 6009SOL     OW29662   1.888   0.911   7.213  0.2968  0.5291  0.2065
 6009SOL    HW129663   1.964   0.928   7.157  0.7870 -0.1721  0.6602
 6009SOL    HW229664   1.856   1.000   7.227  0.6510  0.4729  1.3592
 6010SOL     OW29665   0.045   2.613  16.038  0.1511  0.2939  0.3744
 6010SOL    HW129666   4.690   2.591  16.025  0.0827  1.3999 -1.1420
 6010SOL    HW229667   0.092   2.538  16.002  0.2628  0.8873 -0.7344
 6011SOL     OW29668   3.759   2.334   0.236  0.0849  0.6138  0.3116
 6011SOL    HW129669   3.680   2.360   0.284 -0.1200 -0.1202  0.3719
 6011SOL    HW229670   3.749   2.389   0.158 -1.4204 -0.1806 -0.0536
 6012SOL     OW29671   1.794   0.037   7.764 -0.2196 -0.0708  0.2917
 6012SOL    HW129672   1.882   0.056   7.732  0.8520 -1.7922  2.2034
 6012SOL    HW229673   1.814   4.733   7.848  0.8586 -0.2501 -0.0496
 6013SOL     OW29674   4.226   1.122   6.320 -0.0041 -0.0114 -0.2077
 6013SOL    HW129675   4.160   1.185   6.291 -1.3958 -0.6187  1.6254
 6013SOL    HW229676   4.302   1.175   6.346 -0.9042  2.2326 -2.1820
 6014SOL     OW29677   2.869   0.991  16.989  0.0565  0.4916 -0.1303
 6014SOL    HW129678   2.844   0.899  16.979  1.2026  0.2932 -1.1348
 6014SOL    HW229679   2.813   1.018  17.061  1.3939 -2.3825  2.0123
 6015SOL     OW29680   2.679   1.476   4.477 -0.1958  0.3033 -0.1668
 6015SOL    HW129681   2.772   1.460   4.466 -0.3219 -0.9569  0.5818
 6015SOL    HW229682   2.676   1.568   4.452  1.1364 -0.0638 -1.6314
 6016SOL     OW29683   2.345   4.282   2.553 -0.1853 -0.1211 -0.1163
 6016SOL    HW129684   2.265   4.264   2.503  0.0105  0.8801 -0.7782
 6016SOL    HW229685   2.403   4.308   2.481  1.6442 -1.0992  1.0182
 6017SOL     OW29686   3.153   3.044   7.636 -0.0875  0.2901 -0.3915
 6017SOL    HW129687   3.100   3.044   7.716  2.5629 -0.1639  1.3807
 6017SOL    HW229688   3.227   2.990   7.667 -1.8922 -1.5896  0.6486
 6018SOL     OW29689   4.277   2.608  10.308  0.3828 -0.1932 -0.3140
 6018SOL    HW129690   4.320   2.688  10.339  0.5812 -0.7860  0.8936
 6018SOL    HW229691   4.351   2.574  10.258  1.1134 -0.3280  0.8663
 6019SOL     OW29692   4.727   1.415  11.549  0.1408 -0.2132 -0.0736
 6019SOL    HW129693   0.001   1.429  11.455 -1.5430  0.9383 -0.0816
 6019SOL    HW229694   0.041   1.492  11.575 -1.6020  1.5249 -1.8194
 6020SOL     OW29695   4.079   4.406   4.055  0.5039  0.1224 -0.0426
 6020SOL    HW129696   4.026   4.330   4.080  0.1642 -0.2746 -1.9853
 6020SOL    HW229697   4.160   4.375   4.095  0.4816  0.2841  0.1265
 6021SOL     OW29698   2.633   3.969  17.054 -1.1560 -0.4619 -0.4055
 6021SOL    HW129699   2.699   3.986  17.122  1.0106 -0.3590 -2.5509
 6021SOL    HW229700   2.558   4.003  17.103  2.0409  2.5800  2.4889
 6022SOL     OW29701   0.221   2.022  15.615  0.0344  0.1513  0.5215
 6022SOL    HW129702   0.155   2.036  15.684 -2.2018  1.5879 -1.9051
 6022SOL    HW229703   0.251   2.113  15.611 -2.1090  0.8075 -1.1573
 6023SOL     OW29704   3.168   1.239   2.271 -0.3540  0.4498 -0.0300
 6023SOL    HW129705   3.229   1.256   2.199  1.2864 -2.5344  0.6647
 6023SOL    HW229706   3.092   1.205   2.223 -0.8475  1.6184 -0.0572
 6024SOL     OW29707   2.700   1.474   8.591  0.1400  0.7086 -0.6061
 6024SOL    HW129708   2.615   1.500   8.627  0.5181  2.7183 -1.1641
 6024SOL    HW229709   2.684   1.413   8.519  0.9329 -0.2855  0.0511
 6025SOL     OW29710   3.077   3.976   1.565 -0.0010  0.6330  0.4954
 6025SOL    HW129711   3.143   4.014   1.624  0.6196 -0.8802  0.7686
 6025SOL    HW229712   3.010   3.954   1.629  0.4340 -0.3841  0.6003
 6026SOL     OW29713   0.314   1.977   1.508  0.2972 -0.1637 -0.5211
 6026SOL    HW129714   0.332   1.968   1.601 -1.0393  1.7454 -0.0624
 6026SOL    HW229715   0.387   1.923   1.478 -0.5410 -1.1184 -0.8746
 6027SOL     OW29716   1.944   0.143  13.054 -0.1112 -0.8427 -0.2456
 6027SOL    HW129717   1.876   0.077  13.067 -1.5456 -0.1705 -4.5415
 6027SOL    HW229718   1.913   0.184  12.973 -1.2352  1.3677  1.2783
 6028SOL     OW29719   0.514   3.522   1.640 -0.1336 -0.7760 -0.6648
 6028SOL    HW129720   0.435   3.491   1.684  0.0821 -1.7921 -0.9954
 6028SOL    HW229721   0.579   3.482   1.698 -0.4237  2.5284  1.9578
 6029SOL     OW29722   2.720   0.328  11.199 -0.7119 -0.0442  0.0917
 6029SOL    HW129723   2.712   0.336  11.294 -0.6423  0.0368  0.0909
 6029SOL    HW229724   2.742   0.416  11.170  0.6974 -1.3683 -2.8780
 6030SOL     OW29725   1.058   1.954   2.101 -0.0217 -0.2122 -0.1572
 6030SOL    HW129726   1.116   1.909   2.040  0.4329 -1.1467  0.9739
 6030SOL    HW229727   1.007   1.877   2.126 -1.7809  1.1933  0.6458
 6031SOL     OW29728   2.291   2.931  15.989  0.7212 -0.2936 -0.6267
 6031SOL    HW129729   2.372   2.924  15.939  0.1588  0.0323 -1.5757
 6031SOL    HW229730   2.328   2.996  16.049  1.9918 -2.8330  1.3319
 6032SOL     OW29731   3.506   0.143   5.683 -0.3398 -0.8679  0.8084
 6032SOL    HW129732   3.538   0.065   5.638  0.0497 -0.4796  0.4159
 6032SOL    HW229733   3.442   0.169   5.617 -0.0248 -2.2623 -0.0520
 6033SOL     OW29734   3.717   1.356  13.100 -0.0702  0.0033 -0.1586
 6033SOL    HW129735   3.744   1.298  13.172  1.7676  1.3649  0.2344
 6033SOL    HW229736   3.630   1.385  13.127 -1.5324 -1.6342 -3.0558
 6034SOL     OW29737   1.816   4.661   3.770 -0.0434  0.5798 -0.5147
 6034SOL    HW129738   1.765   4.660   3.689  0.0383 -1.1818 -0.5407
 6034SOL    HW229739   1.890   4.606   3.743 -0.7964 -0.3675 -0.6599
 6035SOL     OW29740   2.728   4.550   9.291  0.3072 -0.8851  0.0643
 6035SOL    HW129741   2.715   4.639   9.258  0.0941 -0.4552  1.3166
 6035SOL    HW229742   2.785   4.569   9.365  2.6516 -1.9999 -1.4489
 6036SOL     OW29743   4.427   0.674  15.595 -0.1760  0.7094  0.9495
 6036SOL    HW129744   4.389   0.658  15.509  2.2344 -0.4276  0.1308
 6036SOL    HW229745   4.347   0.677  15.648  0.0979 -1.5028  1.4749
 6037SOL     OW29746   2.898   2.208  16.581  0.1901  0.2657  0.0009
 6037SOL    HW129747   2.847   2.229  16.660 -1.6182  2.1421 -1.6317
 6037SOL    HW229748   2.927   2.296  16.556 -1.4585  1.2634  1.5303
 6038SOL     OW29749   4.139   4.062  12.857 -0.2056  0.2348 -0.0761
 6038SOL    HW129750   4.044   4.063  12.846 -0.5702  1.7501  3.0969
 6038SOL    HW229751   4.156   3.967  12.863  0.5685  0.3453 -0.4657
 6039SOL     OW29752   1.392   2.718   8.677 -0.0214 -0.3751 -0.0373
 6039SOL    HW129753   1.386   2.810   8.652 -2.7828 -0.3500  0.7135
 6039SOL    HW229754   1.483   2.706   8.648  0.2757 -0.1555  0.8059
 6040SOL     OW29755   1.104   3.509   2.268  0.0660  0.5696  0.2247
 6040SOL    HW129756   1.194   3.479   2.277  0.4822  1.7617 -0.0054
 6040SOL    HW229757   1.053   3.430   2.251 -0.9808  1.1421  0.7071
 6041SOL     OW29758   1.383   4.350  13.025 -0.6580  0.6174 -0.3860
 6041SOL    HW129759   1.296   4.379  13.053 -0.7380 -0.0464  0.0614
 6041SOL    HW229760   1.365   4.260  13.001 -0.7984  1.0435 -1.8496
 6042SOL     OW29761   1.253   4.609   5.391  0.4139 -0.3410  0.0310
 6042SOL    HW129762   1.165   4.639   5.415  0.2396  0.4759 -1.6416
 6042SOL    HW229763   1.232   4.546   5.321  1.4702 -2.0442  1.2538
 6043SOL     OW29764   2.809   0.707  16.983 -0.6678 -0.4758 -0.7913
 6043SOL    HW129765   2.813   0.665  16.897  0.9441  0.2994 -1.0942
 6043SOL    HW229766   2.820   0.627  17.035 -1.7398 -1.0683 -1.4546
 6044SOL     OW29767   0.691   2.655  12.931  0.3157  0.0405  0.1944
 6044SOL    HW129768   0.670   2.728  12.990 -1.0127 -0.6097  0.5190
 6044SOL    HW229769   0.786   2.650  12.941  0.4060  0.1197 -0.6537
 6045SOL     OW29770   3.226   4.544  11.259  0.4053 -0.7646  0.2413
 6045SOL    HW129771   3.270   4.568  11.177  0.1903  1.6246  0.8293
 6045SOL    HW229772   3.251   4.453  11.269  1.5303 -0.3262  1.3184
 6046SOL     OW29773   3.726   0.649   4.693 -0.6000  0.5083 -0.3466
 6046SOL    HW129774   3.726   0.621   4.784 -0.4011  1.8022  0.0486
 6046SOL    HW229775   3.653   0.708   4.712 -3.3228 -3.3205  1.0957
 6047SOL     OW29776   0.935   0.391   3.144  0.1353 -0.0015 -0.0727
 6047SOL    HW129777   0.906   0.436   3.223 -0.2414  1.7068 -1.1869
 6047SOL    HW229778   1.018   0.437   3.134  0.4892 -0.7557 -0.6057
 6048SOL     OW29779   0.926   3.716   0.242  0.4489 -0.4013 -0.2674
 6048SOL    HW129780   0.944   3.775   0.169 -0.1561 -0.2662 -0.3131
 6048SOL    HW229781   0.831   3.701   0.239  0.2873  0.4783  0.4675
 6049SOL     OW29782   0.992   1.254   7.173  0.4420 -0.1478 -0.2584
 6049SOL    HW129783   0.965   1.315   7.104 -0.3637  0.8502  0.9566
 6049SOL    HW229784   0.945   1.287   7.249 -0.4140  0.7630 -1.1965
 6050SOL     OW29785   3.564   3.525   2.931 -0.0413  0.0906 -0.0893
 6050SOL    HW129786   3.485   3.494   2.975  1.1908 -0.1415  1.9199
 6050SOL    HW229787   3.556   3.621   2.930  0.6338  0.1713  3.0978
 6051SOL     OW29788   0.150   0.255   9.253 -0.4413 -0.2676 -0.1497
 6051SOL    HW129789   0.113   0.173   9.220  2.7349 -1.8630  0.3137
 6051SOL    HW229790   0.230   0.269   9.203 -0.1680 -1.3368 -0.0037
 6052SOL     OW29791   3.767   0.491  16.068  0.5464 -0.3709  0.1858
 6052SOL    HW129792   3.789   0.413  16.119  2.1975 -0.1218 -0.1604
 6052SOL    HW229793   3.727   0.536  16.143 -1.2754  1.1831 -1.7149
 6053SOL     OW29794   2.737   4.089  11.067  0.3354 -0.4445 -0.5145
 6053SOL    HW129795   2.766   4.146  11.138  0.9279 -0.2137 -0.9381
 6053SOL    HW229796   2.747   4.150  10.993 -0.4664 -1.1307 -1.1905
 6054SOL     OW29797   2.796   0.453   5.186 -0.2290  0.0719 -0.9263
 6054SOL    HW129798   2.744   0.391   5.136  1.4979 -1.3199 -0.9989
 6054SOL    HW229799   2.766   0.536   5.148 -0.9116  0.9486  1.5147
 6055SOL     OW29800   2.510   2.274  11.504 -0.3632 -0.3515  0.2748
 6055SOL    HW129801   2.467   2.189  11.496 -1.9983  0.4256  0.7187
 6055SOL    HW229802   2.434   2.328  11.483 -1.9231 -3.0578 -0.9596
 6056SOL     OW29803   2.828   4.256   8.563 -0.3625 -0.0970 -0.4064
 6056SOL    HW129804   2.871   4.304   8.634 -0.5065  2.1430 -1.8350
 6056SOL    HW229805   2.745   4.225   8.599 -0.7004 -0.3046 -1.3802
 6057SOL     OW29806   4.545   3.119   2.864  0.5986  0.0233  0.0006
 6057SOL    HW129807   4.509   3.072   2.789 -1.4400  0.2753  0.8290
 6057SOL    HW229808   4.613   3.172   2.822  0.1645  0.7570  0.2087
 6058SOL     OW29809   0.486   0.237   5.476  0.5181  0.1182  0.6856
 6058SOL    HW129810   0.470   0.147   5.446 -0.4992  0.6733 -0.4043
 6058SOL    HW229811   0.474   0.281   5.392 -2.6546  1.5023  1.8561
 6059SOL     OW29812   0.763   0.908   3.880  0.1540 -0.2369 -0.3485
 6059SOL    HW129813   0.755   0.911   3.785  0.6203 -2.2164 -0.4533
 6059SOL    HW229814   0.782   1.000   3.898 -2.9244  0.1821  0.6406
 6060SOL     OW29815   1.349   0.091   8.567 -0.1154 -0.2057  0.0844
 6060SOL    HW129816   1.408   0.124   8.500  0.8326 -0.8024  0.6227
 6060SOL    HW229817   1.330   0.007   8.525  1.5246 -2.7713  4.4039
 6061SOL     OW29818   1.681   3.470   7.968 -0.3843  0.4707  0.2739
 6061SOL    HW129819   1.750   3.527   8.001  0.2623  0.0463 -0.3612
 6061SOL    HW229820   1.721   3.384   7.978 -0.3773  0.5807  1.1826
 6062SOL     OW29821   2.800   1.026   2.197  0.2443  0.3288  0.0124
 6062SOL    HW129822   2.753   1.013   2.279 -0.3392  4.0223  0.2710
 6062SOL    HW229823   2.746   1.003   2.121  0.1641 -1.0494  0.5016
 6063SOL     OW29824   4.578   3.546  10.191 -0.8402 -0.6354  0.2043
 6063SOL    HW129825   4.504   3.544  10.131 -0.3100 -1.6618 -0.4194
 6063SOL    HW229826   4.588   3.451  10.196 -0.0782 -0.5233  0.8203
 6064SOL     OW29827   0.681   1.593   7.695 -0.0918  0.3375  0.0656
 6064SOL    HW129828   0.686   1.535   7.771  1.8421 -0.4657 -0.6953
 6064SOL    HW229829   0.586   1.608   7.701 -0.1870 -0.5735  0.8907
 6065SOL     OW29830   2.127   1.385   2.805 -0.3769 -0.0501 -0.0239
 6065SOL    HW129831   2.181   1.328   2.860 -0.5773 -2.3820 -2.2956
 6065SOL    HW229832   2.200   1.437   2.772 -1.5910  3.1301  2.1886
 6066SOL     OW29833   3.236   0.085   1.433 -0.3705  0.5841 -0.2136
 6066SOL    HW129834   3.267   0.171   1.406  0.6056  0.3194  0.0840
 6066SOL    HW229835   3.314   0.037   1.460 -0.9114 -0.3362 -0.2711
 6067SOL     OW29836   3.023   1.599   7.303 -0.5784 -0.2511  0.1415
 6067SOL    HW129837   3.073   1.624   7.226 -1.3215  0.7580 -0.0162
 6067SOL    HW229838   3.056   1.515   7.337  1.5449  1.0587  1.3175
 6068SOL     OW29839   3.658   0.574   5.614 -0.0769  0.2511 -0.0403
 6068SOL    HW129840   3.735   0.531   5.576 -1.2866 -2.0023  0.1070
 6068SOL    HW229841   3.692   0.604   5.699 -2.3573 -0.3135  1.0735
 6069SOL     OW29842   1.650   4.528   7.992  0.8099  0.4839 -0.5757
 6069SOL    HW129843   1.619   4.616   8.015  0.0888  0.2458 -0.6228
 6069SOL    HW229844   1.656   4.532   7.896  2.1777  0.5996 -0.4864
 6070SOL     OW29845   1.052   0.740   3.624 -0.3776 -0.3427 -0.4731
 6070SOL    HW129846   1.060   0.824   3.578  0.0300 -0.7819 -1.1998
 6070SOL    HW229847   1.122   0.740   3.689  0.5503 -0.8610 -1.4662
 6071SOL     OW29848   2.415   2.273   6.039 -0.4866  0.4509 -0.3782
 6071SOL    HW129849   2.435   2.193   6.087 -2.0409 -0.0824 -0.6191
 6071SOL    HW229850   2.320   2.281   6.034 -0.4851 -0.8620 -2.8289
 6072SOL     OW29851   0.798   3.771   0.961  0.0266  0.1456  0.1067
 6072SOL    HW129852   0.875   3.785   1.016 -1.2840 -0.2715  2.0423
 6072SOL    HW229853   0.754   3.708   1.018 -2.9429 -1.2686 -3.7118
 6073SOL     OW29854   0.415   4.532   2.725  0.0663  0.6850  0.1453
 6073SOL    HW129855   0.368   4.544   2.808 -3.1248 -0.0443 -1.5505
 6073SOL    HW229856   0.413   4.624   2.696 -0.3561  0.6806  0.1564
 6074SOL     OW29857   2.941   1.884  12.272 -0.0328  0.3661 -0.5025
 6074SOL    HW129858   2.946   1.975  12.246 -0.8980  0.1879 -1.2759
 6074SOL    HW229859   2.870   1.849  12.218 -0.4259  0.7870 -0.2592
 6075SOL     OW29860   0.779   3.861   4.024 -0.1270  0.2351  0.8677
 6075SOL    HW129861   0.723   3.823   4.092  0.2145 -1.4429  0.1905
 6075SOL    HW229862   0.760   3.953   4.042 -0.0782  0.4270 -0.0707
 6076SOL     OW29863   3.195   2.590   9.530 -0.2485 -0.1737 -0.2111
 6076SOL    HW129864   3.127   2.578   9.463 -0.6576  1.0562 -0.0217
 6076SOL    HW229865   3.255   2.517   9.515 -0.7175 -0.1121 -2.3474
 6077SOL     OW29866   1.563   3.148  13.517 -0.2638 -0.2731  0.5529
 6077SOL    HW129867   1.503   3.223  13.515 -3.8948 -3.1749  0.5090
 6077SOL    HW229868   1.643   3.182  13.557 -0.2884 -0.2306  0.5660
 6078SOL     OW29869   2.198   0.355   3.863  0.2348  0.2068  0.1301
 6078SOL    HW129870   2.111   0.389   3.885  0.4150  0.2449  0.7910
 6078SOL    HW229871   2.187   0.363   3.768 -2.5093  1.2911  0.5357
 6079SOL     OW29872   0.021   2.681  14.546 -0.7071  0.1446  0.0874
 6079SOL    HW129873   0.060   2.598  14.517 -1.0393  0.4386 -1.1868
 6079SOL    HW229874   4.693   2.643  14.607  0.9359  0.6023  2.1117
 6080SOL     OW29875   0.984   1.551   2.535  0.3252  0.8229 -0.7273
 6080SOL    HW129876   1.029   1.564   2.619 -1.0780 -0.9617  0.3124
 6080SOL    HW229877   0.898   1.535   2.574 -0.2106  0.8144 -1.9296
 6081SOL     OW29878   2.869   1.292  12.736 -0.9980  0.0326  0.1819
 6081SOL    HW129879   2.914   1.334  12.809  0.5650  1.1162 -1.4024
 6081SOL    HW229880   2.929   1.318  12.666  2.2678 -0.4012  2.8619
 6082SOL     OW29881   2.860   2.648   3.829  0.4419 -0.0405  0.1988
 6082SOL    HW129882   2.847   2.659   3.734 -0.4429  1.6305  0.5136
 6082SOL    HW229883   2.920   2.720   3.850 -0.1152  0.0934  1.3257
 6083SOL     OW29884   0.632   3.338  17.672  0.0581 -0.2908  0.3529
 6083SOL    HW129885   0.615   3.315  17.581  2.5644  0.7919 -0.3817
 6083SOL    HW229886   0.639   3.433  17.670  0.1041 -0.3172 -0.8594
 6084SOL     OW29887   0.171   1.790   2.183 -0.2017 -0.0391 -0.6810
 6084SOL    HW129888   0.109   1.719   2.201  1.5683 -1.1008  1.1602
 6084SOL    HW229889   0.226   1.757   2.112 -0.3112  1.1275 -1.3180
 6085SOL     OW29890   4.436   4.443   7.239 -0.5072  0.5113 -0.1201
 6085SOL    HW129891   4.490   4.369   7.212 -1.2388  0.7217 -2.0848
 6085SOL    HW229892   4.392   4.422   7.322 -1.8854  0.3038 -0.9102
 6086SOL     OW29893   2.355   0.258  16.175 -0.0488 -0.1208  0.0397
 6086SOL    HW129894   2.300   0.187  16.210  0.3241  0.0590  0.9834
 6086SOL    HW229895   2.438   0.244  16.220  0.9108 -2.4771 -2.4460
 6087SOL     OW29896   1.691   0.265   2.595 -0.1435 -0.2580 -0.1484
 6087SOL    HW129897   1.692   0.212   2.675  0.6569  3.6662  2.4688
 6087SOL    HW229898   1.645   0.205   2.536  0.0371 -1.2338  0.6913
 6088SOL     OW29899   1.514   3.057  15.012 -0.5989 -0.4524  0.0024
 6088SOL    HW129900   1.526   3.066  15.106  0.3170  1.3585 -0.2771
 6088SOL    HW229901   1.465   3.137  14.995  0.6223  0.3541  0.2504
 6089SOL     OW29902   1.225   4.555   6.656  0.1593  0.1838 -0.1108
 6089SOL    HW129903   1.237   4.543   6.750 -0.3642 -1.8297 -0.3186
 6089SOL    HW229904   1.130   4.561   6.652  0.1621  0.1350 -0.2363
 6090SOL     OW29905   1.101   4.544   5.759 -0.3556 -0.7421  0.1205
 6090SOL    HW129906   1.041   4.512   5.827  0.3445  1.5321  1.8072
 6090SOL    HW229907   1.177   4.545   5.818 -0.4777  0.3891  0.2443
 6091SOL     OW29908   1.656   0.056   2.773  0.1476  0.6510  0.0206
 6091SOL    HW129909   1.729   0.005   2.736  1.7760  0.8286  3.0252
 6091SOL    HW229910   1.678   0.048   2.865 -1.3044 -1.6147  0.1765
 6092SOL     OW29911   4.055   0.943   5.298  0.1835  0.0272  0.2732
 6092SOL    HW129912   4.126   0.888   5.262  0.7972  1.3005 -0.4677
 6092SOL    HW229913   3.992   0.890   5.346 -1.1838  0.7065 -0.7793
 6093SOL     OW29914   2.205   0.353   6.343  0.2588  0.2459  0.1786
 6093SOL    HW129915   2.184   0.388   6.256  1.4343  0.0863 -0.1660
 6093SOL    HW229916   2.123   0.318   6.378 -1.0555  1.7795 -1.3246
 6094SOL     OW29917   2.487   1.588   7.086 -0.2754 -0.5488 -0.1784
 6094SOL    HW129918   2.518   1.670   7.124 -2.2495 -0.2406  0.7871
 6094SOL    HW229919   2.393   1.603   7.099 -0.4521  0.9137 -3.2284
 6095SOL     OW29920   2.237   1.905  11.484 -0.1437  0.0844 -0.2437
 6095SOL    HW129921   2.221   1.982  11.538  2.0245  0.5442 -0.2532
 6095SOL    HW229922   2.316   1.860  11.514 -0.9589 -0.1769  1.4985
 6096SOL     OW29923   4.128   1.837   4.387 -0.2959 -0.1830  0.1408
 6096SOL    HW129924   4.042   1.826   4.347 -0.3863 -1.9999  0.8502
 6096SOL    HW229925   4.171   1.755   4.360  0.7919 -0.2787  2.2014
 6097SOL     OW29926   4.030   2.560   0.539 -0.4447 -0.1028 -0.0048
 6097SOL    HW129927   4.014   2.568   0.633  1.4789  0.7519  0.2504
 6097SOL    HW229928   4.011   2.467   0.527  0.6889 -0.4229  0.7001
 6098SOL     OW29929   1.992   4.155   6.639 -0.2517  0.2063 -0.3302
 6098SOL    HW129930   2.023   4.246   6.639 -0.9509  0.4234  2.1183
 6098SOL    HW229931   2.008   4.122   6.727 -2.1242  2.0228  0.6806
 6099SOL     OW29932   1.366   1.219   3.390  1.0542  0.2516  0.5832
 6099SOL    HW129933   1.448   1.185   3.426 -0.2868 -1.0857  2.3911
 6099SOL    HW229934   1.396   1.268   3.314  1.0001  0.1279  0.4826
 6100SOL     OW29935   2.118   4.397   9.977 -1.0289  0.0977  0.3655
 6100SOL    HW129936   2.039   4.357   9.942 -0.1641  0.6493 -2.1892
 6100SOL    HW229937   2.183   4.367   9.913 -1.0869 -0.1121  0.4045
 6101SOL     OW29938   4.141   3.777  12.803 -0.1848  0.0886 -0.2680
 6101SOL    HW129939   4.090   3.716  12.750  0.0155  0.0502 -0.4169
 6101SOL    HW229940   4.106   3.762  12.890  1.9606  0.8561  0.7456
 6102SOL     OW29941   2.120   4.038  11.528  0.0326 -0.2806  0.0499
 6102SOL    HW129942   2.193   4.008  11.582 -0.6281 -1.6280  0.2008
 6102SOL    HW229943   2.166   4.080  11.455 -1.7153 -0.1001 -0.9452
 6103SOL     OW29944   3.528   0.787   1.135  0.1996 -0.0300 -0.2158
 6103SOL    HW129945   3.590   0.833   1.192  0.7715 -0.3606 -0.5752
 6103SOL    HW229946   3.445   0.794   1.182  0.7526  3.3328  0.2612
 6104SOL     OW29947   2.386   2.784   4.199  0.2237  0.1088  0.7174
 6104SOL    HW129948   2.456   2.746   4.252  0.0076 -0.9716  0.2107
 6104SOL    HW229949   2.403   2.877   4.217  0.7736  0.3466 -1.1204
 6105SOL     OW29950   3.367   2.496   7.442  0.4574  0.7024 -0.2721
 6105SOL    HW129951   3.345   2.548   7.520 -1.5084 -1.5001  0.6213
 6105SOL    HW229952   3.285   2.447   7.444  0.2707  0.9564 -1.7265
 6106SOL     OW29953   4.294   2.290  10.786 -0.2036 -0.5300  0.3216
 6106SOL    HW129954   4.281   2.222  10.852  1.7521 -1.5143 -0.3196
 6106SOL    HW229955   4.382   2.326  10.788 -1.3265  2.3911 -1.9405
 6107SOL     OW29956   1.585   3.297   3.687  0.0583  0.1406  0.1521
 6107SOL    HW129957   1.593   3.384   3.724 -1.4611  0.3053  0.0874
 6107SOL    HW229958   1.525   3.306   3.613  1.0456  0.6579 -0.5920
 6108SOL     OW29959   4.148   4.521   7.302  0.2085 -0.3443 -0.4625
 6108SOL    HW129960   4.085   4.465   7.348 -0.9430  0.4704 -1.0346
 6108SOL    HW229961   4.195   4.560   7.375  0.8339  0.1457 -1.1327
 6109SOL     OW29962   3.055   4.572   8.807 -0.1738 -0.2394 -0.5806
 6109SOL    HW129963   3.040   4.482   8.778  0.7686 -0.4579 -0.3555
 6109SOL    HW229964   3.093   4.572   8.895  1.4419  1.8213 -1.2948
 6110SOL     OW29965   1.946   3.945  13.908 -0.0371  0.5701  0.3707
 6110SOL    HW129966   2.019   4.002  13.932 -0.8080  2.4310 -1.7194
 6110SOL    HW229967   1.963   3.933  13.815 -0.7409 -1.6010  0.5142
 6111SOL     OW29968   0.219   1.209   5.093 -0.2662 -0.3340 -0.1019
 6111SOL    HW129969   0.132   1.197   5.054  0.1112  0.0801 -1.0648
 6111SOL    HW229970   0.267   1.267   5.035  0.8496 -0.4495  0.7069
 6112SOL     OW29971   3.577   4.167   0.084 -0.2103  0.0942 -0.5584
 6112SOL    HW129972   3.669   4.149   0.104  0.4902  1.6416 -2.4632
 6112SOL    HW229973   3.553   4.234   0.149 -0.4732  0.9942 -1.5893
 6113SOL     OW29974   2.340   4.459   8.291  0.4711 -0.2524  0.4588
 6113SOL    HW129975   2.376   4.501   8.369 -2.0211 -0.5583  1.7705
 6113SOL    HW229976   2.380   4.373   8.300 -2.4595 -1.8101 -1.3906
 6114SOL     OW29977   0.646   4.589  15.667  0.0123 -0.7830  0.2213
 6114SOL    HW129978   0.710   4.648  15.626 -1.2056 -0.4295 -1.1931
 6114SOL    HW229979   0.650   4.602  15.761 -2.2996  0.0525  0.2024
 6115SOL     OW29980   0.338   0.234   3.303  0.2681 -0.7649 -1.1991
 6115SOL    HW129981   0.371   0.237   3.213  3.1597 -1.1260 -0.1754
 6115SOL    HW229982   0.417   0.232   3.358 -0.5035 -1.6112 -0.1219
 6116SOL     OW29983   2.441   1.673   5.118  0.8707  0.3276  0.2533
 6116SOL    HW129984   2.464   1.596   5.065 -0.9224  0.0247 -0.0857
 6116SOL    HW229985   2.359   1.695   5.075 -0.1751  0.0441  2.1192
 6117SOL     OW29986   0.267   0.712   5.620  0.0659 -0.2645  0.2223
 6117SOL    HW129987   0.189   0.658   5.609 -0.1047  0.0474 -0.0708
 6117SOL    HW229988   0.315   0.647   5.674 -0.6219 -2.2866 -1.6076
 6118SOL     OW29989   0.105   3.748  10.421 -0.2279  0.1346 -0.7665
 6118SOL    HW129990   0.072   3.738  10.511  3.3922 -0.3952  0.5038
 6118SOL    HW229991   0.045   3.807  10.376  1.5633  2.0892 -0.6138
 6119SOL     OW29992   1.461   3.025   7.644 -0.3465  0.3023  0.0220
 6119SOL    HW129993   1.369   3.040   7.668 -0.1729  0.3271  0.6836
 6119SOL    HW229994   1.496   3.011   7.732  0.9240 -0.3397 -0.5887
 6120SOL     OW29995   3.573   3.113   4.507 -0.7344  0.1028  0.2412
 6120SOL    HW129996   3.631   3.189   4.518  0.6613 -0.9386  0.0647
 6120SOL    HW229997   3.564   3.110   4.412 -2.3094  0.1911  0.3942
 6121SOL     OW29998   2.895   0.168   0.769  0.4815 -0.0380  0.0639
 6121SOL    HW129999   2.956   0.097   0.751  1.5992  1.2765 -1.2865
 6121SOL    HW230000   2.897   0.218   0.687 -1.1217 -1.1884 -0.6978
 6122SOL     OW30001   3.772   0.654   5.036 -0.5300 -0.4161 -0.3429
 6122SOL    HW130002   3.830   0.589   5.077 -0.3183  0.8245  1.3067
 6122SOL    HW230003   3.733   0.694   5.114 -0.0690 -0.6315  0.0003
 6123SOL     OW30004   2.011   3.458   4.478  0.2905 -0.0610  0.2851
 6123SOL    HW130005   2.011   3.367   4.446  0.7726  0.4181 -1.0806
 6123SOL    HW230006   2.099   3.468   4.512  0.5327  0.8642 -0.5973
 6124SOL     OW30007   2.974   3.830  10.043  0.4363  0.0776  0.3706
 6124SOL    HW130008   2.997   3.760  10.104  2.8684  0.1401 -0.4862
 6124SOL    HW230009   2.882   3.804  10.040  0.4929  0.0941 -1.2935
 6125SOL     OW30010   4.114   2.973   6.067  0.6326 -0.0257 -1.0639
 6125SOL    HW130011   4.031   2.991   6.109  0.1497 -1.6135 -1.3376
 6125SOL    HW230012   4.082   2.897   6.018  1.7335 -1.1373 -0.0386
 6126SOL     OW30013   0.951   0.720   2.962 -0.1595  0.6938  0.1134
 6126SOL    HW130014   0.911   0.758   2.884 -1.7412 -2.0599 -0.4281
 6126SOL    HW230015   0.904   0.638   2.974 -1.5364  1.0095 -3.2326
 6127SOL     OW30016   3.139   2.762   5.072 -0.4653 -0.5362 -0.5161
 6127SOL    HW130017   3.092   2.681   5.050 -3.0515  1.1909 -1.2708
 6127SOL    HW230018   3.152   2.740   5.164 -1.1148 -1.1730 -0.5743
 6128SOL     OW30019   1.110   0.101  13.434  0.5019  0.5536  0.7400
 6128SOL    HW130020   1.017   0.120  13.447  0.0891 -0.4164 -0.7728
 6128SOL    HW230021   1.122   0.155  13.355  2.3031 -0.2008  0.5069
 6129SOL     OW30022   2.284   1.325   0.713 -0.1325 -0.1683  0.1812
 6129SOL    HW130023   2.202   1.315   0.663  0.8343 -2.3611 -0.9433
 6129SOL    HW230024   2.275   1.421   0.716 -1.8327 -0.3958  2.4119
 6130SOL     OW30025   2.256   1.536   2.610 -0.1828  0.1109 -0.2947
 6130SOL    HW130026   2.289   1.571   2.528 -3.1384  2.5119 -0.4602
 6130SOL    HW230027   2.249   1.443   2.589 -1.4082  0.1997 -0.2959
 6131SOL     OW30028   0.540   0.817   4.774 -0.2162  0.6168  0.1340
 6131SOL    HW130029   0.598   0.850   4.705  0.5204 -1.3034 -0.1690
 6131SOL    HW230030   0.555   0.876   4.848  2.7390  0.8665 -0.6545
 6132SOL     OW30031   0.536   1.427   2.813 -0.3978  0.0828  0.1423
 6132SOL    HW130032   0.462   1.458   2.760  1.3274  2.5264 -0.8244
 6132SOL    HW230033   0.557   1.504   2.865  1.7938  1.2023 -2.3458
 6133SOL     OW30034   1.519   4.715   5.422  0.3319 -0.2326 -0.5017
 6133SOL    HW130035   1.432   4.692   5.389 -0.0600  1.3884 -0.5848
 6133SOL    HW230036   1.510   0.070   5.396  0.4771  0.6038  2.3937
 6134SOL     OW30037   4.269   1.749  13.498  0.2222 -0.0207  0.3080
 6134SOL    HW130038   4.248   1.755  13.591 -0.6770 -0.3240  0.1247
 6134SOL    HW230039   4.365   1.750  13.499  0.2034  1.3077  0.7989
 6135SOL     OW30040   4.279   4.264   0.204 -0.2526 -0.2798 -0.4071
 6135SOL    HW130041   4.342   4.193   0.190  0.5061 -0.0747  1.9270
 6135SOL    HW230042   4.218   4.216   0.260  0.0906 -2.0251 -1.5124
 6136SOL     OW30043   3.725   2.363   9.017  0.2571 -0.2241  1.0184
 6136SOL    HW130044   3.782   2.439   9.030  0.2346  0.0655 -0.5406
 6136SOL    HW230045   3.788   2.291   9.023  1.9803  1.3063  1.4092
 6137SOL     OW30046   0.901   0.480   6.950  0.3432 -1.1528  0.0001
 6137SOL    HW130047   0.971   0.520   6.898 -0.3161  1.3060  1.0358
 6137SOL    HW230048   0.935   0.482   7.039 -1.9706  0.6930  0.8251
 6138SOL     OW30049   2.832   3.041   8.101 -0.0612  0.1592 -0.1789
 6138SOL    HW130050   2.871   3.019   8.186  0.3373  1.5986  0.0156
 6138SOL    HW230051   2.747   2.998   8.092 -0.4228  0.9758 -0.7238
 6139SOL     OW30052   3.320   3.519   6.431 -0.9848  0.1638  0.1734
 6139SOL    HW130053   3.275   3.572   6.365 -0.1959 -0.3565 -0.7824
 6139SOL    HW230054   3.312   3.430   6.397 -1.7642 -0.5022  2.0981
 6140SOL     OW30055   3.275   3.700  15.263 -0.2797  0.5149  0.4313
 6140SOL    HW130056   3.227   3.775  15.229 -0.7699  0.4046  0.8658
 6140SOL    HW230057   3.335   3.752  15.316  1.1131 -0.5945 -0.0649
 6141SOL     OW30058   0.096   4.069   6.465  0.7474 -0.6672 -0.0891
 6141SOL    HW130059   0.160   4.062   6.536  0.5683  2.3764  0.3929
 6141SOL    HW230060   0.015   4.040   6.507  0.9227  0.0044  0.7194
 6142SOL     OW30061   1.415   4.480   6.461 -0.0331  0.4087  0.0517
 6142SOL    HW130062   1.369   4.504   6.542  0.3174 -0.9723  0.6702
 6142SOL    HW230063   1.402   4.562   6.414  2.8031  0.0963 -1.2957
 6143SOL     OW30064   0.181   1.431   4.574  0.2708 -0.1270  0.2784
 6143SOL    HW130065   0.243   1.504   4.577  1.2852 -0.9474 -0.6408
 6143SOL    HW230066   0.229   1.377   4.511  4.0083  0.8500  2.3184
 6144SOL     OW30067   2.603   3.494   7.112  0.7770  0.1322  0.2105
 6144SOL    HW130068   2.618   3.523   7.022  1.0835  0.9983  0.5433
 6144SOL    HW230069   2.696   3.489   7.135  1.4309  2.2156 -2.0448
 6145SOL     OW30070   1.769   2.810  10.931  0.0203 -0.0645  0.1373
 6145SOL    HW130071   1.763   2.723  10.971 -1.7919  0.4711  1.0415
 6145SOL    HW230072   1.851   2.806  10.882 -0.5860  0.6942 -0.9330
 6146SOL     OW30073   2.005   3.008   9.430  0.4483 -0.0603  0.4852
 6146SOL    HW130074   2.084   2.963   9.401 -0.7195 -1.9404  0.2419
 6146SOL    HW230075   1.946   2.950   9.382 -0.4829  1.7470 -0.5569
 6147SOL     OW30076   1.297   2.198   0.748 -0.0976  0.6024 -0.1632
 6147SOL    HW130077   1.249   2.184   0.830 -1.4538  0.2178 -1.0246
 6147SOL    HW230078   1.378   2.239   0.776 -0.4934  1.1399  0.1877
 6148SOL     OW30079   1.916   0.013   7.478 -0.1748 -0.5873  0.4241
 6148SOL    HW130080   1.939   4.657   7.477  0.2748 -0.4678  0.0585
 6148SOL    HW230081   1.965   0.043   7.555  0.1455 -1.1063  0.4179
 6149SOL     OW30082   4.269   4.409   2.527 -0.7433 -0.1908 -0.0043
 6149SOL    HW130083   4.249   4.485   2.472 -1.3684 -0.0389  0.4288
 6149SOL    HW230084   4.285   4.456   2.609  0.4233 -0.5427 -0.0232
 6150SOL     OW30085   2.031   0.776   8.890  0.2755  1.1356  0.1218
 6150SOL    HW130086   2.100   0.809   8.947  1.5807  1.1185 -1.4502
 6150SOL    HW230087   1.974   0.853   8.890 -1.8317 -0.4159 -0.3954
 6151SOL     OW30088   0.456   1.176   6.574 -0.4201 -0.7301  0.1265
 6151SOL    HW130089   0.421   1.233   6.643  1.6181  0.9323 -0.1932
 6151SOL    HW230090   0.382   1.141   6.527  0.3052 -0.0119 -1.5344
 6152SOL     OW30091   2.382   2.951   2.402  0.0249 -0.2327 -0.3373
 6152SOL    HW130092   2.448   3.014   2.375  1.4405 -1.6783 -0.2546
 6152SOL    HW230093   2.366   2.990   2.488  0.4294 -0.4774 -0.1537
 6153SOL     OW30094   0.878   0.773   9.258 -0.2303  0.1121 -0.0515
 6153SOL    HW130095   0.800   0.798   9.209 -1.1237 -1.9251  0.3139
 6153SOL    HW230096   0.907   0.690   9.219 -1.5856 -1.8931  3.1881
 6154SOL     OW30097   2.678   3.160   7.112 -0.3761  0.7717 -0.7003
 6154SOL    HW130098   2.701   3.234   7.168  1.7648  0.1424 -0.7384
 6154SOL    HW230099   2.629   3.213   7.049 -0.6955  2.8624  1.3287
 6155SOL     OW30100   4.417   0.467  13.852  0.1981  0.0855 -0.4289
 6155SOL    HW130101   4.334   0.493  13.891 -0.0562 -1.3129 -0.0405
 6155SOL    HW230102   4.431   0.545  13.798 -0.1638  1.1660  1.0389
 6156SOL     OW30103   2.444   0.620   7.889  0.4892  0.2453 -0.3010
 6156SOL    HW130104   2.367   0.646   7.840 -0.4229 -0.9703  0.5090
 6156SOL    HW230105   2.506   0.684   7.855  1.1953 -0.4521 -0.3307
 6157SOL     OW30106   3.605   4.284   8.826  0.4788  0.3731 -0.1696
 6157SOL    HW130107   3.553   4.346   8.877 -1.2030 -0.1727 -1.2081
 6157SOL    HW230108   3.593   4.315   8.737 -1.4702  1.2032  0.3669
 6158SOL     OW30109   0.313   0.585   2.763  0.5190  0.1995 -0.4216
 6158SOL    HW130110   0.229   0.588   2.716  0.3201  0.8037 -0.0398
 6158SOL    HW230111   0.282   0.611   2.850 -0.3370  1.0957 -0.9847
 6159SOL     OW30112   4.459   2.703   0.370 -1.0161  0.0710  0.3049
 6159SOL    HW130113   4.482   2.708   0.277  0.3119  1.1099  0.6831
 6159SOL    HW230114   4.364   2.707   0.359 -0.5471 -1.2903 -4.6035
 6160SOL     OW30115   1.809   0.583   4.267 -0.5302 -0.1332 -0.3264
 6160SOL    HW130116   1.756   0.620   4.196 -0.6890  0.2217 -0.0220
 6160SOL    HW230117   1.830   0.663   4.314  1.7344 -1.1100  0.3057
 6161SOL     OW30118   1.663   0.374  10.889  0.0556  0.5463  0.2856
 6161SOL    HW130119   1.602   0.304  10.914  0.0594  0.3487 -0.2480
 6161SOL    HW230120   1.683   0.419  10.971 -0.5468  0.4894  0.4654
 6162SOL     OW30121   1.721   4.058   9.575  0.0298 -0.0597 -0.4690
 6162SOL    HW130122   1.772   4.063   9.494 -0.7136  0.0919 -0.9268
 6162SOL    HW230123   1.780   4.011   9.635 -1.6138 -0.8239  0.5453
 6163SOL     OW30124   1.579   0.096   7.040 -0.2158 -0.6134 -0.3545
 6163SOL    HW130125   1.671   0.081   7.020 -0.0903 -1.3836  0.7633
 6163SOL    HW230126   1.540   0.012   7.065  2.1893 -1.0594  1.8948
 6164SOL     OW30127   2.197   3.814  11.277  0.1575 -0.0174 -0.3782
 6164SOL    HW130128   2.240   3.899  11.277  0.9824 -0.4312  0.3846
 6164SOL    HW230129   2.198   3.782  11.187 -1.0638 -1.0278 -0.0364
 6165SOL     OW30130   0.203   0.632   3.002 -0.2625  0.0339 -0.1881
 6165SOL    HW130131   0.295   0.653   3.017  0.0197 -1.1780 -0.2112
 6165SOL    HW230132   0.173   0.592   3.084  1.2435 -0.0178  0.3372
 6166SOL     OW30133   3.789   1.639   6.945  0.3489  0.1555  0.3270
 6166SOL    HW130134   3.747   1.575   6.888 -0.3312  0.7122  0.2037
 6166SOL    HW230135   3.722   1.664   7.008 -1.8659 -1.6584 -1.2957
 6167SOL     OW30136   4.391   2.523   7.735 -0.1618  0.2114  0.2143
 6167SOL    HW130137   4.395   2.508   7.830  0.6077 -2.2285 -0.1788
 6167SOL    HW230138   4.375   2.431   7.713 -2.8716  0.4490  1.2663
 6168SOL     OW30139   3.091   0.806   7.728  0.3667  0.8765  0.1299
 6168SOL    HW130140   3.168   0.863   7.729  0.7318  0.3640  2.8582
 6168SOL    HW230141   3.111   0.752   7.652  1.9250  0.4500  0.8420
 6169SOL     OW30142   3.576   0.665   7.547 -0.1051  0.6044  0.2474
 6169SOL    HW130143   3.587   0.581   7.591 -0.4623  0.0098 -0.8056
 6169SOL    HW230144   3.655   0.715   7.568  0.1662  1.1897 -2.1557
 6170SOL     OW30145   4.183   3.373   7.477 -0.1500 -0.4576  0.0257
 6170SOL    HW130146   4.254   3.325   7.434 -0.7803 -2.3364  1.0693
 6170SOL    HW230147   4.241   3.414   7.540 -1.0984  0.4750  0.2846
 6171SOL     OW30148   3.168   2.466   0.450 -0.6422 -0.4620 -0.0196
 6171SOL    HW130149   3.157   2.549   0.404  1.0909 -0.6005 -0.6776
 6171SOL    HW230150   3.103   2.405   0.415 -1.3285  1.6986 -2.4939
 6172SOL     OW30151   3.729   2.886   0.487 -0.3147  0.0885 -0.3125
 6172SOL    HW130152   3.739   2.796   0.458 -2.5787  0.1531 -1.2245
 6172SOL    HW230153   3.741   2.879   0.582 -0.6723 -1.5235 -0.3878
 6173SOL     OW30154   0.656   4.367   2.722 -0.0606 -0.1852 -0.1092
 6173SOL    HW130155   0.603   4.438   2.688 -1.9783 -1.7777 -0.4267
 6173SOL    HW230156   0.648   4.294   2.661  0.9227  0.0258 -0.4974
 6174SOL     OW30157   4.557   1.906   3.574 -0.0229 -0.0030 -0.1521
 6174SOL    HW130158   4.649   1.903   3.602  0.0226  0.8228 -0.2085
 6174SOL    HW230159   4.536   1.999   3.572 -0.3660 -0.0812 -0.1025
 6175SOL     OW30160   4.643   0.318   5.223 -0.5100  0.8201  0.5575
 6175SOL    HW130161   4.712   0.311   5.289  0.3485 -0.3528 -0.4625
 6175SOL    HW230162   4.561   0.293   5.265 -0.7072  0.4296 -0.0535
 6176SOL     OW30163   1.319   2.603  10.619  0.1186 -0.0024 -0.1624
 6176SOL    HW130164   1.394   2.623  10.676 -2.1805 -1.4257  3.3753
 6176SOL    HW230165   1.259   2.563  10.682  2.1097  0.6526  2.1974
 6177SOL     OW30166   3.528   0.333   0.990  0.8495  0.2757 -0.1626
 6177SOL    HW130167   3.543   0.425   0.968  0.0511  0.2686 -0.7090
 6177SOL    HW230168   3.545   0.291   0.906  0.9810 -0.4274  0.2183
 6178SOL     OW30169   3.045   3.162   2.340  0.6497 -0.3052 -0.2734
 6178SOL    HW130170   3.096   3.200   2.269  1.0571 -2.3959 -1.1117
 6178SOL    HW230171   2.960   3.203   2.321  0.0300 -1.5416 -0.1723
 6179SOL     OW30172   1.682   4.450   2.833 -0.3049 -0.0334 -0.3782
 6179SOL    HW130173   1.724   4.365   2.818  1.1369  0.9329 -1.7220
 6179SOL    HW230174   1.721   4.502   2.763  1.0052 -1.4161 -0.6686
 6180SOL     OW30175   3.509   3.922   0.995 -0.1678 -0.0410 -0.7234
 6180SOL    HW130176   3.537   3.978   0.923  0.2118 -2.1419 -2.2370
 6180SOL    HW230177   3.435   3.973   1.027 -0.2499  0.1776 -1.2609
 6181SOL     OW30178   3.338   3.495  10.615  0.2724  0.3773 -0.2170
 6181SOL    HW130179   3.422   3.540  10.622  0.0886  0.6128  0.4306
 6181SOL    HW230180   3.296   3.519  10.698  2.8312 -1.5491  1.6325
 6182SOL     OW30181   1.308   1.287  14.482 -0.0571 -1.0579 -0.3282
 6182SOL    HW130182   1.250   1.314  14.553  1.8329  2.1471 -0.0157
 6182SOL    HW230183   1.386   1.252  14.525  1.1204  3.3352  1.0579
 6183SOL     OW30184   1.582   3.631   2.733 -0.1418 -0.1669  0.6899
 6183SOL    HW130185   1.659   3.584   2.702 -0.1067  1.0083 -0.9976
 6183SOL    HW230186   1.506   3.585   2.696  0.4354  0.7799 -1.6217
 6184SOL     OW30187   3.958   3.259   7.511  0.8021  0.0455  0.7393
 6184SOL    HW130188   3.992   3.173   7.534  1.1076  0.2551  1.0664
 6184SOL    HW230189   4.038   3.311   7.500 -0.6920  2.2403  0.2209
 6185SOL     OW30190   3.194   3.187   8.707 -0.2928 -0.2587  0.1961
 6185SOL    HW130191   3.194   3.185   8.803  0.0859  0.1712  0.2046
 6185SOL    HW230192   3.252   3.114   8.685  1.1295  0.7337  0.6229
 6186SOL     OW30193   2.078   2.661  14.463 -0.0770  0.6779  0.1013
 6186SOL    HW130194   2.014   2.718  14.422  0.5331  2.5356  1.7441
 6186SOL    HW230195   2.058   2.583  14.410  0.1702  0.1606  0.7630
 6187SOL     OW30196   2.144   2.480   2.168  0.4913  0.4035 -0.1870
 6187SOL    HW130197   2.235   2.455   2.159  0.2979 -0.6009  0.5861
 6187SOL    HW230198   2.153   2.527   2.252  0.8983 -0.4146  0.2220
 6188SOL     OW30199   2.156   1.778   1.536 -0.4952  0.1691 -0.5157
 6188SOL    HW130200   2.231   1.723   1.516  1.4283  2.1961  1.0779
 6188SOL    HW230201   2.089   1.717   1.567  2.2939 -1.3034  2.5853
 6189SOL     OW30202   2.529   0.771   3.800  0.7708 -0.6618 -0.0789
 6189SOL    HW130203   2.488   0.693   3.764 -0.1516 -0.7496  1.1231
 6189SOL    HW230204   2.527   0.820   3.718  2.9856  2.1847  1.5615
 6190SOL     OW30205   4.409   3.372  11.377  0.5966 -0.0592 -0.4468
 6190SOL    HW130206   4.386   3.301  11.437  0.4872  1.2623  1.0811
 6190SOL    HW230207   4.429   3.314  11.303  0.4226 -0.0299 -0.5152
 6191SOL     OW30208   1.445   2.218   5.126  0.6019 -0.1053  1.2326
 6191SOL    HW130209   1.429   2.244   5.216 -0.5514  0.5463  0.8463
 6191SOL    HW230210   1.377   2.150   5.134  0.8766 -0.0697  3.8009
 6192SOL     OW30211   4.301   1.702   7.573 -0.6342 -0.4899  0.2187
 6192SOL    HW130212   4.257   1.747   7.646  0.6950  0.1320  0.6479
 6192SOL    HW230213   4.245   1.715   7.497 -1.5376 -1.1680  0.7627
 6193SOL     OW30214   4.333   2.298   0.617  0.2776 -0.2489 -0.1109
 6193SOL    HW130215   4.267   2.330   0.678  0.0460  2.1018 -1.5879
 6193SOL    HW230216   4.303   2.317   0.528 -0.6424  0.8771  0.4456
 6194SOL     OW30217   1.130   1.494   6.833 -0.4139  0.2815  0.2752
 6194SOL    HW130218   1.221   1.500   6.801 -0.5102  2.3842  0.4566
 6194SOL    HW230219   1.089   1.554   6.771  0.9106  0.8342 -0.0790
 6195SOL     OW30220   2.276   0.983  11.381 -0.0248 -0.6396  0.0812
 6195SOL    HW130221   2.342   0.923  11.415 -0.1458  0.4933  2.3155
 6195SOL    HW230222   2.332   1.040  11.329 -0.8987  1.3289  1.3015
 6196SOL     OW30223   4.590   2.744  11.841  0.1675  0.1749  0.1934
 6196SOL    HW130224   4.678   2.706  11.841 -0.1211 -0.4860  0.6727
 6196SOL    HW230225   4.539   2.675  11.882 -0.5762  0.8484  0.4081
 6197SOL     OW30226   0.858   0.274   2.606 -0.1076 -0.2899 -0.2581
 6197SOL    HW130227   0.801   0.316   2.541 -0.2719 -0.6185 -0.3289
 6197SOL    HW230228   0.942   0.289   2.563  0.2223  1.2265  0.9012
 6198SOL     OW30229   3.999   0.294   7.677  0.1131 -0.1841  0.1058
 6198SOL    HW130230   4.011   0.242   7.598  2.6718 -0.0019  0.3822
 6198SOL    HW230231   4.066   0.362   7.673  2.0826 -2.2668 -1.9583
 6199SOL     OW30232   2.951   4.472  11.345  0.0886 -0.5345 -0.1495
 6199SOL    HW130233   3.042   4.496  11.327 -0.1148  1.4808  1.5012
 6199SOL    HW230234   2.912   4.554  11.374  1.2653 -0.9044  2.5001
 6200SOL     OW30235   0.687   3.836   5.609 -0.7209 -0.0234 -0.0191
 6200SOL    HW130236   0.595   3.857   5.591 -0.8318  0.7272  1.4358
 6200SOL    HW230237   0.732   3.901   5.555 -2.9842  2.5710  1.1753
 6201SOL     OW30238   1.688   3.573  17.015  0.4161 -0.3980  0.4686
 6201SOL    HW130239   1.678   3.666  16.997  3.0883 -0.1188  0.3704
 6201SOL    HW230240   1.671   3.577  17.109 -0.4941  3.4929  0.1174
 6202SOL     OW30241   4.417   1.130   7.190 -0.8116  0.5681 -0.0754
 6202SOL    HW130242   4.415   1.141   7.095  0.2648  2.6813  0.1501
 6202SOL    HW230243   4.477   1.199   7.218 -0.8594  1.7604 -2.9029
 6203SOL     OW30244   0.072   3.642  16.858  0.2258  0.3111 -0.1616
 6203SOL    HW130245   4.717   3.661  16.836 -0.3880  0.9294  2.8989
 6203SOL    HW230246   0.104   3.729  16.882 -0.6721  0.3781  0.8164
 6204SOL     OW30247   4.430   0.274   5.863  0.5659 -0.2760 -0.0682
 6204SOL    HW130248   4.363   0.289   5.796  0.5648 -2.3406 -0.5116
 6204SOL    HW230249   4.399   0.341   5.925  0.9401  1.3671 -1.6444
 6205SOL     OW30250   4.425   3.988  10.379 -0.2586 -0.3260 -0.1596
 6205SOL    HW130251   4.354   3.973  10.440  0.8834  1.0341  1.4974
 6205SOL    HW230252   4.395   4.060  10.324  1.1169  0.4586  0.1314
 6206SOL     OW30253   4.673   2.541   7.303 -0.7385 -0.4723 -0.0907
 6206SOL    HW130254   4.579   2.553   7.290 -0.6474 -0.2792 -0.5628
 6206SOL    HW230255   4.684   2.600   7.378 -0.7881 -1.1428  0.4530
 6207SOL     OW30256   0.046   1.124   3.378  0.0722  0.2053  0.0513
 6207SOL    HW130257   0.020   1.214   3.400  0.0805  0.7842 -2.2961
 6207SOL    HW230258   4.731   1.108   3.299  2.2699 -0.6836 -1.1987
 6208SOL     OW30259   0.156   2.047   5.612  0.1002 -0.0235 -0.2390
 6208SOL    HW130260   0.119   2.094   5.687 -2.4205  1.2631 -2.2935
 6208SOL    HW230261   0.194   1.973   5.659  0.8075 -0.2650 -1.1872
 6209SOL     OW30262   4.469   1.348   5.505 -0.1087 -0.0188  0.2881
 6209SOL    HW130263   4.523   1.344   5.426 -1.8720 -3.1135 -0.7460
 6209SOL    HW230264   4.389   1.302   5.481  0.0549  0.2856 -0.8385
 6210SOL     OW30265   2.057   2.853   8.658 -0.5527  0.0051 -0.1492
 6210SOL    HW130266   2.123   2.847   8.727 -1.0569 -1.0222  0.2401
 6210SOL    HW230267   1.994   2.786   8.685 -1.6054  0.3929 -1.6701
 6211SOL     OW30268   4.595   4.413  16.823 -0.1100 -0.2636  0.6152
 6211SOL    HW130269   4.659   4.479  16.850 -1.3985  0.8315  0.9880
 6211SOL    HW230270   4.536   4.411  16.898  1.1160  1.2370  1.6045
 6212SOL     OW30271   1.923   3.968   8.665  0.1025 -0.2831 -0.1441
 6212SOL    HW130272   1.973   3.897   8.625 -2.0262 -2.5449  1.2495
 6212SOL    HW230273   1.875   3.926   8.736 -0.2335 -3.9474 -2.5444
 6213SOL     OW30274   2.773   0.876  14.431 -0.6212  0.0043 -0.6128
 6213SOL    HW130275   2.716   0.917  14.496 -0.4682  1.3059 -1.2906
 6213SOL    HW230276   2.735   0.897  14.346  0.5599  0.1060 -1.1230
 6214SOL     OW30277   3.907   3.129   9.014 -0.6552  0.1290 -0.2084
 6214SOL    HW130278   3.899   3.149   9.107  2.0580  1.0606 -0.1751
 6214SOL    HW230279   3.924   3.037   9.031  3.2518  0.9585  0.3248
 6215SOL     OW30280   0.623   2.239  15.593 -0.3422 -0.4133  0.1841
 6215SOL    HW130281   0.592   2.306  15.532 -2.4041  0.3208  2.0315
 6215SOL    HW230282   0.661   2.290  15.664  0.4059  1.1653 -1.3541
 6216SOL     OW30283   3.559   4.616   5.924  0.1105  0.1954 -0.4080
 6216SOL    HW130284   3.559   4.679   5.996  0.1227 -0.0997 -0.1515
 6216SOL    HW230285   3.488   4.557   5.948  0.6971 -0.2449  0.2637
 6217SOL     OW30286   2.075   3.817  13.076 -0.5512  0.0790  0.5842
 6217SOL    HW130287   1.991   3.772  13.090  0.3370 -1.2001  1.7844
 6217SOL    HW230288   2.041   3.899  13.039  0.6635  0.8099  1.1167
 6218SOL     OW30289   1.534   3.320  17.664  0.1363  0.0619  0.5835
 6218SOL    HW130290   1.627   3.310  17.640 -0.1312  0.4554 -0.6116
 6218SOL    HW230291   1.506   3.396  17.614 -0.3774 -0.4750  0.0654
 6219SOL     OW30292   1.480   3.086   9.559 -0.1906  0.0870  0.3299
 6219SOL    HW130293   1.487   3.042   9.474  0.9767  1.0306 -0.0679
 6219SOL    HW230294   1.426   3.019   9.601  0.2899  0.6056  1.7734
 6220SOL     OW30295   4.430   4.405   6.780 -0.5048  0.8107  0.0378
 6220SOL    HW130296   4.396   4.330   6.830 -0.5706  0.4670 -0.5235
 6220SOL    HW230297   4.340   4.435   6.765 -0.3779  0.9055 -0.5175
 6221SOL     OW30298   2.617   0.525   1.683 -0.5836 -0.1254 -0.4609
 6221SOL    HW130299   2.575   0.589   1.740  1.8834  1.5363 -0.4845
 6221SOL    HW230300   2.552   0.454   1.682 -0.8894  0.1305  1.0231
 6222SOL     OW30301   1.486   1.376  16.774 -0.6313  0.3696  0.1720
 6222SOL    HW130302   1.495   1.390  16.679  3.7359 -0.1121  0.5381
 6222SOL    HW230303   1.475   1.466  16.804  3.0440  0.4019  1.3469
 6223SOL     OW30304   1.336   0.675  11.405 -0.4192  0.0725 -0.0296
 6223SOL    HW130305   1.421   0.715  11.426  0.0914 -0.4643 -1.0849
 6223SOL    HW230306   1.369   0.587  11.388 -2.3413 -0.1924 -2.2716
 6224SOL     OW30307   1.662   3.180   2.758  0.3597  0.2283  0.1143
 6224SOL    HW130308   1.734   3.127   2.725 -1.2217 -2.1802  0.5418
 6224SOL    HW230309   1.708   3.245   2.810 -1.8622  1.4656  0.5563
 6225SOL     OW30310   3.834   3.544   7.421  0.1863  0.2146  0.4010
 6225SOL    HW130311   3.884   3.481   7.472 -0.4771  0.1520  0.9787
 6225SOL    HW230312   3.745   3.545   7.457  0.2354 -0.1127  0.5376
 6226SOL     OW30313   0.573   3.226   2.048  0.3371  0.0965 -0.1670
 6226SOL    HW130314   0.635   3.170   2.096  0.4821  1.6345  1.4701
 6226SOL    HW230315   0.493   3.181   2.077  1.7248 -0.9704  2.0964
 6227SOL     OW30316   2.883   4.388   7.825 -0.3639  0.2508 -0.8064
 6227SOL    HW130317   2.871   4.411   7.917  0.0817  0.3952 -0.7825
 6227SOL    HW230318   2.861   4.467   7.776 -1.3826  1.4705  1.6019
 6228SOL     OW30319   3.882   1.790   2.579 -0.3289  0.3158 -0.2248
 6228SOL    HW130320   3.933   1.711   2.562 -2.6602 -1.2399  0.0614
 6228SOL    HW230321   3.949   1.856   2.560 -0.2670  0.9898  2.3838
 6229SOL     OW30322   1.390   0.536   7.989  0.4426  0.4669 -0.4790
 6229SOL    HW130323   1.297   0.524   7.970  0.2028  2.0514 -0.3297
 6229SOL    HW230324   1.394   0.509   8.081  0.5285 -0.0807 -0.6489
 6230SOL     OW30325   3.674   3.979  16.871 -0.8988 -0.5743 -0.6090
 6230SOL    HW130326   3.693   3.910  16.934 -0.8484 -0.6223 -0.6766
 6230SOL    HW230327   3.757   3.972  16.823  0.1938  1.2323  1.0104
 6231SOL     OW30328   1.334   3.052   2.728 -0.0438  0.0606  0.1421
 6231SOL    HW130329   1.405   3.018   2.782  0.3333  1.4666  0.5349
 6231SOL    HW230330   1.337   2.984   2.661 -1.6034  1.6382 -1.5424
 6232SOL     OW30331   3.357   4.322   1.147 -0.0885 -0.1240 -0.1554
 6232SOL    HW130332   3.349   4.378   1.070 -0.4970  2.7777  1.9744
 6232SOL    HW230333   3.316   4.374   1.217 -1.5976  0.5544 -1.5427
 6233SOL     OW30334   3.401   1.062   4.211 -0.3584  0.1820 -0.6875
 6233SOL    HW130335   3.453   1.024   4.282 -1.7853 -0.7868 -0.1536
 6233SOL    HW230336   3.363   1.135   4.258  3.3446  0.8975  1.2000
 6234SOL     OW30337   0.833   3.781   8.695  0.2722 -0.1739 -0.0690
 6234SOL    HW130338   0.902   3.844   8.717  0.1325  0.4085 -1.2901
 6234SOL    HW230339   0.770   3.832   8.643 -0.4532  0.5403  1.5348
 6235SOL     OW30340   0.862   0.497   0.469 -0.0573 -0.1339  0.9815
 6235SOL    HW130341   0.953   0.497   0.440 -0.6879 -2.7890 -1.0531
 6235SOL    HW230342   0.859   0.591   0.488  1.4042  0.6378 -2.7116
 6236SOL     OW30343   4.653   3.409  10.707 -0.1626  0.1774 -0.4503
 6236SOL    HW130344   4.668   3.394  10.614  0.3876 -3.9691  0.3283
 6236SOL    HW230345   4.612   3.495  10.701 -0.0260  0.4900  3.1899
 6237SOL     OW30346   2.546   4.534   5.482 -0.4627  0.4324  0.3247
 6237SOL    HW130347   2.563   4.608   5.540 -0.3265  0.7503 -0.1161
 6237SOL    HW230348   2.633   4.494   5.483 -1.1647 -0.9500  4.4122
 6238SOL     OW30349   1.112   2.529   7.768 -0.2183  0.1329 -0.1183
 6238SOL    HW130350   1.140   2.596   7.706  0.3922  0.8558  0.9587
 6238SOL    HW230351   1.060   2.576   7.833 -1.2509 -1.8493  0.4920
 6239SOL     OW30352   2.308   3.072   6.306 -0.2897 -0.6184 -0.2195
 6239SOL    HW130353   2.332   3.050   6.396 -3.3111 -1.2813  0.4345
 6239SOL    HW230354   2.361   3.149   6.285  0.7645 -1.1738  0.4164
 6240SOL     OW30355   0.379   3.696  16.555  0.3952 -0.0424 -0.2055
 6240SOL    HW130356   0.386   3.600  16.560  0.3190  0.0985  2.6821
 6240SOL    HW230357   0.287   3.721  16.543  0.0698 -1.3513 -0.4958
 6241SOL     OW30358   2.162   1.840  12.782  0.0423 -0.7298 -0.0492
 6241SOL    HW130359   2.151   1.906  12.849 -1.5853 -2.5460  1.4692
 6241SOL    HW230360   2.178   1.769  12.844  1.2158 -1.5430 -1.2781
 6242SOL     OW30361   3.636   3.331   4.916  0.3169 -0.1960  0.5652
 6242SOL    HW130362   3.658   3.423   4.905  2.5985 -0.8954 -0.6526
 6242SOL    HW230363   3.689   3.292   4.847  0.7081  2.3660 -0.5482
 6243SOL     OW30364   3.041   2.080   3.173 -0.2390  0.2081 -0.2518
 6243SOL    HW130365   3.111   2.113   3.229  0.0775  2.8581 -2.1895
 6243SOL    HW230366   3.092   2.056   3.095 -0.7300 -1.8409  0.0598
 6244SOL     OW30367   1.151   2.210   8.221  0.0475  0.0003  0.6714
 6244SOL    HW130368   1.087   2.221   8.291 -0.5125  0.4716  0.0833
 6244SOL    HW230369   1.178   2.123   8.251  1.7163  0.3843  0.2894
 6245SOL     OW30370   0.285   3.705  13.216  0.4214 -0.2269 -0.3570
 6245SOL    HW130371   0.202   3.680  13.255 -0.0327  0.4239 -0.9192
 6245SOL    HW230372   0.330   3.728  13.298 -2.0223 -1.7127  1.3905
 6246SOL     OW30373   3.603   0.221   3.565  0.2120 -0.1526  0.1129
 6246SOL    HW130374   3.599   0.267   3.649  1.0619 -2.3081  1.3261
 6246SOL    HW230375   3.692   0.246   3.540  0.2656 -0.9168 -0.4574
 6247SOL     OW30376   0.633   2.446   2.456 -0.1854 -0.3339  0.5064
 6247SOL    HW130377   0.557   2.387   2.451  0.4068 -1.0932  0.4108
 6247SOL    HW230378   0.698   2.394   2.408  0.1270  0.0887  0.4743
 6248SOL     OW30379   3.098   2.296   8.494 -0.2287  0.4959  0.1630
 6248SOL    HW130380   3.027   2.290   8.430  0.2047 -1.3735 -0.1275
 6248SOL    HW230381   3.161   2.240   8.450 -1.3772 -0.6630 -0.0174
 6249SOL     OW30382   3.888   0.968   6.931  0.7156  0.4773 -0.0987
 6249SOL    HW130383   3.886   0.987   6.837  1.4787  0.8804 -0.0360
 6249SOL    HW230384   3.917   1.051   6.970 -0.7385  1.4040 -0.9862
 6250SOL     OW30385   3.875   0.844  14.180  0.6494  0.0804  0.5896
 6250SOL    HW130386   3.780   0.845  14.172  0.6870  0.6895  0.1972
 6250SOL    HW230387   3.906   0.934  14.189  0.9689  0.2521 -2.1392
 6251SOL     OW30388   0.044   4.582  16.932 -0.0476 -0.3345  0.2463
 6251SOL    HW130389   0.056   4.649  16.999  0.5433  0.6274 -0.8308
 6251SOL    HW230390   0.048   4.499  16.980 -0.2438 -1.0750 -0.9983
 6252SOL     OW30391   2.937   2.922   6.594  0.6901  0.5597  0.3402
 6252SOL    HW130392   2.943   3.016   6.609 -1.2481  0.9392 -1.1621
 6252SOL    HW230393   2.993   2.914   6.517  2.0026 -1.8612  1.5557
 6253SOL     OW30394   0.459   0.434   5.271 -0.2381  0.3038 -0.4799
 6253SOL    HW130395   0.383   0.474   5.229  1.6759  0.8278 -3.4382
 6253SOL    HW230396   0.493   0.494   5.338 -0.2805  0.9351 -1.0250
 6254SOL     OW30397   2.996   2.437   1.817 -0.2642 -0.2848 -0.1109
 6254SOL    HW130398   2.952   2.462   1.736  0.7442  0.5890 -0.3838
 6254SOL    HW230399   3.088   2.454   1.798 -0.5134  1.1871  0.0248
 6255SOL     OW30400   1.709   2.735   2.955  0.3884  0.9467 -0.1669
 6255SOL    HW130401   1.764   2.660   2.933  0.3667  0.7481  0.4576
 6255SOL    HW230402   1.770   2.791   3.002 -0.7890  1.1043  1.1825
 6256SOL     OW30403   2.707   0.270  11.751  0.6624 -0.3160 -0.2284
 6256SOL    HW130404   2.631   0.232  11.796  0.3676  0.2053 -0.2889
 6256SOL    HW230405   2.768   0.256  11.824  2.7723 -2.6723 -2.4272
 6257SOL     OW30406   4.524   2.041  16.798  0.1077  0.3505 -0.2433
 6257SOL    HW130407   4.494   1.988  16.723 -3.2592  0.8715  0.7196
 6257SOL    HW230408   4.570   1.980  16.855  0.0284 -0.8105 -1.3931
 6258SOL     OW30409   1.920   1.428   8.779 -0.0360 -0.3759  0.3556
 6258SOL    HW130410   1.898   1.414   8.871 -1.1335 -0.7016  0.0449
 6258SOL    HW230411   1.883   1.515   8.765 -2.2396 -1.1190  1.5799
 6259SOL     OW30412   2.096   4.604   3.663 -0.4647  0.8431 -0.0280
 6259SOL    HW130413   2.139   4.554   3.594  0.5080 -0.0024  1.1846
 6259SOL    HW230414   2.027   4.646   3.611 -1.0590  0.7516  0.6885
 6260SOL     OW30415   0.924   0.970  12.011 -0.3662  0.1456 -0.3584
 6260SOL    HW130416   0.967   1.052  11.986 -0.1207  0.3542  0.7667
 6260SOL    HW230417   0.993   0.918  12.051 -1.0886  0.0951  0.8102
 6261SOL     OW30418   3.756   3.323  14.283 -0.5817 -0.5470 -0.4339
 6261SOL    HW130419   3.697   3.302  14.355 -1.7642 -0.2716 -1.2995
 6261SOL    HW230420   3.845   3.325  14.317 -0.5597  1.0161 -0.5646
 6262SOL     OW30421   0.863   0.967   0.197 -0.1423 -0.6360 -0.4510
 6262SOL    HW130422   0.798   0.993   0.261 -0.0293  1.4521 -1.2092
 6262SOL    HW230423   0.913   1.048   0.205 -3.7098  1.5858 -0.8379
 6263SOL     OW30424   4.029   3.675  11.874  0.4820 -0.6559 -0.2065
 6263SOL    HW130425   3.991   3.690  11.960 -1.6182  0.0403 -1.2517
 6263SOL    HW230426   4.123   3.694  11.886  1.0876 -3.7055 -0.1667
 6264SOL     OW30427   3.058   4.710  17.338 -0.4680 -0.0763  0.3805
 6264SOL    HW130428   3.125   4.663  17.388  1.7652  0.7993 -1.8194
 6264SOL    HW230429   3.048   4.646  17.267 -1.0190  1.3351 -0.8209
 6265SOL     OW30430   0.110   0.793   8.226 -0.6368  0.4988  0.1438
 6265SOL    HW130431   0.188   0.833   8.264  1.0299 -1.1965 -1.4832
 6265SOL    HW230432   0.130   0.700   8.234  1.0765  0.8048 -0.5827
 6266SOL     OW30433   0.022   2.399   0.237 -0.5486 -0.1994 -0.4627
 6266SOL    HW130434   4.687   2.337   0.222 -1.3929  1.0283 -1.4759
 6266SOL    HW230435   0.045   2.413   0.146 -0.7296 -1.6537 -0.7286
 6267SOL     OW30436   3.316   0.535   2.536 -0.1723  0.4775  0.6240
 6267SOL    HW130437   3.262   0.578   2.470  0.0493 -0.5618 -0.2316
 6267SOL    HW230438   3.254   0.541   2.609  3.6211  2.0640  3.6790
 6268SOL     OW30439   3.665   3.849   9.413  0.2105  0.1823 -0.6659
 6268SOL    HW130440   3.620   3.922   9.372  2.7856  1.3280 -1.4899
 6268SOL    HW230441   3.706   3.814   9.333 -0.9820  0.6150 -1.4565
 6269SOL     OW30442   2.874   1.980   8.692 -0.0359  0.9060 -0.0278
 6269SOL    HW130443   2.801   1.936   8.735 -0.5643  1.7665 -0.0409
 6269SOL    HW230444   2.830   2.058   8.658 -0.5084  1.0526  0.9181
 6270SOL     OW30445   1.987   1.600  17.058 -0.0203 -0.3106  0.1008
 6270SOL    HW130446   2.072   1.630  17.025 -0.5140 -0.0438 -0.9306
 6270SOL    HW230447   1.975   1.669  17.123  0.5348  0.9357 -1.1115
 6271SOL     OW30448   3.809   0.559  14.896  0.0215 -0.2039 -0.0114
 6271SOL    HW130449   3.781   0.472  14.924 -0.3167 -0.3100 -0.6726
 6271SOL    HW230450   3.898   0.536  14.868  0.8877  1.4200  1.4015
 6272SOL     OW30451   1.675   1.332   3.142 -0.4479  0.0786 -0.8815
 6272SOL    HW130452   1.741   1.353   3.208  1.9892 -1.8217 -2.6940
 6272SOL    HW230453   1.730   1.288   3.076 -1.4376 -2.9526  0.3457
 6273SOL     OW30454   4.159   4.565  14.485 -0.7685  0.3789  0.3012
 6273SOL    HW130455   4.119   4.607  14.561  1.1172 -0.1711  1.5933
 6273SOL    HW230456   4.248   4.599  14.497 -0.4478 -0.4422  0.2697
 6274SOL     OW30457   2.914   2.899  16.435  0.5278 -0.0385  0.2396
 6274SOL    HW130458   2.988   2.958  16.426  2.0015 -1.9110  0.1282
 6274SOL    HW230459   2.843   2.962  16.423 -0.3036 -0.6514  1.9019
 6275SOL     OW30460   0.468   3.779  14.354  1.1130 -0.3726 -0.2425
 6275SOL    HW130461   0.539   3.823  14.307  0.5100  1.2271  0.3410
 6275SOL    HW230462   0.483   3.779  14.448 -1.9357 -1.4574  0.2389
 6276SOL     OW30463   2.904   3.513   7.082  0.1300 -0.3524 -0.0160
 6276SOL    HW130464   2.984   3.497   7.032  0.9199  3.1533  0.1002
 6276SOL    HW230465   2.907   3.609   7.088  0.4298 -0.4858  1.8549
 6277SOL     OW30466   1.916   3.312   0.482 -0.2657 -0.3367  0.4265
 6277SOL    HW130467   1.982   3.322   0.551 -1.5457  0.0312  1.6049
 6277SOL    HW230468   1.836   3.350   0.519 -0.6478  0.9230 -1.6829
 6278SOL     OW30469   3.939   0.316   4.849 -0.5958  0.3551 -0.0723
 6278SOL    HW130470   3.880   0.311   4.924 -0.3866  2.5571  0.2365
 6278SOL    HW230471   3.988   0.396   4.869  0.4465 -0.7903  1.8872
 6279SOL     OW30472   1.978   2.405  11.582  0.1621  0.2342  0.4013
 6279SOL    HW130473   1.948   2.348  11.511 -0.2899 -2.2813  2.6386
 6279SOL    HW230474   1.932   2.366  11.656  1.8623 -0.7404  0.9512
 6280SOL     OW30475   4.550   2.544   2.126 -0.0008  0.1523 -0.4951
 6280SOL    HW130476   4.603   2.497   2.061 -1.1276  1.0661 -2.0713
 6280SOL    HW230477   4.513   2.610   2.067 -0.2424 -1.1400 -1.8038
 6281SOL     OW30478   4.518   4.471   7.894 -0.4831 -0.5847  0.0915
 6281SOL    HW130479   4.458   4.507   7.959 -0.5194  0.2722 -0.4156
 6281SOL    HW230480   4.463   4.408   7.847 -0.7486 -0.4160  0.1754
 6282SOL     OW30481   0.959   2.433  16.230  0.1594  0.3346  0.1973
 6282SOL    HW130482   1.034   2.408  16.283 -0.2846 -1.7376 -0.1730
 6282SOL    HW230483   0.961   2.529  16.230 -2.1221  0.3693 -0.3988
 6283SOL     OW30484   0.708   2.375   8.259  0.0307  0.1053  0.2089
 6283SOL    HW130485   0.689   2.463   8.225  2.6042  0.6627  0.1512
 6283SOL    HW230486   0.772   2.333   8.202 -0.9479 -0.5269 -0.4207
 6284SOL     OW30487   4.199   0.014   8.622  0.0372 -0.4186  0.7330
 6284SOL    HW130488   4.266   0.025   8.554  0.8373 -1.0698  1.4173
 6284SOL    HW230489   4.218   4.658   8.638  0.9948 -0.4581 -0.5863
 6285SOL     OW30490   0.903   2.923   6.036  0.0446 -0.4469  0.3058
 6285SOL    HW130491   0.988   2.922   5.993  1.0024 -0.2807  2.2005
 6285SOL    HW230492   0.839   2.912   5.965  0.1829 -2.3184  0.4730
 6286SOL     OW30493   2.902   4.379   5.230  0.0246  0.1028  0.1021
 6286SOL    HW130494   2.873   4.382   5.139  0.8299 -0.8313 -0.1933
 6286SOL    HW230495   2.978   4.433   5.208  1.7104 -2.3754 -0.1907
 6287SOL     OW30496   0.711   2.182  15.328 -0.4354  0.2434  0.1050
 6287SOL    HW130497   0.668   2.180  15.414  1.3775  2.5382  1.0749
 6287SOL    HW230498   0.637   2.226  15.285 -0.2947  0.9369  0.5778
 6288SOL     OW30499   3.309   1.342   6.320  0.0424 -0.0703  0.0039
 6288SOL    HW130500   3.234   1.391   6.286  0.3795 -0.5650 -1.4561
 6288SOL    HW230501   3.264   1.270   6.363  0.3581 -0.3317 -0.1038
 6289SOL     OW30502   2.981   1.992   8.951 -0.2183  0.0785  0.4203
 6289SOL    HW130503   3.048   1.924   8.943 -1.5826 -1.3885  1.3107
 6289SOL    HW230504   2.957   1.996   8.858 -1.9896 -1.2056  0.8106
 6290SOL     OW30505   2.621   3.920   5.914 -0.2380  0.0138  0.2989
 6290SOL    HW130506   2.635   3.856   5.984 -0.8334 -1.5301 -0.9829
 6290SOL    HW230507   2.699   3.975   5.916 -0.6024  0.4906  1.5351
 6291SOL     OW30508   1.746   3.893   0.894 -0.7751 -0.3534  0.3350
 6291SOL    HW130509   1.786   3.879   0.808 -0.2165  0.0979  0.5220
 6291SOL    HW230510   1.761   3.984   0.919  0.9318 -0.4174 -0.4469
 6292SOL     OW30511   3.980   2.166   6.721  0.1499 -0.0595 -0.3176
 6292SOL    HW130512   4.076   2.163   6.717  0.1030 -0.5636 -1.2608
 6292SOL    HW230513   3.962   2.150   6.628 -1.4782  1.2894 -0.2323
 6293SOL     OW30514   1.641   4.362   5.408  0.3373 -0.0572  0.1982
 6293SOL    HW130515   1.684   4.365   5.322 -0.8687  0.6271 -0.3835
 6293SOL    HW230516   1.671   4.442   5.451 -0.1959  0.4172 -0.2998
 6294SOL     OW30517   1.347   2.494   7.425  0.4321  0.3518 -0.2073
 6294SOL    HW130518   1.340   2.545   7.344  2.2397 -0.7405 -1.0502
 6294SOL    HW230519   1.398   2.555   7.480  1.0121  0.4885 -0.8958
 6295SOL     OW30520   3.229   0.379   2.978 -0.0168 -0.0114  0.1686
 6295SOL    HW130521   3.218   0.435   3.055  1.3427 -0.1062  0.4278
 6295SOL    HW230522   3.176   0.305   3.007 -2.0805  1.6501  0.6785
 6296SOL     OW30523   2.968   0.251   9.701 -0.4950 -0.0024  0.3978
 6296SOL    HW130524   2.908   0.301   9.757  1.0214  2.0918  0.1537
 6296SOL    HW230525   3.054   0.270   9.737 -1.3390  1.9564  1.4024
 6297SOL     OW30526   4.604   2.862  17.539  0.2774  0.4382  0.0234
 6297SOL    HW130527   4.619   2.911  17.458  1.7986  2.1858  1.3666
 6297SOL    HW230528   4.694   2.838  17.559  0.5845  1.6106  0.0528
 6298SOL     OW30529   0.320   1.809   8.879  0.0345  0.8501 -0.2889
 6298SOL    HW130530   0.290   1.899   8.873 -3.2720 -0.1805  0.6137
 6298SOL    HW230531   0.348   1.796   8.788  0.5783 -0.4114  0.0578
 6299SOL     OW30532   2.278   0.335  13.614  0.4042  0.2796  0.2537
 6299SOL    HW130533   2.284   0.426  13.642  1.0661  0.4480 -0.4270
 6299SOL    HW230534   2.184   0.326  13.601  0.3559  1.6137 -0.3590
 6300SOL     OW30535   1.394   0.057   7.259  0.3086  0.1995  0.4616
 6300SOL    HW130536   1.482   0.087   7.279  0.7399 -1.3501  0.9301
 6300SOL    HW230537   1.349   0.052   7.343 -2.9861  0.1214 -1.2855
 6301SOL     OW30538   0.860   1.061  12.904  0.1187 -0.1628  0.2407
 6301SOL    HW130539   0.790   0.996  12.913 -0.7917  0.7537 -0.1149
 6301SOL    HW230540   0.813   1.140  12.877  1.2666  0.3543 -0.2228
 6302SOL     OW30541   1.101   4.270   8.494 -0.1378  0.6335  0.8593
 6302SOL    HW130542   1.017   4.240   8.458  0.2181  0.9562 -0.2214
 6302SOL    HW230543   1.169   4.246   8.431 -0.0637  3.4850 -0.1459
 6303SOL     OW30544   1.852   1.979   1.230  0.5067 -0.1166 -0.2677
 6303SOL    HW130545   1.802   1.908   1.271  3.0618 -2.4401 -1.1948
 6303SOL    HW230546   1.926   1.966   1.290 -0.1673 -2.2428  0.0986
 6304SOL     OW30547   2.085   2.247   7.918  0.4641 -0.0520  0.1254
 6304SOL    HW130548   2.011   2.284   7.870  0.2581  0.9332  1.1897
 6304SOL    HW230549   2.116   2.171   7.868 -0.3514 -1.5697  1.8940
 6305SOL     OW30550   0.926   3.956  10.210 -0.1044 -0.7376 -0.2768
 6305SOL    HW130551   0.863   3.965  10.282  1.1839  0.6141  0.6767
 6305SOL    HW230552   0.954   3.868  10.237  0.7327 -0.3689  0.0463
 6306SOL     OW30553   0.850   1.753   4.769  0.4264  0.0276 -0.6056
 6306SOL    HW130554   0.775   1.713   4.811  1.0669  1.6452  2.0558
 6306SOL    HW230555   0.882   1.812   4.837 -0.6640 -0.1664  0.0713
 6307SOL     OW30556   1.235   2.987   8.361  0.2716  0.2439 -0.3679
 6307SOL    HW130557   1.188   2.941   8.431 -0.7507  0.1138 -1.1428
 6307SOL    HW230558   1.161   2.996   8.302 -0.9251  1.5123  1.3138
 6308SOL     OW30559   3.600   0.039   5.036 -0.1124  0.1438 -0.1053
 6308SOL    HW130560   3.512   0.075   5.046  0.1843  0.6452  0.6869
 6308SOL    HW230561   3.611   0.076   4.948 -1.1701 -0.6911 -0.5927
 6309SOL     OW30562   2.014   2.100   0.143  0.2208 -0.0038  0.8098
 6309SOL    HW130563   1.973   2.038   0.083  2.5859  0.5107 -1.3784
 6309SOL    HW230564   2.015   2.172   0.080  2.2691 -0.6164  0.1213
 6310SOL     OW30565   0.809   0.002  13.220  0.8609 -0.0983 -0.8272
 6310SOL    HW130566   0.863   4.732  13.298 -2.6907  1.0486  1.7147
 6310SOL    HW230567   0.730   0.046  13.251 -0.0525  0.4139 -3.8950
 6311SOL     OW30568   0.976   3.040   2.324  0.1167 -0.0070 -0.0462
 6311SOL    HW130569   0.963   2.961   2.272  0.6697 -0.1313  0.0036
 6311SOL    HW230570   0.915   3.033   2.397  0.3722 -2.2876 -0.0492
 6312SOL     OW30571   0.971   0.910   6.093 -0.0012 -0.2233  0.0817
 6312SOL    HW130572   0.952   0.832   6.146  1.2910 -2.3041 -2.5313
 6312SOL    HW230573   0.932   0.884   6.009 -1.8898  2.3222  0.1582
 6313SOL     OW30574   4.260   4.148  14.353  0.0541 -0.1263 -0.3032
 6313SOL    HW130575   4.217   4.116  14.273  2.0939 -1.7988 -0.7101
 6313SOL    HW230576   4.188   4.210  14.372  0.4676  0.7949 -1.7306
 6314SOL     OW30577   2.485   0.128   4.659 -0.1198 -0.0855 -0.2014
 6314SOL    HW130578   2.575   0.099   4.648 -0.3974 -0.3226 -1.8864
 6314SOL    HW230579   2.481   0.194   4.589 -0.4990 -0.0926 -0.1887
 6315SOL     OW30580   4.163   3.485   5.374  0.7577 -0.1017 -0.5202
 6315SOL    HW130581   4.166   3.469   5.280 -0.8840 -2.5165 -0.1515
 6315SOL    HW230582   4.161   3.581   5.377  0.4321 -0.1156 -0.2948
 6316SOL     OW30583   3.795   3.994   4.109  0.3851  0.8993 -1.0071
 6316SOL    HW130584   3.753   3.971   4.192 -0.4929  0.2853 -1.6186
 6316SOL    HW230585   3.751   3.941   4.043  0.0618 -1.7616  1.3562
 6317SOL     OW30586   2.674   2.582   5.784  0.1239  0.4123  0.3821
 6317SOL    HW130587   2.747   2.613   5.731  0.6097  0.6362  1.1711
 6317SOL    HW230588   2.714   2.497   5.799  0.7502  0.8641  1.2507
 6318SOL     OW30589   0.906   4.176   7.174 -0.1965 -0.1297 -0.1636
 6318SOL    HW130590   0.890   4.110   7.243 -0.4655  1.0799  0.9282
 6318SOL    HW230591   0.831   4.161   7.117 -0.2136 -2.4334  0.4351
 6319SOL     OW30592   1.301   0.698  10.525 -0.1737 -0.0148  0.0969
 6319SOL    HW130593   1.295   0.713  10.430 -2.3241 -1.9702 -0.0664
 6319SOL    HW230594   1.391   0.668  10.542 -0.2006  0.8672  1.7416
 6320SOL     OW30595   3.199   1.569  12.410  0.4523  0.1784 -0.4016
 6320SOL    HW130596   3.206   1.663  12.392  4.0183  0.1337  0.5873
 6320SOL    HW230597   3.226   1.539  12.323 -0.0029 -0.5363 -0.2896
 6321SOL     OW30598   2.531   0.564   8.134 -0.4754 -0.1074  0.0754
 6321SOL    HW130599   2.509   0.544   8.043  0.0515  0.1477 -0.1075
 6321SOL    HW230600   2.443   0.572   8.170 -0.8776 -1.7356 -0.5250
 6322SOL     OW30601   1.508   0.347   9.107 -0.3864  0.4278 -0.7316
 6322SOL    HW130602   1.573   0.398   9.059  2.5621 -1.6353  1.0824
 6322SOL    HW230603   1.466   0.420   9.152 -0.3697  0.6963 -1.1494
 6323SOL     OW30604   1.504   3.001   5.499 -0.0924 -0.3696  0.4020
 6323SOL    HW130605   1.588   2.986   5.543  0.1426  1.4161  0.5385
 6323SOL    HW230606   1.450   2.937   5.546 -2.0310  0.3007 -0.8846
 6324SOL     OW30607   1.913   2.076   5.778  0.0554 -0.1497 -0.3084
 6324SOL    HW130608   2.003   2.103   5.796  0.2425 -0.8741 -0.1544
 6324SOL    HW230609   1.903   2.025   5.858  0.3205  0.0691 -0.1359
 6325SOL     OW30610   2.497   3.516   3.050 -0.1494  0.3649  0.3770
 6325SOL    HW130611   2.405   3.506   3.025  0.4032 -0.4337 -1.3973
 6325SOL    HW230612   2.497   3.466   3.131 -0.1418 -0.2370  0.0045
 6326SOL     OW30613   0.229   3.580   2.966 -0.8210 -0.1868  0.4971
 6326SOL    HW130614   0.299   3.563   3.029 -0.9131  0.1545  0.6965
 6326SOL    HW230615   0.269   3.551   2.884 -2.0149 -1.3548  0.3443
 6327SOL     OW30616   1.185   1.859   4.837 -0.1812  0.1713  0.1163
 6327SOL    HW130617   1.134   1.936   4.861  1.5029  1.1299  0.6525
 6327SOL    HW230618   1.270   1.902   4.845 -0.4633  1.0060 -1.4324
 6328SOL     OW30619   0.310   4.482  17.194 -0.1129  0.4296  0.7672
 6328SOL    HW130620   0.239   4.423  17.169  0.7745  0.7791 -2.5658
 6328SOL    HW230621   0.280   4.544  17.260 -2.0550  0.0160  0.2804
 6329SOL     OW30622   0.011   2.333   7.000 -0.1269  0.4834 -0.0643
 6329SOL    HW130623   4.724   2.309   6.911  1.7157 -0.1137 -0.3881
 6329SOL    HW230624   0.077   2.266   7.018 -0.6190 -0.3551 -1.4264
 6330SOL     OW30625   0.789   1.432   8.811 -0.3530  0.2983 -0.4741
 6330SOL    HW130626   0.830   1.405   8.730  0.7501 -0.1892  0.2553
 6330SOL    HW230627   0.694   1.444   8.800 -0.4131  0.4721  0.1888
 6331SOL     OW30628   0.621   2.617   5.380 -0.7172  0.5588 -0.5665
 6331SOL    HW130629   0.530   2.622   5.350 -1.2891 -0.8193  0.9785
 6331SOL    HW230630   0.623   2.547   5.444 -1.1651  2.4536  1.5083
 6332SOL     OW30631   3.609   2.388   7.489  0.0283  0.1623 -0.1707
 6332SOL    HW130632   3.645   2.475   7.472  0.1266  0.0652 -0.4670
 6332SOL    HW230633   3.519   2.418   7.478 -0.2485 -0.6518 -0.1262
 6333SOL     OW30634   0.847   2.686   6.602 -0.5357  0.1665  0.4266
 6333SOL    HW130635   0.899   2.633   6.542 -2.0153 -1.4029  0.5085
 6333SOL    HW230636   0.866   2.779   6.591 -1.8937  0.6090  1.7692
 6334SOL     OW30637   4.160   0.552  12.842 -0.3414 -0.5198 -0.9799
 6334SOL    HW130638   4.180   0.518  12.930 -1.5617  1.9230  0.2326
 6334SOL    HW230639   4.066   0.539  12.836 -0.2214 -2.9779  2.3832
 6335SOL     OW30640   4.651   1.405   2.008  0.4749  0.1987  0.2237
 6335SOL    HW130641   4.663   1.371   1.919 -1.9062  1.2322 -0.5155
 6335SOL    HW230642   4.590   1.343   2.047 -0.5657  0.3012 -1.2186
 6336SOL     OW30643   0.478   0.216  13.628 -0.5968  0.5074  0.4673
 6336SOL    HW130644   0.513   0.292  13.676  2.8861 -0.8011  0.0051
 6336SOL    HW230645   0.477   0.243  13.537  2.0415 -1.0790 -0.0413
 6337SOL     OW30646   1.682   1.802   1.811 -0.1111  0.5205 -0.0407
 6337SOL    HW130647   1.762   1.760   1.841 -0.0724 -1.0011 -2.2421
 6337SOL    HW230648   1.727   1.876   1.770 -0.7951  0.3756 -1.0496
 6338SOL     OW30649   2.505   0.811   2.537 -0.1184 -0.0221  0.2296
 6338SOL    HW130650   2.453   0.864   2.597 -1.0398  0.2652 -0.8156
 6338SOL    HW230651   2.558   0.761   2.600  1.3978 -0.5727 -1.4907
 6339SOL     OW30652   3.249   2.746  12.381  0.0300  0.6115 -0.2224
 6339SOL    HW130653   3.179   2.742  12.445 -0.1731  2.1267 -0.3551
 6339SOL    HW230654   3.312   2.681  12.412 -0.6300 -0.6726 -1.5672
 6340SOL     OW30655   2.643   3.094   8.482  0.0122 -0.5230  0.1458
 6340SOL    HW130656   2.557   3.088   8.441  0.3865 -1.3223 -0.5013
 6340SOL    HW230657   2.706   3.050   8.426  3.5742  2.1379  1.9990
 6341SOL     OW30658   3.780   0.115  12.695 -0.1129 -0.1046  0.3544
 6341SOL    HW130659   3.735   0.036  12.723  1.5641 -0.6189  1.6334
 6341SOL    HW230660   3.868   0.077  12.692  0.7960  2.0904 -1.5111
 6342SOL     OW30661   4.144   1.581   3.092  0.0623 -0.2995 -0.1269
 6342SOL    HW130662   4.156   1.516   3.161 -2.1812  1.0084  1.4980
 6342SOL    HW230663   4.189   1.655   3.133  0.7537 -1.3414  0.9846
 6343SOL     OW30664   2.847   0.894   5.684 -0.2939  0.6778 -0.0366
 6343SOL    HW130665   2.830   0.864   5.773  1.5204  0.1121  0.1041
 6343SOL    HW230666   2.937   0.869   5.668 -0.6497 -0.3782 -0.3939
 6344SOL     OW30667   4.172   3.110   5.703 -0.5284 -0.3089  0.3263
 6344SOL    HW130668   4.087   3.107   5.745 -0.0780  0.9955  1.3354
 6344SOL    HW230669   4.168   3.192   5.654  1.8408 -0.6468 -0.4383
 6345SOL     OW30670   1.397   4.140   8.366  0.6914 -0.1405  0.1858
 6345SOL    HW130671   1.439   4.060   8.336  0.9387 -0.5951  1.7652
 6345SOL    HW230672   1.381   4.190   8.286  1.6972  1.3356  0.9251
 6346SOL     OW30673   4.041   4.315  14.422  0.1138 -0.2172  0.3383
 6346SOL    HW130674   4.066   4.407  14.435  0.0758 -0.0750 -0.5512
 6346SOL    HW230675   3.975   4.327  14.353 -0.2223  0.8679  0.8462
 6347SOL     OW30676   0.020   1.514   3.989 -0.0472 -0.2152 -0.3614
 6347SOL    HW130677   4.708   1.594   3.968 -0.3268 -0.2144  0.3112
 6347SOL    HW230678   0.104   1.554   4.010 -0.2248  0.4951 -0.9921
 6348SOL     OW30679   2.763   2.263  12.635  0.2019  0.3728  0.1556
 6348SOL    HW130680   2.668   2.274  12.635  0.2424  0.7364 -0.6793
 6348SOL    HW230681   2.768   2.178  12.680  0.7849  1.7626  2.6930
 6349SOL     OW30682   4.719   3.609   0.257 -0.5025 -0.2090  0.2809
 6349SOL    HW130683   4.724   3.520   0.293 -1.2394  0.0110  0.9224
 6349SOL    HW230684   0.049   3.654   0.310  0.0395 -1.8987  1.0343
 6350SOL     OW30685   3.397   4.200   6.109  0.5986 -0.3305  0.2998
 6350SOL    HW130686   3.478   4.149   6.111 -0.2851 -1.7400 -0.0842
 6350SOL    HW230687   3.403   4.247   6.192 -0.5846  0.9657 -0.3444
 6351SOL     OW30688   3.623   4.694   7.705  0.5363 -0.6218 -0.4065
 6351SOL    HW130689   3.668   0.015   7.643 -1.2877  1.3302  0.0675
 6351SOL    HW230690   3.616   0.010   7.785 -0.2608  0.6637 -1.3165
 6352SOL     OW30691   3.410   3.499  15.166 -0.1123 -0.1829  0.2209
 6352SOL    HW130692   3.468   3.567  15.132 -0.8121 -0.3446 -1.2557
 6352SOL    HW230693   3.357   3.559  15.219  0.8903  0.8810  0.0089
 6353SOL     OW30694   3.982   4.694  15.018 -0.0920  0.1433 -0.5388
 6353SOL    HW130695   4.025   4.609  15.012  0.0386  0.2940 -1.7526
 6353SOL    HW230696   4.034   0.005  15.083  0.0591 -2.1598  1.0292
 6354SOL     OW30697   0.906   2.184   5.567 -0.1858  0.0846 -0.4413
 6354SOL    HW130698   0.882   2.097   5.599 -0.1367 -0.1492 -1.0389
 6354SOL    HW230699   0.835   2.203   5.506  0.8902  0.3080 -1.6174
 6355SOL     OW30700   1.297   3.224   3.411 -0.5915  0.0792  0.4871
 6355SOL    HW130701   1.371   3.163   3.411 -0.0007  0.7835  0.4316
 6355SOL    HW230702   1.333   3.310   3.433 -0.5617 -0.2929  1.8434
 6356SOL     OW30703   2.561   4.155   6.571  0.2323 -0.3599 -0.1309
 6356SOL    HW130704   2.537   4.146   6.663 -0.1810 -0.0639 -0.2140
 6356SOL    HW230705   2.516   4.228   6.529  0.0698  0.5640  1.6485
 6357SOL     OW30706   4.082   0.675   6.948 -0.4204 -0.1330  0.1744
 6357SOL    HW130707   4.081   0.721   7.032 -0.9229 -0.0297  0.1122
 6357SOL    HW230708   4.043   0.738   6.888 -0.7370  1.0375  1.6163
 6358SOL     OW30709   1.219   2.950  14.859 -0.3037 -0.4898 -0.5434
 6358SOL    HW130710   1.232   2.908  14.944  3.2982  1.5365 -0.0639
 6358SOL    HW230711   1.278   2.906  14.797 -2.0042 -0.6089 -2.0897
 6359SOL     OW30712   2.621   3.114   2.143  0.6931  0.1541  0.6162
 6359SOL    HW130713   2.550   3.162   2.186 -0.5154 -0.0991 -1.0790
 6359SOL    HW230714   2.684   3.186   2.138 -0.4119  1.0841  0.0079
 6360SOL     OW30715   0.930   2.703   8.218 -0.3359  0.2513 -0.2160
 6360SOL    HW130716   0.841   2.668   8.210  0.4307 -2.4726  3.1353
 6360SOL    HW230717   0.924   2.706   8.313  2.6801 -0.9508  0.0081
 6361SOL     OW30718   2.559   0.716   5.613 -0.0758  0.2580  0.3938
 6361SOL    HW130719   2.616   0.639   5.622 -1.3904 -0.7496  0.0339
 6361SOL    HW230720   2.479   0.681   5.650 -0.5952  0.4133 -0.5891
 6362SOL     OW30721   4.643   3.233   4.883  0.1429 -0.1021 -0.2538
 6362SOL    HW130722   4.717   3.184   4.919  1.2189  2.3034  0.7920
 6362SOL    HW230723   4.645   3.309   4.940 -0.2706  0.2918 -0.7672
 6363SOL     OW30724   1.352   1.343  15.781  0.0429  0.0521  0.4441
 6363SOL    HW130725   1.380   1.428  15.748  0.8705  0.0155  1.0627
 6363SOL    HW230726   1.296   1.302  15.715 -0.7274  1.2308  0.3596
 6364SOL     OW30727   2.869   3.809  16.182 -0.3603 -0.5465  0.2717
 6364SOL    HW130728   2.856   3.869  16.108 -1.1857 -2.2154 -0.9363
 6364SOL    HW230729   2.795   3.757  16.153 -1.0636 -0.1232  1.3512
 6365SOL     OW30730   1.111   0.100   2.279  0.2488  1.0156 -0.4811
 6365SOL    HW130731   1.155   0.048   2.347 -1.1487  0.6206  0.1314
 6365SOL    HW230732   1.111   0.185   2.324  0.3508 -0.9007  3.1382
 6366SOL     OW30733   0.615   3.158   4.730  0.7750  0.3319 -0.4845
 6366SOL    HW130734   0.614   3.136   4.823 -3.0430  2.3864 -0.0488
 6366SOL    HW230735   0.689   3.217   4.712 -1.0288  2.0803 -2.2283
 6367SOL     OW30736   3.606   2.853   8.063 -0.5569 -0.7728 -0.2220
 6367SOL    HW130737   3.616   2.905   8.143  1.4887  0.9752 -1.6010
 6367SOL    HW230738   3.515   2.829   8.079 -0.9266 -0.3500 -1.7554
 6368SOL     OW30739   1.218   3.199  16.060  0.4821  0.3544  0.9485
 6368SOL    HW130740   1.270   3.197  15.980 -1.2477  3.9908 -0.2439
 6368SOL    HW230741   1.226   3.294  16.070 -0.8142  0.4526  0.9926
 6369SOL     OW30742   4.339   1.588   7.917 -0.0202  0.0202 -0.6737
 6369SOL    HW130743   4.402   1.627   7.857  0.1055 -1.5279 -1.5563
 6369SOL    HW230744   4.333   1.505   7.870 -0.5117  0.4900 -1.4446
 6370SOL     OW30745   4.149   3.177   4.890 -0.0702 -0.7068 -0.5879
 6370SOL    HW130746   4.233   3.165   4.932 -0.9312 -0.3947  1.1934
 6370SOL    HW230747   4.147   3.266   4.855 -1.9791  0.2435  1.9580
 6371SOL     OW30748   1.565   1.460   4.113 -0.5421  0.5993  0.2794
 6371SOL    HW130749   1.499   1.391   4.117 -1.8326  1.8491  0.5746
 6371SOL    HW230750   1.592   1.463   4.022  0.3306  0.3609  0.5317
 6372SOL     OW30751   0.974   3.343   0.510  0.2546  0.4221  0.2519
 6372SOL    HW130752   1.002   3.258   0.545 -0.9138  0.1709  0.6111
 6372SOL    HW230753   0.972   3.396   0.590  1.7285 -0.0655  0.6183
 6373SOL     OW30754   3.284   0.120   3.838 -0.1348 -0.0863  0.1861
 6373SOL    HW130755   3.289   0.215   3.842  0.2161 -0.1005  0.1061
 6373SOL    HW230756   3.241   0.117   3.752  1.5659  1.4160 -0.7148
 6374SOL     OW30757   3.307   1.749   8.047 -0.7256 -0.5879  0.1327
 6374SOL    HW130758   3.401   1.731   8.042 -0.5700  0.1652  0.3508
 6374SOL    HW230759   3.272   1.684   7.987  0.2500 -0.2722 -0.7719
 6375SOL     OW30760   0.576   3.891  16.995 -0.1259  0.8929 -0.1961
 6375SOL    HW130761   0.593   3.821  17.058  3.0856  0.5897 -1.4127
 6375SOL    HW230762   0.565   3.969  17.050  0.1399  0.6121  0.2574
 6376SOL     OW30763   3.344   3.096   1.155 -0.0213 -0.2588  0.2222
 6376SOL    HW130764   3.413   3.157   1.129 -1.0696  1.2586  1.0415
 6376SOL    HW230765   3.370   3.083   1.246  2.1382 -1.5196 -0.5735
 6377SOL     OW30766   0.860   3.499   8.778 -0.0720  0.0422  0.1613
 6377SOL    HW130767   0.951   3.495   8.747 -1.4324 -3.0234 -3.4477
 6377SOL    HW230768   0.827   3.579   8.738 -0.4002  0.7917  1.9214
 6378SOL     OW30769   1.127   3.485  11.886  0.0886 -0.3068  0.3558
 6378SOL    HW130770   1.182   3.498  11.808 -0.9373  2.3933  0.1040
 6378SOL    HW230771   1.146   3.393  11.903  1.2714 -0.1169  0.0799
 6379SOL     OW30772   1.695   1.946   7.055  0.1309 -0.1017 -0.4159
 6379SOL    HW130773   1.760   1.908   6.995  1.4053 -0.0029  0.9058
 6379SOL    HW230774   1.737   1.939   7.140 -0.1574  3.3259  0.0250
 6380SOL     OW30775   1.362   4.543  10.141 -0.5413 -0.2856 -0.1505
 6380SOL    HW130776   1.342   4.637  10.143  0.7501  0.0614 -2.6703
 6380SOL    HW230777   1.274   4.512  10.161  0.3839 -0.5158  3.4209
 6381SOL     OW30778   0.668   1.405  13.241  0.2338 -0.3849  0.6437
 6381SOL    HW130779   0.756   1.382  13.211 -0.9599 -3.0197 -0.8239
 6381SOL    HW230780   0.669   1.500  13.228  1.8336 -0.2823  1.5049
 6382SOL     OW30781   0.762   3.954  12.950  0.1697  0.8803 -0.2427
 6382SOL    HW130782   0.785   4.044  12.926 -0.2185  0.7012 -1.2948
 6382SOL    HW230783   0.741   3.928  12.860 -1.7575  3.4024 -0.4967
 6383SOL     OW30784   2.564   1.751   7.459 -0.5525  0.6352 -0.2597
 6383SOL    HW130785   2.658   1.737   7.476 -0.4467  0.8988 -0.6254
 6383SOL    HW230786   2.559   1.754   7.363 -0.0926  2.7683 -0.2099
 6384SOL     OW30787   3.935   1.057   6.086  0.2162  0.2818  0.4575
 6384SOL    HW130788   4.029   1.070   6.079 -0.1372  1.3934 -2.6260
 6384SOL    HW230789   3.902   1.089   6.002  0.3828 -1.1046 -0.1343
 6385SOL     OW30790   0.682   4.187   6.439 -0.0450  0.2315 -0.2934
 6385SOL    HW130791   0.728   4.244   6.377  0.8195  0.5900  0.6502
 6385SOL    HW230792   0.642   4.118   6.386  1.8606 -1.4660  0.4611
 6386SOL     OW30793   1.272   2.458   1.598  0.0514  0.1395 -0.2671
 6386SOL    HW130794   1.280   2.483   1.506 -0.4166  0.1164 -0.3112
 6386SOL    HW230795   1.177   2.460   1.611  0.0418 -0.1929 -0.2873
 6387SOL     OW30796   2.294   3.915  11.683  0.5229  0.0186 -0.1223
 6387SOL    HW130797   2.374   3.962  11.709 -0.3024  1.8387 -0.8364
 6387SOL    HW230798   2.328   3.827  11.696 -0.6135 -0.5760 -1.2863
 6388SOL     OW30799   4.505   1.915  16.483 -0.8050  0.0930 -0.2582
 6388SOL    HW130800   4.526   1.991  16.430 -1.7874  0.7560  0.3130
 6388SOL    HW230801   4.586   1.872  16.455 -0.9688  0.3505 -1.1323
 6389SOL     OW30802   4.342   3.573  16.793 -0.5059 -0.6877 -0.2092
 6389SOL    HW130803   4.369   3.557  16.883 -1.0795  0.6873  0.1994
 6389SOL    HW230804   4.361   3.491  16.746  1.6941 -0.0973 -0.3831
 6390SOL     OW30805   2.560   3.981   8.808 -0.6170 -0.3911  0.1378
 6390SOL    HW130806   2.579   4.015   8.896  0.3345 -1.5762  0.3834
 6390SOL    HW230807   2.635   3.925   8.788 -0.1928  0.4848 -0.7124
 6391SOL     OW30808   4.548   2.328   4.202  0.1035  0.4356 -0.5618
 6391SOL    HW130809   4.505   2.413   4.212 -0.4952  0.0562  0.1119
 6391SOL    HW230810   4.611   2.342   4.273 -0.4480 -2.2049  0.4440
 6392SOL     OW30811   4.037   2.599   1.312  0.4736 -0.3023 -0.2518
 6392SOL    HW130812   4.109   2.538   1.298  1.1076  0.6695 -1.1712
 6392SOL    HW230813   4.051   2.614   1.406 -1.1966 -1.2342  0.1464
 6393SOL     OW30814   1.675   3.530   5.419  0.2863  0.4162 -0.0614
 6393SOL    HW130815   1.744   3.533   5.352  1.6395  0.8473  1.3533
 6393SOL    HW230816   1.641   3.442   5.405 -2.5388  1.2560  1.7166
 6394SOL     OW30817   4.455   0.593   8.280  0.5682  0.2799  0.4110
 6394SOL    HW130818   4.491   0.629   8.361  3.7462 -1.8118 -0.0683
 6394SOL    HW230819   4.363   0.594   8.307  0.7134  0.8411  0.8761
 6395SOL     OW30820   0.021   3.094   6.921 -0.8164 -0.1385 -0.2067
 6395SOL    HW130821   4.702   3.016   6.929  0.2494 -0.8174  0.5213
 6395SOL    HW230822   0.004   3.120   7.011  0.3514 -3.7134  1.0410
 6396SOL     OW30823   3.480   3.817   2.346  0.4967  0.2550  0.0968
 6396SOL    HW130824   3.525   3.733   2.345  1.2737  0.6950 -1.3140
 6396SOL    HW230825   3.424   3.818   2.268  0.5609 -3.6233  0.0148
 6397SOL     OW30826   3.345   2.961   5.681  0.0562  0.0323  0.3940
 6397SOL    HW130827   3.355   3.050   5.717 -4.3135  0.6658  0.0717
 6397SOL    HW230828   3.296   2.917   5.751 -1.5183 -2.0098 -2.0170
 6398SOL     OW30829   1.934   1.216   4.816  0.2379 -0.3048 -0.3619
 6398SOL    HW130830   1.993   1.233   4.890 -0.2777 -0.5231  0.1033
 6398SOL    HW230831   1.907   1.125   4.822  0.3729 -0.2188  1.7017
 6399SOL     OW30832   3.952   3.525   0.431  0.4192  0.0921  0.3102
 6399SOL    HW130833   3.995   3.537   0.346  0.0775  0.5876  0.2063
 6399SOL    HW230834   4.020   3.471   0.471 -2.0299 -3.0270  0.2836
 6400SOL     OW30835   0.832   3.527  13.064  0.4221 -0.1069  0.0853
 6400SOL    HW130836   0.831   3.614  13.104  1.5339  0.8399 -1.9566
 6400SOL    HW230837   0.820   3.556  12.974  0.9171 -2.2010 -0.6699
 6401SOL     OW30838   4.623   2.084   3.806  0.6873 -0.1206 -0.2242
 6401SOL    HW130839   4.575   2.165   3.796  0.7492  0.1876  1.9366
 6401SOL    HW230840   4.567   2.031   3.863 -0.1275  1.0472  0.0382
 6402SOL     OW30841   3.238   3.993  11.511 -0.6160  0.3677  0.0767
 6402SOL    HW130842   3.254   4.038  11.428  1.2075  1.9640  1.2804
 6402SOL    HW230843   3.144   3.976  11.507 -0.7945  1.3821 -0.2956
 6403SOL     OW30844   0.131   3.768   2.282  0.5898  0.7544 -0.1861
 6403SOL    HW130845   0.126   3.693   2.341  1.2610  0.7247 -0.1610
 6403SOL    HW230846   0.042   3.770   2.248  0.2619 -1.4584  0.5320
 6404SOL     OW30847   2.802   4.038   1.365  0.2082  0.1673  0.2257
 6404SOL    HW130848   2.787   4.090   1.286  1.9141  0.5476  0.1490
 6404SOL    HW230849   2.811   4.107   1.431  1.0099 -1.1255  1.4580
 6405SOL     OW30850   2.675   3.952   7.775 -0.1483 -0.3051  0.3213
 6405SOL    HW130851   2.741   4.006   7.731  0.5232 -0.2871  1.3288
 6405SOL    HW230852   2.729   3.877   7.798 -3.6764 -2.3219  2.0810
 6406SOL     OW30853   3.618   1.858  14.520  0.5746  0.1787  0.3066
 6406SOL    HW130854   3.528   1.831  14.538 -0.4723  2.6805 -1.2344
 6406SOL    HW230855   3.617   1.845  14.426 -3.3594 -1.1143  0.5395
 6407SOL     OW30856   0.659   0.551  13.002  0.0123 -0.3034  0.0939
 6407SOL    HW130857   0.645   0.484  12.935  1.2569 -0.0442 -0.4271
 6407SOL    HW230858   0.636   0.631  12.955  0.2098 -1.0170 -1.2125
 6408SOL     OW30859   3.297   0.033  16.262 -0.2313 -0.2211 -0.6636
 6408SOL    HW130860   3.270   4.684  16.229  1.0740 -1.3701  1.2489
 6408SOL    HW230861   3.354   0.062  16.190 -0.2408 -0.5456 -0.8005
 6409SOL     OW30862   1.019   1.649  15.160  0.8450  0.1476  0.2810
 6409SOL    HW130863   1.032   1.677  15.070  2.2602 -1.6654 -0.0746
 6409SOL    HW230864   1.110   1.628  15.181  1.2041  2.0598  0.7127
 6410SOL     OW30865   4.028   2.176   0.068  0.3691 -0.3002  0.3882
 6410SOL    HW130866   3.960   2.149   0.006  0.6341  0.1702 -0.0967
 6410SOL    HW230867   3.963   2.222   0.122 -0.4496 -0.7359 -0.2313
 6411SOL     OW30868   0.889   3.530   6.865  0.0764  0.0259 -0.1098
 6411SOL    HW130869   0.854   3.579   6.790 -0.7892  1.0722  0.9743
 6411SOL    HW230870   0.975   3.508   6.830 -0.3737  0.3784 -1.4764
 6412SOL     OW30871   2.735   0.067   1.962 -0.0727  0.1255  0.1028
 6412SOL    HW130872   2.815   0.060   1.910 -0.5233 -1.0214 -0.4382
 6412SOL    HW230873   2.728   4.721   2.011 -0.5016 -1.2457 -2.2657
 6413SOL     OW30874   1.392   2.820   2.579 -0.4797  0.0317 -0.2412
 6413SOL    HW130875   1.338   2.742   2.595  1.1972 -1.1501 -0.3771
 6413SOL    HW230876   1.464   2.790   2.634  0.6770 -0.6117 -2.1290
 6414SOL     OW30877   3.954   4.262   1.493  0.3495 -0.1446  0.3040
 6414SOL    HW130878   4.043   4.227   1.491  0.6075  0.3697  2.5109
 6414SOL    HW230879   3.957   4.327   1.423  1.9446  0.7014  1.1251
 6415SOL     OW30880   1.568   4.352   6.170 -0.3672 -0.1988 -0.1688
 6415SOL    HW130881   1.475   4.340   6.153 -0.7004  2.3043 -0.1340
 6415SOL    HW230882   1.593   4.262   6.191  2.9241  0.6287 -0.5307
 6416SOL     OW30883   2.444   0.137   5.766 -0.5358  0.1106  0.4710
 6416SOL    HW130884   2.519   0.082   5.742 -0.6258  1.3282 -2.6790
 6416SOL    HW230885   2.386   0.073   5.806  0.9416 -0.2127  2.1035
 6417SOL     OW30886   2.821   0.574  10.075  1.5412 -0.1188  0.1693
 6417SOL    HW130887   2.869   0.617  10.145 -0.5292  1.5068  0.5770
 6417SOL    HW230888   2.738   0.620  10.080  0.9722 -0.9539 -1.3195
 6418SOL     OW30889   2.497   3.436  16.003 -0.5039  0.7281 -0.5492
 6418SOL    HW130890   2.532   3.398  16.084  1.1555  2.7774 -0.2838
 6418SOL    HW230891   2.417   3.473  16.040  1.5338  2.5350  2.0874
 6419SOL     OW30892   2.215   0.855   2.934  0.3453 -0.1604 -0.1906
 6419SOL    HW130893   2.235   0.784   2.995 -0.3579 -1.5567 -1.6154
 6419SOL    HW230894   2.126   0.837   2.904  0.1201  1.7143 -0.6422
 6420SOL     OW30895   0.399   2.147   5.952  0.6017  0.2385 -0.2990
 6420SOL    HW130896   0.383   2.086   6.024  0.9701  1.5059  0.8616
 6420SOL    HW230897   0.492   2.160   5.971  1.0591 -2.5333 -0.5271
 6421SOL     OW30898   3.937   2.961   9.844  0.6584  0.3925  0.1303
 6421SOL    HW130899   3.856   2.946   9.796  1.7229 -0.3912 -1.4210
 6421SOL    HW230900   3.910   2.928   9.929 -0.3755 -0.0337 -0.3605
 6422SOL     OW30901   3.837   0.413   9.896 -0.0124 -0.3178 -0.0556
 6422SOL    HW130902   3.909   0.442   9.840 -1.0045  0.3201 -1.0191
 6422SOL    HW230903   3.871   0.439   9.982  2.2121  2.1524 -1.6686
 6423SOL     OW30904   3.426   4.586   3.012  0.2929  0.4554  0.1559
 6423SOL    HW130905   3.477   4.652   2.966  1.1044 -1.4496 -1.6438
 6423SOL    HW230906   3.337   4.622   3.004 -0.2016 -0.6870  0.4756
 6424SOL     OW30907   3.314   3.046   3.715  0.4378 -0.2651 -0.3469
 6424SOL    HW130908   3.298   2.970   3.660 -0.9850 -0.8340  0.8615
 6424SOL    HW230909   3.409   3.034   3.714  0.2305 -1.7993 -0.9552
 6425SOL     OW30910   4.236   4.537   3.523  0.1822  1.0987 -0.5193
 6425SOL    HW130911   4.217   4.447   3.549 -0.6136  0.8232 -2.0535
 6425SOL    HW230912   4.224   4.579   3.608 -1.3368  0.2055 -0.2849
 6426SOL     OW30913   0.202   3.060  17.369  0.2632 -0.3087 -0.0080
 6426SOL    HW130914   0.129   2.998  17.373 -2.2598  2.6324 -1.0118
 6426SOL    HW230915   0.169   3.127  17.309  0.0662  0.7473  1.2793
 6427SOL     OW30916   0.535   1.603  15.728 -0.5188 -0.0473  0.0587
 6427SOL    HW130917   0.574   1.575  15.810  1.7263  0.9624 -0.6592
 6427SOL    HW230918   0.500   1.688  15.754 -0.9593 -0.9737  2.4530
 6428SOL     OW30919   3.085   4.091   3.211 -0.3052  0.5788  0.0773
 6428SOL    HW130920   3.096   4.041   3.131  1.0215 -0.2070  0.7337
 6428SOL    HW230921   3.164   4.145   3.218  0.2523 -0.0932 -1.0353
 6429SOL     OW30922   1.679   1.417   9.299 -0.1815  0.0005 -0.6894
 6429SOL    HW130923   1.625   1.372   9.363 -0.1327  1.7498  0.5747
 6429SOL    HW230924   1.695   1.502   9.340  0.5376 -1.2505  1.5882
 6430SOL     OW30925   2.505   3.244   6.287  0.0170 -0.4209 -0.0732
 6430SOL    HW130926   2.443   3.317   6.286 -1.1081 -1.4036 -0.9966
 6430SOL    HW230927   2.588   3.292   6.281  0.9922 -1.9454  1.0946
 6431SOL     OW30928   4.002   0.409   6.451 -0.6926  0.3278 -0.2077
 6431SOL    HW130929   4.093   0.438   6.449  0.1188 -2.2788 -1.7204
 6431SOL    HW230930   3.974   0.466   6.379 -0.8017 -1.0425 -1.2584
 6432SOL     OW30931   3.791   4.296   4.046 -0.0948  0.4621  0.4823
 6432SOL    HW130932   3.747   4.222   4.088 -1.3234 -0.5910 -2.7339
 6432SOL    HW230933   3.744   4.287   3.963  1.0398 -1.4432  0.0629
 6433SOL     OW30934   0.274   1.053   6.388  0.0340  0.1055 -0.2449
 6433SOL    HW130935   0.286   1.091   6.301  2.2989 -3.3580 -1.4678
 6433SOL    HW230936   0.293   0.959   6.377  1.0506  0.4732 -1.7350
 6434SOL     OW30937   1.667   2.220   7.607  0.0473  0.0958  0.0447
 6434SOL    HW130938   1.682   2.132   7.571  2.5155 -0.7556  3.1207
 6434SOL    HW230939   1.605   2.259   7.545  2.7739 -0.0082 -2.7498
 6435SOL     OW30940   4.175   3.062   8.705  0.1857  0.0884  0.0877
 6435SOL    HW130941   4.248   3.119   8.725  0.3506  0.4702 -1.5942
 6435SOL    HW230942   4.220   2.981   8.681  0.3898  0.1034  0.4189
 6436SOL     OW30943   1.665   2.653  16.952  0.5218 -0.3809 -0.0467
 6436SOL    HW130944   1.710   2.664  17.035  0.5868  0.5742 -0.2084
 6436SOL    HW230945   1.669   2.743  16.919 -0.3242 -0.9366 -1.7150
 6437SOL     OW30946   3.366   0.914   5.749 -0.2207 -0.0151 -0.1301
 6437SOL    HW130947   3.328   0.868   5.674 -2.8426 -0.6219  1.6018
 6437SOL    HW230948   3.358   1.002   5.713 -2.7782 -1.0848 -2.1222
 6438SOL     OW30949   0.627   4.620  15.933  0.2260 -0.7379 -0.5110
 6438SOL    HW130950   0.628   4.626  16.029 -1.4799  2.0606 -0.6526
 6438SOL    HW230951   0.543   4.661  15.912  1.8030  1.9782 -1.4096
 6439SOL     OW30952   0.848   2.738  16.488  0.3106 -0.4215 -0.5838
 6439SOL    HW130953   0.898   2.757  16.568  0.4528 -2.0106 -0.2843
 6439SOL    HW230954   0.814   2.825  16.467 -0.7471 -0.0643  2.5239
 6440SOL     OW30955   3.810   3.945   5.466 -0.1433  0.0532 -0.5087
 6440SOL    HW130956   3.754   3.870   5.486 -0.7700  0.6866  0.1001
 6440SOL    HW230957   3.824   3.929   5.373  0.2741 -0.3732 -0.3746
 6441SOL     OW30958   2.027   0.593   8.614 -0.0772  0.8551 -0.1835
 6441SOL    HW130959   2.021   0.588   8.709 -1.7803 -0.3299 -0.3676
 6441SOL    HW230960   2.009   0.687   8.615 -0.1798  0.8247  1.1688
 6442SOL     OW30961   3.241   0.821   8.932 -0.5779 -0.3347 -0.0169
 6442SOL    HW130962   3.266   0.890   8.871 -1.5727 -0.4139 -0.5200
 6442SOL    HW230963   3.320   0.767   8.936 -1.4332 -1.4086  2.8144
 6443SOL     OW30964   2.765   2.722   6.627 -0.2419  0.0449 -0.1632
 6443SOL    HW130965   2.704   2.771   6.682 -1.2755 -1.0516 -0.3493
 6443SOL    HW230966   2.838   2.782   6.609  1.2605 -1.5907  0.4079
 6444SOL     OW30967   0.495   4.452  15.480  0.1938 -0.0658 -0.1776
 6444SOL    HW130968   0.528   4.470  15.568 -0.1703 -1.2430  0.2010
 6444SOL    HW230969   0.436   4.527  15.467 -0.6876 -0.7123  0.1227
 6445SOL     OW30970   1.675   1.099   6.906 -0.4560 -0.4521  0.1636
 6445SOL    HW130971   1.769   1.117   6.912  0.0939 -2.6823 -1.8447
 6445SOL    HW230972   1.679   1.004   6.894 -4.3850 -0.7968  1.7569
 6446SOL     OW30973   3.999   0.351   7.014 -0.4404  0.1828  0.1728
 6446SOL    HW130974   3.931   0.396   6.963  0.5470  1.2765 -0.1850
 6446SOL    HW230975   4.070   0.394   6.966  1.4283 -0.5705  2.2937
 6447SOL     OW30976   0.517   2.035   5.583  0.5888  0.2389 -0.3632
 6447SOL    HW130977   0.506   2.130   5.586  0.4691  0.2306 -0.5667
 6447SOL    HW230978   0.493   2.000   5.669 -0.4060  0.1954 -0.6529
 6448SOL     OW30979   0.569   1.358   6.051  0.2595 -0.7101  0.0650
 6448SOL    HW130980   0.542   1.270   6.078 -2.9918  0.5147  0.7773
 6448SOL    HW230981   0.516   1.381   5.974  3.1125  1.6315 -1.1754
 6449SOL     OW30982   1.622   4.551   5.993  0.2426 -0.6473 -0.0251
 6449SOL    HW130983   1.598   4.477   5.938 -1.3675  0.1755 -0.4232
 6449SOL    HW230984   1.601   4.509   6.076 -0.4456  2.5615  1.4262
 6450SOL     OW30985   0.285   1.998   1.229 -0.1779 -0.8194 -0.0700
 6450SOL    HW130986   0.276   1.953   1.313 -2.3836 -0.1315  0.0571
 6450SOL    HW230987   0.264   2.091   1.240  0.5651 -0.6468 -0.1068
 6451SOL     OW30988   2.195   4.250  11.346  0.8689  0.7991  0.0840
 6451SOL    HW130989   2.152   4.263  11.262  0.1308 -0.5754  0.2594
 6451SOL    HW230990   2.213   4.341  11.369 -2.6322  1.1454  1.3035
 6452SOL     OW30991   0.255   3.818  12.581  0.3277  0.1392  0.4906
 6452SOL    HW130992   0.322   3.882  12.558 -0.5679  1.9203  2.7957
 6452SOL    HW230993   0.178   3.875  12.573 -0.1786 -1.0980 -3.2426
 6453SOL     OW30994   0.836   3.008   6.316  0.2407  0.5165 -0.3156
 6453SOL    HW130995   0.931   3.022   6.314 -0.0114  2.4603  1.5062
 6453SOL    HW230996   0.817   3.010   6.222 -2.5455 -2.1851  0.1763
 6454SOL     OW30997   0.001   4.349   3.077 -0.5934  0.0980  0.3683
 6454SOL    HW130998   0.065   4.409   3.117  0.2356 -0.2523 -0.4381
 6454SOL    HW230999   0.008   4.276   3.138 -1.9954 -0.1592  0.2222
 6455SOL     OW31000   3.498   2.618   1.193  0.4411  0.3758  0.5386
 6455SOL    HW131001   3.463   2.679   1.258  0.2507 -0.4769  1.2187
 6455SOL    HW231002   3.592   2.638   1.187  0.9269 -2.5976 -1.5854
 6456SOL     OW31003   0.962   3.471   5.460  0.1026 -0.5120  0.5391
 6456SOL    HW131004   0.896   3.420   5.414 -0.5535  0.4575  0.4089
 6456SOL    HW231005   0.906   3.503   5.531 -0.5653 -0.3359 -0.0668
 6457SOL     OW31006   3.088   0.591   7.348 -0.1040 -0.2959  0.2454
 6457SOL    HW131007   3.013   0.601   7.290 -0.4913  1.0595  0.9728
 6457SOL    HW231008   3.108   0.679   7.381 -2.6220  0.8328 -1.2099
 6458SOL     OW31009   4.204   1.622   7.049  0.0307  0.1144  0.8037
 6458SOL    HW131010   4.136   1.626   7.116 -0.9557 -3.5661  0.0251
 6458SOL    HW231011   4.285   1.584   7.084  0.4427 -0.1893 -0.4411
 6459SOL     OW31012   4.548   3.047   4.207 -0.5217  0.7446  0.6798
 6459SOL    HW131013   4.477   3.109   4.195 -1.1544  0.1166  1.1726
 6459SOL    HW231014   4.608   3.095   4.264  0.3240 -1.2323  1.4713
 6460SOL     OW31015   1.082   2.812   7.429  0.3513  0.2642  0.5553
 6460SOL    HW131016   1.039   2.850   7.506 -0.4310  0.2106  0.1485
 6460SOL    HW231017   1.167   2.799   7.470 -0.3945 -0.3473  1.9450
 6461SOL     OW31018   3.234   4.054   7.242  0.1712 -0.2427 -0.0486
 6461SOL    HW131019   3.234   4.142   7.280 -2.0064  0.0228 -0.6751
 6461SOL    HW231020   3.181   4.058   7.162  0.8219  2.7116 -0.3511
 6462SOL     OW31021   0.599   2.132   2.234  0.4888  0.1762 -0.0400
 6462SOL    HW131022   0.592   2.061   2.170 -0.9310 -1.4197  1.9003
 6462SOL    HW231023   0.560   2.096   2.313  0.2356 -0.6109 -0.5272
 6463SOL     OW31024   0.729   2.859   3.617 -0.0618 -0.2157  0.3244
 6463SOL    HW131025   0.656   2.807   3.584 -1.5537  0.4482  2.6505
 6463SOL    HW231026   0.765   2.888   3.533 -2.6689  1.1204 -0.3326
 6464SOL     OW31027   4.171   3.671   7.667 -0.2206 -0.5684  0.4127
 6464SOL    HW131028   4.237   3.602   7.675 -1.6342 -1.9935 -0.1632
 6464SOL    HW231029   4.217   3.743   7.710 -1.8570  1.1620 -0.7331
 6465SOL     OW31030   3.122   3.313   6.967 -0.4802  0.2108 -0.0177
 6465SOL    HW131031   3.163   3.328   6.881 -2.1633 -2.5944 -1.2816
 6465SOL    HW231032   3.142   3.221   6.983  0.2838  0.1702 -1.1548
 6466SOL     OW31033   1.968   3.076   9.914 -0.1630  0.0576 -0.1398
 6466SOL    HW131034   1.905   3.143   9.888  0.8070  0.6846 -0.8980
 6466SOL    HW231035   1.952   3.016   9.840  0.3978  0.9187 -0.9696
 6467SOL     OW31036   0.885   2.937   3.411  0.1119  0.1167  0.0581
 6467SOL    HW131037   0.942   3.011   3.430 -1.3808  1.3047 -0.1108
 6467SOL    HW231038   0.937   2.880   3.353 -2.0834 -0.0038 -1.7858
 6468SOL     OW31039   0.554   0.403  11.763  0.0222 -0.6872 -0.0762
 6468SOL    HW131040   0.478   0.354  11.794 -0.5574  1.5342  1.9687
 6468SOL    HW231041   0.628   0.351  11.795  0.2306 -0.2433  0.1666
 6469SOL     OW31042   1.221   3.064   9.198  0.4810  0.1571  0.6721
 6469SOL    HW131043   1.222   2.988   9.140 -0.6498  0.5861  0.0826
 6469SOL    HW231044   1.135   3.038   9.232 -0.0135 -0.3747 -1.0081
 6470SOL     OW31045   0.465   4.217   7.792 -0.2730 -0.0497 -0.6751
 6470SOL    HW131046   0.547   4.260   7.765 -0.0314  0.1911  0.4563
 6470SOL    HW231047   0.477   4.224   7.886  0.6819  1.2825 -0.8844
 6471SOL     OW31048   2.338   1.903   9.309 -0.0657 -0.0047 -0.2202
 6471SOL    HW131049   2.396   1.905   9.385  1.3435 -0.6769 -1.2949
 6471SOL    HW231050   2.382   1.969   9.257  0.7984 -0.3913  0.0118
 6472SOL     OW31051   2.749   2.020   2.275 -0.1708  0.1466  0.1360
 6472SOL    HW131052   2.702   1.937   2.289 -1.8230  1.4683  2.4323
 6472SOL    HW231053   2.672   2.076   2.284 -1.8589 -1.9469 -1.1185
 6473SOL     OW31054   2.496   1.726   5.505 -0.1163 -0.4148 -0.0183
 6473SOL    HW131055   2.463   1.801   5.456 -0.3646  0.0332  0.8334
 6473SOL    HW231056   2.435   1.660   5.473 -0.0931  0.3437 -1.6567
 6474SOL     OW31057   4.528   4.016   5.607  0.0936  0.3077  0.2418
 6474SOL    HW131058   4.464   4.053   5.668 -0.2976 -0.5861  0.3817
 6474SOL    HW231059   4.516   4.058   5.522  0.6223  1.1515  0.5890
 6475SOL     OW31060   0.459   3.861  13.067 -0.7467  0.4360 -0.3617
 6475SOL    HW131061   0.537   3.892  13.114  0.9793 -0.3340 -2.7146
 6475SOL    HW231062   0.406   3.821  13.136 -1.2602  1.6496 -0.0469
 6476SOL     OW31063   0.393   1.154   0.806 -0.3905  0.4834 -0.4897
 6476SOL    HW131064   0.303   1.170   0.833 -0.9764 -2.0154 -1.0365
 6476SOL    HW231065   0.434   1.235   0.838  3.1095 -1.9682  1.2587
 6477SOL     OW31066   1.426   3.691   1.899  0.1317 -0.4032 -0.3817
 6477SOL    HW131067   1.338   3.706   1.864 -0.9025  1.0795  2.9543
 6477SOL    HW231068   1.474   3.724   1.823  0.1528 -1.6966 -0.9378
 6478SOL     OW31069   1.843   4.681  15.638 -0.4884  0.1261  0.4747
 6478SOL    HW131070   1.826   0.026  15.685 -0.5196  1.9170 -2.6912
 6478SOL    HW231071   1.848   4.715  15.549  0.9345 -0.8898  0.1687
 6479SOL     OW31072   3.013   4.227   9.204 -0.0990  0.0303  0.9157
 6479SOL    HW131073   2.933   4.186   9.237 -0.7109  2.0219  1.9082
 6479SOL    HW231074   3.050   4.267   9.282 -0.9834  0.1275  1.2920
 6480SOL     OW31075   3.953   3.648   6.902 -0.1409  0.6214  0.0805
 6480SOL    HW131076   3.921   3.634   6.991 -2.0805 -1.4851 -0.9527
 6480SOL    HW231077   3.879   3.654   6.842 -0.2444 -2.6282 -0.1095
 6481SOL     OW31078   0.837   0.708   2.606  0.0392 -0.5301 -0.1748
 6481SOL    HW131079   0.888   0.784   2.633 -0.3770 -0.6471  0.9409
 6481SOL    HW231080   0.899   0.637   2.617  1.0505  0.2897 -0.5745
 6482SOL     OW31081   2.456   2.102  10.780  0.4860  0.2819 -0.0867
 6482SOL    HW131082   2.459   2.055  10.697 -0.0749 -1.0352  0.6471
 6482SOL    HW231083   2.544   2.138  10.791  1.0968 -1.4026  0.5393
 6483SOL     OW31084   0.895   2.297  14.966 -0.3144 -0.0208  0.0952
 6483SOL    HW131085   0.862   2.210  14.987  1.8456 -1.2106 -1.3294
 6483SOL    HW231086   0.839   2.324  14.893  0.2116  0.7270 -0.0334
 6484SOL     OW31087   3.816   0.927   7.183  0.6635  0.2974 -0.1193
 6484SOL    HW131088   3.898   0.878   7.196  0.2857  0.0003  1.1164
 6484SOL    HW231089   3.811   0.941   7.088  2.7617 -1.3311 -0.4881
 6485SOL     OW31090   2.729   3.650   0.745 -0.5146 -0.1425  0.0756
 6485SOL    HW131091   2.762   3.647   0.655  0.3783 -1.5668  0.4572
 6485SOL    HW231092   2.747   3.742   0.763 -2.0596  0.4733 -1.4931
 6486SOL     OW31093   2.349   0.159   7.632 -0.2286 -0.1953  0.2735
 6486SOL    HW131094   2.429   0.108   7.646  2.4293  3.5921 -1.1211
 6486SOL    HW231095   2.368   0.242   7.675 -0.0102 -0.3888  0.5558
 6487SOL     OW31096   3.287   0.339   1.363 -0.2584  0.0573  0.3349
 6487SOL    HW131097   3.272   0.360   1.271 -0.9428 -0.4552  0.3272
 6487SOL    HW231098   3.379   0.358   1.379  0.2051 -2.2358  0.3693
 6488SOL     OW31099   2.031   3.422   9.407  0.0895 -0.6034  0.1613
 6488SOL    HW131100   1.957   3.361   9.403  0.0011 -0.5748  1.5136
 6488SOL    HW231101   2.052   3.431   9.314 -0.9406  1.3087  0.1168
 6489SOL     OW31102   3.198   1.364   9.579 -0.0283 -0.1264 -0.0244
 6489SOL    HW131103   3.243   1.285   9.608 -0.7271 -0.8089 -0.8122
 6489SOL    HW231104   3.258   1.431   9.611  1.2864 -1.3441  0.0197
 6490SOL     OW31105   2.070   1.830  15.799  0.6192  0.4022  0.0998
 6490SOL    HW131106   2.003   1.896  15.781 -0.8384 -0.9989  0.3861
 6490SOL    HW231107   2.035   1.752  15.756  0.5958 -1.3166  3.1940
 6491SOL     OW31108   2.247   2.681   3.541 -0.0336  0.1550 -0.2018
 6491SOL    HW131109   2.239   2.660   3.634 -0.8219  0.3697 -0.2219
 6491SOL    HW231110   2.198   2.606   3.506  0.3419 -0.3805  0.4193
 6492SOL     OW31111   1.386   1.984   4.236 -0.3505  0.4287 -0.1161
 6492SOL    HW131112   1.396   2.050   4.304 -0.0532 -1.2057  1.4123
 6492SOL    HW231113   1.381   1.903   4.287  1.5730  0.3974  0.0150
 6493SOL     OW31114   2.119   0.690   4.143  0.4967  0.0659 -0.0882
 6493SOL    HW131115   2.108   0.759   4.077  0.2791  0.1992  0.0862
 6493SOL    HW231116   2.040   0.700   4.196  0.3692 -1.6876  0.0547
 6494SOL     OW31117   3.108   4.068   6.457 -0.2152 -0.0076 -0.2624
 6494SOL    HW131118   3.155   4.132   6.510 -0.3831 -0.1424  0.0537
 6494SOL    HW231119   3.026   4.047   6.503  0.8301 -0.3176  1.4571
 6495SOL     OW31120   4.611   1.037   3.192 -0.2653 -0.2684 -0.3837
 6495SOL    HW131121   4.525   1.046   3.233 -0.1386  0.3810 -0.2643
 6495SOL    HW231122   4.595   0.948   3.161  0.4347 -0.7019  0.4805
 6496SOL     OW31123   0.314   0.522  10.119 -0.1193 -0.0406  0.0292
 6496SOL    HW131124   0.268   0.449  10.078  0.8871  0.5858 -2.1958
 6496SOL    HW231125   0.248   0.568  10.172  0.4583  0.9360 -0.0913
 6497SOL     OW31126   2.422   4.538   8.553  0.1040  0.6177  0.9299
 6497SOL    HW131127   2.511   4.530   8.518  0.0501 -0.2323  0.9862
 6497SOL    HW231128   2.424   4.476   8.625 -2.5205  2.1253  2.2860
 6498SOL     OW31129   3.632   0.689   8.060 -0.0153 -0.0614  0.7287
 6498SOL    HW131130   3.569   0.651   7.999  0.8746 -0.5515  0.1246
 6498SOL    HW231131   3.680   0.610   8.083 -0.1811 -0.2738  0.3500
 6499SOL     OW31132   3.313   3.489   3.094  0.1644 -0.2588 -0.1257
 6499SOL    HW131133   3.276   3.404   3.072 -0.4732  0.0279 -0.1878
 6499SOL    HW231134   3.274   3.509   3.179  2.5841  0.9337  0.7168
 6500SOL     OW31135   3.334   4.506   6.087 -0.0172  0.1558  0.1076
 6500SOL    HW131136   3.317   4.425   6.038 -1.1503  0.1977  0.4310
 6500SOL    HW231137   3.246   4.534   6.113 -0.3333 -1.1371  0.4399
 6501SOL     OW31138   0.564   2.414   4.424  0.0824 -0.0626 -0.2162
 6501SOL    HW131139   0.589   2.404   4.333  0.2457  3.2204 -0.5433
 6501SOL    HW231140   0.624   2.356   4.472 -0.0347 -0.2282 -0.2707
 6502SOL     OW31141   4.215   3.769  17.374 -0.0167 -0.7485 -0.3035
 6502SOL    HW131142   4.237   3.761  17.281  0.6796  1.2259 -0.3128
 6502SOL    HW231143   4.300   3.788  17.414 -0.4480  1.2820 -0.3586
 6503SOL     OW31144   4.411   3.901   7.338 -0.1068  0.0610 -0.6402
 6503SOL    HW131145   4.338   3.841   7.323  0.1232 -0.4966  0.4104
 6503SOL    HW231146   4.481   3.847   7.302  0.0459 -0.7116  0.7783
 6504SOL     OW31147   3.470   1.790   5.580 -0.1750 -0.3559 -0.7135
 6504SOL    HW131148   3.392   1.787   5.524 -0.7282 -1.3214  0.0984
 6504SOL    HW231149   3.458   1.710   5.631 -1.6316  0.1634 -0.2416
 6505SOL     OW31150   3.970   3.516   3.940  0.2291 -0.3032  0.6095
 6505SOL    HW131151   3.924   3.500   3.857  1.2085 -0.1101  0.0213
 6505SOL    HW231152   4.059   3.493   3.912  0.4765 -0.6540  1.6924
 6506SOL     OW31153   1.472   4.218   7.557 -0.1409 -0.1861 -0.5133
 6506SOL    HW131154   1.464   4.122   7.554  1.2009 -0.3926  2.1973
 6506SOL    HW231155   1.475   4.250   7.467  0.9757 -1.7556 -1.0438
 6507SOL     OW31156   1.996   4.617   5.360 -0.4835  0.6860 -0.4474
 6507SOL    HW131157   2.040   4.618   5.276  1.1629 -2.1333  0.3827
 6507SOL    HW231158   1.998   4.526   5.391 -2.5161  1.6779  2.5946
 6508SOL     OW31159   1.231   0.375   2.114 -0.2484 -0.6371 -0.6565
 6508SOL    HW131160   1.149   0.401   2.072 -0.6229 -1.4990 -0.4689
 6508SOL    HW231161   1.252   0.286   2.087 -0.2876 -0.7673 -0.2715
 6509SOL     OW31162   1.705   1.346   5.448  0.0695 -0.2565 -0.0219
 6509SOL    HW131163   1.669   1.302   5.371 -0.2102  0.0981 -0.0964
 6509SOL    HW231164   1.676   1.437   5.442 -2.9818 -1.2961 -0.7403
 6510SOL     OW31165   1.143   0.520   6.824  0.1641 -0.2302  0.4404
 6510SOL    HW131166   1.208   0.518   6.894 -0.5053  0.6728  1.0892
 6510SOL    HW231167   1.193   0.571   6.760  1.5600 -1.8049  0.2737
 6511SOL     OW31168   1.260   0.005   9.654 -0.4901  0.7870 -0.5951
 6511SOL    HW131169   1.277   0.001   9.560 -0.1135  1.9231 -0.5804
 6511SOL    HW231170   1.334   0.056   9.689  1.5242 -1.4461 -1.5796
 6512SOL     OW31171   1.232   1.354   8.292 -0.1319 -0.4453 -0.4619
 6512SOL    HW131172   1.323   1.335   8.267 -0.1365  2.6232 -2.8589
 6512SOL    HW231173   1.244   1.393   8.379  0.8773 -3.7151  0.8769
 6513SOL     OW31174   3.764   1.351   2.281  0.0097 -0.4551  0.1883
 6513SOL    HW131175   3.697   1.284   2.288 -0.1316 -0.2204  1.2064
 6513SOL    HW231176   3.720   1.418   2.335  0.1718 -1.2685  1.3385
 6514SOL     OW31177   0.243   1.683   5.999  0.6052 -0.3089  0.1702
 6514SOL    HW131178   0.317   1.672   5.940  0.5204 -0.8272  0.1560
 6514SOL    HW231179   0.261   1.766   6.044 -1.5198  0.3644 -0.1858
 6515SOL     OW31180   2.746   3.895   7.316  0.2404  0.3725 -0.1521
 6515SOL    HW131181   2.721   3.980   7.351 -0.5659  0.2216 -0.3740
 6515SOL    HW231182   2.746   3.835   7.391  2.0706  1.9731  1.1228
 6516SOL     OW31183   1.313   3.173   4.991  0.5919  0.5447  0.4177
 6516SOL    HW131184   1.327   3.082   4.969 -0.9956  1.2209 -3.3237
 6516SOL    HW231185   1.382   3.178   5.058  0.8504  1.7503  0.0758
 6517SOL     OW31186   2.175   2.563  17.337  0.7199 -0.0048 -0.1421
 6517SOL    HW131187   2.161   2.635  17.274  3.6443  1.4112  0.7833
 6517SOL    HW231188   2.215   2.608  17.412 -0.9249  1.2435 -0.0239
 6518SOL     OW31189   4.075   4.292   3.532 -0.2945 -0.3115 -0.0685
 6518SOL    HW131190   4.108   4.219   3.479  1.7695 -1.1051  2.2956
 6518SOL    HW231191   4.058   4.359   3.465 -1.5169 -0.7709 -0.2114
 6519SOL     OW31192   3.991   1.517   4.774 -0.0524  0.3601  0.2299
 6519SOL    HW131193   3.990   1.421   4.769  0.1402  0.1749  3.7395
 6519SOL    HW231194   4.019   1.541   4.686  1.4640  0.0030  0.6004
 6520SOL     OW31195   3.277   3.331   5.371  0.2204 -0.2641 -0.6794
 6520SOL    HW131196   3.242   3.409   5.415 -0.8628 -0.8742 -0.4670
 6520SOL    HW231197   3.369   3.354   5.358 -0.1319  1.9670  0.8117
 6521SOL     OW31198   0.841   3.308  17.194  0.0293  0.3052  0.3733
 6521SOL    HW131199   0.918   3.275  17.148 -0.3493  2.4662 -1.8037
 6521SOL    HW231200   0.797   3.223  17.199 -3.4812  2.1525  0.6958
 6522SOL     OW31201   0.343   3.030   0.446  0.2560  0.8672 -0.3484
 6522SOL    HW131202   0.291   2.986   0.513 -1.0382  2.7169 -0.1124
 6522SOL    HW231203   0.388   2.951   0.415 -2.7544 -1.2603  0.7269
 6523SOL     OW31204   1.874   2.786  14.312  0.6647  0.2552 -0.0425
 6523SOL    HW131205   1.814   2.748  14.248  1.2334 -0.0341 -0.4014
 6523SOL    HW231206   1.904   2.859  14.258 -2.5758  1.0349 -0.7854
 6524SOL     OW31207   2.731   1.465   3.822 -0.5747 -0.7554 -0.4386
 6524SOL    HW131208   2.717   1.433   3.911  0.7588  0.5977  0.2470
 6524SOL    HW231209   2.677   1.544   3.830  1.3717  0.2021  3.2681
 6525SOL     OW31210   1.490   0.156   2.435  0.6762 -0.1521 -0.5852
 6525SOL    HW131211   1.423   0.222   2.455 -0.7975 -1.4190 -1.4107
 6525SOL    HW231212   1.550   0.206   2.379 -0.6979 -0.0546 -1.9801
 6526SOL     OW31213   4.574   3.734  17.328  0.2587 -0.2913  0.2362
 6526SOL    HW131214   4.570   3.816  17.377  0.8146  0.0028 -0.2044
 6526SOL    HW231215   4.634   3.764  17.259  0.9499  1.2837  1.5229
 6527SOL     OW31216   0.291   0.972   4.854 -0.0091 -0.0838 -0.3697
 6527SOL    HW131217   0.374   0.935   4.825  0.3460  0.5285 -0.1292
 6527SOL    HW231218   0.285   0.951   4.948 -0.2795  0.5950 -0.2302
 6528SOL     OW31219   1.408   3.264   7.323  0.3743  0.3475 -0.8060
 6528SOL    HW131220   1.398   3.349   7.279 -2.0470  1.0602  1.1223
 6528SOL    HW231221   1.329   3.213   7.306  1.0834 -0.8918 -0.3417
 6529SOL     OW31222   4.038   1.533   2.299 -0.1286 -0.0916 -0.2371
 6529SOL    HW131223   4.052   1.472   2.371 -0.2908  1.5947  1.2289
 6529SOL    HW231224   4.114   1.592   2.303 -0.3987  0.1435  1.6353
 6530SOL     OW31225   1.751   3.913   5.287 -0.1974  0.0562  0.0952
 6530SOL    HW131226   1.829   3.904   5.232 -1.1184  1.8874 -1.4899
 6530SOL    HW231227   1.676   3.915   5.228 -0.5714 -0.3029  0.5539
 6531SOL     OW31228   1.691   3.445   6.282 -0.5212  0.5789  0.0995
 6531SOL    HW131229   1.781   3.466   6.306 -0.6138  2.0064 -0.8150
 6531SOL    HW231230   1.714   3.401   6.201 -2.8936  0.0062 -0.2625
 6532SOL     OW31231   0.281   3.694  10.743 -0.3389  0.1480  0.4366
 6532SOL    HW131232   0.194   3.705  10.706 -1.0164  0.7125  2.2257
 6532SOL    HW231233   0.268   3.682  10.837  0.2979 -0.3630  0.4613
 6533SOL     OW31234   3.526   2.863   7.161  0.2583  0.3568 -0.4137
 6533SOL    HW131235   3.490   2.923   7.096 -0.6566  0.3007  0.0470
 6533SOL    HW231236   3.447   2.845   7.211  0.2047  0.5530 -0.4274
 6534SOL     OW31237   3.730   2.227  13.732  0.2832  0.5851 -0.4325
 6534SOL    HW131238   3.799   2.177  13.776  0.3770 -0.2106 -1.4968
 6534SOL    HW231239   3.675   2.161  13.691 -2.4058  1.6704  1.4184
 6535SOL     OW31240   2.481   1.654  13.143  0.0974  0.0310  0.7712
 6535SOL    HW131241   2.564   1.701  13.134 -0.0342 -0.1006 -1.0060
 6535SOL    HW231242   2.489   1.625  13.234  3.6503  0.1381  0.4960
 6536SOL     OW31243   4.577   0.647   6.045 -0.3655  0.0160  0.0600
 6536SOL    HW131244   4.504   0.695   6.083 -1.0965 -1.8378  0.9995
 6536SOL    HW231245   4.549   0.556   6.038 -1.9370  0.7218 -3.0747
 6537SOL     OW31246   1.544   0.140  11.295 -0.3422 -0.5038 -0.2658
 6537SOL    HW131247   1.554   0.234  11.278 -1.5988 -0.5150 -1.0696
 6537SOL    HW231248   1.533   0.145  11.390  0.6522  3.9787 -0.3944
 6538SOL     OW31249   4.673   0.818   7.740 -0.0222  0.2610  0.8453
 6538SOL    HW131250   4.673   0.913   7.753  0.4280  0.1284  1.8109
 6538SOL    HW231251   0.009   0.783   7.791  0.6337  1.4566  0.7396
 6539SOL     OW31252   1.496   1.677  13.616 -0.0252 -0.1616 -0.1146
 6539SOL    HW131253   1.446   1.758  13.623 -0.5786 -0.2137 -3.5383
 6539SOL    HW231254   1.538   1.688  13.531 -0.7874 -0.5414 -0.5358
 6540SOL     OW31255   4.324   3.863   7.776  0.3683 -0.4822  0.0971
 6540SOL    HW131256   4.278   3.947   7.777 -0.7069 -1.0514 -1.4598
 6540SOL    HW231257   4.402   3.887   7.826  0.7932  0.9502 -1.2472
 6541SOL     OW31258   4.338   1.764   6.364  0.7341 -0.0801  0.1385
 6541SOL    HW131259   4.297   1.850   6.356  0.8648  0.1187  1.4990
 6541SOL    HW231260   4.416   1.766   6.308  0.3551  1.6729 -0.3120
 6542SOL     OW31261   3.249   0.926  14.685  0.2047  0.6068  0.8341
 6542SOL    HW131262   3.278   0.835  14.697 -3.5631 -0.7623 -0.6010
 6542SOL    HW231263   3.207   0.942  14.770 -1.5388  0.5167 -0.0152
 6543SOL     OW31264   2.489   0.241   1.417 -0.0230 -0.4910 -0.6826
 6543SOL    HW131265   2.458   0.209   1.501  0.3549  0.4456 -0.1910
 6543SOL    HW231266   2.404   0.275   1.391 -0.4829 -0.0924  1.3513
 6544SOL     OW31267   0.280   4.514   4.891 -0.3398 -0.1251 -0.4472
 6544SOL    HW131268   0.289   4.491   4.799  0.2533 -0.4701 -0.3065
 6544SOL    HW231269   0.373   4.527   4.913 -0.0727 -1.8415 -0.5523
 6545SOL     OW31270   3.695   0.613   2.369  0.1981 -0.1201 -0.1959
 6545SOL    HW131271   3.759   0.646   2.432  0.4102  0.0308 -0.4892
 6545SOL    HW231272   3.614   0.646   2.408 -0.3774 -0.6703 -0.9147
 6546SOL     OW31273   3.998   1.254   6.763  0.3332 -0.3458 -0.2390
 6546SOL    HW131274   3.983   1.329   6.706 -1.4331  0.6648  1.5373
 6546SOL    HW231275   4.069   1.286   6.818 -0.5847  1.2853  0.0002
 6547SOL     OW31276   2.688   0.313   7.907  0.3585  0.2586  0.3754
 6547SOL    HW131277   2.761   0.357   7.951 -0.1789  1.9258 -0.4006
 6547SOL    HW231278   2.715   0.222   7.902  1.4741  0.5473  1.0687
 6548SOL     OW31279   4.700   3.371   6.158 -0.4451  0.0674  0.2061
 6548SOL    HW131280   0.052   3.349   6.187 -0.0199  2.1737  0.5263
 6548SOL    HW231281   4.646   3.356   6.235 -1.0818  0.5910 -0.1407
 6549SOL     OW31282   2.494   3.053   3.485 -0.2526 -0.3278 -0.1683
 6549SOL    HW131283   2.410   3.022   3.451 -0.9506  0.3253  0.9569
 6549SOL    HW231284   2.514   2.980   3.544 -2.5948 -0.6120  0.2522
 6550SOL     OW31285   2.662   4.490   8.436 -0.0135  0.1119 -0.1864
 6550SOL    HW131286   2.656   4.403   8.397 -0.7571  0.1699 -0.1975
 6550SOL    HW231287   2.748   4.532   8.430 -0.0572  0.4969  1.6938
 6551SOL     OW31288   3.545   2.501   9.618 -0.0667  0.1301  0.1594
 6551SOL    HW131289   3.467   2.445   9.621 -0.3966  0.6731  2.3790
 6551SOL    HW231290   3.515   2.585   9.584 -1.8870 -0.4258  0.3691
 6552SOL     OW31291   1.560   3.399   4.639 -0.0717 -0.2931  0.2160
 6552SOL    HW131292   1.602   3.373   4.721  1.0420  2.2735  0.4310
 6552SOL    HW231293   1.505   3.321   4.629  1.2249 -1.5232  2.4697
 6553SOL     OW31294   1.436   3.645   6.180 -0.1773  0.1039 -0.5166
 6553SOL    HW131295   1.437   3.622   6.086 -0.2195  0.3043 -0.5645
 6553SOL    HW231296   1.383   3.724   6.183  0.4222  0.4612  0.3907
 6554SOL     OW31297   0.767   4.337   9.439 -0.0728 -0.4815  0.4309
 6554SOL    HW131298   0.695   4.311   9.496 -0.7025 -2.1836 -1.1343
 6554SOL    HW231299   0.811   4.255   9.416 -0.8493 -0.1357 -2.2759
 6555SOL     OW31300   2.000   4.469  12.500  0.0213 -0.0409 -0.0827
 6555SOL    HW131301   2.055   4.416  12.442 -1.1417  1.3299 -2.4263
 6555SOL    HW231302   2.067   4.525  12.537 -0.9761  0.4863  0.9201
 6556SOL     OW31303   2.792   0.863   1.265  0.6496  0.1967 -0.0317
 6556SOL    HW131304   2.699   0.881   1.251  1.0156 -0.1196 -2.8041
 6556SOL    HW231305   2.816   0.843   1.175 -0.4820  0.9334 -0.5036
 6557SOL     OW31306   0.581   2.140   4.451  0.2541  0.2033 -0.4510
 6557SOL    HW131307   0.577   2.116   4.358  2.8202 -1.7294 -0.0731
 6557SOL    HW231308   0.495   2.113   4.481 -0.2069  0.9564 -1.0765
 6558SOL     OW31309   3.781   4.357   2.304 -0.2488  0.0708  0.0829
 6558SOL    HW131310   3.844   4.322   2.241  1.6602 -1.3352  2.7514
 6558SOL    HW231311   3.818   4.325   2.386  0.1644 -0.4418 -0.2950
 6559SOL     OW31312   1.441   1.277  13.423 -0.1581  0.4028  0.3850
 6559SOL    HW131313   1.415   1.264  13.515  0.3917 -0.0038  0.4805
 6559SOL    HW231314   1.524   1.322  13.430 -0.3944  0.8879  0.0400
 6560SOL     OW31315   2.737   0.431   3.504  0.4059 -0.4251  0.7412
 6560SOL    HW131316   2.670   0.491   3.536 -0.5583 -0.6741 -0.8328
 6560SOL    HW231317   2.675   0.369   3.465  0.1102  0.1422  0.3069
 6561SOL     OW31318   1.174   4.460  13.166  0.7637 -0.0017 -0.3595
 6561SOL    HW131319   1.231   4.516  13.219 -0.3618  0.5501  0.2649
 6561SOL    HW231320   1.133   4.416  13.240 -0.0290 -1.3926 -1.6310
 6562SOL     OW31321   4.415   2.001   2.322 -0.2603 -0.2442 -0.2073
 6562SOL    HW131322   4.443   2.067   2.386  0.5916 -0.6814 -0.1334
 6562SOL    HW231323   4.503   1.981   2.291 -1.2932 -2.5166 -1.6226
 6563SOL     OW31324   2.724   2.932   9.010  0.6114  0.3501  0.3186
 6563SOL    HW131325   2.733   3.009   9.067 -0.4598  0.0331  0.9209
 6563SOL    HW231326   2.724   2.859   9.072 -0.7862  0.2303  0.1813
 6564SOL     OW31327   2.774   1.577   1.950  0.3405 -0.1555  0.3154
 6564SOL    HW131328   2.841   1.519   1.915 -1.1968 -0.8745 -1.4159
 6564SOL    HW231329   2.834   1.636   1.996 -1.1770  1.1677  0.6231
 6565SOL     OW31330   3.957   2.932   2.843  0.5196 -0.0501 -0.1162
 6565SOL    HW131331   3.998   2.855   2.804  0.0974 -0.0419 -0.5616
 6565SOL    HW231332   3.971   2.917   2.937 -0.9576  1.3053  0.3149
 6566SOL     OW31333   2.781   3.245  11.641  0.2465  0.3410 -0.5451
 6566SOL    HW131334   2.819   3.332  11.631 -1.1092  0.8390 -1.4082
 6566SOL    HW231335   2.769   3.223  11.548  0.5802  0.4204 -0.6087
 6567SOL     OW31336   3.983   3.339   8.864 -0.0668 -0.3436  0.3781
 6567SOL    HW131337   4.076   3.355   8.882  0.1022 -0.9979  0.1003
 6567SOL    HW231338   3.968   3.264   8.923  0.8636  1.5555  3.0297
 6568SOL     OW31339   4.260   2.737   9.916 -0.2298 -0.3242 -0.6029
 6568SOL    HW131340   4.234   2.815   9.965  1.8988 -0.7187  1.1684
 6568SOL    HW231341   4.231   2.666   9.973  0.8147  0.6511  1.1559
 6569SOL     OW31342   4.299   2.363   9.588  0.0139  0.7026  0.0212
 6569SOL    HW131343   4.322   2.352   9.681  2.5874  2.1030 -0.4620
 6569SOL    HW231344   4.270   2.453   9.572 -1.2551  0.0336 -1.4048
 6570SOL     OW31345   1.503   4.343   7.319 -0.3327 -0.2338 -0.4064
 6570SOL    HW131346   1.446   4.379   7.252  0.1928  0.7972 -0.2923
 6570SOL    HW231347   1.555   4.282   7.266  0.2589  0.3824 -0.5248
 6571SOL     OW31348   0.854   1.094   6.800  0.3678 -0.1694  1.0542
 6571SOL    HW131349   0.777   1.151   6.809 -0.9947 -2.0568  1.4736
 6571SOL    HW231350   0.927   1.155   6.796 -0.2235  0.5129  0.6494
 6572SOL     OW31351   4.169   4.008  16.373 -0.0370 -0.2250  0.5660
 6572SOL    HW131352   4.237   4.073  16.360  0.2334 -0.4246  1.0065
 6572SOL    HW231353   4.100   4.061  16.414  0.0707  0.3902 -0.0575
 6573SOL     OW31354   0.048   3.492   5.339 -0.1308  0.3033  0.8112
 6573SOL    HW131355   4.693   3.471   5.319 -0.4088  2.7043 -0.4839
 6573SOL    HW231356   0.082   3.411   5.376  1.7391  1.1403  0.9120
 6574SOL     OW31357   0.619   2.413   7.764  0.5355  0.7745  0.5971
 6574SOL    HW131358   0.654   2.335   7.720  1.6039  1.5686  0.0488
 6574SOL    HW231359   0.593   2.471   7.693  1.0207 -0.4068 -0.5557
 6575SOL     OW31360   1.754   1.147   9.141  0.4738 -0.5883 -0.5989
 6575SOL    HW131361   1.786   1.202   9.212  0.2848 -1.2632  0.0002
 6575SOL    HW231362   1.744   1.067   9.193 -2.9688  1.7538  2.2410
 6576SOL     OW31363   0.763   4.163   3.223 -0.7621 -0.2116 -1.3064
 6576SOL    HW131364   0.833   4.202   3.276 -2.5357 -1.0108  1.6101
 6576SOL    HW231365   0.803   4.164   3.136  1.3466 -0.9624 -0.3499
 6577SOL     OW31366   3.298   3.647  16.575 -0.4180  0.1778  0.1370
 6577SOL    HW131367   3.383   3.628  16.535 -1.2080 -1.5573 -0.6874
 6577SOL    HW231368   3.312   3.724  16.630  2.4349  1.2280 -2.0685
 6578SOL     OW31369   1.541   2.219  12.244 -0.0961 -0.0490  0.0517
 6578SOL    HW131370   1.487   2.216  12.323 -3.3289  1.4500 -2.0982
 6578SOL    HW231371   1.515   2.306  12.214  0.3408 -0.8363 -2.6110
 6579SOL     OW31372   1.163   3.891   7.473  0.3089 -0.0980  0.3039
 6579SOL    HW131373   1.106   3.838   7.417 -0.8358  1.3213  0.1442
 6579SOL    HW231374   1.234   3.829   7.492  1.1016  1.0659  1.1579
 6580SOL     OW31375   1.469   2.504   3.368 -0.0007 -0.0149  0.1215
 6580SOL    HW131376   1.438   2.499   3.278 -0.2521 -3.2828  0.4046
 6580SOL    HW231377   1.523   2.582   3.383  0.5003 -0.5660  1.2082
 6581SOL     OW31378   4.565   3.912   2.922 -0.6340  0.2309  0.0492
 6581SOL    HW131379   4.660   3.899   2.917 -0.5980  1.2362 -1.7831
 6581SOL    HW231380   4.559   3.964   3.002 -1.2517 -0.1279  0.2324
 6582SOL     OW31381   2.347   3.854   7.350  0.4447  0.1591 -0.0092
 6582SOL    HW131382   2.382   3.824   7.433  0.9265  1.6488  0.3294
 6582SOL    HW231383   2.295   3.777   7.328 -0.4058  0.7606 -0.1196
 6583SOL     OW31384   1.502   2.502   4.753  0.0532  0.2757  0.1466
 6583SOL    HW131385   1.585   2.550   4.742 -0.6951  1.4682 -0.2986
 6583SOL    HW231386   1.506   2.506   4.848  0.8113  1.8454  0.0667
 6584SOL     OW31387   1.841   0.358  15.229  0.6213  0.3833 -0.0317
 6584SOL    HW131388   1.865   0.287  15.170 -0.5267 -1.3233  1.5366
 6584SOL    HW231389   1.746   0.375  15.223  0.8594  2.8108  2.9049
 6585SOL     OW31390   2.148   2.079   5.054  0.3181 -0.4036  0.1711
 6585SOL    HW131391   2.201   2.045   4.982  1.5614  4.3650 -1.1000
 6585SOL    HW231392   2.205   2.077   5.130 -0.8909  2.8706  1.1271
 6586SOL     OW31393   1.097   1.610   7.454  0.1282 -0.6767  1.0184
 6586SOL    HW131394   1.083   1.515   7.456  0.5580 -0.7753 -0.4258
 6586SOL    HW231395   1.185   1.617   7.491  1.1941  1.6514 -1.9309
 6587SOL     OW31396   2.735   0.614  11.788  0.3129  0.6196  0.0317
 6587SOL    HW131397   2.716   0.694  11.836 -0.6515  0.5628 -0.2527
 6587SOL    HW231398   2.827   0.627  11.763  0.4947 -2.0043 -0.7230
 6588SOL     OW31399   0.110   1.911   1.742 -0.2267 -0.4906  0.6144
 6588SOL    HW131400   0.189   1.857   1.747  0.0351 -0.2868 -1.6054
 6588SOL    HW231401   0.046   1.853   1.700 -1.0087  2.5023 -2.3444
 6589SOL     OW31402   1.400   1.025  12.428 -0.4529  0.0043 -0.3174
 6589SOL    HW131403   1.380   1.078  12.351  2.2475  0.4840 -0.6981
 6589SOL    HW231404   1.353   0.945  12.404 -0.8289  0.5749 -1.4877
 6590SOL     OW31405   2.883   0.186   3.532 -0.3683  0.2010  0.8102
 6590SOL    HW131406   2.807   0.140   3.495 -1.5258  1.4639  1.6176
 6590SOL    HW231407   2.848   0.275   3.539  2.1501  1.2495 -0.0446
 6591SOL     OW31408   1.249   1.628  12.259  0.3078 -0.7713 -0.7864
 6591SOL    HW131409   1.206   1.596  12.339  1.9501  1.3334  0.9406
 6591SOL    HW231410   1.286   1.710  12.291 -1.4715  0.0637 -0.8766
 6592SOL     OW31411   2.174   0.461   6.071  0.5084  0.5726 -0.3584
 6592SOL    HW131412   2.241   0.529   6.063  2.8621 -1.8078 -0.9573
 6592SOL    HW231413   2.223   0.393   6.026 -1.0075  0.3453 -1.6329
 6593SOL     OW31414   3.066   0.319   9.173 -0.3278 -0.4342  0.2508
 6593SOL    HW131415   3.026   0.254   9.230 -0.0045 -0.3324  0.5937
 6593SOL    HW231416   3.108   0.264   9.107 -1.2809  0.3371 -1.0040
 6594SOL     OW31417   2.375   4.170  15.683 -0.6386 -0.8851 -0.0868
 6594SOL    HW131418   2.316   4.113  15.632  0.4581 -1.9835 -0.1175
 6594SOL    HW231419   2.364   4.257  15.644  1.2619 -0.9454 -0.7787
 6595SOL     OW31420   3.155   0.475   2.106 -0.3168 -0.5075  0.2606
 6595SOL    HW131421   3.117   0.560   2.128  0.5302 -0.0689  0.0202
 6595SOL    HW231422   3.138   0.487   2.013 -1.1812  2.5360  0.8329
 6596SOL     OW31423   4.569   0.433   4.510  0.1870 -0.8035 -0.2564
 6596SOL    HW131424   4.633   0.429   4.580  0.7708  0.8296 -0.6976
 6596SOL    HW231425   4.579   0.519   4.471 -1.6139  0.0685  1.2158
 6597SOL     OW31426   0.909   3.931  13.590  0.5829 -0.0251 -0.2957
 6597SOL    HW131427   0.992   3.951  13.634  0.0640 -0.3193  0.8073
 6597SOL    HW231428   0.941   3.850  13.551  2.7618  1.0274 -0.6928
 6598SOL     OW31429   0.572   0.346   6.333 -0.3807  0.1508  0.1919
 6598SOL    HW131430   0.568   0.271   6.393 -0.9919  0.1147  0.1103
 6598SOL    HW231431   0.553   0.307   6.248  1.5657 -1.0405  0.3168
 6599SOL     OW31432   1.896   0.379  15.941  0.0392  0.1531  0.1759
 6599SOL    HW131433   1.841   0.435  15.885 -0.5407 -1.7910 -1.1800
 6599SOL    HW231434   1.984   0.375  15.903 -1.0207 -0.6495 -2.2165
 6600SOL     OW31435   0.644   1.815   6.583 -0.3802 -0.0903 -0.7745
 6600SOL    HW131436   0.566   1.870   6.569  0.0934  0.5328 -0.9823
 6600SOL    HW231437   0.715   1.879   6.589  0.2584 -1.0648  1.7056
 6601SOL     OW31438   1.430   2.381   8.755 -0.0826  0.2666  0.0108
 6601SOL    HW131439   1.416   2.379   8.661  0.3585  1.3549 -0.0808
 6601SOL    HW231440   1.396   2.293   8.770  1.1766 -0.3625 -0.8380
 6602SOL     OW31441   2.069   2.661   1.662  0.1097  0.6162 -0.2933
 6602SOL    HW131442   2.096   2.631   1.749 -0.1026 -0.7137 -0.6835
 6602SOL    HW231443   2.106   2.587   1.614  0.1352  1.1026 -1.0115
 6603SOL     OW31444   4.421   1.922   5.344 -0.7501 -0.1979 -0.2527
 6603SOL    HW131445   4.397   2.010   5.315 -3.0570 -0.2029  1.6660
 6603SOL    HW231446   4.342   1.867   5.344 -1.0831  0.2839 -2.2881
 6604SOL     OW31447   0.024   0.644   2.506  0.2530 -0.0302  0.3593
 6604SOL    HW131448   4.714   0.673   2.427  0.3790 -2.0626 -0.4750
 6604SOL    HW231449   0.090   0.595   2.458 -1.3139 -0.2631 -1.5630
 6605SOL     OW31450   3.527   4.293   7.170  0.0857  0.1685 -0.0305
 6605SOL    HW131451   3.538   4.221   7.108  1.9523 -0.2190  0.7568
 6605SOL    HW231452   3.536   4.247   7.253  0.7302  0.3269 -0.0138
 6606SOL     OW31453   2.602   4.152   4.573 -0.4652  0.6216  0.1460
 6606SOL    HW131454   2.589   4.226   4.513  0.2041  1.1394  0.6369
 6606SOL    HW231455   2.668   4.101   4.525 -0.9776  1.0259 -0.9962
 6607SOL     OW31456   1.503   1.388   4.635 -0.7388 -0.2581 -0.3500
 6607SOL    HW131457   1.549   1.305   4.649  0.0946  0.4329  0.9903
 6607SOL    HW231458   1.478   1.382   4.543 -0.8760  1.2393 -0.4185
 6608SOL     OW31459   3.356   4.163   7.632 -0.7449 -0.1319  0.4171
 6608SOL    HW131460   3.380   4.074   7.606  2.3992  1.7322 -2.9727
 6608SOL    HW231461   3.296   4.138   7.703 -1.6194 -2.1806 -1.0186
 6609SOL     OW31462   1.189   2.579  10.092 -0.7960  0.6029  0.2309
 6609SOL    HW131463   1.112   2.521  10.096 -1.1581  1.1185  0.7240
 6609SOL    HW231464   1.231   2.554  10.010 -0.2679  0.3122  0.5946
 6610SOL     OW31465   2.424   1.959   2.067  0.1963  0.3214 -0.0801
 6610SOL    HW131466   2.425   1.912   1.984 -1.5614 -0.4142  0.3242
 6610SOL    HW231467   2.426   1.892   2.136 -0.2525  0.4520  0.0625
 6611SOL     OW31468   1.205   0.395  13.687 -0.1280  0.7312  0.1929
 6611SOL    HW131469   1.173   0.310  13.716  0.4763  0.8674  1.2894
 6611SOL    HW231470   1.164   0.406  13.601 -0.6130  2.6901  0.6700
 6612SOL     OW31471   0.218   2.274   0.384  0.4384  0.1110 -0.0489
 6612SOL    HW131472   0.252   2.239   0.302 -0.9238 -1.3935  0.0291
 6612SOL    HW231473   0.142   2.320   0.350  0.4760 -0.2108 -0.5771
 6613SOL     OW31474   1.401   0.987   5.223 -0.3701  0.4266  0.2721
 6613SOL    HW131475   1.431   0.937   5.298  0.6998 -2.2831 -1.9643
 6613SOL    HW231476   1.309   0.995   5.247 -0.3125  2.3766 -0.1485
 6614SOL     OW31477   2.896   0.329   1.981  0.2963  0.1344  0.7671
 6614SOL    HW131478   2.887   0.372   2.067 -2.5111 -1.4037  1.2587
 6614SOL    HW231479   2.813   0.343   1.935  0.9001  0.4589 -0.2190
 6615SOL     OW31480   4.084   2.503   5.476  0.3551  0.4675  0.7201
 6615SOL    HW131481   4.060   2.560   5.403 -0.8313  0.2023  0.9079
 6615SOL    HW231482   4.136   2.435   5.435 -0.0962  1.5796 -1.7066
 6616SOL     OW31483   2.275   0.567   9.567  0.5339  0.1088 -0.1169
 6616SOL    HW131484   2.325   0.647   9.549  1.4786 -1.1612 -3.0937
 6616SOL    HW231485   2.218   0.598   9.637 -1.1771 -1.0168 -1.0060
 6617SOL     OW31486   1.269   4.546   6.914  0.3588 -0.1851  0.1818
 6617SOL    HW131487   1.201   4.542   6.980  0.7245 -1.7578  0.4634
 6617SOL    HW231488   1.311   4.464   6.938 -1.8867 -1.3227  0.1530
 6618SOL     OW31489   0.948   1.258   2.451 -0.0634 -0.0431 -0.2305
 6618SOL    HW131490   0.917   1.246   2.541  0.9264  0.0399  0.1242
 6618SOL    HW231491   0.979   1.349   2.447  1.7504 -0.6555  0.0716
 6619SOL     OW31492   2.261   0.945   4.976 -0.0526 -0.2602 -0.0327
 6619SOL    HW131493   2.266   1.023   4.921 -1.2183 -0.5114 -0.5009
 6619SOL    HW231494   2.211   0.885   4.920  2.5935 -0.1925 -2.4433
 6620SOL     OW31495   4.626   2.851   3.779  0.0034  0.9135  0.1810
 6620SOL    HW131496   4.662   2.939   3.769 -2.0953  1.8067  0.3975
 6620SOL    HW231497   4.559   2.865   3.845 -0.5784 -0.7397 -0.0622
 6621SOL     OW31498   4.023   2.168  16.483  0.1507 -0.2176  1.1053
 6621SOL    HW131499   4.002   2.075  16.477 -1.7074  0.2720  0.0871
 6621SOL    HW231500   4.074   2.173  16.402 -0.6291 -0.7715  0.5906
 6622SOL     OW31501   4.378   0.269   4.659  0.3491  0.5576  0.2119
 6622SOL    HW131502   4.467   0.233   4.668 -0.2541 -0.1145  3.4835
 6622SOL    HW231503   4.390   0.339   4.595 -1.5928  1.0745  0.4137
 6623SOL     OW31504   1.975   1.600   7.123  0.3977 -0.0940 -0.5024
 6623SOL    HW131505   1.902   1.653   7.091  0.1605  0.0033  0.1966
 6623SOL    HW231506   2.003   1.547   7.048  1.5517 -0.4599  0.1733
 6624SOL     OW31507   2.326   1.493   4.696  0.0749 -0.5945 -0.4741
 6624SOL    HW131508   2.401   1.495   4.637  1.6877  0.7808  1.6209
 6624SOL    HW231509   2.367   1.518   4.779 -0.4735  1.4845 -0.8350
 6625SOL     OW31510   2.203   4.312  12.399 -0.4108  0.2942  0.1478
 6625SOL    HW131511   2.287   4.270  12.418 -0.4830  0.2438  0.3486
 6625SOL    HW231512   2.190   4.268  12.315 -0.2986 -0.7356  0.6720
 6626SOL     OW31513   0.597   4.473   4.372  0.0359 -0.2215  0.6368
 6626SOL    HW131514   0.528   4.511   4.316 -0.0730  1.2733  1.7903
 6626SOL    HW231515   0.632   4.555   4.407 -1.1679  0.2943  0.6594
 6627SOL     OW31516   4.145   2.392   0.792 -0.2914  0.5829 -0.1279
 6627SOL    HW131517   4.111   2.461   0.849  0.2180  1.2721 -0.6721
 6627SOL    HW231518   4.187   2.343   0.863 -0.3443  0.7954  0.0495
 6628SOL     OW31519   1.810   2.572   6.808  0.0630  0.2131  0.2432
 6628SOL    HW131520   1.754   2.494   6.811  0.1952  0.1389  0.8515
 6628SOL    HW231521   1.830   2.576   6.902  0.1287 -1.1707  0.2916
 6629SOL     OW31522   2.722   1.558   5.967 -0.5031 -0.3453 -0.6951
 6629SOL    HW131523   2.689   1.492   5.907 -0.8292 -1.5812  0.8458
 6629SOL    HW231524   2.810   1.569   5.931 -0.7261 -0.4275 -1.2630
 6630SOL     OW31525   1.724   2.905   4.621 -0.2502 -0.3109 -0.3020
 6630SOL    HW131526   1.662   2.963   4.666  0.6989 -0.0251  0.6477
 6630SOL    HW231527   1.741   2.955   4.541  0.3023 -0.0813 -0.0396
 6631SOL     OW31528   2.529   2.637   8.988  0.0899 -0.4710 -0.3358
 6631SOL    HW131529   2.478   2.623   8.908 -1.4620  0.9689  0.3940
 6631SOL    HW231530   2.497   2.726   9.005  0.0074 -0.6882  0.6846
 6632SOL     OW31531   1.015   2.372   9.329  0.1506  0.2145  0.0208
 6632SOL    HW131532   0.977   2.289   9.300  0.4908  0.6118 -1.5439
 6632SOL    HW231533   0.938   2.426   9.347 -0.0367  0.0888 -0.4191
 6633SOL     OW31534   1.420   4.170   3.482  0.5122  0.0863  0.3207
 6633SOL    HW131535   1.426   4.128   3.397 -2.2472  0.0253  0.1472
 6633SOL    HW231536   1.494   4.128   3.525  0.7984  0.1272 -0.1345
 6634SOL     OW31537   1.304   2.878  10.663 -0.0004 -0.1488 -0.2652
 6634SOL    HW131538   1.395   2.881  10.694  0.0873 -1.4204 -0.3942
 6634SOL    HW231539   1.295   2.794  10.618  0.0056 -0.8644  1.0928
 6635SOL     OW31540   1.506   2.308   0.926  0.3558  0.1235 -0.4774
 6635SOL    HW131541   1.589   2.262   0.936 -0.3415 -1.0632 -0.0422
 6635SOL    HW231542   1.500   2.320   1.021  1.0592 -0.2072 -0.3917
 6636SOL     OW31543   4.605   3.565   8.619  0.1778 -0.2134  0.0093
 6636SOL    HW131544   4.607   3.519   8.535  0.7118  1.3014 -0.8262
 6636SOL    HW231545   4.622   3.657   8.597  0.0987 -0.3903 -0.7973
 6637SOL     OW31546   1.354   0.044   4.737 -0.2680 -0.1432 -0.0967
 6637SOL    HW131547   1.386   0.056   4.647 -0.3268  0.5320 -0.0277
 6637SOL    HW231548   1.377   0.134   4.763  0.1407 -0.6277  1.2088
 6638SOL     OW31549   1.895   3.627  16.017  0.0153 -0.2400  0.0907
 6638SOL    HW131550   1.885   3.580  16.100 -0.3936 -1.8102 -0.8425
 6638SOL    HW231551   1.945   3.568  15.961  0.2510  1.1361 -1.1596
 6639SOL     OW31552   1.327   4.141   9.943 -0.0978 -0.3248  0.4513
 6639SOL    HW131553   1.295   4.164   9.856 -0.0459  1.8914  1.0159
 6639SOL    HW231554   1.364   4.225   9.970 -1.7504  0.5456 -0.0143
 6640SOL     OW31555   1.686   2.422   3.975 -0.2924  0.4060  0.3752
 6640SOL    HW131556   1.600   2.408   4.015 -0.4751 -1.3715 -0.6297
 6640SOL    HW231557   1.666   2.414   3.881  0.3912  1.2375  0.1620
 6641SOL     OW31558   0.961   0.795   7.770  0.0561 -0.4479 -0.3015
 6641SOL    HW131559   0.920   0.874   7.805  3.2583  1.0796  0.0394
 6641SOL    HW231560   0.895   0.728   7.753 -0.1988 -0.4244  0.5577
 6642SOL     OW31561   3.452   3.000   7.418 -0.1062 -0.3053 -0.1218
 6642SOL    HW131562   3.363   2.965   7.429  0.5267 -1.3005  1.8734
 6642SOL    HW231563   3.501   2.937   7.470 -0.3420  0.0611  0.5484
 6643SOL     OW31564   3.878   2.205   3.166  0.1940  0.2779 -0.2999
 6643SOL    HW131565   3.926   2.126   3.192 -0.9404 -0.3130  0.0305
 6643SOL    HW231566   3.909   2.219   3.077 -0.4889 -0.6193 -0.6865
 6644SOL     OW31567   2.447   2.183   3.288  0.1135 -0.2902  0.1564
 6644SOL    HW131568   2.523   2.240   3.299  0.9844 -1.1245 -1.5681
 6644SOL    HW231569   2.480   2.109   3.236  0.5315  1.5607 -2.1751
 6645SOL     OW31570   3.366   0.058   1.132  0.2492 -0.4261 -0.3801
 6645SOL    HW131571   3.452   0.082   1.165 -0.0093 -0.3268  0.2147
 6645SOL    HW231572   3.311   0.110   1.190 -0.9671  0.7832 -2.6085
 6646SOL     OW31573   1.046   0.908   6.888 -0.5793 -0.2497 -0.3133
 6646SOL    HW131574   0.958   0.943   6.900 -0.4306 -0.2482  0.8016
 6646SOL    HW231575   1.071   0.948   6.805 -0.6670 -0.5666 -0.4896
 6647SOL     OW31576   0.891   1.587   6.136 -0.2959  0.2926 -0.4180
 6647SOL    HW131577   0.890   1.667   6.189 -1.1508 -0.0214  0.0479
 6647SOL    HW231578   0.887   1.523   6.207  2.6949  1.0883  0.4424
 6648SOL     OW31579   3.909   3.328   5.486  0.3830  0.2186  0.3924
 6648SOL    HW131580   3.972   3.400   5.486 -1.9638  2.2711 -1.4672
 6648SOL    HW231581   3.840   3.361   5.543 -0.5001 -1.5299  0.3476
 6649SOL     OW31582   1.271   4.220   8.090 -0.3022  0.1606  0.3071
 6649SOL    HW131583   1.361   4.253   8.087 -0.3515  0.0686 -2.6044
 6649SOL    HW231584   1.230   4.300   8.056  0.6652  0.6291  0.2509
 6650SOL     OW31585   4.199   1.322   8.043 -0.2814  0.1265  0.4051
 6650SOL    HW131586   4.234   1.233   8.035 -0.2541  0.2110 -0.4459
 6650SOL    HW231587   4.121   1.289   8.088 -0.1647 -1.7194 -0.7551
 6651SOL     OW31588   0.957   2.234  11.091  0.9605 -0.5456  0.1945
 6651SOL    HW131589   0.989   2.144  11.099  3.2814  0.2798  0.2254
 6651SOL    HW231590   0.864   2.216  11.072  1.6803 -1.5752 -2.3673
 6652SOL     OW31591   1.692   0.919  12.378  0.4187 -0.6002 -0.7963
 6652SOL    HW131592   1.784   0.909  12.402  0.5263  1.0701 -0.5101
 6652SOL    HW231593   1.680   1.002  12.333 -1.7590 -1.3380 -1.5549
 6653SOL     OW31594   4.048   1.171   7.628 -0.1620 -0.0063  0.5481
 6653SOL    HW131595   4.023   1.154   7.537  1.6056 -1.1885  0.2909
 6653SOL    HW231596   4.081   1.261   7.623  1.3720 -0.5788  0.6305
 6654SOL     OW31597   2.475   3.350   3.910 -0.2882 -0.1344  0.4809
 6654SOL    HW131598   2.423   3.429   3.896  0.5451  0.0143 -1.6883
 6654SOL    HW231599   2.460   3.291   3.836  0.2788  0.9329 -0.4765
 6655SOL     OW31600   0.500   2.648   0.042  0.0100  0.0927 -0.2533
 6655SOL    HW131601   0.424   2.701   0.064 -0.3269  1.1068 -3.9202
 6655SOL    HW231602   0.486   2.647  17.692 -0.1056  0.0908 -0.2352
 6656SOL     OW31603   3.805   1.666   5.257  0.0075  0.0956  0.2195
 6656SOL    HW131604   3.792   1.572   5.262  2.1217 -0.2442 -0.8569
 6656SOL    HW231605   3.829   1.672   5.165  1.4574 -1.8095  0.4958
 6657SOL     OW31606   1.328   3.872   6.756 -0.1832 -0.3892 -0.0462
 6657SOL    HW131607   1.317   3.957   6.712  2.6504  0.0728  0.1258
 6657SOL    HW231608   1.321   3.817   6.678 -3.2484 -1.5098  1.0585
 6658SOL     OW31609   2.584   0.854   1.594 -0.3110 -0.3259  0.0129
 6658SOL    HW131610   2.514   0.792   1.572  1.2343 -1.6708 -1.0380
 6658SOL    HW231611   2.553   0.937   1.558  1.0889  1.1081  2.0869
 6659SOL     OW31612   0.428   3.509   3.444 -0.7095 -0.3375 -0.4388
 6659SOL    HW131613   0.456   3.426   3.483 -0.5493 -0.8789 -1.6910
 6659SOL    HW231614   0.338   3.482   3.426 -0.1490 -1.1826 -1.9289
 6660SOL     OW31615   4.292   0.718   7.746 -0.7698 -0.1136 -0.0698
 6660SOL    HW131616   4.309   0.809   7.721  1.4625  0.1870  2.4780
 6660SOL    HW231617   4.332   0.730   7.832  0.8945  1.3146 -1.0404
 6661SOL     OW31618   1.175   2.278  10.915 -0.3483 -0.2487 -0.5377
 6661SOL    HW131619   1.219   2.195  10.903  1.9181  0.9629 -0.5110
 6661SOL    HW231620   1.104   2.250  10.974  0.3329 -2.5326 -0.8027
 6662SOL     OW31621   3.380   3.243   5.721 -0.3753  0.5861 -0.4572
 6662SOL    HW131622   3.433   3.318   5.696  0.6886  0.4052  1.3317
 6662SOL    HW231623   3.306   3.255   5.662 -2.3470  1.4590  2.1829
 6663SOL     OW31624   2.238   2.952   3.339 -0.0853 -0.4208 -0.3758
 6663SOL    HW131625   2.254   2.859   3.358  0.2608 -0.1801  0.5179
 6663SOL    HW231626   2.237   2.942   3.244 -0.6982 -0.8796 -0.3193
 6664SOL     OW31627   0.068   3.274   2.594 -0.7209  0.6125  0.8751
 6664SOL    HW131628   0.012   3.350   2.581 -0.7433  0.3387 -0.6596
 6664SOL    HW231629   0.081   3.253   2.501 -0.0962  2.3880  0.5658
 6665SOL     OW31630   2.815   1.093   3.560 -0.5884 -0.4926 -0.5097
 6665SOL    HW131631   2.838   1.144   3.638  1.7217 -0.2645 -1.3423
 6665SOL    HW231632   2.813   1.162   3.494  1.2187  0.0541  0.0014
 6666SOL     OW31633   4.301   2.328   9.881  0.1025 -0.0907 -0.5487
 6666SOL    HW131634   4.291   2.383   9.959 -1.0585 -0.6463 -0.3033
 6666SOL    HW231635   4.352   2.256   9.918 -0.3942 -0.3915 -0.4556
 6667SOL     OW31636   1.749   3.352   8.332  0.2273 -0.1540 -0.2440
 6667SOL    HW131637   1.721   3.278   8.386  0.3583 -0.7822 -1.0384
 6667SOL    HW231638   1.725   3.426   8.388  0.5521 -0.3550  0.1646
 6668SOL     OW31639   0.961   1.626   7.917  0.4650  0.1541 -0.5966
 6668SOL    HW131640   0.909   1.680   7.858  0.0821  1.1743  0.6861
 6668SOL    HW231641   0.948   1.542   7.871 -2.0579  0.3272 -0.2054
 6669SOL     OW31642   2.861   2.327   4.759  0.5010 -0.2091 -0.2554
 6669SOL    HW131643   2.880   2.251   4.814  1.3242 -1.2495 -1.9521
 6669SOL    HW231644   2.823   2.383   4.826 -0.8430 -0.5539 -0.7218
 6670SOL     OW31645   3.195   1.494   8.761  1.0542 -0.2793 -0.1320
 6670SOL    HW131646   3.171   1.586   8.775 -1.3637 -0.9344 -0.0287
 6670SOL    HW231647   3.115   1.467   8.717  1.5363 -0.7622 -0.7126
 6671SOL     OW31648   0.653   0.717   2.421 -0.0171 -0.0166  0.0221
 6671SOL    HW131649   0.676   0.645   2.362  1.9431  0.3691  0.3153
 6671SOL    HW231650   0.709   0.695   2.495  2.1930  0.4978 -1.4888
 6672SOL     OW31651   2.131   2.620   1.907  0.0197  0.0632 -0.2244
 6672SOL    HW131652   2.113   2.566   1.984 -0.9491  1.1787  0.3268
 6672SOL    HW231653   2.203   2.677   1.933  0.7069 -0.3901 -1.1417
 6673SOL     OW31654   3.462   4.084   5.566 -0.6911 -0.7254  0.6275
 6673SOL    HW131655   3.413   4.086   5.648 -0.3251 -1.2688  0.8691
 6673SOL    HW231656   3.533   4.020   5.576  1.5126  1.1659 -2.6912
 6674SOL     OW31657   0.353   2.209   8.696  0.2505  0.2885 -0.0137
 6674SOL    HW131658   0.281   2.199   8.634  0.0401 -0.6197  0.3730
 6674SOL    HW231659   0.329   2.151   8.769  0.9148  0.6408  0.4816
 6675SOL     OW31660   3.259   1.035   8.419  0.0704 -0.7667 -0.0476
 6675SOL    HW131661   3.196   1.105   8.436 -0.0363 -0.8559 -0.0768
 6675SOL    HW231662   3.293   1.072   8.338  0.1651  2.6393  1.5632
 6676SOL     OW31663   4.278   4.544   5.837 -0.3736  0.1171 -0.0544
 6676SOL    HW131664   4.314   4.598   5.908  1.7270 -1.2734 -0.0616
 6676SOL    HW231665   4.188   4.534   5.869 -0.1052  0.4254  0.8224
 6677SOL     OW31666   3.280   3.413   1.813 -0.4857  0.2463  0.4549
 6677SOL    HW131667   3.233   3.363   1.748  2.3712 -1.1464 -0.5339
 6677SOL    HW231668   3.216   3.406   1.884 -1.8909 -0.8598 -0.9548
 6678SOL     OW31669   2.910   1.628   3.418 -0.5651 -0.6959 -0.3220
 6678SOL    HW131670   2.827   1.631   3.371 -1.0756 -0.3035  0.6232
 6678SOL    HW231671   2.963   1.690   3.368  1.1221 -0.4139  1.7915
 6679SOL     OW31672   3.889   2.246  12.415  0.3427  0.0072 -0.2096
 6679SOL    HW131673   3.877   2.175  12.478  1.9946  0.6259  0.8129
 6679SOL    HW231674   3.833   2.220  12.342 -1.8774 -1.2867  1.9334
 6680SOL     OW31675   4.544   1.358   8.537  0.6337 -0.0075  0.6003
 6680SOL    HW131676   4.469   1.356   8.478  0.3684  1.2528  0.8988
 6680SOL    HW231677   4.516   1.418   8.606 -0.7235 -0.3786  0.3603
 6681SOL     OW31678   3.595   3.366   9.287  0.3111 -0.2418 -0.7544
 6681SOL    HW131679   3.684   3.382   9.318  0.3785  1.3415 -1.7744
 6681SOL    HW231680   3.554   3.447   9.318  0.2402 -0.3277 -0.6211
 6682SOL     OW31681   3.539   0.604   4.423 -0.3023 -0.4903 -0.4146
 6682SOL    HW131682   3.466   0.640   4.474 -0.1094 -0.4860 -0.1423
 6682SOL    HW231683   3.589   0.562   4.493 -0.5772  0.5240  0.3865
 6683SOL     OW31684   3.228   2.798   3.604 -0.3055 -0.0312 -0.2232
 6683SOL    HW131685   3.217   2.714   3.649 -1.1900  0.3275  0.2340
 6683SOL    HW231686   3.309   2.788   3.554 -0.7228 -1.3149 -0.6357
 6684SOL     OW31687   2.405   3.910   9.778 -0.1546 -0.9836  0.7621
 6684SOL    HW131688   2.400   3.911   9.874 -1.7864 -1.4694  0.6811
 6684SOL    HW231689   2.330   3.856   9.754  0.5249 -1.3470 -0.5773
 6685SOL     OW31690   4.328   3.012   1.036  0.3153 -0.4787  0.4135
 6685SOL    HW131691   4.257   3.067   1.004 -0.2587 -1.3397  0.2105
 6685SOL    HW231692   4.401   3.057   0.992  0.3064 -1.5367 -0.6915
 6686SOL     OW31693   1.224   3.070   0.416 -0.5531 -0.5589  0.8078
 6686SOL    HW131694   1.181   3.070   0.331  0.0567  0.5276  0.4989
 6686SOL    HW231695   1.221   3.165   0.432  0.1987 -0.4688  0.3793
 6687SOL     OW31696   0.810   2.602  14.678 -0.4040  0.1176  0.4545
 6687SOL    HW131697   0.788   2.519  14.635  1.0879  0.5919 -1.2571
 6687SOL    HW231698   0.857   2.641  14.604  0.1456  0.2019  0.8513
 6688SOL     OW31699   3.461   3.919   7.284 -0.0682  0.2216  0.1808
 6688SOL    HW131700   3.376   3.951   7.313 -0.7199  0.2706 -1.8083
 6688SOL    HW231701   3.458   3.962   7.199 -0.8565  1.2353  0.7335
 6689SOL     OW31702   0.864   3.093  10.321 -0.2642  0.3105 -0.7704
 6689SOL    HW131703   0.893   3.008  10.354 -2.3436  0.4274  1.3404
 6689SOL    HW231704   0.814   3.128  10.395  2.2656  0.0268  1.0567
 6690SOL     OW31705   1.314   3.274   2.032 -0.5092 -0.3001 -0.1305
 6690SOL    HW131706   1.359   3.197   2.066  0.6258 -0.0544 -1.0531
 6690SOL    HW231707   1.242   3.227   1.989  1.1131 -2.1019 -0.9090
 6691SOL     OW31708   1.906   1.187   1.399  0.0450 -0.1464  0.5653
 6691SOL    HW131709   1.840   1.136   1.446 -0.7608 -1.9059 -2.5175
 6691SOL    HW231710   1.861   1.218   1.321  1.4613 -0.7527 -0.4977
 6692SOL     OW31711   1.036   1.459  10.558 -0.0524 -0.4807  0.2309
 6692SOL    HW131712   1.110   1.407  10.524 -1.8750 -2.0328 -1.4150
 6692SOL    HW231713   1.068   1.548  10.571  0.4186 -0.7300  0.7726
 6693SOL     OW31714   4.297   3.529   7.146 -0.1959  0.8250  0.0511
 6693SOL    HW131715   4.383   3.565   7.126 -0.0469 -0.1274 -1.0156
 6693SOL    HW231716   4.284   3.561   7.235  0.5579  0.3900  0.3202
 6694SOL     OW31717   4.033   0.185   3.946 -0.5801 -0.3608 -0.4571
 6694SOL    HW131718   3.958   0.157   3.894 -0.6727 -2.8919  0.9812
 6694SOL    HW231719   3.995   0.199   4.033  1.3934 -1.9549  0.6835
 6695SOL     OW31720   3.815   4.512   6.769 -0.1204  0.1209  0.2699
 6695SOL    HW131721   3.790   4.599   6.739  0.2616  0.6598  1.4777
 6695SOL    HW231722   3.885   4.531   6.832  1.0050 -0.8925 -0.6788
 6696SOL     OW31723   3.313   0.976  14.423 -0.4162 -0.2994  0.6167
 6696SOL    HW131724   3.292   0.986  14.516 -0.1168  1.0968  0.5478
 6696SOL    HW231725   3.285   0.887  14.406 -3.3607  0.7073  0.2645
 6697SOL     OW31726   0.386   4.587   4.600  0.5281 -0.6566 -0.2727
 6697SOL    HW131727   0.338   4.584   4.517 -0.1429  1.5383  0.0341
 6697SOL    HW231728   0.370   4.679   4.620  0.0935 -0.4245 -1.7243
 6698SOL     OW31729   1.062   3.315   6.577 -0.2969  0.1000  0.3544
 6698SOL    HW131730   1.024   3.395   6.539  2.8853  1.2106 -0.5791
 6698SOL    HW231731   1.144   3.358   6.604  0.1589 -0.8012  0.3898
 6699SOL     OW31732   4.639   2.790   6.722  0.7256 -0.2127 -0.8596
 6699SOL    HW131733   4.639   2.801   6.817 -1.5625  0.8364 -0.9747
 6699SOL    HW231734   4.557   2.834   6.700  1.1480  0.3867 -1.2440
 6700SOL     OW31735   1.782   0.115  10.619  0.0588  0.2691 -0.4538
 6700SOL    HW131736   1.842   0.186  10.643  1.9759 -1.2952 -0.6207
 6700SOL    HW231737   1.723   0.099  10.693  1.9460 -2.4194  0.4741
 6701SOL     OW31738   0.828   3.761   2.648 -0.0468 -0.0083 -0.1666
 6701SOL    HW131739   0.891   3.713   2.593 -0.2248  1.3787 -1.5704
 6701SOL    HW231740   0.830   3.705   2.726  1.7177  1.5064  0.8820
 6702SOL     OW31741   3.231   0.059   4.813 -0.4036  0.4082  0.5030
 6702SOL    HW131742   3.201   0.142   4.776 -0.0837 -0.6651 -2.1802
 6702SOL    HW231743   3.155   0.002   4.802 -1.0267  1.6610 -1.6857
 6703SOL     OW31744   4.255   4.239   8.485  0.2842  0.0623  0.2665
 6703SOL    HW131745   4.233   4.150   8.457  2.4385  0.1649 -1.7913
 6703SOL    HW231746   4.172   4.282   8.507  0.5266  0.4594  0.4028
 6704SOL     OW31747   1.539   3.816   1.664  0.2721 -0.3798 -0.1231
 6704SOL    HW131748   1.623   3.772   1.679  0.5361 -0.9261 -3.2491
 6704SOL    HW231749   1.536   3.796   1.570  2.0428 -3.9136  0.5951
 6705SOL     OW31750   1.690   3.298   2.075 -0.0681  0.4716 -0.1704
 6705SOL    HW131751   1.619   3.359   2.053 -0.9558 -1.0881 -1.5794
 6705SOL    HW231752   1.654   3.245   2.146 -0.0006 -0.4360 -0.8111
 6706SOL     OW31753   4.624   3.020   3.219  0.2637  0.3170 -0.2919
 6706SOL    HW131754   4.635   3.075   3.141 -1.8141 -1.1077 -1.5528
 6706SOL    HW231755   4.652   2.933   3.192 -0.6814 -0.9033  2.6834
 6707SOL     OW31756   2.779   3.547   2.279 -0.1735 -0.5395 -0.6606
 6707SOL    HW131757   2.816   3.607   2.343 -0.1193  0.8688 -2.0081
 6707SOL    HW231758   2.801   3.585   2.194 -0.6090  0.9828 -0.0834
 6708SOL     OW31759   1.777   1.415   3.902 -0.2099 -0.3151  0.3969
 6708SOL    HW131760   1.808   1.481   3.964 -3.3612  0.3032  1.3484
 6708SOL    HW231761   1.708   1.465   3.858  2.5449  1.5061 -1.8303
 6709SOL     OW31762   1.142   4.505   8.072 -0.5325  0.4577 -0.3583
 6709SOL    HW131763   1.171   4.525   7.983 -1.4659  0.4209 -0.6758
 6709SOL    HW231764   1.219   4.526   8.125  0.0243 -1.8969 -0.2252
 6710SOL     OW31765   2.410   0.638   8.437  0.4859 -0.8367  0.1811
 6710SOL    HW131766   2.426   0.652   8.530 -1.8788  1.0565  0.2885
 6710SOL    HW231767   2.423   0.724   8.398  1.2299 -0.1720  1.8950
 6711SOL     OW31768   2.552   4.565   8.933  0.0857  0.3074  0.5316
 6711SOL    HW131769   2.470   4.518   8.949  1.1248 -1.3062  1.1515
 6711SOL    HW231770   2.623   4.513   8.972 -0.1739  0.0023  0.5928
 6712SOL     OW31771   2.312   1.819   0.890 -0.0053  0.1207  0.3958
 6712SOL    HW131772   2.263   1.739   0.869 -1.2192  0.9079  0.2263
 6712SOL    HW231773   2.256   1.880   0.841 -0.9184 -1.9315 -1.0917
 6713SOL     OW31774   2.575   1.408  14.473 -0.7624 -0.4444  0.3741
 6713SOL    HW131775   2.563   1.378  14.384  0.7804 -1.6429  0.5738
 6713SOL    HW231776   2.663   1.375  14.491 -0.8625 -0.9418 -0.0723
 6714SOL     OW31777   0.553   0.558   5.494 -0.0294  0.0609  0.2717
 6714SOL    HW131778   0.487   0.532   5.559 -0.9904  0.9277 -0.3599
 6714SOL    HW231779   0.632   0.551   5.548  1.6138  1.0900 -1.9780
 6715SOL     OW31780   0.126   2.715   1.034 -0.4101 -0.6298 -0.2871
 6715SOL    HW131781   0.189   2.787   1.045  1.0726 -2.3895  2.5747
 6715SOL    HW231782   0.071   2.746   0.962 -0.5491 -1.0552 -0.3616
 6716SOL     OW31783   0.111   3.823   7.719 -0.6450  0.6375  0.3411
 6716SOL    HW131784   0.196   3.851   7.684  0.6147 -1.0933  2.0194
 6716SOL    HW231785   0.124   3.860   7.807 -1.7922  0.4939  0.5652
 6717SOL     OW31786   2.169   2.197  15.856  0.2266 -0.0966  0.0488
 6717SOL    HW131787   2.105   2.167  15.792  2.5045  1.6828 -3.0764
 6717SOL    HW231788   2.164   2.293  15.853 -1.0419 -0.0884  2.4319
 6718SOL     OW31789   4.471   1.947   0.949 -0.2874  0.5277  0.3299
 6718SOL    HW131790   4.494   1.931   0.857 -3.1790  0.7642 -0.4649
 6718SOL    HW231791   4.560   1.926   0.977 -0.0505  0.0257 -0.7991
 6719SOL     OW31792   2.872   1.616   5.612 -0.3437  0.1613  0.1194
 6719SOL    HW131793   2.884   1.581   5.524 -1.1626  0.3539 -0.0653
 6719SOL    HW231794   2.824   1.696   5.590  0.3757 -0.0276 -2.1182
 6720SOL     OW31795   2.024   3.149   6.178 -0.2607  0.0893 -0.3096
 6720SOL    HW131796   2.002   3.238   6.151 -0.8566 -0.8939 -3.0461
 6720SOL    HW231797   2.089   3.162   6.248  0.7334  1.7553 -1.5158
 6721SOL     OW31798   3.006   2.269  14.245 -0.6311 -0.3181  0.1439
 6721SOL    HW131799   2.954   2.333  14.293 -0.2427 -0.6556  1.0266
 6721SOL    HW231800   3.038   2.322  14.172  0.7176 -0.5339  0.5656
 6722SOL     OW31801   0.352   2.318   6.239  0.1675 -0.4961  0.6756
 6722SOL    HW131802   0.263   2.291   6.259 -0.3441 -0.1458 -1.1174
 6722SOL    HW231803   0.393   2.237   6.270  2.6908  0.4488 -0.2205
 6723SOL     OW31804   4.717   4.074   4.768  0.6893  0.5366  0.5839
 6723SOL    HW131805   0.027   4.136   4.713 -0.2798  1.2324  0.5376
 6723SOL    HW231806   4.623   4.092   4.760  0.5610 -0.3683  0.0629
 6724SOL     OW31807   3.878   4.194  12.571  0.7226 -0.1167 -0.1786
 6724SOL    HW131808   3.789   4.223  12.552 -0.2456 -1.2015  2.7504
 6724SOL    HW231809   3.891   4.128  12.503 -1.2897 -2.5063  1.7302
 6725SOL     OW31810   0.729   0.955   3.600  0.1941 -0.3038  0.4934
 6725SOL    HW131811   0.823   0.968   3.590  0.0128 -0.9981 -1.9111
 6725SOL    HW231812   0.734   0.864   3.574 -1.2733  0.0516 -1.0523
 6726SOL     OW31813   4.574   0.496   8.595  0.4599  0.7393  0.9594
 6726SOL    HW131814   4.574   0.589   8.571  0.7010  0.0785 -1.5959
 6726SOL    HW231815   4.486   0.466   8.569  0.4972 -0.2743  2.0087
 6727SOL     OW31816   0.810   0.009   4.378 -0.5696  0.3685 -0.1267
 6727SOL    HW131817   0.894   0.017   4.423  0.6362 -0.1660 -2.2639
 6727SOL    HW231818   0.753   0.010   4.455 -0.4450  0.6319 -0.0384
 6728SOL     OW31819   0.217   3.640   4.312  0.7122 -0.0627  0.2646
 6728SOL    HW131820   0.273   3.600   4.378  3.9489  0.7392 -1.9958
 6728SOL    HW231821   0.277   3.632   4.238 -0.7816 -0.4496 -0.8870
 6729SOL     OW31822   1.721   2.157  12.954  0.0459  0.3855 -0.2183
 6729SOL    HW131823   1.791   2.208  12.914  1.1310 -1.3753 -0.5511
 6729SOL    HW231824   1.764   2.072  12.957 -1.4753 -0.3796  0.1025
 6730SOL     OW31825   3.009   1.600   9.463  0.3713 -0.3152  0.7185
 6730SOL    HW131826   3.007   1.650   9.545 -0.4842 -0.9176  1.0659
 6730SOL    HW231827   3.040   1.515   9.495 -0.7676 -1.7351 -2.0043
 6731SOL     OW31828   3.988   2.402  13.650  0.5573 -0.2323 -0.2172
 6731SOL    HW131829   3.935   2.481  13.659 -0.0849 -0.6809 -0.0228
 6731SOL    HW231830   3.933   2.345  13.596  1.5760 -1.3264 -0.0814
 6732SOL     OW31831   1.566   2.650  13.193 -0.1308 -0.2880 -0.2014
 6732SOL    HW131832   1.543   2.574  13.140  0.9511  0.0282 -1.1173
 6732SOL    HW231833   1.597   2.711  13.126  1.0403 -0.5406  0.1052
 6733SOL     OW31834   4.510   1.495   6.992 -0.0751 -0.3071 -0.5433
 6733SOL    HW131835   4.556   1.434   6.934  0.9207 -0.1745  0.1201
 6733SOL    HW231836   4.516   1.580   6.949 -0.2674  1.2286  2.5297
 6734SOL     OW31837   2.356   4.539  17.120 -0.5971  0.1723  0.5055
 6734SOL    HW131838   2.267   4.537  17.155 -1.3641 -0.1658 -1.4741
 6734SOL    HW231839   2.342   4.471  17.055  2.6350  1.7666 -1.8645
 6735SOL     OW31840   1.616   1.850   8.488  0.7317  0.1654 -0.1222
 6735SOL    HW131841   1.527   1.819   8.505  1.1661 -0.9489  0.0948
 6735SOL    HW231842   1.588   1.901   8.412  0.1336 -0.0226 -0.0296
 6736SOL     OW31843   2.880   2.060  16.355  0.4211 -0.9611  0.4853
 6736SOL    HW131844   2.784   2.058  16.353  0.3717  2.0954 -0.6455
 6736SOL    HW231845   2.908   2.112  16.430  0.1600 -0.8323  0.4938
 6737SOL     OW31846   2.979   3.414  14.368  0.3175  0.1513 -0.0489
 6737SOL    HW131847   2.983   3.469  14.290  1.9984 -1.4626 -1.1029
 6737SOL    HW231848   2.890   3.432  14.397 -0.0841 -0.6792 -0.7846
 6738SOL     OW31849   4.111   3.715  16.749  0.5215 -0.1121 -0.1149
 6738SOL    HW131850   4.068   3.630  16.746 -0.3296  0.2939  0.9025
 6738SOL    HW231851   4.199   3.682  16.768  0.9607 -0.2058 -2.3127
 6739SOL     OW31852   4.709   3.667   5.543 -0.1239 -0.3788  0.3422
 6739SOL    HW131853   4.689   3.744   5.490  1.5459 -0.4441 -0.3648
 6739SOL    HW231854   4.704   3.597   5.478  2.2341 -0.3681  0.1487
 6740SOL     OW31855   4.736   3.211   6.641 -0.2674 -0.3680 -0.0204
 6740SOL    HW131856   0.004   3.187   6.734 -2.3981  0.3055  0.2538
 6740SOL    HW231857   4.657   3.169   6.607 -1.1606  1.2705  0.0440
 6741SOL     OW31858   3.486   0.370  17.300  0.5243  0.2839 -0.3338
 6741SOL    HW131859   3.407   0.322  17.273  0.9452  0.2160 -1.4310
 6741SOL    HW231860   3.507   0.314  17.374 -2.2734  1.1449  1.1512
 6742SOL     OW31861   1.244   0.838   8.293  0.1712  0.6349  0.1385
 6742SOL    HW131862   1.293   0.878   8.222 -1.1067  1.3476 -0.3522
 6742SOL    HW231863   1.204   0.914   8.335 -1.0583 -0.4170  0.9125
 6743SOL     OW31864   0.594   0.765   7.582  0.1460 -0.1125 -0.2587
 6743SOL    HW131865   0.538   0.705   7.533 -2.3167 -0.1222  2.5471
 6743SOL    HW231866   0.526   0.816   7.626  0.1194 -0.1125 -0.3001
 6744SOL     OW31867   1.005   0.392  17.593 -0.1264 -0.2164 -0.1000
 6744SOL    HW131868   0.978   0.480  17.618 -0.6432  0.2301 -2.2107
 6744SOL    HW231869   0.924   0.344  17.614 -0.0407  0.9308  2.8767
 6745SOL     OW31870   4.632   2.521  16.425  0.3382  0.0176  0.5693
 6745SOL    HW131871   4.645   2.472  16.506 -2.2224 -0.1989  0.8643
 6745SOL    HW231872   4.721   2.518  16.391  0.3906 -2.2551  0.9538
 6746SOL     OW31873   1.865   2.994   7.783 -0.3567 -0.1163  0.1336
 6746SOL    HW131874   1.796   3.057   7.805  0.6677  1.0607  0.0362
 6746SOL    HW231875   1.917   2.979   7.863  0.8889 -1.2202 -0.8941
 6747SOL     OW31876   4.446   4.521   9.960  0.2077  0.5829  0.1914
 6747SOL    HW131877   4.408   4.434   9.948  1.1024  0.0874  0.9600
 6747SOL    HW231878   4.515   4.486  10.016 -0.5504 -0.3924  0.5156
 6748SOL     OW31879   0.907   3.473   9.134 -0.3637  0.2545 -0.0185
 6748SOL    HW131880   0.955   3.457   9.053 -2.0917 -2.0763 -0.6078
 6748SOL    HW231881   0.975   3.489   9.200 -0.3681  0.1300  0.0162
 6749SOL     OW31882   1.909   2.323   3.568  0.1348  0.2119 -0.5652
 6749SOL    HW131883   1.861   2.317   3.485  1.0898  0.5653 -1.1431
 6749SOL    HW231884   1.873   2.408   3.593 -0.6661 -1.0927  2.7009
 6750SOL     OW31885   2.465   1.254   9.017 -0.0671 -0.5297  0.5822
 6750SOL    HW131886   2.528   1.258   9.089  0.7175 -2.8621  0.0303
 6750SOL    HW231887   2.382   1.272   9.062  1.1034  0.6260  2.2738
 6751SOL     OW31888   1.334   0.658  15.547 -0.2618 -0.2051 -0.1985
 6751SOL    HW131889   1.321   0.607  15.627  2.7062 -1.8903 -0.8021
 6751SOL    HW231890   1.346   0.747  15.581  1.3016 -0.2121 -0.7332
 6752SOL     OW31891   1.343   2.459   3.611 -0.3381  0.2701  0.9705
 6752SOL    HW131892   1.382   2.516   3.545 -3.5615 -0.2312 -1.3684
 6752SOL    HW231893   1.278   2.402   3.569 -0.5641  0.6971  0.7431
 6753SOL     OW31894   2.971   4.033   8.800  0.1493  0.1998  0.0050
 6753SOL    HW131895   2.964   3.953   8.748  2.2507  0.3043 -0.4317
 6753SOL    HW231896   2.934   4.006   8.885  0.4889  1.6319  0.6073
 6754SOL     OW31897   3.030   3.298   7.485 -0.1876  0.0248  0.0354
 6754SOL    HW131898   3.067   3.213   7.512  1.0608  0.3754 -0.5577
 6754SOL    HW231899   3.111   3.346   7.468  0.6593 -0.5277  2.4116
 6755SOL     OW31900   4.497   1.433   7.738 -0.5906  0.1961 -0.0682
 6755SOL    HW131901   4.479   1.437   7.644  1.4917 -0.6854 -0.4929
 6755SOL    HW231902   4.589   1.454   7.725  0.0615 -2.6343 -0.1261
 6756SOL     OW31903   2.162   3.713  17.232  0.0452 -0.2106  0.4360
 6756SOL    HW131904   2.163   3.808  17.240 -0.4373 -0.2008  0.3726
 6756SOL    HW231905   2.072   3.685  17.222  0.1907 -0.1844 -0.9899
 6757SOL     OW31906   0.700   0.609  16.442  0.2071 -0.4431 -0.0282
 6757SOL    HW131907   0.746   0.542  16.390 -0.0890  0.2721 -1.2210
 6757SOL    HW231908   0.711   0.581  16.532 -1.8110 -0.9189  0.0666
 6758SOL     OW31909   4.241   2.510   8.197 -0.2814  0.2890 -0.0001
 6758SOL    HW131910   4.188   2.517   8.118 -1.4278 -0.2820  0.7072
 6758SOL    HW231911   4.170   2.521   8.261  0.9295  0.3926  1.3269
 6759SOL     OW31912   3.591   0.934  12.546  0.4203 -0.1045 -0.4204
 6759SOL    HW131913   3.640   0.852  12.543 -0.0881 -0.5322  2.6943
 6759SOL    HW231914   3.649   0.995  12.591  1.0523 -0.6837 -0.4562
 6760SOL     OW31915   2.888   1.010  11.213 -0.4462 -0.6338  0.1098
 6760SOL    HW131916   2.849   1.059  11.285 -0.5446 -1.4614  0.6264
 6760SOL    HW231917   2.932   1.082  11.168 -0.5515 -0.0183  0.9962
 6761SOL     OW31918   0.413   2.292  14.858  0.4664  0.1985 -0.1163
 6761SOL    HW131919   0.375   2.379  14.848  1.2704  0.5587 -0.0331
 6761SOL    HW231920   0.333   2.250  14.827 -0.4943  0.2512  2.2426
 6762SOL     OW31921   1.737   1.456  17.088  0.0690 -0.0824 -0.5080
 6762SOL    HW131922   1.797   1.422  17.154 -1.3302  2.0877  1.8940
 6762SOL    HW231923   1.796   1.514  17.039 -1.6293  3.0841  1.1603
 6763SOL     OW31924   1.793   0.745   6.573 -0.2081  0.2645  0.2141
 6763SOL    HW131925   1.724   0.791   6.526  1.0427  0.6438 -1.2395
 6763SOL    HW231926   1.735   0.681   6.615 -1.2848  1.2438  0.2100
 6764SOL     OW31927   4.609   2.337   3.932  0.2399  0.0747 -0.1285
 6764SOL    HW131928   4.571   2.358   4.017  1.1505 -0.7771  0.4943
 6764SOL    HW231929   4.562   2.397   3.875  1.9665 -0.8972 -2.6135
 6765SOL     OW31930   4.427   2.993   2.118  0.5333 -0.2391 -0.1560
 6765SOL    HW131931   4.499   2.941   2.153 -0.7268 -2.3531 -0.6822
 6765SOL    HW231932   4.407   3.050   2.193  3.3778 -0.2816  0.6240
 6766SOL     OW31933   1.564   3.686  13.784  0.2307  0.3073 -0.5159
 6766SOL    HW131934   1.622   3.611  13.791  1.8200  1.4824 -1.0769
 6766SOL    HW231935   1.514   3.663  13.706 -0.9653 -0.9524  0.6265
 6767SOL     OW31936   1.702   0.282   2.284 -0.3534  0.2981 -0.2124
 6767SOL    HW131937   1.753   0.225   2.226  1.3306  0.0875  1.4930
 6767SOL    HW231938   1.661   0.345   2.225 -0.6503 -2.0628 -2.5235
 6768SOL     OW31939   0.765   1.209   4.981 -0.8799 -0.0985  0.2420
 6768SOL    HW131940   0.858   1.222   5.000 -1.5098  3.1874  1.1722
 6768SOL    HW231941   0.780   1.206   4.887 -0.0391 -0.3608  0.3894
 6769SOL     OW31942   3.043   2.653   0.226  0.1730 -0.5577  0.2285
 6769SOL    HW131943   3.096   2.732   0.215 -0.0038 -1.0055 -3.7030
 6769SOL    HW231944   2.952   2.681   0.232  0.7946  1.3446  0.8703
 6770SOL     OW31945   1.875   1.434   7.602  0.3390  0.1000 -0.7993
 6770SOL    HW131946   1.847   1.344   7.614  1.3631  0.1134  1.6633
 6770SOL    HW231947   1.918   1.445   7.517  0.4960 -2.5652 -1.0635
 6771SOL     OW31948   0.377   0.746   3.324 -0.0434 -0.4964 -0.0922
 6771SOL    HW131949   0.385   0.687   3.249 -0.0185 -0.8938  0.2247
 6771SOL    HW231950   0.419   0.822   3.282 -1.0161  0.4519  0.6587
 6772SOL     OW31951   2.474   3.340   4.219  0.1886  0.9621  0.2657
 6772SOL    HW131952   2.399   3.397   4.228 -1.4118 -1.5729  2.9846
 6772SOL    HW231953   2.493   3.349   4.125  0.1308  3.5665  0.5057
 6773SOL     OW31954   3.730   1.855   8.782 -0.0110 -0.1614  0.1324
 6773SOL    HW131955   3.753   1.934   8.832  3.1215 -0.2034 -1.2260
 6773SOL    HW231956   3.781   1.861   8.701 -2.0292  0.3601 -1.0880
 6774SOL     OW31957   4.410   4.513   4.415 -0.4448 -0.1100 -0.1846
 6774SOL    HW131958   4.428   4.598   4.375  0.4928 -0.2261 -0.0187
 6774SOL    HW231959   4.410   4.528   4.509 -1.3471  1.8418 -0.4829
 6775SOL     OW31960   2.102   2.930   5.280  0.1794 -0.0077 -0.6509
 6775SOL    HW131961   2.009   2.936   5.300  0.4522  1.2458  0.1993
 6775SOL    HW231962   2.107   2.877   5.201 -1.4496  0.5585 -1.1398
 6776SOL     OW31963   4.477   2.183   5.330  0.1992 -0.6128 -0.7436
 6776SOL    HW131964   4.571   2.174   5.315  0.6647  1.4672  0.9804
 6776SOL    HW231965   4.444   2.171   5.241  2.0511  0.3748 -1.5486
 6777SOL     OW31966   2.913   3.135   5.606 -0.2030  0.4303  0.0461
 6777SOL    HW131967   2.875   3.222   5.601 -1.7242 -0.1796  0.8323
 6777SOL    HW231968   2.870   3.103   5.685  0.4460 -0.9432 -0.1442
 6778SOL     OW31969   2.478   0.571   0.351  0.4332 -0.4705  0.6623
 6778SOL    HW131970   2.387   0.594   0.367  0.5968  0.5842  0.1143
 6778SOL    HW231971   2.460   0.519   0.273 -0.7619  1.4072 -0.3401
 6779SOL     OW31972   3.329   0.984   8.730  0.2510  0.5586  0.2483
 6779SOL    HW131973   3.300   0.977   8.639 -1.7777  0.4388  0.9064
 6779SOL    HW231974   3.298   1.072   8.752 -0.0533  0.7199 -0.8165
 6780SOL     OW31975   4.172   1.352   6.956 -0.4740  0.2530  0.0274
 6780SOL    HW131976   4.185   1.446   6.943 -0.1723  0.0014 -1.4771
 6780SOL    HW231977   4.259   1.311   6.955 -1.1234 -1.1172 -0.1447
 6781SOL     OW31978   2.003   0.488   1.815 -0.2988  0.1452 -0.0547
 6781SOL    HW131979   1.968   0.574   1.792 -3.6140 -1.9135 -2.6728
 6781SOL    HW231980   1.927   0.432   1.803  0.0005 -0.1422 -0.6244
 6782SOL     OW31981   0.593   3.453   3.898 -0.2287 -0.1287 -0.2020
 6782SOL    HW131982   0.598   3.375   3.953 -0.7545  1.0576  1.5575
 6782SOL    HW231983   0.675   3.497   3.921 -0.2316 -0.6003  0.6929
 6783SOL     OW31984   0.919   0.836   3.238 -0.6184 -0.8369  0.0393
 6783SOL    HW131985   0.963   0.921   3.240 -2.9406  0.3791 -0.5962
 6783SOL    HW231986   0.935   0.811   3.147  1.0060  0.3417 -0.0093
 6784SOL     OW31987   3.554   1.688   8.683  0.2333  0.7888 -0.3079
 6784SOL    HW131988   3.622   1.736   8.731  0.6948  0.2876 -0.4678
 6784SOL    HW231989   3.519   1.637   8.756 -2.2619 -0.3565 -2.3275
 6785SOL     OW31990   2.190   2.193  14.487 -0.1715 -0.0788  0.3815
 6785SOL    HW131991   2.208   2.222  14.577 -2.7907  1.6895  0.3255
 6785SOL    HW231992   2.176   2.282  14.454 -0.7011  0.4801  2.1178
 6786SOL     OW31993   3.940   2.918   2.498 -0.8961 -0.3385 -0.1328
 6786SOL    HW131994   4.033   2.915   2.479 -0.2789 -1.5328  3.0435
 6786SOL    HW231995   3.935   3.003   2.543 -0.3611  0.1028 -0.9128
 6787SOL     OW31996   2.541   0.455   6.221  0.0910  0.6369 -0.2108
 6787SOL    HW131997   2.615   0.505   6.188  2.2415 -1.4745  1.4761
 6787SOL    HW231998   2.542   0.381   6.161 -0.1016 -0.3957  1.0793
 6788SOL     OW31999   2.453   1.043  16.697 -0.0471  0.4134  0.2014
 6788SOL    HW132000   2.526   0.985  16.720 -0.3773  0.7762  2.1560
 6788SOL    HW232001   2.493   1.127  16.718  0.7591 -0.1827  1.0507
 6789SOL     OW32002   3.460   3.971   1.867 -0.2342  0.2343 -0.0198
 6789SOL    HW132003   3.440   4.062   1.891 -0.2097  0.5390 -1.1591
 6789SOL    HW232004   3.434   3.970   1.775 -0.8223  3.7688  0.0906
 6790SOL     OW32005   3.315   2.456  11.730 -0.0041 -0.3782  0.5966
 6790SOL    HW132006   3.375   2.396  11.773  1.7854  1.6794  0.9498
 6790SOL    HW232007   3.309   2.523  11.798 -1.9109 -1.2160  1.2574
 6791SOL     OW32008   4.255   0.697   5.789  0.1454 -0.9721  0.0536
 6791SOL    HW132009   4.298   0.732   5.867 -0.6203  1.2502 -0.5015
 6791SOL    HW232010   4.166   0.725   5.813  0.3545 -1.4121  1.3624
 6792SOL     OW32011   4.648   0.527  17.345  0.2868 -0.3037  0.2220
 6792SOL    HW132012   4.665   0.600  17.405 -0.2560  0.4457 -0.5387
 6792SOL    HW232013   4.595   0.467  17.397 -0.0916 -0.6585 -0.5782
 6793SOL     OW32014   4.136   3.775   5.286  0.3434 -0.6228 -0.3696
 6793SOL    HW132015   4.041   3.786   5.276  0.0306 -2.2307  1.0585
 6793SOL    HW232016   4.168   3.741   5.202  0.0559  1.0531 -1.1770
 6794SOL     OW32017   3.684   4.248  17.446 -0.1708  0.2802  0.1708
 6794SOL    HW132018   3.665   4.284  17.533  0.1877 -0.2764  0.4805
 6794SOL    HW232019   3.779   4.235  17.449 -0.1717  0.1395 -0.3844
 6795SOL     OW32020   0.767   1.854   8.800  0.2395  0.8973  0.0453
 6795SOL    HW132021   0.690   1.908   8.787 -2.8713 -2.8312  2.8976
 6795SOL    HW232022   0.837   1.920   8.801  1.5761 -0.4940 -1.2699
 6796SOL     OW32023   2.113   2.769  15.879  0.1876 -0.2466 -0.3415
 6796SOL    HW132024   2.048   2.814  15.933 -0.2166 -1.3997  0.1332
 6796SOL    HW232025   2.179   2.837  15.890 -0.1095  0.2794 -1.7317
 6797SOL     OW32026   2.754   1.582  13.342  0.2192  0.4156  0.0941
 6797SOL    HW132027   2.676   1.609  13.389 -0.4632  0.1661 -0.8869
 6797SOL    HW232028   2.761   1.487  13.352  0.0724  0.1804 -2.0046
 6798SOL     OW32029   0.562   3.965  11.042 -0.4580 -1.0495  0.0236
 6798SOL    HW132030   0.551   4.060  11.042  2.8333 -0.7052 -1.4694
 6798SOL    HW232031   0.602   3.954  10.956 -0.2072  0.0536  0.0064
 6799SOL     OW32032   2.943   0.490  14.044  0.3573  0.1741  0.9495
 6799SOL    HW132033   2.897   0.419  14.089  1.1898 -0.2497  1.1214
 6799SOL    HW232034   2.878   0.514  13.978  2.2364  1.7481 -0.3359
 6800SOL     OW32035   0.432   2.207  10.783 -0.4234  0.8901  0.1873
 6800SOL    HW132036   0.410   2.295  10.811 -0.3771  0.9858 -0.0791
 6800SOL    HW232037   0.433   2.155  10.864 -1.6148 -1.1975 -1.1221
 6801SOL     OW32038   4.434   4.338   2.187 -0.0059 -0.1346 -0.8755
 6801SOL    HW132039   4.389   4.293   2.259  1.6559  0.4947  0.5626
 6801SOL    HW232040   4.357   4.361   2.136 -2.1384  1.5149  3.0658
 6802SOL     OW32041   2.596   4.636   7.395 -0.4463  0.2787 -0.2071
 6802SOL    HW132042   2.671   4.580   7.373  0.9000  0.9408  2.7368
 6802SOL    HW232043   2.592   4.621   7.489  1.3123  1.2520  0.0126
 6803SOL     OW32044   3.671   3.977  13.994  0.1369  0.1666  0.1530
 6803SOL    HW132045   3.583   3.941  14.001  0.4763 -0.6457  0.2188
 6803SOL    HW232046   3.709   3.963  14.081  0.7779  0.7871 -0.0290
 6804SOL     OW32047   0.517   1.807   1.429 -0.4154  0.3009  0.5189
 6804SOL    HW132048   0.467   1.729   1.454  0.2444 -0.0605  0.7114
 6804SOL    HW232049   0.592   1.801   1.488 -0.1755  2.1088  0.3991
 6805SOL     OW32050   3.774   0.008   3.037 -0.0565  0.3680 -0.4447
 6805SOL    HW132051   3.830   0.075   2.998  0.7573  1.4719  2.6782
 6805SOL    HW232052   3.814   4.661   3.013 -0.0569  0.7283 -1.7225
 6806SOL     OW32053   1.591   0.603   7.772 -0.2540 -0.0563 -0.2169
 6806SOL    HW132054   1.548   0.679   7.733 -0.1258  0.7622  1.2230
 6806SOL    HW232055   1.530   0.580   7.842 -1.1009  2.2283 -0.2056
 6807SOL     OW32056   4.248   1.769  16.440 -0.0361  0.0207  0.5884
 6807SOL    HW132057   4.287   1.695  16.392 -0.4810  0.9907 -1.2862
 6807SOL    HW232058   4.319   1.834  16.446  0.4121 -0.4540  0.4387
 6808SOL     OW32059   4.325   1.010   9.069  0.4522 -0.6789 -0.2905
 6808SOL    HW132060   4.357   0.924   9.040  0.3426 -0.2336 -1.7443
 6808SOL    HW232061   4.310   1.056   8.986  0.1579 -0.8525 -0.3374
 6809SOL     OW32062   3.898   3.924   8.465 -0.1159 -0.1061  0.2553
 6809SOL    HW132063   3.920   3.835   8.495 -4.1974 -2.0740 -2.5019
 6809SOL    HW232064   3.958   3.975   8.519 -1.8996  0.3560  1.8141
 6810SOL     OW32065   2.064   2.593   2.506  0.4330 -0.1596  0.3661
 6810SOL    HW132066   2.107   2.673   2.537 -0.4821 -0.0562  1.3549
 6810SOL    HW232067   2.136   2.531   2.491 -1.5673 -2.0515 -1.5099
 6811SOL     OW32068   0.949   3.626   3.024 -0.6476 -0.0620 -0.2676
 6811SOL    HW132069   0.988   3.673   3.097 -1.0304  2.3521 -1.6094
 6811SOL    HW232070   1.016   3.616   2.956 -0.7145  0.8741 -0.4637
 6812SOL     OW32071   3.131   1.882   2.326  0.5226  0.0863  0.3726
 6812SOL    HW132072   3.221   1.874   2.358  0.6626  0.0793 -0.0234
 6812SOL    HW232073   3.087   1.838   2.399  1.8886 -2.0293 -0.0744
 6813SOL     OW32074   3.271   1.528   4.201  0.0303  0.1953  0.4149
 6813SOL    HW132075   3.287   1.566   4.287  0.6190 -2.4368  1.4779
 6813SOL    HW232076   3.179   1.553   4.199  0.5647  2.1449  0.4242
 6814SOL     OW32077   3.578   0.863   8.713 -0.1673 -0.3761  0.1263
 6814SOL    HW132078   3.516   0.932   8.735  0.5983  0.2553  0.2690
 6814SOL    HW232079   3.544   0.789   8.764 -0.3232 -0.6726 -0.3989
 6815SOL     OW32080   2.846   0.021   9.046  1.0667  0.0441  0.2673
 6815SOL    HW132081   2.836   4.665   9.024  0.7010  0.4112 -1.0727
 6815SOL    HW232082   2.887   0.016   9.132  0.6610 -1.1582  0.3912
 6816SOL     OW32083   2.552   2.438   3.614 -0.4657 -0.3036 -0.3243
 6816SOL    HW132084   2.457   2.429   3.618 -0.5026  0.5766  0.9173
 6816SOL    HW232085   2.567   2.392   3.532 -1.1085 -1.8293  0.4193
 6817SOL     OW32086   4.578   3.013   0.684 -0.2054 -0.0793  0.4096
 6817SOL    HW132087   4.611   2.928   0.715 -0.7390 -0.7661 -0.8870
 6817SOL    HW232088   4.557   2.998   0.592 -0.7180  2.9508  0.0419
 6818SOL     OW32089   0.942   0.344   1.413 -0.4984 -0.1354 -0.0533
 6818SOL    HW132090   0.925   0.423   1.464  2.3287  0.8154 -0.6078
 6818SOL    HW232091   0.965   0.289   1.488 -1.2754 -0.9411 -0.4076
 6819SOL     OW32092   3.753   1.948   2.793 -0.9543 -0.0419  0.0885
 6819SOL    HW132093   3.812   1.969   2.721 -0.2164  1.7759  1.2194
 6819SOL    HW232094   3.791   1.869   2.833  0.7154  1.0654  0.6933
 6820SOL     OW32095   4.659   0.132   5.928  0.4442 -0.2567 -0.2128
 6820SOL    HW132096   4.635   0.041   5.947 -1.0859  0.4372  1.2552
 6820SOL    HW232097   4.573   0.158   5.893 -0.3174 -1.9983  0.3349
 6821SOL     OW32098   0.096   4.552   3.558 -0.4132  0.1292  0.3769
 6821SOL    HW132099   0.009   4.585   3.541  0.6827  2.8765  0.1435
 6821SOL    HW232100   0.121   4.568   3.467  1.3891 -1.4266  0.5818
 6822SOL     OW32101   3.743   1.794   4.754 -0.2823  0.2462  0.5613
 6822SOL    HW132102   3.822   1.800   4.700 -0.3865  1.6733  0.5608
 6822SOL    HW232103   3.767   1.745   4.832 -2.2598  2.0074  2.2750
 6823SOL     OW32104   4.077   1.898   9.115 -0.5830  0.0366  0.6834
 6823SOL    HW132105   4.012   1.837   9.151  1.4839 -1.4130  1.9691
 6823SOL    HW232106   4.153   1.840   9.121 -1.4819 -1.1327  0.9364
 6824SOL     OW32107   3.900   3.766   7.686 -0.5371 -0.4215 -0.6159
 6824SOL    HW132108   3.952   3.698   7.729 -0.7627 -0.1788  0.0330
 6824SOL    HW232109   3.971   3.814   7.642  0.2119 -0.8928  0.0787
 6825SOL     OW32110   2.441   4.137   7.090 -0.1450 -0.1446 -0.3636
 6825SOL    HW132111   2.493   4.204   7.134 -0.2893 -0.2187 -0.0833
 6825SOL    HW232112   2.492   4.059   7.113 -0.1588  0.5610  2.0011
 6826SOL     OW32113   1.093   1.011   7.362 -0.8868  0.2159  0.3417
 6826SOL    HW132114   1.057   1.082   7.310 -2.1268 -0.7129 -0.0890
 6826SOL    HW232115   1.140   1.072   7.419  0.8528  0.9105 -1.8452
 6827SOL     OW32116   4.519   2.875  11.368 -0.3389  0.2939 -0.5428
 6827SOL    HW132117   4.573   2.872  11.447 -1.5632  0.9798  0.3098
 6827SOL    HW232118   4.438   2.849  11.412 -1.0979  0.5221 -1.8196
 6828SOL     OW32119   2.960   0.845   1.946 -0.2080 -0.3276  0.0527
 6828SOL    HW132120   2.868   0.865   1.934 -0.1939 -1.0092 -1.2204
 6828SOL    HW232121   2.997   0.888   1.869  1.6033  0.7338  1.5305
 6829SOL     OW32122   3.965   2.609   4.275  0.0330 -0.0948 -0.2347
 6829SOL    HW132123   3.877   2.632   4.247 -0.4631  1.1988  2.3849
 6829SOL    HW232124   3.990   2.656   4.354 -1.0417  1.4657 -0.8262
 6830SOL     OW32125   1.432   0.312   7.649  0.4448  0.1050 -0.3071
 6830SOL    HW132126   1.509   0.315   7.706 -1.3356  0.4396  2.0796
 6830SOL    HW232127   1.361   0.317   7.713  0.9381  1.5723  0.1087
 6831SOL     OW32128   4.671   0.289   6.395 -0.3497  0.3182  0.1575
 6831SOL    HW132129   4.619   0.368   6.410  2.2223  2.0372 -0.1214
 6831SOL    HW232130   0.024   0.321   6.388 -0.2518  0.5960  2.8120
 6832SOL     OW32131   0.607   0.380   8.612  0.3483  0.0438 -0.0431
 6832SOL    HW132132   0.682   0.329   8.581 -0.9231 -1.7327 -0.1813
 6832SOL    HW232133   0.657   0.453   8.649  1.3049 -0.4521 -0.3666
 6833SOL     OW32134   3.719   0.323   4.570  0.2871 -0.0797  0.0739
 6833SOL    HW132135   3.782   0.336   4.500  0.8096  1.3916  0.8006
 6833SOL    HW232136   3.735   0.408   4.612 -0.7958 -0.1005  0.5348
 6834SOL     OW32137   3.561   1.817   2.123  0.5504 -0.3582  0.0903
 6834SOL    HW132138   3.533   1.726   2.128  2.3642 -0.8742  1.0287
 6834SOL    HW232139   3.575   1.838   2.216  1.5486 -1.4480  0.1872
 6835SOL     OW32140   4.409   0.807   3.077  0.2406 -0.1277  0.6361
 6835SOL    HW132141   4.320   0.799   3.043  0.7382  0.4026 -0.7581
 6835SOL    HW232142   4.408   0.765   3.164  1.2875 -3.9860 -1.2249
 6836SOL     OW32143   4.018   2.497   5.032 -0.0258  0.5957 -0.1022
 6836SOL    HW132144   4.040   2.544   5.112  0.5230 -0.9771  0.6587
 6836SOL    HW232145   4.104   2.473   5.000 -0.6668 -1.1651 -0.5113
 6837SOL     OW32146   2.128   2.475  16.983 -0.2583 -0.0415 -0.3311
 6837SOL    HW132147   2.086   2.522  16.911 -1.3122  0.4821  0.6242
 6837SOL    HW232148   2.206   2.530  16.980  0.9429 -1.8391 -2.1217
 6838SOL     OW32149   4.216   4.685   2.114  0.4924  0.7386  0.2606
 6838SOL    HW132150   4.311   4.680   2.123  0.3234  1.1310  2.1432
 6838SOL    HW232151   4.192   4.594   2.096 -0.5745  1.5660 -2.5156
 6839SOL     OW32152   3.672   4.430  17.637 -0.1108 -0.1476  0.0302
 6839SOL    HW132153   3.703   4.515  17.606 -2.4701  0.7387  0.1112
 6839SOL    HW232154   3.605   4.460  17.698  0.2444 -1.1632  0.9431
 6840SOL     OW32155   4.635   0.214  11.612  0.3012 -0.5529  0.1834
 6840SOL    HW132156   4.708   0.158  11.585 -0.4350 -1.8876  0.9334
 6840SOL    HW232157   4.582   0.210  11.532  1.6118  2.0604 -0.8041
 6841SOL     OW32158   0.748   4.422   3.397 -0.6871 -0.4070  0.6870
 6841SOL    HW132159   0.754   4.346   3.455  0.8607 -1.2444 -0.5829
 6841SOL    HW232160   0.693   4.474   3.456  0.9977  1.3505  0.7190
 6842SOL     OW32161   4.391   1.902   7.058 -0.6485  0.4795  0.0836
 6842SOL    HW132162   4.304   1.942   7.049 -1.1095 -1.0844 -2.6149
 6842SOL    HW232163   4.448   1.978   7.061  0.9891 -0.7921  0.6952
 6843SOL     OW32164   3.079   4.134   4.605 -0.1802 -0.4823 -0.3035
 6843SOL    HW132165   3.029   4.067   4.650  0.2136 -1.2866 -1.0742
 6843SOL    HW232166   3.147   4.070   4.581  1.3995  1.3300 -0.7346
 6844SOL     OW32167   0.999   3.701  10.339 -0.1799  0.5895  0.8468
 6844SOL    HW132168   1.086   3.733  10.360  0.6795 -1.1150 -0.0589
 6844SOL    HW232169   1.019   3.616  10.299 -1.0228  0.9039 -0.2356
 6845SOL     OW32170   0.419   3.883   5.544 -0.0111 -0.0201  0.0048
 6845SOL    HW132171   0.395   3.790   5.536  0.9249 -0.1162 -1.6215
 6845SOL    HW232172   0.341   3.934   5.520  1.0698  2.6810  2.3398
 6846SOL     OW32173   2.876   3.743   0.491 -0.0522  0.5054  0.5950
 6846SOL    HW132174   2.849   3.782   0.408 -0.7327 -3.4893 -1.0420
 6846SOL    HW232175   2.872   3.821   0.547 -0.5922  0.8232  0.1123
 6847SOL     OW32176   3.564   4.208   7.425  0.6717 -0.3003  0.4545
 6847SOL    HW132177   3.502   4.216   7.498  2.2492  1.0118  1.6530
 6847SOL    HW232178   3.599   4.120   7.439  1.6526 -0.0299 -0.3051
 6848SOL     OW32179   1.579   1.958  12.223 -0.3234 -0.2473  0.2029
 6848SOL    HW132180   1.512   1.915  12.276 -1.8655  1.4209 -0.3941
 6848SOL    HW232181   1.562   2.050  12.243 -1.2492  0.1876 -2.5090
 6849SOL     OW32182   1.937   4.699   8.503  0.0657  0.5035  0.0088
 6849SOL    HW132183   2.014   4.687   8.559  0.2847 -1.4322 -0.7227
 6849SOL    HW232184   1.980   4.688   8.418  2.1250  1.9689  0.8492
 6850SOL     OW32185   2.159   4.672  14.163 -0.0556 -0.4795  0.3031
 6850SOL    HW132186   2.144   4.718  14.081  0.1112  0.2564  0.6855
 6850SOL    HW232187   2.137   0.006  14.225  2.3773  0.2640  0.3078
 6851SOL     OW32188   4.698   1.233   3.998 -0.0274 -0.1184  0.2402
 6851SOL    HW132189   0.045   1.257   3.956 -0.0116 -0.7408 -0.0857
 6851SOL    HW232190   4.679   1.323   4.025 -1.6030 -0.6909  1.0389
 6852SOL     OW32191   4.293   2.922  13.799 -0.1275 -0.7842 -0.1438
 6852SOL    HW132192   4.382   2.956  13.792 -0.4698  0.0870 -0.2871
 6852SOL    HW232193   4.318   2.830  13.806  1.6887 -0.3126 -0.2879
 6853SOL     OW32194   3.847   1.700   8.027 -0.0585  0.1511  0.1518
 6853SOL    HW132195   3.934   1.660   8.021  0.9383  2.7018 -2.2816
 6853SOL    HW232196   3.824   1.658   8.110  0.2149  1.1899  0.7630
 6854SOL     OW32197   2.669   0.656   9.103  0.5856 -0.1834 -0.1634
 6854SOL    HW132198   2.637   0.579   9.150  0.4242  0.7171  1.1905
 6854SOL    HW232199   2.760   0.661   9.131  0.3945  0.8443  0.2972
 6855SOL     OW32200   2.797   3.572   8.074  0.0866 -0.0802  0.0626
 6855SOL    HW132201   2.734   3.621   8.126  0.3911  0.7263 -0.3389
 6855SOL    HW232202   2.782   3.488   8.118  4.2069 -0.0762  1.4205
 6856SOL     OW32203   1.648   3.357  16.380 -0.1826 -0.1517 -0.2669
 6856SOL    HW132204   1.626   3.295  16.312  0.9087  1.5619 -2.1784
 6856SOL    HW232205   1.581   3.425  16.392  2.6228  1.9558  3.5379
 6857SOL     OW32206   2.680   3.841  12.719 -0.1358 -0.1370  0.4595
 6857SOL    HW132207   2.681   3.840  12.815 -0.7255  0.4182  0.4688
 6857SOL    HW232208   2.702   3.750  12.701 -0.2714 -0.0511 -0.1369
 6858SOL     OW32209   1.124   2.734   6.777 -0.7133 -0.1070  0.5233
 6858SOL    HW132210   1.058   2.800   6.755 -0.7031 -0.8522 -1.6994
 6858SOL    HW232211   1.168   2.766   6.856  0.6920 -1.3086  0.2323
 6859SOL     OW32212   1.624   1.250   2.826 -0.5335 -0.4666  0.0901
 6859SOL    HW132213   1.634   1.173   2.771 -0.9702 -0.6172  0.2215
 6859SOL    HW232214   1.690   1.234   2.893 -0.8393 -1.3407  0.1799
 6860SOL     OW32215   2.678   1.643  12.428 -0.1308  0.1993 -0.0691
 6860SOL    HW132216   2.699   1.625  12.336 -0.4428  1.0336 -0.3002
 6860SOL    HW232217   2.654   1.735  12.437 -0.5037 -0.0589  1.5594
 6861SOL     OW32218   2.180   1.561   3.547  0.1456 -0.1510 -0.1911
 6861SOL    HW132219   2.150   1.598   3.464  0.5559  3.2302  1.1556
 6861SOL    HW232220   2.099   1.531   3.589 -1.6232  0.9195 -2.8280
 6862SOL     OW32221   1.435   3.702   5.033 -0.1157  0.3690 -0.0392
 6862SOL    HW132222   1.417   3.662   5.118 -0.1804  0.4903  0.0052
 6862SOL    HW232223   1.467   3.787   5.063 -1.4303  0.3609  1.3696
 6863SOL     OW32224   3.708   3.300   8.004 -0.0309  0.4797 -0.2838
 6863SOL    HW132225   3.722   3.259   7.919  1.0493 -0.2068  0.2402
 6863SOL    HW232226   3.776   3.367   7.994 -0.2303  0.9542  1.4610
 6864SOL     OW32227   4.215   2.416   5.952  0.3916 -0.7145  0.2824
 6864SOL    HW132228   4.274   2.347   5.923  0.5242 -0.4124 -0.1801
 6864SOL    HW232229   4.241   2.492   5.899 -1.2795 -0.0490  0.3915
 6865SOL     OW32230   2.242   3.458  10.518  0.3859 -0.7259 -0.1027
 6865SOL    HW132231   2.240   3.459  10.614  2.7036  0.2408 -0.0503
 6865SOL    HW232232   2.289   3.376  10.508 -0.2071 -1.3045  1.8232
 6866SOL     OW32233   1.721   1.571   1.517  0.0017 -0.3215  0.1224
 6866SOL    HW132234   1.745   1.530   1.434 -0.7791  0.0629 -0.2925
 6866SOL    HW232235   1.712   1.658   1.479 -0.2724  0.1918  1.3440
 6867SOL     OW32236   2.557   3.291  12.451 -0.4476 -0.7730 -0.3142
 6867SOL    HW132237   2.648   3.280  12.424  0.2041 -0.9523  1.9358
 6867SOL    HW232238   2.559   3.379  12.490 -1.9618  0.1441 -2.3354
 6868SOL     OW32239   2.251   0.353   1.842  0.1851  0.0225  0.6462
 6868SOL    HW132240   2.300   0.386   1.917  0.3326 -1.4910  1.2049
 6868SOL    HW232241   2.200   0.426   1.805 -2.2003 -0.0762  3.7478
 6869SOL     OW32242   3.483   3.027   6.605  0.5114 -0.6377 -0.0942
 6869SOL    HW132243   3.427   2.963   6.562  2.5664 -0.6081 -2.8005
 6869SOL    HW232244   3.522   2.973   6.673  1.8658  0.2051 -0.2009
 6870SOL     OW32245   2.640   2.254   1.958 -0.9255  0.2735  0.0437
 6870SOL    HW132246   2.696   2.177   1.968 -0.0467  1.0575  1.1499
 6870SOL    HW232247   2.598   2.226   1.876  0.3146 -0.3792 -0.3723
 6871SOL     OW32248   3.534   2.745   3.941 -0.1513  0.1473  0.2428
 6871SOL    HW132249   3.552   2.680   3.874  1.5548 -0.2447  1.0739
 6871SOL    HW232250   3.450   2.713   3.973  1.0460  0.6946  3.9601
 6872SOL     OW32251   3.547   2.082  13.395 -0.4033 -0.3161 -0.6088
 6872SOL    HW132252   3.593   2.044  13.320 -1.4107 -2.7375  0.0218
 6872SOL    HW232253   3.579   2.171  13.380  1.5699 -1.0772 -0.9609
 6873SOL     OW32254   2.290   4.593   2.873 -0.1887  0.4568  0.1001
 6873SOL    HW132255   2.217   4.578   2.813  1.0164 -2.3327 -0.6247
 6873SOL    HW232256   2.346   4.518   2.855  0.2493  0.6644  0.6116
 6874SOL     OW32257   4.167   3.502   0.235  0.3266 -0.2155 -0.0324
 6874SOL    HW132258   4.249   3.456   0.254  1.4747  1.7687 -0.2135
 6874SOL    HW232259   4.123   3.444   0.173  0.3364 -1.6332  1.2932
 6875SOL     OW32260   2.489   2.761   3.580  0.3586 -0.3936  0.2882
 6875SOL    HW132261   2.402   2.734   3.551  0.0953  1.0295 -0.2582
 6875SOL    HW232262   2.522   2.674   3.601  1.1019 -0.4754 -1.2874
 6876SOL     OW32263   0.896   4.459   5.948 -0.5836 -0.0168  0.5335
 6876SOL    HW132264   0.819   4.514   5.961  0.3542  1.2870  0.5609
 6876SOL    HW232265   0.859   4.400   5.882  0.2786  0.6119 -0.5101
 6877SOL     OW32266   3.580   1.272   7.099 -0.2992  0.2022 -0.1175
 6877SOL    HW132267   3.530   1.347   7.067 -0.1887  0.0748 -0.5818
 6877SOL    HW232268   3.552   1.193   7.052 -2.5046  3.0567 -3.5568
 6878SOL     OW32269   4.093   2.566   1.578  0.6523 -0.1793  0.6347
 6878SOL    HW132270   4.057   2.528   1.658  0.4664  0.4626  0.8567
 6878SOL    HW232271   4.182   2.530   1.583  0.1474 -1.7820 -1.5621
 6879SOL     OW32272   1.615   1.270   7.612  0.1701 -0.5052 -0.2605
 6879SOL    HW132273   1.678   1.199   7.600 -1.5188 -1.8793 -0.9623
 6879SOL    HW232274   1.614   1.277   7.708 -2.8719 -1.0632 -0.2573
 6880SOL     OW32275   2.121   0.752   2.049  0.2042 -0.8252  0.2339
 6880SOL    HW132276   2.147   0.834   2.090  0.1847 -0.2845 -0.8195
 6880SOL    HW232277   2.174   0.750   1.969  0.5672  1.0527  0.4310
 6881SOL     OW32278   3.484   4.210   5.338 -0.1631 -0.2491 -0.1375
 6881SOL    HW132279   3.471   4.168   5.423 -3.1782  3.0325  1.0105
 6881SOL    HW232280   3.456   4.134   5.286  0.6748 -1.7131  1.5448
 6882SOL     OW32281   3.630   3.730   5.517 -0.0124  0.3403  0.4001
 6882SOL    HW132282   3.663   3.700   5.601  2.5905  0.1869 -0.6840
 6882SOL    HW232283   3.539   3.721   5.546  0.0868 -0.2643  0.5143
 6883SOL     OW32284   1.749   4.198   7.250 -0.2167 -0.7693 -0.2085
 6883SOL    HW132285   1.779   4.198   7.159  0.4269 -0.0490  0.0055
 6883SOL    HW232286   1.773   4.107   7.267 -1.3687 -0.8684  0.8772
 6884SOL     OW32287   2.776   3.669   2.721  0.3873  0.5637 -0.0014
 6884SOL    HW132288   2.785   3.731   2.794  0.7068 -1.8549  2.0293
 6884SOL    HW232289   2.762   3.591   2.774  4.5055 -0.4742 -0.4471
 6885SOL     OW32290   3.023   0.807   0.755 -0.0054  0.0835  0.2331
 6885SOL    HW132291   3.021   0.894   0.794  0.2249  0.4256 -0.5168
 6885SOL    HW232292   3.091   0.760   0.804 -0.0729 -0.4076 -0.1480
 6886SOL     OW32293   2.620   4.444   1.482 -0.2195  0.2505  0.6440
 6886SOL    HW132294   2.616   4.516   1.545 -0.0507  0.1540  0.7650
 6886SOL    HW232295   2.525   4.430   1.478 -0.0578 -1.4620  2.7002
 6887SOL     OW32296   0.781   2.383  11.685 -0.3336 -0.6705 -0.2898
 6887SOL    HW132297   0.811   2.472  11.702 -0.9790 -0.5871  0.4057
 6887SOL    HW232298   0.723   2.359  11.757  0.0334  0.9852  0.5714
 6888SOL     OW32299   2.243   0.016   7.149 -0.0670  0.2335 -0.5482
 6888SOL    HW132300   2.237   4.668   7.105 -0.6699 -0.9453  1.8220
 6888SOL    HW232301   2.334   0.016   7.179 -0.2404 -1.5721 -0.0113
 6889SOL     OW32302   0.895   1.144   5.919 -0.1624 -0.0833 -0.2615
 6889SOL    HW132303   0.822   1.147   5.858 -1.1577  0.2095  0.9485
 6889SOL    HW232304   0.942   1.066   5.889 -1.6509 -1.0609 -0.0506
 6890SOL     OW32305   2.288   4.323   9.778 -0.3939 -0.5743  0.0711
 6890SOL    HW132306   2.320   4.396   9.726  0.0377 -0.5500  0.3699
 6890SOL    HW232307   2.247   4.271   9.709 -0.0080 -2.3375  1.1424
 6891SOL     OW32308   2.403   0.220   6.489 -0.1409 -0.1596 -0.5667
 6891SOL    HW132309   2.396   0.148   6.427 -0.6749 -3.3605  3.2079
 6891SOL    HW232310   2.337   0.280   6.454  0.4548  0.4498 -0.6229
 6892SOL     OW32311   3.263   1.727   8.628  0.1589 -0.5342  0.4912
 6892SOL    HW132312   3.337   1.768   8.673 -1.0443  2.1393  0.0615
 6892SOL    HW232313   3.298   1.641   8.606  0.2968 -0.4044  0.2026
 6893SOL     OW32314   2.140   4.498   5.958 -0.0314  0.0495 -0.3619
 6893SOL    HW132315   2.200   4.424   5.961 -0.6351 -0.3382  2.0821
 6893SOL    HW232316   2.083   4.458   6.024  3.5575 -2.7947  0.9987
 6894SOL     OW32317   3.816   3.227  17.661 -0.0103  0.0958 -0.8389
 6894SOL    HW132318   3.781   3.269  17.583 -0.9900  2.6786  0.9851
 6894SOL    HW232319   3.778   3.139  17.668 -2.2423  1.2933  2.1831
 6895SOL     OW32320   0.650   0.516   3.274 -0.4006  0.5779  0.3140
 6895SOL    HW132321   0.680   0.601   3.307 -1.7159  1.4324 -0.6897
 6895SOL    HW232322   0.660   0.461   3.352  0.3409 -1.4970 -1.2226
 6896SOL     OW32323   4.597   1.929   0.721  0.3952  0.2573 -0.4614
 6896SOL    HW132324   4.597   1.989   0.647  0.9255  1.6668  0.6666
 6896SOL    HW232325   4.668   1.869   0.698  0.1164 -0.5909  0.8399
 6897SOL     OW32326   2.567   2.920   3.058 -0.1804  0.3404 -0.1092
 6897SOL    HW132327   2.637   2.893   2.998 -0.0194  0.0480  0.2138
 6897SOL    HW232328   2.603   2.889   3.141  0.3837  0.8569 -0.1588
 6898SOL     OW32329   0.803   3.785  13.159 -0.1486  0.1145  0.0239
 6898SOL    HW132330   0.821   3.852  13.093  0.2076 -1.8460 -1.8730
 6898SOL    HW232331   0.740   3.834  13.212 -0.9534  1.1037 -1.8439
 6899SOL     OW32332   2.400   3.734  13.867 -0.0071 -0.0942 -0.3315
 6899SOL    HW132333   2.347   3.790  13.923 -1.7622 -0.7783 -1.3264
 6899SOL    HW232334   2.490   3.730  13.901 -0.7248  0.5280  1.6545
 6900SOL     OW32335   2.851   4.735   3.741 -0.5420 -0.3900 -0.3980
 6900SOL    HW132336   2.856   0.054   3.663 -0.2371  1.8540  1.2147
 6900SOL    HW232337   2.896   4.655   3.716 -0.8001 -0.5497 -0.3519
 6901SOL     OW32338   2.562   4.082   7.409  0.0269  0.2663  0.0421
 6901SOL    HW132339   2.578   4.159   7.356 -0.7786  0.1899 -0.3198
 6901SOL    HW232340   2.616   4.102   7.485  0.4906  0.8867 -0.4649
 6902SOL     OW32341   2.664   2.930   0.615 -0.1647  0.8337  0.2057
 6902SOL    HW132342   2.689   2.890   0.698 -2.6707 -1.0269  0.0516
 6902SOL    HW232343   2.745   2.922   0.564 -0.0837  0.7097  0.3546
 6903SOL     OW32344   4.310   4.221  10.255 -0.1757  0.2594 -0.3667
 6903SOL    HW132345   4.224   4.195  10.289 -0.1253 -0.3443 -0.6938
 6903SOL    HW232346   4.337   4.297  10.305  2.6716 -1.1549  0.2225
 6904SOL     OW32347   1.077   0.010  17.484  0.5442  0.2904 -0.1166
 6904SOL    HW132348   1.001   0.007  17.542 -0.2599 -3.5682 -1.3978
 6904SOL    HW232349   1.085   4.652  17.474 -1.0678  0.2404 -0.9321
 6905SOL     OW32350   3.513   1.753   0.736  0.5344  0.1866  1.6258
 6905SOL    HW132351   3.424   1.778   0.759 -0.2197  0.5875 -1.7901
 6905SOL    HW232352   3.548   1.839   0.710 -2.9384  0.2542 -2.8294
 6906SOL     OW32353   0.211   3.511  14.033 -0.3127  0.0491 -0.2264
 6906SOL    HW132354   0.238   3.532  13.944 -0.3919  2.0900  0.2168
 6906SOL    HW232355   0.234   3.419  14.029 -0.2852  0.0381  0.1755
 6907SOL     OW32356   4.064   3.286   3.689  0.1790  0.4217  0.7732
 6907SOL    HW132357   4.138   3.338   3.659  1.9779 -3.4107 -1.4484
 6907SOL    HW232358   3.989   3.343   3.672  0.6712  1.0809  0.8005
 6908SOL     OW32359   1.176   0.521   4.654 -0.1633  0.1574  0.2477
 6908SOL    HW132360   1.200   0.614   4.644 -1.9906  0.5823 -0.1999
 6908SOL    HW232361   1.117   0.521   4.729  0.4563 -1.7788  0.7141
 6909SOL     OW32362   4.330   4.188   9.985  0.1674 -0.0603 -0.2691
 6909SOL    HW132363   4.321   4.206  10.079  2.5917  2.6730 -0.5921
 6909SOL    HW232364   4.414   4.143   9.987 -1.7360 -3.6436 -0.6376
 6910SOL     OW32365   1.666   3.223   4.258 -0.1331 -0.3149  0.0890
 6910SOL    HW132366   1.571   3.215   4.251 -0.3317  1.6940  0.3242
 6910SOL    HW232367   1.676   3.188   4.346 -0.0150 -1.8485 -0.5407
 6911SOL     OW32368   3.553   3.921  11.226 -0.6381  0.2325  0.2549
 6911SOL    HW132369   3.623   3.985  11.240 -0.4071 -0.1936  1.0299
 6911SOL    HW232370   3.476   3.973  11.247 -0.3769  0.3702  0.8667
 6912SOL     OW32371   0.878   4.431   8.114 -0.2569 -0.1097 -1.3176
 6912SOL    HW132372   0.974   4.433   8.105 -0.3133  2.4044 -1.5133
 6912SOL    HW232373   0.860   4.523   8.096  1.1720  0.3602 -0.4223
 6913SOL     OW32374   3.338   4.390   9.644 -0.2497  0.0241 -0.1482
 6913SOL    HW132375   3.298   4.474   9.668 -0.6055  0.2407 -1.4480
 6913SOL    HW232376   3.280   4.334   9.696  1.3994 -0.5642  1.0249
 6914SOL     OW32377   4.329   1.390   3.312 -0.4113  0.4138 -0.5550
 6914SOL    HW132378   4.365   1.351   3.392 -1.3694  0.4463 -0.1070
 6914SOL    HW232379   4.374   1.338   3.246 -1.1082 -0.1030 -0.6217
 6915SOL     OW32380   4.082   0.155   2.055  0.3369  0.1339 -0.1701
 6915SOL    HW132381   4.139   0.082   2.076 -0.1515  0.8356  3.6249
 6915SOL    HW232382   4.001   0.141   2.103  0.6882  1.2638  0.7500
 6916SOL     OW32383   4.726   2.331   0.688  0.6848  0.6003 -0.5288
 6916SOL    HW132384   4.699   2.389   0.616 -1.7740  0.7345  0.4952
 6916SOL    HW232385   0.079   2.362   0.702  0.8794  0.0966 -0.6610
 6917SOL     OW32386   3.594   2.883   3.133 -0.3742  0.3751  0.7049
 6917SOL    HW132387   3.641   2.967   3.135  1.9866 -0.9645  1.2357
 6917SOL    HW232388   3.535   2.892   3.208  0.3211 -2.7241  1.5882
 6918SOL     OW32389   1.101   0.446  13.427 -0.6856 -0.1613 -0.2556
 6918SOL    HW132390   1.146   0.529  13.439  0.4245 -1.0837  2.0390
 6918SOL    HW232391   1.158   0.391  13.373 -0.0319  0.0004  0.2745
 6919SOL     OW32392   4.474   0.598   7.434 -0.1677  0.1275  0.3320
 6919SOL    HW132393   4.545   0.619   7.374 -1.4850  1.8112 -0.6451
 6919SOL    HW232394   4.405   0.615   7.370 -0.0798 -1.7711 -0.2572
 6920SOL     OW32395   1.016   4.096   4.036  0.5138 -0.0873 -0.2185
 6920SOL    HW132396   1.089   4.146   4.073 -0.9558  0.3036  2.1185
 6920SOL    HW232397   1.047   4.006   4.024 -1.1766 -0.8335  1.0657
 6921SOL     OW32398   2.680   0.059   3.070  0.2644  0.1667 -0.2661
 6921SOL    HW132399   2.728   0.085   2.991  0.2486 -1.8774 -0.9449
 6921SOL    HW232400   2.588   0.064   3.045  0.1454  0.1231  0.1676
 6922SOL     OW32401   0.392   0.086  11.113 -0.1684  0.1617  0.4071
 6922SOL    HW132402   0.443   0.005  11.116  0.1359  0.1490 -5.0410
 6922SOL    HW232403   0.365   0.090  11.205 -0.2835  1.2421  0.3262
 6923SOL     OW32404   0.334   1.795   1.952  0.5541  0.0777  0.3559
 6923SOL    HW132405   0.412   1.739   1.961  0.2516 -0.4524 -0.3454
 6923SOL    HW232406   0.358   1.853   1.879  0.4687  1.0287  1.0856
 6924SOL     OW32407   1.787   1.069   8.436 -0.0299  0.3471 -0.5449
 6924SOL    HW132408   1.780   1.101   8.526 -1.1875 -0.8565 -0.2170
 6924SOL    HW232409   1.825   1.141   8.386  1.2168 -0.0782 -0.2152
 6925SOL     OW32410   1.612   0.881   8.658 -0.1785 -0.1574 -0.0891
 6925SOL    HW132411   1.581   0.935   8.731  0.4713  0.5938 -0.3724
 6925SOL    HW232412   1.705   0.899   8.670  0.0837 -1.6149  0.0344
 6926SOL     OW32413   2.038   2.950   2.376 -0.3135  0.1935 -0.1493
 6926SOL    HW132414   2.080   2.911   2.300 -2.5103 -1.4465 -0.5083
 6926SOL    HW232415   1.957   2.899   2.381 -1.9256  2.9079  1.8827
 6927SOL     OW32416   2.455   0.048   0.688  0.8212 -0.0790  0.0186
 6927SOL    HW132417   2.426   0.139   0.683 -0.8395 -0.6453 -0.8332
 6927SOL    HW232418   2.515   0.056   0.762 -0.5245 -0.5170  1.1633
 6928SOL     OW32419   0.424   0.762  15.063 -0.5296 -0.2052 -1.1987
 6928SOL    HW132420   0.433   0.857  15.063 -1.7768 -0.0662  0.7969
 6928SOL    HW232421   0.350   0.739  15.008 -0.1508  0.7830 -2.1048
 6929SOL     OW32422   4.278   0.051  14.689 -0.2695 -0.9884 -0.6668
 6929SOL    HW132423   4.345   0.076  14.625  0.3409 -0.5594  0.1459
 6929SOL    HW232424   4.215   0.122  14.680 -0.1353 -0.7488  0.3403
 6930SOL     OW32425   4.493   4.645   2.137  0.1007 -0.8780  0.1097
 6930SOL    HW132426   4.531   4.633   2.050  2.5178  0.6753  0.9420
 6930SOL    HW232427   4.571   4.668   2.187 -0.3136  0.9974 -0.0831
 6931SOL     OW32428   3.024   2.065   7.407 -0.3265 -0.0976 -0.5413
 6931SOL    HW132429   3.025   1.973   7.433 -1.1294  0.5129  1.6238
 6931SOL    HW232430   3.113   2.098   7.423 -0.4620 -0.8049  1.6728
 6932SOL     OW32431   2.877   2.034   2.530 -0.0868  0.1451 -1.0070
 6932SOL    HW132432   2.887   2.116   2.578  1.4058 -0.6815  0.0981
 6932SOL    HW232433   2.861   2.051   2.437  0.9150  0.0528 -1.2051
 6933SOL     OW32434   2.543   2.050   9.828 -0.2243  0.1584  0.9674
 6933SOL    HW132435   2.490   2.119   9.869 -2.2426 -0.1931 -1.1017
 6933SOL    HW232436   2.589   2.109   9.769 -0.0555  0.7477  1.6883
 6934SOL     OW32437   1.915   0.179   1.058 -0.4099 -0.2769 -0.4512
 6934SOL    HW132438   1.966   0.173   1.139 -0.1571  0.2941 -0.5679
 6934SOL    HW232439   1.851   0.110   1.078 -0.1399  0.5424  3.2815
 6935SOL     OW32440   0.540   2.374   7.295  0.2365  0.1537 -0.2442
 6935SOL    HW132441   0.616   2.432   7.292  0.4754 -0.1637 -0.2997
 6935SOL    HW232442   0.544   2.344   7.204  0.7878  1.5253 -0.6711
 6936SOL     OW32443   4.045   4.611   8.104 -0.1903  0.2240 -0.2961
 6936SOL    HW132444   4.054   4.682   8.168 -2.7964  0.3578 -0.0985
 6936SOL    HW232445   4.069   4.650   8.019 -1.0927 -2.1851 -1.6358
 6937SOL     OW32446   1.436   2.322  17.309 -0.4365  0.3089  0.1028
 6937SOL    HW132447   1.527   2.297  17.325  0.1940  1.0755 -2.2427
 6937SOL    HW232448   1.416   2.253  17.246 -1.2580  0.6369  0.0059
 6938SOL     OW32449   4.426   0.023   4.276 -0.1318  0.1790 -0.2442
 6938SOL    HW132450   4.474   0.105   4.287 -0.1073  0.2952 -1.1694
 6938SOL    HW232451   4.362   0.049   4.210  0.3065  0.7766 -0.4401
 6939SOL     OW32452   0.458   4.097   4.027  0.3468  0.2929 -0.1420
 6939SOL    HW132453   0.418   4.180   4.000  0.9088  0.6545  0.1432
 6939SOL    HW232454   0.545   4.123   4.056  0.1552  0.1742  0.5296
 6940SOL     OW32455   2.999   1.156  10.635  0.5076  0.4794  0.0997
 6940SOL    HW132456   3.037   1.184  10.718  1.5853  0.0052 -0.2281
 6940SOL    HW232457   3.060   1.180  10.565  0.4108  1.1599  0.2446
 6941SOL     OW32458   0.893   2.252   8.067  0.1312 -0.0996 -0.0507
 6941SOL    HW132459   0.950   2.263   7.990 -1.1396  2.4140 -0.6287
 6941SOL    HW232460   0.953   2.203   8.124  0.3807  1.4392  1.0249
 6942SOL     OW32461   1.778   0.834   8.169  0.4858  0.4265  0.6261
 6942SOL    HW132462   1.731   0.914   8.144  0.8122  1.2219  2.5568
 6942SOL    HW232463   1.847   0.856   8.231  1.9910  2.4912 -1.7845
 6943SOL     OW32464   0.418   1.037  15.029  0.4783 -0.3097 -0.3415
 6943SOL    HW132465   0.485   1.102  15.049  0.3923 -1.1015  2.5407
 6943SOL    HW232466   0.357   1.050  15.102  1.5715 -0.4098  0.5725
 6944SOL     OW32467   0.944   3.836  17.734 -0.3329  0.0316 -0.1636
 6944SOL    HW132468   0.972   3.898  17.666  1.0855  0.7757  1.0988
 6944SOL    HW232469   0.849   3.846  17.742 -0.2424  1.3644 -0.8168
 6945SOL     OW32470   1.937   0.307  13.272 -0.2585 -0.7202 -0.2606
 6945SOL    HW132471   1.900   0.243  13.332  0.3513  1.4706  2.4706
 6945SOL    HW232472   1.862   0.327  13.216  1.0104  2.2228 -0.9359
 6946SOL     OW32473   3.214   4.539  17.010 -0.6634 -0.6526  0.1667
 6946SOL    HW132474   3.299   4.523  17.049 -0.8191 -0.2240  0.6863
 6946SOL    HW232475   3.223   4.489  16.929 -2.0416 -0.4451 -0.1119
 6947SOL     OW32476   2.564   2.471   8.225 -0.4754 -0.3029  0.4843
 6947SOL    HW132477   2.473   2.498   8.213 -0.0985  0.8862  0.2915
 6947SOL    HW232478   2.584   2.504   8.312 -3.2346  1.8459  0.2998
 6948SOL     OW32479   3.919   3.876   5.964 -0.4715  0.0276 -0.3400
 6948SOL    HW132480   3.855   3.944   5.947  1.4467  1.6804 -0.9288
 6948SOL    HW232481   3.897   3.855   6.055  0.3088 -1.2577 -0.4318
 6949SOL     OW32482   2.268   1.570   6.836 -0.0256 -0.1109  0.3651
 6949SOL    HW132483   2.288   1.498   6.775  0.1344  1.0143 -0.9181
 6949SOL    HW232484   2.212   1.515   6.891 -1.7282 -0.3482 -1.5591
 6950SOL     OW32485   4.709   1.767   7.228  0.0120  0.1848 -0.0665
 6950SOL    HW132486   4.683   1.848   7.182  0.5579  2.3455  3.4600
 6950SOL    HW232487   4.731   1.804   7.313  2.0997 -0.2279 -0.4407
 6951SOL     OW32488   0.472   0.879  17.667 -0.3434  0.4538 -0.6355
 6951SOL    HW132489   0.426   0.867  17.584 -1.3823 -0.0337  0.0032
 6951SOL    HW232490   0.520   0.796  17.667 -1.0545  0.0363 -0.3067
 6952SOL     OW32491   3.329   3.067   7.908  0.4523  0.0422  0.1478
 6952SOL    HW132492   3.373   3.135   7.960 -2.0826 -0.1055  2.4641
 6952SOL    HW232493   3.298   3.002   7.971 -1.1367  0.2085 -0.4630
 6953SOL     OW32494   2.130   0.329  16.368  0.2483  0.0490 -0.2143
 6953SOL    HW132495   2.192   0.264  16.400  0.4255 -0.4647 -1.5889
 6953SOL    HW232496   2.089   0.272  16.304 -1.1561  1.0840 -0.2412
 6954SOL     OW32497   0.250   1.088   7.805  0.0001 -0.0740 -0.2680
 6954SOL    HW132498   0.187   1.053   7.867  0.8139  0.4920  0.8655
 6954SOL    HW232499   0.327   1.109   7.858 -0.7769 -1.4482  1.3706
 6955SOL     OW32500   2.844   2.657  11.686 -0.9188 -0.6505 -0.6385
 6955SOL    HW132501   2.774   2.621  11.741 -0.0098 -0.4419  0.6530
 6955SOL    HW232502   2.845   2.589  11.618 -0.1960  0.7735 -2.0247
 6956SOL     OW32503   1.143   3.077   1.995  0.0991  0.4708 -0.3920
 6956SOL    HW132504   1.156   3.043   1.906  0.1839 -0.8922  0.1409
 6956SOL    HW232505   1.051   3.063   2.015 -0.1156  0.2447 -1.5259
 6957SOL     OW32506   0.668   3.085   3.253 -0.3354 -0.0097  0.5111
 6957SOL    HW132507   0.702   3.118   3.336 -1.9879 -1.2882  1.6955
 6957SOL    HW232508   0.741   3.042   3.209  0.3219 -0.3900  1.9821
 6958SOL     OW32509   4.736   2.984   3.491 -0.1012 -0.3681 -0.6642
 6958SOL    HW132510   0.069   3.049   3.494  0.3627 -0.8076 -1.7612
 6958SOL    HW232511   4.688   3.005   3.411 -4.6128  3.9247  3.1683
 6959SOL     OW32512   2.862   4.053   5.439  0.2729 -0.5323 -0.3559
 6959SOL    HW132513   2.858   4.052   5.343  0.2234  0.8718 -0.3667
 6959SOL    HW232514   2.800   3.983   5.462  0.7801 -0.8654 -0.0079
 6960SOL     OW32515   0.952   1.667   3.263  0.9614 -0.2599 -0.1295
 6960SOL    HW132516   0.992   1.724   3.198  0.6587  0.8509  0.6451
 6960SOL    HW232517   1.016   1.598   3.275  1.3152  0.0870 -0.0178
 6961SOL     OW32518   0.824   4.672   4.805 -0.0386 -0.4336 -0.2799
 6961SOL    HW132519   0.779   4.681   4.889  0.9222  1.8674 -0.0244
 6961SOL    HW232520   0.871   4.591   4.823  1.6179  0.7129  0.5575
 6962SOL     OW32521   1.461   1.370  14.862  0.1905  0.1504  0.5894
 6962SOL    HW132522   1.505   1.329  14.937  0.4449 -1.8285 -0.6239
 6962SOL    HW232523   1.531   1.375  14.797 -0.8692  0.1110 -0.5459
 6963SOL     OW32524   1.146   1.857   4.405 -0.0770  0.0649 -0.1997
 6963SOL    HW132525   1.115   1.824   4.490  1.7200 -1.3527 -0.0929
 6963SOL    HW232526   1.218   1.798   4.382 -0.8412 -1.2650  0.7670
 6964SOL     OW32527   1.794   0.544  13.503  0.8546  0.3889  0.1793
 6964SOL    HW132528   1.809   0.559  13.410  0.3412 -0.3365 -0.0257
 6964SOL    HW232529   1.703   0.570  13.515  1.1604  1.6938 -0.4094
 6965SOL     OW32530   2.348   3.606   4.862  0.2725 -0.1174 -0.0736
 6965SOL    HW132531   2.414   3.606   4.932  2.2052  1.9224 -1.9066
 6965SOL    HW232532   2.265   3.601   4.909  0.1705 -1.6010 -0.3949
 6966SOL     OW32533   1.286   0.275  15.579  0.1009 -0.0269  0.5624
 6966SOL    HW132534   1.324   0.343  15.634  3.0549  0.0315 -1.5832
 6966SOL    HW232535   1.368   0.228  15.562 -0.8162 -1.8453  1.1593
 6967SOL     OW32536   1.589   2.723   3.447 -0.4450 -0.3396  0.3700
 6967SOL    HW132537   1.570   2.780   3.372 -0.8372 -0.1783  0.5937
 6967SOL    HW232538   1.673   2.758   3.477  1.8801 -3.2651 -2.6176
 6968SOL     OW32539   0.368   1.858   3.647 -0.1378  0.1562 -0.0558
 6968SOL    HW132540   0.287   1.878   3.693  0.0588 -1.6152  1.0472
 6968SOL    HW232541   0.391   1.951   3.638  2.5844 -0.4307  0.9102
 6969SOL     OW32542   2.483   0.744   8.710  0.3974  0.1006 -0.1330
 6969SOL    HW132543   2.512   0.669   8.762  0.7985 -0.1541 -0.7270
 6969SOL    HW232544   2.446   0.801   8.778  0.2903  1.5985 -1.4513
 6970SOL     OW32545   4.611   1.414  12.792  0.9731  0.0178 -0.5512
 6970SOL    HW132546   4.684   1.360  12.821 -0.6376 -1.6396  0.4216
 6970SOL    HW232547   4.565   1.362  12.727  2.2529 -1.3995 -0.3079
 6971SOL     OW32548   1.229   2.723   8.199  0.0415 -0.2570 -0.1926
 6971SOL    HW132549   1.241   2.793   8.263 -2.0200  1.0802 -1.2951
 6971SOL    HW232550   1.134   2.724   8.189  0.1993  3.2569 -1.4100
 6972SOL     OW32551   4.094   0.530   7.987 -0.3782 -0.4925  0.4542
 6972SOL    HW132552   3.999   0.539   7.978 -0.0840  0.1050 -2.0604
 6972SOL    HW232553   4.130   0.587   7.919 -0.7611  0.9553  1.4656
 6973SOL     OW32554   3.857   1.060   6.659  0.6741 -0.0241 -0.0821
 6973SOL    HW132555   3.855   1.084   6.566 -0.2770  0.0056 -0.0449
 6973SOL    HW232556   3.938   1.101   6.690  1.6078 -2.5559  0.7954
 6974SOL     OW32557   3.775   2.359   3.983  0.0743  0.6264 -0.8273
 6974SOL    HW132558   3.795   2.308   4.062  1.7935  4.5295  1.2458
 6974SOL    HW232559   3.762   2.448   4.015 -1.1734  0.8894 -2.1044
 6975SOL     OW32560   2.589   3.366   7.462 -0.0735  0.5302  0.0860
 6975SOL    HW132561   2.672   3.399   7.426 -0.9029  0.6953 -1.6738
 6975SOL    HW232562   2.609   3.273   7.475 -2.2385  0.4778  2.8326
 6976SOL     OW32563   2.471   2.801   6.444 -0.2290 -0.0393  0.6732
 6976SOL    HW132564   2.542   2.794   6.381 -2.4489  0.5300 -1.9005
 6976SOL    HW232565   2.499   2.878   6.492  0.7034  0.2041 -0.2845
 6977SOL     OW32566   1.783   4.057   7.682 -0.4978  0.0999 -0.1141
 6977SOL    HW132567   1.781   4.030   7.774  1.9103  1.2376  0.2683
 6977SOL    HW232568   1.798   3.974   7.637  1.9961 -0.4380  1.6823
 6978SOL     OW32569   0.961   1.610   3.532  1.1703  0.1719 -0.6355
 6978SOL    HW132570   0.950   1.697   3.571  2.4561 -0.8727  2.1015
 6978SOL    HW232571   0.917   1.631   3.450  0.3932  0.1057 -0.2417
 6979SOL     OW32572   3.573   3.664   7.212 -0.2873  0.7322  0.5122
 6979SOL    HW132573   3.515   3.608   7.265  1.3542 -0.0253  1.5019
 6979SOL    HW232574   3.523   3.744   7.226 -0.3405  1.0029 -1.2276
 6980SOL     OW32575   3.603   1.156   5.680  0.3535 -0.5531 -0.3591
 6980SOL    HW132576   3.524   1.144   5.628 -0.0801 -0.6415  0.3253
 6980SOL    HW232577   3.569   1.175   5.767 -0.9194  0.9891 -1.2126
 6981SOL     OW32578   1.709   0.496   7.520 -0.3843 -0.1139 -0.4261
 6981SOL    HW132579   1.739   0.515   7.431  1.2870  2.1400  0.5923
 6981SOL    HW232580   1.630   0.446   7.502  1.2688 -2.1306 -2.0435
 6982SOL     OW32581   4.463   4.236   4.811 -0.1471  0.1488 -0.1307
 6982SOL    HW132582   4.498   4.294   4.879 -1.0609 -0.2962  0.7197
 6982SOL    HW232583   4.484   4.278   4.728  2.0512 -1.0398 -0.1493
 6983SOL     OW32584   1.242   2.141  11.499 -0.7797 -0.2579  0.4763
 6983SOL    HW132585   1.160   2.155  11.547 -0.0114  1.3019  1.3113
 6983SOL    HW232586   1.218   2.149  11.406  0.5171 -3.1988 -0.1156
 6984SOL     OW32587   1.333   1.690   7.547 -0.0445 -0.4070 -0.2588
 6984SOL    HW132588   1.380   1.703   7.465  1.6215 -2.5613  0.3728
 6984SOL    HW232589   1.258   1.751   7.547  1.8054  1.8805  1.6457
 6985SOL     OW32590   1.254   3.239   1.608  0.1630 -0.0382 -1.0345
 6985SOL    HW132591   1.242   3.288   1.690 -0.1437 -1.4717 -0.2261
 6985SOL    HW232592   1.240   3.150   1.641  0.4542  0.3114  0.0330
 6986SOL     OW32593   4.048   1.551   7.981  0.6886 -0.1421 -0.1907
 6986SOL    HW132594   4.135   1.590   7.991  0.6957 -0.0769 -0.4944
 6986SOL    HW232595   4.078   1.460   7.984  0.9904 -0.0360  0.0361
 6987SOL     OW32596   1.271   2.058   6.968 -0.1555 -0.0563  0.2609
 6987SOL    HW132597   1.302   2.005   6.895 -0.5082 -1.3432  1.0392
 6987SOL    HW232598   1.193   2.090   6.923  2.1030  3.0892 -1.3701
 6988SOL     OW32599   2.395   0.539   7.254 -0.6141 -0.3098 -0.7253
 6988SOL    HW132600   2.333   0.473   7.285 -1.4820  0.7727 -0.1149
 6988SOL    HW232601   2.337   0.605   7.217  2.6603  1.7489 -2.2105
 6989SOL     OW32602   2.810   3.338  16.326  0.1305  0.0844 -1.1620
 6989SOL    HW132603   2.837   3.428  16.344 -1.7242  0.7334 -1.6470
 6989SOL    HW232604   2.871   3.320  16.255 -1.1896 -0.6133 -2.1184
 6990SOL     OW32605   2.530   2.506   9.853  0.3607  0.4857 -0.0767
 6990SOL    HW132606   2.625   2.512   9.866  0.2808  1.2811  0.1767
 6990SOL    HW232607   2.511   2.559   9.776 -1.9623 -1.3104 -0.7409
 6991SOL     OW32608   4.013   2.189   3.498 -0.5078 -0.2094 -0.1350
 6991SOL    HW132609   3.927   2.168   3.534 -0.0006 -1.6834  0.2220
 6991SOL    HW232610   4.073   2.122   3.532  1.3015  1.6704  0.3890
 6992SOL     OW32611   1.457   2.721   3.944  0.9111  0.6582 -0.0009
 6992SOL    HW132612   1.396   2.650   3.926  1.9106 -0.1327 -0.2232
 6992SOL    HW232613   1.455   2.716   4.039 -0.6683 -0.0913 -0.0769
 6993SOL     OW32614   3.489   4.554   6.885 -0.7940 -0.7697 -0.5223
 6993SOL    HW132615   3.572   4.569   6.931 -2.1318  4.4230  0.2412
 6993SOL    HW232616   3.454   4.643   6.881  0.0215 -0.2638  3.6046
 6994SOL     OW32617   3.576   4.240  15.207 -0.0084 -0.1775  0.1791
 6994SOL    HW132618   3.482   4.255  15.218 -0.1626 -1.9224  1.2035
 6994SOL    HW232619   3.607   4.262  15.294 -2.2957 -1.8652  1.4129
 6995SOL     OW32620   1.392   3.827  13.913 -1.0135 -0.1522  0.5148
 6995SOL    HW132621   1.463   3.763  13.906 -1.4608 -0.5696 -0.3620
 6995SOL    HW232622   1.428   3.915  13.909 -0.5512 -0.4915 -3.3414
 6996SOL     OW32623   2.414   1.953   5.348 -0.4257 -0.2678  0.0915
 6996SOL    HW132624   2.437   2.015   5.279  1.6342 -1.4153 -0.2829
 6996SOL    HW232625   2.329   1.921   5.318  0.8294 -2.8951 -0.6656
 6997SOL     OW32626   3.218   0.267   5.533  0.1381 -0.0891 -0.1569
 6997SOL    HW132627   3.228   0.254   5.627 -1.1903  0.5180  0.0717
 6997SOL    HW232628   3.142   0.324   5.547 -0.9210 -1.2066 -1.3554
 6998SOL     OW32629   4.491   0.995   0.878 -0.3938 -0.3835 -0.0236
 6998SOL    HW132630   4.499   0.964   0.968 -1.0636 -1.2584 -0.2674
 6998SOL    HW232631   4.538   1.079   0.882 -1.2297 -0.0742  3.0918
 6999SOL     OW32632   2.814   3.235   2.758 -0.6273 -0.6723  0.0045
 6999SOL    HW132633   2.852   3.158   2.800  0.5612 -0.1539 -0.1173
 6999SOL    HW232634   2.875   3.307   2.771 -0.0145 -1.5367  1.9146
 7000SOL     OW32635   1.474   3.278   7.998 -0.2199 -0.1624 -0.0273
 7000SOL    HW132636   1.516   3.364   8.007  0.6215 -0.5410 -0.3119
 7000SOL    HW232637   1.456   3.249   8.087 -0.0667  0.7757  0.3093
 7001SOL     OW32638   4.461   2.632   4.971 -0.6234  0.3316 -0.2951
 7001SOL    HW132639   4.465   2.640   5.066 -0.3320 -0.2724 -0.2583
 7001SOL    HW232640   4.403   2.556   4.975  0.8812 -0.8267 -0.4048
 7002SOL     OW32641   2.220   0.399   8.072 -0.4609  0.0196 -0.1133
 7002SOL    HW132642   2.182   0.371   7.989 -0.8758  2.4169 -0.7173
 7002SOL    HW232643   2.302   0.351   8.063 -0.1816  0.7797 -1.5613
 7003SOL     OW32644   4.228   2.984  12.421  0.5879  0.3053  0.4066
 7003SOL    HW132645   4.317   2.956  12.399 -0.3823 -0.6269 -2.3548
 7003SOL    HW232646   4.240   3.043  12.495  1.0388  2.2950 -1.2400
 7004SOL     OW32647   2.695   3.648  16.055 -0.3907  0.0608  0.2967
 7004SOL    HW132648   2.693   3.718  15.989  2.1492 -0.1311  0.0241
 7004SOL    HW232649   2.634   3.585  16.017  0.5394 -0.3931 -0.4442
 7005SOL     OW32650   0.643   2.128  11.053 -0.3006  0.3308  0.4231
 7005SOL    HW132651   0.552   2.123  11.082 -0.3651 -0.4196  0.0864
 7005SOL    HW232652   0.688   2.109  11.136  0.2306 -1.0030 -0.1722
 7006SOL     OW32653   0.395   1.113   8.507 -0.0309 -0.1431 -0.1103
 7006SOL    HW132654   0.447   1.072   8.576 -1.1529 -1.6603 -0.1814
 7006SOL    HW232655   0.309   1.117   8.549  0.1654 -1.8695  0.4227
 7007SOL     OW32656   2.675   2.164   9.616 -0.4044 -0.0051 -0.0577
 7007SOL    HW132657   2.673   2.201   9.527  0.5802 -0.3178 -0.2123
 7007SOL    HW232658   2.769   2.154   9.630 -0.2046  1.1320 -0.6209
 7008SOL     OW32659   0.614   0.800  12.900 -0.4716 -0.4903  0.2303
 7008SOL    HW132660   0.609   0.817  12.806  0.1105  1.1643  0.5121
 7008SOL    HW232661   0.569   0.877  12.935  2.3650  1.4034 -0.3318
 7009SOL     OW32662   0.671   0.248   7.339 -0.2506  0.0981 -0.3509
 7009SOL    HW132663   0.622   0.232   7.419 -1.3973  0.0307 -1.0666
 7009SOL    HW232664   0.606   0.202   7.286 -1.5907  1.4276  0.1434
 7010SOL     OW32665   0.232   3.153   3.424  0.1522 -0.1110 -0.3785
 7010SOL    HW132666   0.297   3.206   3.471  0.4620 -1.1893  0.3893
 7010SOL    HW232667   0.220   3.211   3.348 -0.5407 -1.5387 -1.3545
 7011SOL     OW32668   0.350   1.237  12.376  0.3155 -0.2031 -0.2611
 7011SOL    HW132669   0.434   1.193  12.363  0.4322  0.2903 -1.2363
 7011SOL    HW232670   0.340   1.222  12.470  0.2333  4.8392  0.5304
 7012SOL     OW32671   1.011   0.617   5.533 -0.4452 -0.4413 -1.1654
 7012SOL    HW132672   1.056   0.658   5.459  0.9677 -1.2476 -0.7511
 7012SOL    HW232673   1.073   0.638   5.603 -1.6524 -0.6477 -0.0461
 7013SOL     OW32674   4.719   3.771   6.243 -0.0594  0.2115 -0.6818
 7013SOL    HW132675   0.037   3.848   6.260 -0.8496  1.0190 -1.8153
 7013SOL    HW232676   0.023   3.733   6.165 -1.5933 -2.2552 -0.2539
 7014SOL     OW32677   3.741   2.647  10.784 -0.4936  0.2466 -0.1402
 7014SOL    HW132678   3.826   2.648  10.830 -1.1883 -0.8551  1.1529
 7014SOL    HW232679   3.772   2.701  10.711 -0.0065 -0.7142 -0.6479
 7015SOL     OW32680   1.878   1.897   7.834  0.1069 -0.4904 -0.0011
 7015SOL    HW132681   1.937   1.971   7.845  0.1343 -0.5744  0.4088
 7015SOL    HW232682   1.914   1.837   7.899  0.0044  0.1184  0.6100
 7016SOL     OW32683   1.995   4.597  15.341  0.3054  0.2504  0.3400
 7016SOL    HW132684   1.936   4.663  15.378 -0.7094  1.0450 -2.7256
 7016SOL    HW232685   1.942   4.586  15.262  0.3212 -1.5215  0.5745
 7017SOL     OW32686   3.469   2.444   4.484 -0.0762 -0.2562 -0.4835
 7017SOL    HW132687   3.477   2.407   4.572 -0.5429  0.5961 -0.0799
 7017SOL    HW232688   3.552   2.421   4.443 -0.6680 -1.7590 -0.8750
 7018SOL     OW32689   2.204   1.599   0.726 -0.2186 -0.2298 -0.3409
 7018SOL    HW132690   2.151   1.642   0.660 -1.9750  0.1840  1.3184
 7018SOL    HW232691   2.134   1.548   0.768 -0.5560  1.5303  1.2604
 7019SOL     OW32692   2.340   0.633   5.238  0.1258 -0.6611  0.3582
 7019SOL    HW132693   2.331   0.551   5.287  1.3270 -0.9111  0.1746
 7019SOL    HW232694   2.267   0.626   5.177  0.3836 -0.3316  0.0175
 7020SOL     OW32695   3.381   1.752   5.230 -0.5731  0.4094 -0.0852
 7020SOL    HW132696   3.288   1.733   5.218 -0.6492  1.7036 -1.7320
 7020SOL    HW232697   3.377   1.829   5.288  0.6052  0.1325  0.3613
 7021SOL     OW32698   0.085   0.212  12.005  0.6361  0.2109 -0.2277
 7021SOL    HW132699   0.112   0.139  12.061  0.9617  1.7063  1.5571
 7021SOL    HW232700   0.156   0.269  12.034  0.2137  0.8255 -0.4079
 7022SOL     OW32701   2.393   4.394   6.581  0.4657  0.3224  0.3292
 7022SOL    HW132702   2.300   4.373   6.583  0.7290 -0.8985  0.1519
 7022SOL    HW232703   2.409   4.443   6.662  0.8304  1.7860 -0.6308
 7023SOL     OW32704   2.797   2.335   8.043 -0.0590 -0.1440 -0.6436
 7023SOL    HW132705   2.748   2.397   8.096 -2.5303 -1.9885 -0.7903
 7023SOL    HW232706   2.843   2.397   7.986  2.3926 -1.7040 -0.3999
 7024SOL     OW32707   4.672   1.505   4.599 -0.4289  0.7087 -0.1800
 7024SOL    HW132708   0.020   1.460   4.593 -0.5372  0.3688  0.8161
 7024SOL    HW232709   4.634   1.500   4.686  2.2981  0.2440  1.0062
 7025SOL     OW32710   4.139   4.509  10.146 -0.1539 -0.5166 -0.2407
 7025SOL    HW132711   4.140   4.474  10.235 -0.6495  2.5432  0.9591
 7025SOL    HW232712   4.077   4.450  10.103 -0.3168 -3.1795  3.5957
 7026SOL     OW32713   1.676   4.061   4.587  0.3657 -0.4001  0.5560
 7026SOL    HW132714   1.768   4.058   4.561  0.1982 -2.5348  0.2787
 7026SOL    HW232715   1.638   3.990   4.536 -2.4881  0.7017  1.1469
 7027SOL     OW32716   2.322   4.099   5.213 -0.5486 -0.5266 -0.3178
 7027SOL    HW132717   2.349   4.180   5.171 -2.1792  0.6023  0.8263
 7027SOL    HW232718   2.254   4.068   5.153  0.4546 -3.2510 -0.0598
 7028SOL     OW32719   2.543   2.200   2.196  0.4361 -0.1182  0.2909
 7028SOL    HW132720   2.498   2.123   2.159  1.7830 -0.9140  0.3044
 7028SOL    HW232721   2.587   2.234   2.119 -0.6832  1.4199  0.3364
 7029SOL     OW32722   1.712   0.286   0.698 -0.7679  0.3286  0.1452
 7029SOL    HW132723   1.668   0.276   0.782  1.9473  1.5895  1.7310
 7029SOL    HW232724   1.800   0.305   0.732 -1.4512 -1.1850  2.7352
 7030SOL     OW32725   0.792   4.021  15.152 -0.1275  0.3189 -0.0110
 7030SOL    HW132726   0.749   3.985  15.074  0.0511 -0.5844  0.2978
 7030SOL    HW232727   0.786   4.114  15.131  1.5059 -0.5592 -4.3620
 7031SOL     OW32728   1.536   4.323   7.023  0.1237  0.0155 -0.1769
 7031SOL    HW132729   1.581   4.267   6.960  0.8254 -0.0057  0.3425
 7031SOL    HW232730   1.457   4.270   7.031  0.9570 -0.4523  5.2791
 7032SOL     OW32731   0.713   3.898  17.329 -0.0985  0.0999  0.1595
 7032SOL    HW132732   0.701   3.810  17.293  1.7337 -0.3529  0.6336
 7032SOL    HW232733   0.664   3.958  17.273 -1.8529 -0.0243  1.5537
 7033SOL     OW32734   0.813   4.000   5.896  0.3681 -0.1570  0.1616
 7033SOL    HW132735   0.782   4.086   5.924 -1.7150 -1.3399  1.4840
 7033SOL    HW232736   0.746   3.976   5.832  1.2075  0.1523 -0.8502
 7034SOL     OW32737   3.708   1.783  16.180  0.2416  0.4651 -0.2031
 7034SOL    HW132738   3.712   1.789  16.276 -2.5504  0.9672 -0.1352
 7034SOL    HW232739   3.676   1.870  16.155 -0.0223  0.1501 -0.9356
 7035SOL     OW32740   1.090   3.718  13.929  0.5799 -0.1147 -0.0110
 7035SOL    HW132741   1.159   3.764  13.976 -0.1934  2.9088 -1.8738
 7035SOL    HW232742   1.130   3.635  13.902 -1.1286 -1.2659  0.9272
 7036SOL     OW32743   4.448   0.114  14.291 -0.2924 -0.6370 -0.0331
 7036SOL    HW132744   4.532   0.139  14.251 -0.0172  1.4695  1.8792
 7036SOL    HW232745   4.388   0.134  14.220  0.4443 -1.7105 -0.9562
 7037SOL     OW32746   4.706   2.376  13.263  0.5264 -0.3999 -0.1495
 7037SOL    HW132747   0.005   2.341  13.181 -0.8647 -1.7981 -0.1409
 7037SOL    HW232748   4.683   2.463  13.229 -4.0395 -2.1501 -1.4861
 7038SOL     OW32749   1.662   4.255   9.006 -0.1492  0.6343 -0.1109
 7038SOL    HW132750   1.606   4.240   8.929  0.4037  0.9846 -0.5736
 7038SOL    HW232751   1.699   4.342   8.999  0.0162  0.4275 -1.9156
 7039SOL     OW32752   1.569   3.606   5.931 -0.6997  0.1066  0.2207
 7039SOL    HW132753   1.629   3.656   5.986  0.1894  0.3753 -0.9920
 7039SOL    HW232754   1.625   3.580   5.858 -0.3700  0.2871  0.4088
 7040SOL     OW32755   1.069   0.081   7.557  0.3895  0.1995 -0.0276
 7040SOL    HW132756   1.069   0.014   7.489  1.4505 -0.3623  0.5400
 7040SOL    HW232757   1.089   0.154   7.497 -0.8842  0.7950  0.2741
 7041SOL     OW32758   2.326   2.129  16.062  0.3948 -0.1773 -0.7129
 7041SOL    HW132759   2.367   2.216  16.058  2.3533 -1.1472 -1.6087
 7041SOL    HW232760   2.253   2.145  16.002 -0.3485 -1.0119 -0.0228
 7042SOL     OW32761   1.167   3.897  16.446 -0.5331  0.1645  0.2993
 7042SOL    HW132762   1.237   3.959  16.466 -0.0808  0.7473 -3.0278
 7042SOL    HW232763   1.125   3.911  16.531 -2.1447 -1.1209 -0.2982
 7043SOL     OW32764   0.901   3.661  12.517 -0.2391  0.3424 -0.5684
 7043SOL    HW132765   0.913   3.724  12.446 -3.2825  3.5653  1.7050
 7043SOL    HW232766   0.992   3.652  12.543 -0.6153  0.0272  0.6545
 7044SOL     OW32767   2.218   1.947   1.097 -0.3182 -0.2845 -0.8547
 7044SOL    HW132768   2.281   1.887   1.056 -0.8139 -1.4520  0.0692
 7044SOL    HW232769   2.227   2.030   1.052  1.0598 -0.8764 -1.6963
 7045SOL     OW32770   2.879   0.818   6.281  0.2895 -0.0877 -0.0088
 7045SOL    HW132771   2.971   0.842   6.289  0.6267 -1.5569  0.5222
 7045SOL    HW232772   2.837   0.901   6.256 -1.2152 -1.1228 -0.9097
 7046SOL     OW32773   0.070   4.281   4.603  0.1507 -0.0150  0.2926
 7046SOL    HW132774   4.716   4.297   4.628  0.7771 -0.1284  2.5603
 7046SOL    HW232775   0.078   4.332   4.522  4.3923 -0.3262  0.4903
 7047SOL     OW32776   3.015   4.054   4.958 -0.0131  0.3796  0.3754
 7047SOL    HW132777   3.095   4.006   4.982 -1.5063 -1.6767  1.1648
 7047SOL    HW232778   2.997   4.017   4.871  1.9110  0.0295  0.1107
 7048SOL     OW32779   4.062   4.201   5.890 -0.2891  0.5823 -0.4745
 7048SOL    HW132780   4.107   4.169   5.968  1.7257  2.1030 -1.0049
 7048SOL    HW232781   3.976   4.159   5.897  0.0955  0.0661  1.0099
 7049SOL     OW32782   3.123   0.252   7.207 -0.0445  0.5087 -0.8590
 7049SOL    HW132783   3.180   0.181   7.179 -0.3061  1.0041 -2.6570
 7049SOL    HW232784   3.194   0.310   7.234 -1.5437  1.8981  0.0891
 7050SOL     OW32785   3.244   1.885   2.737 -0.0337  0.1797 -0.1719
 7050SOL    HW132786   3.301   1.916   2.666  1.1534  3.6170  2.2751
 7050SOL    HW232787   3.301   1.814   2.766  0.0734 -0.0816 -1.0122
 7051SOL     OW32788   3.835   2.726   3.138 -0.2065 -0.1146 -0.2340
 7051SOL    HW132789   3.883   2.801   3.172  0.4619 -1.3809  1.6645
 7051SOL    HW232790   3.743   2.750   3.152  0.4269  1.2092  1.5977
 7052SOL     OW32791   2.489   1.886   4.173  0.4840  0.0925 -0.8143
 7052SOL    HW132792   2.457   1.801   4.142  1.4720 -0.5479 -0.0931
 7052SOL    HW232793   2.408   1.935   4.161 -0.3023 -0.2384  3.2287
 7053SOL     OW32794   1.487   3.860   5.875  0.1428  0.1866  0.5158
 7053SOL    HW132795   1.472   3.880   5.782  0.9362 -2.0655 -0.0933
 7053SOL    HW232796   1.523   3.772   5.878  0.0330  0.1283  0.1927
 7054SOL     OW32797   1.068   4.091   6.330  0.2429  0.1911 -0.1464
 7054SOL    HW132798   1.110   4.168   6.365 -2.7964  1.2487  1.1565
 7054SOL    HW232799   1.028   4.131   6.253 -2.1758  2.4910  2.3476
 7055SOL     OW32800   1.260   2.834  17.235  0.2617 -0.4700 -0.5438
 7055SOL    HW132801   1.291   2.746  17.256  0.3069  0.4515  3.2520
 7055SOL    HW232802   1.286   2.847  17.144  1.3858 -0.6216 -0.2448
 7056SOL     OW32803   3.803   0.328   2.829  0.2451  0.4249 -0.8697
 7056SOL    HW132804   3.880   0.321   2.885 -0.4573 -0.3701 -0.0157
 7056SOL    HW232805   3.787   0.245   2.785 -1.6140  0.0753  0.4487
 7057SOL     OW32806   1.444   2.996   3.878 -0.6620  0.2932 -0.4344
 7057SOL    HW132807   1.462   2.915   3.925 -0.7274 -0.2437 -1.3325
 7057SOL    HW232808   1.530   3.037   3.882 -0.3972 -0.3433  0.3158
 7058SOL     OW32809   1.934   3.604   7.925 -0.1622 -0.2538  0.2890
 7058SOL    HW132810   1.923   3.673   7.991 -1.4791 -0.8801  0.7181
 7058SOL    HW232811   2.017   3.569   7.956  0.0874 -0.1963 -0.3281
 7059SOL     OW32812   3.619   3.657   7.931 -0.2437 -0.2547 -0.3847
 7059SOL    HW132813   3.692   3.596   7.928  1.8827  2.3319 -0.6995
 7059SOL    HW232814   3.663   3.725   7.983  0.8543 -0.5491 -0.9378
 7060SOL     OW32815   3.158   1.165  14.083 -0.2695 -0.5987  0.5284
 7060SOL    HW132816   3.109   1.088  14.111 -1.0405 -0.1028  0.5540
 7060SOL    HW232817   3.247   1.133  14.077 -0.9361 -2.3935  0.2114
 7061SOL     OW32818   1.803   3.056  12.292  0.1708  0.0082 -0.1804
 7061SOL    HW132819   1.832   3.065  12.201  1.3564 -0.2170  0.1713
 7061SOL    HW232820   1.725   3.001  12.283 -0.2882  0.9058 -1.6158
 7062SOL     OW32821   2.634   1.794   4.803  0.3226 -0.2365 -0.1845
 7062SOL    HW132822   2.647   1.702   4.780  0.3689  0.2934 -2.3303
 7062SOL    HW232823   2.719   1.834   4.782 -0.6163  1.6777 -0.3968
 7063SOL     OW32824   4.251   4.037   3.107 -0.0428  0.0371  0.5323
 7063SOL    HW132825   4.215   4.098   3.043  0.0521 -3.3068 -2.6751
 7063SOL    HW232826   4.173   3.991   3.137 -0.0620 -0.4620 -0.3004
 7064SOL     OW32827   2.355   0.683  10.665  0.2184  0.2671 -0.3551
 7064SOL    HW132828   2.435   0.700  10.616 -0.6770  2.3545 -1.0734
 7064SOL    HW232829   2.357   0.732  10.747 -0.6274  0.2424 -0.3171
 7065SOL     OW32830   1.972   4.649   6.565 -0.0160 -0.0737 -0.5113
 7065SOL    HW132831   1.912   4.661   6.638 -0.2329 -0.1056 -0.6838
 7065SOL    HW232832   1.959   4.722   6.504 -4.5349  0.6354  1.3303
 7066SOL     OW32833   4.030   2.516  10.329 -0.0340  0.2518 -0.2220
 7066SOL    HW132834   4.106   2.573  10.338 -0.0209  0.1783  0.1379
 7066SOL    HW232835   3.955   2.575  10.335  0.0549  0.3486 -0.0673
 7067SOL     OW32836   1.259   0.484   4.200  0.0665  0.2491  0.0501
 7067SOL    HW132837   1.264   0.400   4.154  0.2764  1.0597 -1.3972
 7067SOL    HW232838   1.299   0.456   4.282  0.4337  1.5208  0.2915
 7068SOL     OW32839   2.523   3.505  17.734 -0.4132 -0.0079 -0.2987
 7068SOL    HW132840   2.527   3.591  17.692  0.0462 -1.2741 -2.8438
 7068SOL    HW232841   2.471   3.456  17.670  2.3969 -0.4736 -2.1960
 7069SOL     OW32842   2.128   4.153  13.945 -0.1962  0.0599 -0.2897
 7069SOL    HW132843   2.175   4.204  14.012 -2.3092  0.3413  0.9964
 7069SOL    HW232844   2.191   4.150  13.873 -1.0585  0.4826 -1.0650
 7070SOL     OW32845   0.569   4.623   0.232 -0.0438  0.0324  0.2223
 7070SOL    HW132846   0.616   4.680   0.293  0.5647  0.9285 -1.0942
 7070SOL    HW232847   0.517   4.684   0.181  1.7532  0.2319 -1.3917
 7071SOL     OW32848   2.978   3.785   8.216  0.2189 -0.4362 -0.5900
 7071SOL    HW132849   2.962   3.743   8.131 -0.7581  0.5961 -0.9073
 7071SOL    HW232850   3.000   3.705   8.264 -2.1114 -0.3419  0.6468
 7072SOL     OW32851   2.095   1.650  14.700  0.3305 -0.0895 -0.1738
 7072SOL    HW132852   2.111   1.727  14.755 -0.2695 -0.7597  0.9370
 7072SOL    HW232853   2.041   1.681  14.627 -1.2304 -0.1106  0.9714
 7073SOL     OW32854   4.456   1.728   6.839 -0.0284  0.1262 -0.2369
 7073SOL    HW132855   4.397   1.748   6.911  0.5730 -0.9397  0.5577
 7073SOL    HW232856   4.395   1.766   6.776 -2.7730 -2.8579  0.6150
 7074SOL     OW32857   3.922   3.385  11.142 -0.3685  0.3504  0.0911
 7074SOL    HW132858   4.007   3.403  11.102 -0.7406 -1.7531 -1.6701
 7074SOL    HW232859   3.874   3.394  11.059  1.4128  1.4061 -0.8160
 7075SOL     OW32860   3.270   1.839  16.478  0.5334 -0.0644  0.1295
 7075SOL    HW132861   3.267   1.929  16.511  1.2913  0.8670 -2.2634
 7075SOL    HW232862   3.202   1.837  16.410  0.5659  3.9780 -0.0030
 7076SOL     OW32863   3.777   4.690  15.793 -0.5218 -0.6360  0.4472
 7076SOL    HW132864   3.688   4.722  15.806 -0.1598  1.4726 -2.3047
 7076SOL    HW232865   3.809   0.030  15.745 -1.2525  0.2855  1.4438
 7077SOL     OW32866   3.092   4.721  11.994  0.1837 -0.0068  0.3563
 7077SOL    HW132867   3.014   0.038  12.003 -0.1695 -0.6573  1.1742
 7077SOL    HW232868   3.125   4.712  12.084  0.2055  1.7208  0.5253
 7078SOL     OW32869   4.664   2.956   8.653  0.4252  0.1851 -0.1772
 7078SOL    HW132870   4.689   3.044   8.626  0.4433  0.3424  0.3549
 7078SOL    HW232871   4.727   2.905   8.602  0.0388 -1.8062  1.3329
 7079SOL     OW32872   1.387   3.051   0.622  0.4126 -0.1259 -0.1007
 7079SOL    HW132873   1.329   3.042   0.545  0.6820 -2.3716 -0.0474
 7079SOL    HW232874   1.463   2.997   0.601  0.0208 -0.2303 -1.2562
 7080SOL     OW32875   1.850   3.145  11.996 -0.0888 -0.0782 -0.0409
 7080SOL    HW132876   1.772   3.199  12.009  0.0550  0.0675  0.2258
 7080SOL    HW232877   1.904   3.207  11.947 -1.2578  1.0183  0.0421
 7081SOL     OW32878   3.348   2.708   5.278  0.1911  0.5474  0.0089
 7081SOL    HW132879   3.417   2.760   5.318  2.4109  1.8035 -5.4099
 7081SOL    HW232880   3.387   2.620   5.288  1.6273  1.0416 -1.1255
 7082SOL     OW32881   3.284   4.624   9.806  0.6409 -0.1331 -0.1717
 7082SOL    HW132882   3.196   4.643   9.841  0.5911  0.2317 -0.4968
 7082SOL    HW232883   3.327   4.704   9.835 -0.4979  0.7140 -0.8239
 7083SOL     OW32884   2.471   0.864   0.170 -0.1620 -0.5090 -0.5452
 7083SOL    HW132885   2.473   0.769   0.160  0.0278 -0.6785  1.0721
 7083SOL    HW232886   2.521   0.873   0.251  0.5684 -2.3214 -0.7847
 7084SOL     OW32887   4.262   3.237  16.698 -0.0493  0.3185  0.1255
 7084SOL    HW132888   4.257   3.191  16.614  2.0681 -0.3442  0.3707
 7084SOL    HW232889   4.186   3.198  16.741  0.3482  0.6622  1.1401
 7085SOL     OW32890   1.461   0.779   6.901  0.3449 -0.9725  0.1729
 7085SOL    HW132891   1.433   0.701   6.950 -0.9833  0.1008  1.1076
 7085SOL    HW232892   1.432   0.760   6.812  1.6874 -0.5398 -0.3546
 7086SOL     OW32893   0.142   1.558   1.821  0.6794  0.2627 -0.3457
 7086SOL    HW132894   0.066   1.608   1.853  0.8660  0.4802 -0.2427
 7086SOL    HW232895   0.196   1.629   1.786 -0.5986  1.3743 -0.0526
 7087SOL     OW32896   3.968   1.894   2.999  0.6814 -0.3067  0.6478
 7087SOL    HW132897   4.044   1.915   2.944  0.9712 -0.2725  1.0610
 7087SOL    HW232898   3.996   1.933   3.081  1.0187  0.4225  0.1884
 7088SOL     OW32899   2.523   1.920   8.487  0.4702  1.0724  0.1837
 7088SOL    HW132900   2.470   1.840   8.486  0.3174  1.1775 -0.1419
 7088SOL    HW232901   2.609   1.879   8.478 -0.1985 -0.0363 -1.1635
 7089SOL     OW32902   3.110   0.696   2.411 -0.2026  0.1141  0.0544
 7089SOL    HW132903   3.061   0.677   2.331 -3.3470  1.2651  1.7175
 7089SOL    HW232904   3.104   0.791   2.413 -0.2178  0.1197 -0.2701
 7090SOL     OW32905   3.832   3.554   8.946 -0.8223  0.8334 -0.3485
 7090SOL    HW132906   3.880   3.497   8.886 -2.6476  0.1219 -1.1369
 7090SOL    HW232907   3.900   3.621   8.955  0.7110 -0.7457 -0.2836
 7091SOL     OW32908   0.333   4.202   9.022  0.1714  0.1083 -0.2294
 7091SOL    HW132909   0.346   4.270   9.089  1.2647 -1.2168  0.8914
 7091SOL    HW232910   0.418   4.160   9.036 -0.9269 -2.4461 -1.4162
 7092SOL     OW32911   2.427   2.727   8.548 -0.3665  0.5746  0.1635
 7092SOL    HW132912   2.406   2.698   8.637 -3.4880 -1.0031 -1.1017
 7092SOL    HW232913   2.483   2.654   8.520  0.0627  0.0188  2.4500
 7093SOL     OW32914   3.028   3.408   4.764  0.0583  0.5975  0.2751
 7093SOL    HW132915   3.037   3.343   4.834  1.8814  1.8705  1.1911
 7093SOL    HW232916   2.995   3.352   4.693  2.5018 -0.8233  0.2517
 7094SOL     OW32917   3.145   0.447  16.122  0.4982 -0.2726  0.6142
 7094SOL    HW132918   3.239   0.440  16.102  0.6882  0.4752  1.2449
 7094SOL    HW232919   3.114   0.369  16.075  1.1064  0.5785 -1.2007
 7095SOL     OW32920   2.984   2.720   9.996  0.3780 -0.2166 -0.0444
 7095SOL    HW132921   3.064   2.694  10.041 -0.1428 -1.6690  0.0463
 7095SOL    HW232922   2.994   2.815   9.984  1.0153 -0.3814 -0.8176
 7096SOL     OW32923   3.958   0.069  11.452 -0.3514  0.2069 -0.2842
 7096SOL    HW132924   3.959   0.027  11.538 -1.1301 -1.8849 -1.2795
 7096SOL    HW232925   3.879   0.029  11.415 -0.7744  0.7400  0.0512
 7097SOL     OW32926   2.523   3.364   3.261  0.5877  0.5562 -0.3798
 7097SOL    HW132927   2.526   3.401   3.349  0.3690  1.0209 -0.5677
 7097SOL    HW232928   2.603   3.312   3.261  1.2079  1.5189  0.8770
 7098SOL     OW32929   0.909   3.830   4.663  0.0314 -0.0363 -0.5647
 7098SOL    HW132930   0.872   3.774   4.594 -0.5160 -0.0188 -0.2880
 7098SOL    HW232931   0.937   3.767   4.729  0.1390  1.2819  0.6509
 7099SOL     OW32932   2.473   0.410   5.783 -0.1447  0.0022  0.0530
 7099SOL    HW132933   2.567   0.413   5.767  0.0115 -0.4289  0.8878
 7099SOL    HW232934   2.480   0.316   5.800 -1.9699  0.0341  0.9733
 7100SOL     OW32935   4.031   3.373   3.020 -0.1512  0.0622  0.3732
 7100SOL    HW132936   3.940   3.378   2.990 -0.2634 -1.1894  0.4865
 7100SOL    HW232937   4.027   3.314   3.095  0.5316 -1.5523 -0.8477
 7101SOL     OW32938   1.588   1.952  11.930 -0.1201 -0.2590 -0.3406
 7101SOL    HW132939   1.538   2.032  11.912  0.9910  0.8702  1.5283
 7101SOL    HW232940   1.580   1.952  12.025 -1.2528 -2.3694 -0.4342
 7102SOL     OW32941   3.048   0.818   5.353 -0.2094  0.5017  0.1248
 7102SOL    HW132942   3.040   0.833   5.259  2.9298 -0.4487 -0.2964
 7102SOL    HW232943   3.016   0.728   5.354  1.7372 -0.2077 -1.3116
 7103SOL     OW32944   2.427   4.128  15.215  0.2803 -0.2277 -0.4386
 7103SOL    HW132945   2.349   4.099  15.262  0.9816 -1.2314  0.1027
 7103SOL    HW232946   2.431   4.063  15.144  0.1974  0.3162 -0.9428
 7104SOL     OW32947   4.440   0.014   7.844 -0.0124 -0.2379 -0.1904
 7104SOL    HW132948   4.350   4.721   7.830 -0.4281  0.1139  1.7236
 7104SOL    HW232949   4.433   0.091   7.901  2.5165  0.2763 -0.6056
 7105SOL     OW32950   3.549   0.349   1.399  0.2735 -0.3497  0.3272
 7105SOL    HW132951   3.602   0.296   1.339 -0.5380 -1.8235  0.9107
 7105SOL    HW232952   3.567   0.429   1.349  1.3581 -0.6386  0.2552
 7106SOL     OW32953   4.335   1.987   3.326 -0.0845 -0.0664  0.7207
 7106SOL    HW132954   4.331   2.034   3.409  0.9445  0.7549  0.3041
 7106SOL    HW232955   4.423   1.998   3.288 -0.0253 -1.4014  0.4368
 7107SOL     OW32956   3.232   4.344  12.123  0.1623 -0.8742 -0.1110
 7107SOL    HW132957   3.312   4.300  12.094  0.4362 -0.4510  0.0149
 7107SOL    HW232958   3.257   4.428  12.085 -0.4377  0.2144  1.8965
 7108SOL     OW32959   4.470   3.137   5.683  0.0156 -0.6184  0.2928
 7108SOL    HW132960   4.441   3.221   5.718  1.3898  0.0294 -0.1218
 7108SOL    HW232961   4.387   3.089   5.689 -0.6043  0.3569 -0.4999
 7109SOL     OW32962   1.083   1.863  15.390  0.3357 -0.2967  0.6184
 7109SOL    HW132963   1.062   1.780  15.347 -0.4097 -0.5893  1.5470
 7109SOL    HW232964   1.013   1.918  15.355 -3.3156 -4.0978  1.9068
 7110SOL     OW32965   2.820   0.872  17.428 -0.7259 -0.3442  0.0685
 7110SOL    HW132966   2.774   0.888  17.510 -1.5968 -0.3762 -0.4079
 7110SOL    HW232967   2.828   0.776  17.429 -0.7296 -0.3503 -0.3400
 7111SOL     OW32968   1.648   4.062   3.591 -0.2032 -0.9548  0.1017
 7111SOL    HW132969   1.666   4.040   3.683 -0.4328 -2.5795 -0.2303
 7111SOL    HW232970   1.716   4.122   3.561 -0.4287 -1.3659 -1.2121
 7112SOL     OW32971   3.153   3.072   0.486  0.2709  0.0866 -0.4840
 7112SOL    HW132972   3.078   3.131   0.484 -0.3515 -0.6872  0.3763
 7112SOL    HW232973   3.231   3.128   0.493  1.5462 -1.8001  0.3043
 7113SOL     OW32974   4.304   1.664   4.775  0.6706  0.7542 -0.7257
 7113SOL    HW132975   4.284   1.641   4.684  3.7995 -1.6701 -0.8062
 7113SOL    HW232976   4.378   1.608   4.799  1.6227  2.2607 -0.1966
 7114SOL     OW32977   1.207   3.106  10.841 -0.2106 -0.7442 -0.4086
 7114SOL    HW132978   1.228   3.168  10.771  0.4921  0.1410  0.5986
 7114SOL    HW232979   1.228   3.025  10.795  1.7377 -1.5967  2.0247
 7115SOL     OW32980   3.582   3.497   2.023  0.1090 -0.4029  0.3844
 7115SOL    HW132981   3.541   3.531   1.943  2.5925  2.1919  0.2061
 7115SOL    HW232982   3.579   3.404   2.001  0.7249  0.0501 -1.5590
 7116SOL     OW32983   1.807   2.597  16.352  0.2769 -0.2695  0.8874
 7116SOL    HW132984   1.834   2.512  16.388  0.2120 -0.1789  1.1531
 7116SOL    HW232985   1.760   2.562  16.276 -0.8594 -0.2153  1.5627
 7117SOL     OW32986   2.032   3.464   8.580 -0.0250 -0.2351 -0.4176
 7117SOL    HW132987   1.958   3.522   8.594  0.6899 -0.3362  3.8127
 7117SOL    HW232988   2.086   3.491   8.654 -0.3155  1.2419 -0.7569
 7118SOL     OW32989   2.962   1.942   1.409  0.3850 -0.8364  0.0851
 7118SOL    HW132990   2.951   2.022   1.358  2.3169  0.1428  1.1902
 7118SOL    HW232991   2.881   1.892   1.422 -1.2003  1.9644  0.8838
 7119SOL     OW32992   4.173   0.498   7.617 -0.4261  0.2146 -0.2821
 7119SOL    HW132993   4.207   0.584   7.643  1.7271 -1.6275  3.0615
 7119SOL    HW232994   4.202   0.504   7.526  1.4099 -0.7361  0.2279
 7120SOL     OW32995   4.606   4.125   8.139  0.3000  0.4133  0.3145
 7120SOL    HW132996   4.519   4.163   8.123 -0.2662 -0.3289  1.5659
 7120SOL    HW232997   4.658   4.205   8.134 -0.0628  0.5488 -1.3604
 7121SOL     OW32998   0.740   0.959   4.546  0.3430 -0.0343  0.3195
 7121SOL    HW132999   0.712   0.890   4.486  0.8193  0.6936 -0.7385
 7121SOL    HW233000   0.827   0.921   4.562 -0.4610 -1.4184  1.3988
 7122SOL     OW33001   1.331   4.137   8.905  0.2420 -0.4792 -0.5119
 7122SOL    HW133002   1.256   4.152   8.848  0.5241  1.1445 -0.4625
 7122SOL    HW233003   1.336   4.222   8.949  2.4190 -0.0151 -1.6189
 7123SOL     OW33004   0.100   0.735   4.544  0.1008  0.1434  0.0843
 7123SOL    HW133005   0.163   0.761   4.477  1.9383 -2.4419  0.8251
 7123SOL    HW233006   0.119   0.642   4.534 -0.7898 -0.1536  1.1183
 7124SOL     OW33007   4.229   2.450   6.879  0.0522  0.6069  0.6213
 7124SOL    HW133008   4.313   2.485   6.909  1.6975 -2.0474 -0.8724
 7124SOL    HW233009   4.222   2.489   6.792  0.7535  0.4732  0.5009
 7125SOL     OW33010   4.537   1.755   7.799 -0.3292 -0.2977 -0.0299
 7125SOL    HW133011   4.580   1.732   7.716 -1.0379 -0.8494 -0.2476
 7125SOL    HW233012   4.555   1.848   7.811  0.4442 -0.5719  0.9794
 7126SOL     OW33013   0.392   0.101  10.753 -0.2328  0.4208  0.6279
 7126SOL    HW133014   0.328   0.152  10.803  0.2706  0.0204  1.6731
 7126SOL    HW233015   0.441   0.172  10.711 -0.2902  1.1839  1.8743
 7127SOL     OW33016   2.466   1.061   4.157 -0.5660  0.0203  0.2775
 7127SOL    HW133017   2.502   0.989   4.107 -1.7205  0.6010 -1.3821
 7127SOL    HW233018   2.545   1.111   4.180 -0.7020  0.6317 -0.5805
 7128SOL     OW33019   0.853   3.068   8.999 -0.0767  0.3059  0.2663
 7128SOL    HW133020   0.821   3.156   8.985 -2.1792 -0.2430  1.5981
 7128SOL    HW233021   0.929   3.070   8.940  0.6001  1.4050  1.1646
 7129SOL     OW33022   4.074   0.456   2.978  0.3478 -0.2711 -0.0484
 7129SOL    HW133023   3.997   0.503   3.010 -0.1215 -1.9574  1.2975
 7129SOL    HW233024   4.081   0.498   2.892  3.2199 -0.5969  0.0388
 7130SOL     OW33025   3.130   1.086   6.945 -0.1883 -0.2120 -0.1714
 7130SOL    HW133026   3.196   1.108   6.879 -0.2361 -0.5526 -0.3359
 7130SOL    HW233027   3.097   1.004   6.908  1.3871 -0.9659  0.0582
 7131SOL     OW33028   4.560   3.287   7.610 -0.0744 -0.4697  0.3814
 7131SOL    HW133029   4.635   3.249   7.564 -1.2413 -2.1127 -0.1782
 7131SOL    HW233030   4.493   3.247   7.554  0.8016 -0.5109 -0.6168
 7132SOL     OW33031   3.481   1.269   7.558  0.3806  0.3209  0.1632
 7132SOL    HW133032   3.452   1.292   7.646 -1.5034 -2.1437  0.2004
 7132SOL    HW233033   3.403   1.237   7.512 -1.0694  1.3048  1.9316
 7133SOL     OW33034   2.696   3.766  16.503  0.6432  0.2670  0.0762
 7133SOL    HW133035   2.748   3.846  16.511 -0.9524  1.1130  2.0546
 7133SOL    HW233036   2.636   3.778  16.577  0.4934 -1.1332  0.1797
 7134SOL     OW33037   4.384   0.167  17.508  0.2287  0.1505  0.1822
 7134SOL    HW133038   4.363   0.102  17.575  2.0023 -1.8950 -1.2396
 7134SOL    HW233039   4.367   0.117  17.428  0.5044  0.0639  0.1783
 7135SOL     OW33040   0.724   1.239  13.449 -0.1262 -0.2078 -0.1826
 7135SOL    HW133041   0.737   1.164  13.391  0.1037 -0.0176 -0.3802
 7135SOL    HW233042   0.672   1.297  13.394 -0.3457 -1.3493 -1.1690
 7136SOL     OW33043   4.457   3.120   8.584  0.2452 -0.3372  0.1145
 7136SOL    HW133044   4.422   3.098   8.498 -1.9323 -1.8848  1.3851
 7136SOL    HW233045   4.509   3.040   8.596  2.2207  0.4931 -3.0199
 7137SOL     OW33046   0.111   2.197   6.325 -0.1682 -0.1544  0.5901
 7137SOL    HW133047   0.116   2.102   6.328  0.6078 -0.1334  0.0205
 7137SOL    HW233048   0.017   2.214   6.321 -0.2368 -0.4743  0.9080
 7138SOL     OW33049   4.653   1.589   7.979 -0.0444  0.0834  0.2284
 7138SOL    HW133050   4.643   1.662   8.041 -0.5583  1.7278 -1.8089
 7138SOL    HW233051   4.615   1.622   7.898 -1.7548 -0.6993  0.7027
 7139SOL     OW33052   0.729   1.553   6.616  0.3625  0.0496 -0.2536
 7139SOL    HW133053   0.676   1.622   6.576 -2.2603 -0.9685  1.4024
 7139SOL    HW233054   0.726   1.561   6.712  0.1392  1.1489 -0.3532
 7140SOL     OW33055   4.042   3.810  16.160 -1.0085 -0.1845  0.4974
 7140SOL    HW133056   4.088   3.851  16.233 -0.7059  1.9718 -0.9080
 7140SOL    HW233057   4.100   3.824  16.085 -0.6233 -2.2552  0.4096
 7141SOL     OW33058   0.704   4.074   9.568 -0.1387 -0.3188 -0.1350
 7141SOL    HW133059   0.611   4.088   9.584  0.1569  1.1172  0.2333
 7141SOL    HW233060   0.743   4.093   9.653 -0.1492  0.6283 -0.3425
 7142SOL     OW33061   0.759   3.041   4.394  0.4196  0.0177  0.0341
 7142SOL    HW133062   0.674   3.048   4.436  0.9329 -0.2922  1.1468
 7142SOL    HW233063   0.739   2.993   4.314 -0.0029 -1.6047  1.1162
 7143SOL     OW33064   3.736   0.498   3.564  0.9756 -0.1485 -0.5506
 7143SOL    HW133065   3.783   0.506   3.647  0.2889 -1.2031 -0.0487
 7143SOL    HW233066   3.789   0.557   3.512  2.9003 -0.1091  1.4639
 7144SOL     OW33067   2.545   1.299   4.603 -0.0664  0.2990  0.5784
 7144SOL    HW133068   2.584   1.367   4.547 -2.0846  0.0899 -1.0912
 7144SOL    HW233069   2.623   1.299   4.658  0.7669  1.5287 -0.6063
 7145SOL     OW33070   0.299   1.704   6.766  0.3517 -0.9997  0.9537
 7145SOL    HW133071   0.208   1.699   6.795  0.2436 -0.5148  0.7068
 7145SOL    HW233072   0.301   1.632   6.704  1.0718  0.6996 -1.0102
 7146SOL     OW33073   1.857   2.805   9.318  0.0286  0.1405  0.3922
 7146SOL    HW133074   1.829   2.714   9.327 -0.7278  0.3321 -0.0690
 7146SOL    HW233075   1.883   2.806   9.226  0.5811 -2.6238  0.5054
 7147SOL     OW33076   2.690   0.088   9.321  0.2574  0.2346  0.1465
 7147SOL    HW133077   2.645   0.149   9.262  1.6492  2.1677  1.0566
 7147SOL    HW233078   2.742   0.147   9.376  0.3330  0.7475 -0.4870
 7148SOL     OW33079   2.964   3.333   9.564  0.1112 -0.2830  0.2959
 7148SOL    HW133080   2.943   3.359   9.474  1.2494  2.0029  0.6852
 7148SOL    HW233081   2.908   3.394   9.611 -0.2872 -1.0643  0.8462
 7149SOL     OW33082   0.771   4.117   7.478  0.0256  0.0553  0.2926
 7149SOL    HW133083   0.744   4.079   7.561  1.3181 -1.2097  0.1385
 7149SOL    HW233084   0.762   4.040   7.421  0.6239  0.5120 -0.4341
 7150SOL     OW33085   1.301   3.019   5.306 -0.0591 -0.2421  0.1285
 7150SOL    HW133086   1.358   3.004   5.381 -0.5564  2.0278  0.9474
 7150SOL    HW233087   1.302   3.115   5.309 -2.0799 -0.2245  0.4411
 7151SOL     OW33088   2.246   4.529   8.955 -0.1042  0.3123 -0.4375
 7151SOL    HW133089   2.242   4.506   9.048 -1.7760  2.1999 -0.0201
 7151SOL    HW233090   2.172   4.588   8.940 -0.9402 -0.4494  0.6538
 7152SOL     OW33091   2.746   1.201   5.884 -0.6032 -0.0891 -0.2022
 7152SOL    HW133092   2.752   1.277   5.827  0.0143  0.7630  1.0098
 7152SOL    HW233093   2.654   1.203   5.911 -0.9183 -0.5720 -1.2388
 7153SOL     OW33094   1.019   1.433   5.665  0.7392 -0.0709  0.3414
 7153SOL    HW133095   1.108   1.461   5.687  0.7767  1.3474 -1.6047
 7153SOL    HW233096   0.976   1.424   5.750 -1.9684  1.3842 -0.8898
 7154SOL     OW33097   0.784   0.312   3.491  0.2624  0.1277  0.2825
 7154SOL    HW133098   0.821   0.336   3.576 -0.3915  0.2635  0.5296
 7154SOL    HW233099   0.842   0.237   3.481  1.3653  0.6277  2.8144
 7155SOL     OW33100   1.885   4.320   9.842  0.1531  0.4933 -0.2652
 7155SOL    HW133101   1.801   4.279   9.863  0.5786 -0.2780 -0.0758
 7155SOL    HW233102   1.886   4.331   9.747  1.8985  2.4620 -0.0147
 7156SOL     OW33103   0.679   0.020  13.631 -0.6564  0.5583 -0.2193
 7156SOL    HW133104   0.610   4.691  13.619  0.3179 -0.0063 -2.6577
 7156SOL    HW233105   0.617   0.092  13.641 -0.5216  0.5861  0.4284
 7157SOL     OW33106   2.875   4.620  15.667 -0.2594  0.3261 -0.2909
 7157SOL    HW133107   2.865   4.532  15.703  2.0415 -0.4092 -1.4686
 7157SOL    HW233108   2.960   4.655  15.695 -0.6013  1.7802 -1.0658
 7158SOL     OW33109   1.608   4.126  10.172 -0.1511  0.0600  0.1364
 7158SOL    HW133110   1.559   4.075  10.236 -0.4673  2.1846  1.5966
 7158SOL    HW233111   1.606   4.077  10.090 -1.0587 -0.0083  0.1939
 7159SOL     OW33112   4.310   4.288   7.811 -0.0898  0.4477  0.1931
 7159SOL    HW133113   4.312   4.308   7.718 -0.0710  1.6609  0.4465
 7159SOL    HW233114   4.257   4.208   7.813 -0.5614  0.8175  2.6995
 7160SOL     OW33115   4.054   2.484   0.172 -0.3403  0.0207  0.0020
 7160SOL    HW133116   4.086   2.425   0.104  1.3260 -0.7622  1.4599
 7160SOL    HW233117   4.032   2.417   0.237  0.1083  1.1082  1.2875
 7161SOL     OW33118   0.023   4.630   4.999  0.2489  0.5256  0.1903
 7161SOL    HW133119   0.002   4.711   4.951 -0.7707 -0.8139 -1.6256
 7161SOL    HW233120   0.115   4.615   4.979 -0.5497 -0.7289 -2.6029
 7162SOL     OW33121   2.613   1.967   1.170 -0.3569  0.7784  0.0218
 7162SOL    HW133122   2.670   2.042   1.188  1.0277  0.3849 -2.6768
 7162SOL    HW233123   2.567   1.963   1.254  0.4515 -2.9175  0.3057
 7163SOL     OW33124   0.344   3.184   4.328  0.3383 -0.2172 -0.0408
 7163SOL    HW133125   0.406   3.146   4.390  0.5079  0.1891  0.0374
 7163SOL    HW233126   0.369   3.142   4.245  0.5851  1.2877 -0.7187
 7164SOL     OW33127   2.094   4.592   8.251 -0.0921 -0.4727  0.2474
 7164SOL    HW133128   2.178   4.548   8.244  0.9350  1.7581 -1.6379
 7164SOL    HW233129   2.119   4.682   8.229  1.9407 -1.4870 -1.5457
 7165SOL     OW33130   0.847   3.183  15.031  1.1360  0.4783 -0.5507
 7165SOL    HW133131   0.800   3.099  15.033  3.4854 -0.8978 -2.9467
 7165SOL    HW233132   0.842   3.207  15.123 -0.2694 -0.7475 -0.3022
 7166SOL     OW33133   1.147   1.571   2.031 -0.5780  0.7353  0.5738
 7166SOL    HW133134   1.151   1.590   2.125  0.5838  0.4208  0.5887
 7166SOL    HW233135   1.229   1.525   2.011 -1.7376  0.3214 -3.1153
 7167SOL     OW33136   1.130   3.210   2.643  0.2139 -0.0643 -0.7494
 7167SOL    HW133137   1.139   3.189   2.550  1.4804  0.8513 -0.8237
 7167SOL    HW233138   1.216   3.181   2.672 -0.1208  1.1511  1.4211
 7168SOL     OW33139   0.573   4.098   9.088 -0.1413  0.0794  0.0516
 7168SOL    HW133140   0.642   4.032   9.094  0.0452  0.3621  1.1560
 7168SOL    HW233141   0.622   4.180   9.085  2.2161 -1.3206  0.9053
 7169SOL     OW33142   3.517   4.230   2.997  0.3275  0.1247  0.2799
 7169SOL    HW133143   3.451   4.297   3.014 -0.9108 -1.3241  1.1859
 7169SOL    HW233144   3.490   4.223   2.906 -0.9051  2.8744  0.4473
 7170SOL     OW33145   0.259   0.836  17.477 -0.6246  0.4973  0.1129
 7170SOL    HW133146   0.233   0.837  17.385 -2.5415 -0.0691  0.6358
 7170SOL    HW233147   0.288   0.745  17.484 -1.2678  0.2633 -0.2729
 7171SOL     OW33148   4.130   2.309  12.322 -0.1071 -0.5780 -0.3976
 7171SOL    HW133149   4.178   2.333  12.401 -2.6399 -0.2891  1.0625
 7171SOL    HW233150   4.041   2.299  12.355  0.3216  2.2194  1.6278
 7172SOL     OW33151   2.188   2.031   2.457 -0.3800 -0.2521 -0.1099
 7172SOL    HW133152   2.114   1.979   2.488 -0.6607 -0.8779 -1.8337
 7172SOL    HW233153   2.145   2.107   2.416 -1.2303 -0.4450  0.4299
 7173SOL     OW33154   0.156   4.711   7.130  0.0178  0.8394 -0.1096
 7173SOL    HW133155   0.183   4.651   7.200  0.0168  0.2275 -0.6311
 7173SOL    HW233156   0.062   4.708   7.146  0.1016  0.6559  0.3546
 7174SOL     OW33157   2.845   1.332  14.515 -0.4151  0.8145 -0.0137
 7174SOL    HW133158   2.889   1.247  14.507 -1.7243  0.2303 -0.8198
 7174SOL    HW233159   2.887   1.373  14.440  0.1536  2.3264  1.1267
 7175SOL     OW33160   0.021   2.695   5.095 -0.2562  0.3303  0.3407
 7175SOL    HW133161   0.045   2.782   5.127 -0.5619  0.6177 -0.2015
 7175SOL    HW233162   4.677   2.691   5.147  0.0642 -0.4007  0.7731
 7176SOL     OW33163   1.358   0.237   9.834 -0.1523  0.0516  0.4463
 7176SOL    HW133164   1.435   0.206   9.882  0.7517  2.0880  0.3044
 7176SOL    HW233165   1.375   0.331   9.832 -1.3057  0.2659  1.4804
 7177SOL     OW33166   2.031   3.853   6.164  0.2708  0.4403 -0.0220
 7177SOL    HW133167   2.077   3.879   6.085 -0.0142  1.1079  0.0269
 7177SOL    HW233168   1.944   3.866   6.125 -0.0904  0.2954  0.7298
 7178SOL     OW33169   2.457   2.234  14.985 -0.3017  0.0114 -0.5275
 7178SOL    HW133170   2.441   2.285  14.906 -0.5482  1.5103  0.4994
 7178SOL    HW233171   2.539   2.272  15.016 -0.9665 -1.0269  2.5705
 7179SOL     OW33172   2.098   0.161   1.279  0.2174  0.2114  0.2067
 7179SOL    HW133173   2.137   0.076   1.258  3.3341  1.3615  1.3777
 7179SOL    HW233174   2.169   0.219   1.252 -0.2257  0.2676 -0.8843
 7180SOL     OW33175   2.039   4.046  11.833 -0.0330 -0.1292  0.2820
 7180SOL    HW133176   2.053   3.969  11.888 -0.7498  0.1758  0.8935
 7180SOL    HW233177   2.133   4.061  11.821 -0.3520  0.0756 -1.8572
 7181SOL     OW33178   0.564   2.256   6.504 -0.3132 -0.5813 -0.2648
 7181SOL    HW133179   0.658   2.242   6.516 -0.2514 -0.7720 -0.9397
 7181SOL    HW233180   0.558   2.299   6.419 -0.4871 -1.2323 -0.5858
 7182SOL     OW33181   1.599   3.185  16.181  0.4200  0.1606 -0.1322
 7182SOL    HW133182   1.631   3.125  16.113 -0.1258 -0.0828 -0.1738
 7182SOL    HW233183   1.551   3.121  16.234  1.0959  0.7067  1.1306
 7183SOL     OW33184   0.012   3.745  10.696  0.0631  0.1623  0.2771
 7183SOL    HW133185   4.664   3.709  10.669  0.0596 -0.4131  1.0538
 7183SOL    HW233186   0.001   3.767  10.788 -0.9158  0.9179 -0.0110
 7184SOL     OW33187   0.800   1.625   1.948 -0.0599  0.2920  0.5861
 7184SOL    HW133188   0.880   1.667   1.979 -0.4297 -0.1004  2.1019
 7184SOL    HW233189   0.800   1.547   2.004 -0.3467  0.2768  0.5648
 7185SOL     OW33190   3.727   1.267   3.995  0.3209 -0.1480  0.0398
 7185SOL    HW133191   3.711   1.310   4.079 -0.1778 -0.8978  0.3247
 7185SOL    HW233192   3.713   1.341   3.936  0.5943 -1.7597 -2.0433
 7186SOL     OW33193   1.484   2.991  16.668 -0.1915 -0.4422  0.4126
 7186SOL    HW133194   1.542   3.026  16.601  0.1107 -1.8930 -0.0760
 7186SOL    HW233195   1.433   3.071  16.680  2.7448  1.6097 -1.1232
 7187SOL     OW33196   3.791   3.346   2.476 -0.6710  0.7271  0.5417
 7187SOL    HW133197   3.838   3.398   2.542  1.7947 -1.8702  0.8465
 7187SOL    HW233198   3.700   3.357   2.503 -0.4585  1.7680  0.8449
 7188SOL     OW33199   3.398   2.886  14.650  0.4172  0.3434 -0.2877
 7188SOL    HW133200   3.307   2.865  14.670  1.2062 -2.4671  0.2775
 7188SOL    HW233201   3.444   2.854  14.728  2.1946  0.5764 -1.2372
 7189SOL     OW33202   0.212   4.506   2.485  0.4041 -0.7799 -0.0617
 7189SOL    HW133203   0.237   4.596   2.506  2.1513 -1.2552 -0.1336
 7189SOL    HW233204   0.148   4.484   2.552 -0.8553  1.6680 -0.4569
 7190SOL     OW33205   2.607   0.788   7.736 -0.0290 -0.8091  0.6296
 7190SOL    HW133206   2.690   0.802   7.783  0.7505  0.5120 -1.1339
 7190SOL    HW233207   2.560   0.865   7.766  0.2245 -0.8526  1.1447
 7191SOL     OW33208   1.476   2.640   5.443  0.4169  0.1022  0.2200
 7191SOL    HW133209   1.438   2.557   5.410 -1.2619  1.2114 -0.6711
 7191SOL    HW233210   1.566   2.612   5.456 -0.4939 -3.0603 -0.2127
 7192SOL     OW33211   1.087   2.059   6.772  0.1197  0.6305  0.1734
 7192SOL    HW133212   1.040   1.993   6.722  1.8773 -1.0720  0.7629
 7192SOL    HW233213   1.091   2.124   6.702 -1.6974 -0.1192 -0.6223
 7193SOL     OW33214   3.798   4.236   6.840  0.0546 -0.2202  0.0177
 7193SOL    HW133215   3.723   4.195   6.798 -0.0307  0.5299 -0.5554
 7193SOL    HW233216   3.793   4.331   6.825 -1.8179 -0.0607  1.6255
 7194SOL     OW33217   1.269   1.204  17.467 -0.4498  0.1244  0.2062
 7194SOL    HW133218   1.282   1.111  17.486  0.5142  0.0100 -0.9838
 7194SOL    HW233219   1.327   1.215  17.392 -0.4225  0.0822  0.2211
 7195SOL     OW33220   4.606   0.413  11.917  0.1166 -0.5182 -1.1194
 7195SOL    HW133221   4.652   0.362  11.984 -1.6027  1.2889  1.4419
 7195SOL    HW233222   4.686   0.445  11.876  0.6202  0.1222  0.3854
 7196SOL     OW33223   3.651   3.390   4.440  0.1791 -0.0207 -0.0723
 7196SOL    HW133224   3.696   3.412   4.357 -3.7286  3.2468 -1.3091
 7196SOL    HW233225   3.575   3.448   4.442 -0.9731 -1.5904  1.2927
 7197SOL     OW33226   2.800   2.878   7.803 -0.4765 -0.1310  0.3544
 7197SOL    HW133227   2.720   2.875   7.751  0.2943 -1.0746 -0.7662
 7197SOL    HW233228   2.795   2.797   7.853  1.0843  0.0422  0.7831
 7198SOL     OW33229   1.519   1.430   9.753 -0.5355  0.3899  0.3806
 7198SOL    HW133230   1.579   1.487   9.705 -0.8760  0.1713 -0.3019
 7198SOL    HW233231   1.536   1.451   9.845  0.6809 -1.3620  0.5719
 7199SOL     OW33232   2.162   0.492   5.621  0.4072  0.2112 -0.0550
 7199SOL    HW133233   2.227   0.553   5.658  0.5670  0.3969 -0.6359
 7199SOL    HW233234   2.206   0.450   5.548 -0.3303  0.2029 -0.4899
 7200SOL     OW33235   0.831   4.734   7.244  0.0752 -0.1289 -0.3186
 7200SOL    HW133236   0.807   0.019   7.334 -3.1521 -1.2549 -0.9075
 7200SOL    HW233237   0.812   0.087   7.216 -2.4990 -1.1649 -1.9194
 7201SOL     OW33238   4.385   2.711  17.490 -0.3809  0.2075  0.4555
 7201SOL    HW133239   4.463   2.762  17.469 -0.3997 -0.2835 -0.8087
 7201SOL    HW233240   4.341   2.700  17.405  0.3663  0.8398 -0.0054
 7202SOL     OW33241   4.686   4.215  12.401 -0.3403 -0.6090  1.0521
 7202SOL    HW133242   4.591   4.204  12.404 -0.3725 -0.5873  0.0153
 7202SOL    HW233243   4.699   4.248  12.313  0.1978 -2.2554  0.5148
 7203SOL     OW33244   1.986   1.084   0.799 -0.2707  0.2470  0.6746
 7203SOL    HW133245   1.942   1.131   0.870  1.7831  0.5722  1.7140
 7203SOL    HW233246   1.925   1.105   0.728  0.3408 -2.5806 -0.6872
 7204SOL     OW33247   3.545   1.423   3.281 -0.2334  0.5846  0.1796
 7204SOL    HW133248   3.506   1.491   3.226 -3.1410 -0.5374  0.8637
 7204SOL    HW233249   3.632   1.458   3.298  0.0757 -0.6917  1.1640
 7205SOL     OW33250   4.279   4.663   7.506  0.0714 -0.4427  0.2012
 7205SOL    HW133251   4.313   0.010   7.476  2.2621 -1.4232 -0.0740
 7205SOL    HW233252   4.362   4.621   7.529 -0.2906  0.1880  2.6591
 7206SOL     OW33253   1.369   4.675   8.872 -0.2304 -0.5154 -0.6611
 7206SOL    HW133254   1.288   4.647   8.829  0.7134 -1.1696 -2.0125
 7206SOL    HW233255   1.346   0.023   8.911  0.8315 -0.3178 -0.4772
 7207SOL     OW33256   3.616   3.067   5.818  0.0426  0.2593 -0.5207
 7207SOL    HW133257   3.581   3.140   5.869  0.1451 -0.1207  0.0890
 7207SOL    HW233258   3.571   3.083   5.735 -0.0790  0.3746 -0.4323
 7208SOL     OW33259   4.000   1.741   8.464 -0.2966  0.3426 -0.0293
 7208SOL    HW133260   3.940   1.801   8.509 -1.7147  0.1317 -1.6276
 7208SOL    HW233261   3.935   1.678   8.432 -0.7353  0.3573  0.8141
 7209SOL     OW33262   2.072   0.995  15.805 -0.1562 -0.0882  0.2286
 7209SOL    HW133263   2.119   1.078  15.793  1.4249 -0.9151  0.7674
 7209SOL    HW233264   2.138   0.946  15.854 -0.8203 -0.1158  1.1057
 7210SOL     OW33265   3.520   2.850   8.894 -0.6836  0.0419 -0.1491
 7210SOL    HW133266   3.555   2.936   8.869 -2.1185  0.1937 -1.6612
 7210SOL    HW233267   3.602   2.804   8.877 -2.2732 -2.6728 -0.4708
 7211SOL     OW33268   0.705   1.514   4.576 -0.1801  1.0475 -1.3680
 7211SOL    HW133269   0.724   1.430   4.534 -0.7070  0.5425 -0.5987
 7211SOL    HW233270   0.789   1.517   4.620 -1.8686  0.7655  1.8467
 7212SOL     OW33271   4.501   2.214   2.472  0.6074 -0.0283  0.0999
 7212SOL    HW133272   4.577   2.164   2.503  0.1816  0.5586  2.1064
 7212SOL    HW233273   4.548   2.295   2.456 -1.2748  1.8548  4.0141
 7213SOL     OW33274   1.968   4.371   1.649 -0.5359 -0.6327 -0.1723
 7213SOL    HW133275   1.973   4.289   1.600  1.1859 -0.4046 -0.3584
 7213SOL    HW233276   1.953   4.346   1.740  1.0040 -0.3682  0.1434
 7214SOL     OW33277   3.636   3.705   1.538  0.6568 -0.1214 -0.1186
 7214SOL    HW133278   3.705   3.641   1.554 -0.0985 -0.6517  0.9722
 7214SOL    HW233279   3.680   3.770   1.483  1.1365 -1.1629 -0.9752
 7215SOL     OW33280   4.505   2.285   3.611  0.4259  0.3861 -0.0199
 7215SOL    HW133281   4.482   2.316   3.524  0.9724  1.7243  0.3103
 7215SOL    HW233282   4.601   2.293   3.607  0.2858  3.2919  2.4410
 7216SOL     OW33283   4.464   3.728   8.984  0.4976 -0.1617 -0.0110
 7216SOL    HW133284   4.404   3.661   9.017  0.0008 -0.0689 -0.7189
 7216SOL    HW233285   4.549   3.686   8.999  0.1423  0.0512  2.5842
 7217SOL     OW33286   4.040   3.046  12.242  0.1795  0.6556  0.1657
 7217SOL    HW133287   4.105   3.021  12.308  0.2923  1.6682  0.4405
 7217SOL    HW233288   4.088   3.026  12.161 -1.8998  0.6218 -1.0422
 7218SOL     OW33289   0.733   3.619  14.426  0.0203 -0.9865 -0.3622
 7218SOL    HW133290   0.719   3.681  14.354  0.0362 -0.7190 -0.1376
 7218SOL    HW233291   0.650   3.621  14.475 -0.4914  1.8124 -1.2832
 7219SOL     OW33292   4.110   4.205   6.370  0.1407 -0.4829  0.3346
 7219SOL    HW133293   4.074   4.160   6.294  2.3394 -0.5339 -0.6695
 7219SOL    HW233294   4.035   4.234   6.422 -0.2933  1.1522 -1.1711
 7220SOL     OW33295   2.907   4.691  10.627 -0.0037  0.3248  0.4681
 7220SOL    HW133296   2.996   4.704  10.661  0.2505  1.8386 -0.7745
 7220SOL    HW233297   2.852   4.676  10.704  2.1648 -0.3392  1.8827
 7221SOL     OW33298   0.857   3.359   3.059  0.2562 -0.0892  0.2315
 7221SOL    HW133299   0.814   3.382   3.140  0.5092 -1.5144  0.7692
 7221SOL    HW233300   0.910   3.436   3.036 -0.2138  0.3261  0.5521
 7222SOL     OW33301   2.291   3.204   2.989  0.4957  1.2852 -0.8010
 7222SOL    HW133302   2.228   3.237   3.053  1.6249 -0.4671  1.2498
 7222SOL    HW233303   2.306   3.291   2.952  0.2626  1.6909  0.0657
 7223SOL     OW33304   1.823   3.039   0.722 -0.2035  0.3624  0.4805
 7223SOL    HW133305   1.730   3.059   0.719  0.2564  2.2217 -1.2803
 7223SOL    HW233306   1.835   3.024   0.628  0.0630  2.8278  0.1136
 7224SOL     OW33307   2.331   0.636   5.768  0.0618  0.5113  0.1108
 7224SOL    HW133308   2.390   0.568   5.800  0.1808 -0.0602 -1.3140
 7224SOL    HW233309   2.339   0.698   5.840  0.2421  1.6039 -0.8441
 7225SOL     OW33310   3.309   0.893   6.059  0.2451  0.2151 -0.1315
 7225SOL    HW133311   3.249   0.919   5.989  0.2049  1.0087  0.1935
 7225SOL    HW233312   3.348   0.813   6.025 -1.5415  0.1681 -2.0690
 7226SOL     OW33313   2.648   2.597   4.916 -0.2568 -0.5059 -0.5452
 7226SOL    HW133314   2.611   2.628   4.833 -1.4965  0.2167  0.2661
 7226SOL    HW233315   2.704   2.673   4.932 -0.5844  0.1848 -2.6568
 7227SOL     OW33316   2.426   2.509   9.371 -0.6486 -0.0220 -0.3787
 7227SOL    HW133317   2.350   2.496   9.428  0.3002  0.6298  1.0297
 7227SOL    HW233318   2.476   2.573   9.420  0.1727  1.0289 -2.5781
 7228SOL     OW33319   2.795   0.794   3.259 -0.0699  0.7927 -0.1523
 7228SOL    HW133320   2.871   0.758   3.214 -0.5323  0.3371 -0.5676
 7228SOL    HW233321   2.784   0.878   3.215 -2.0355 -0.2605 -1.6380
 7229SOL     OW33322   3.403   0.616   7.915  0.1409  0.2939 -0.1839
 7229SOL    HW133323   3.313   0.608   7.947  0.2545  0.6793  0.2361
 7229SOL    HW233324   3.417   0.526   7.885 -1.7079  0.7627 -2.4815
 7230SOL     OW33325   2.837   2.795   4.300  0.4144 -0.2561  0.1654
 7230SOL    HW133326   2.783   2.751   4.234 -2.3491  1.2506  1.4319
 7230SOL    HW233327   2.910   2.813   4.240 -1.3507  0.7489 -1.6771
 7231SOL     OW33328   2.795   1.973   7.243  0.3345  0.4026 -0.1027
 7231SOL    HW133329   2.806   1.961   7.337  0.9361 -2.1857 -0.5225
 7231SOL    HW233330   2.861   2.041   7.229  1.0112 -0.0549  0.8168
 7232SOL     OW33331   3.917   2.669  17.726  0.4462  0.2210 -0.3323
 7232SOL    HW133332   3.935   2.692  17.635  1.7787  0.7866  0.0595
 7232SOL    HW233333   4.003   2.633   0.005  0.4458  1.9805  2.4440
 7233SOL     OW33334   4.600   3.420   9.583  0.4714 -0.3488  0.7235
 7233SOL    HW133335   4.612   3.473   9.661 -0.2174 -0.9401  1.2373
 7233SOL    HW233336   4.676   3.362   9.588  0.1899 -0.7005  0.9196
 7234SOL     OW33337   0.716   3.561   2.825  0.2378 -0.6114 -0.0373
 7234SOL    HW133338   0.789   3.503   2.802  0.9582  0.9768 -1.8389
 7234SOL    HW233339   0.731   3.561   2.919  1.2675 -5.2009 -0.2416
 7235SOL     OW33340   3.717   4.557   1.890  0.0929  0.2559  0.4818
 7235SOL    HW133341   3.702   4.581   1.981  0.1432  0.9544  0.3089
 7235SOL    HW233342   3.628   4.535   1.863  0.2626 -1.0342  0.9758
 7236SOL     OW33343   3.525   1.950   8.345 -0.0448 -0.5351 -0.2001
 7236SOL    HW133344   3.523   1.854   8.350  1.2995 -0.7271 -3.7993
 7236SOL    HW233345   3.495   1.965   8.435  0.5285  1.3471 -0.3297
 7237SOL     OW33346   3.861   1.599   0.664 -0.4265  0.4507 -0.4015
 7237SOL    HW133347   3.857   1.505   0.651 -1.0866  0.5286 -0.7302
 7237SOL    HW233348   3.933   1.626   0.608 -0.5449  1.3444 -0.1238
 7238SOL     OW33349   4.455   4.140   1.399 -0.4122 -0.2737  0.5239
 7238SOL    HW133350   4.484   4.232   1.399 -2.3962  0.3520  1.0173
 7238SOL    HW233351   4.537   4.093   1.416 -1.3019 -2.1717 -0.4268
 7239SOL     OW33352   4.298   0.835   5.244 -0.2199  0.6974 -0.1480
 7239SOL    HW133353   4.385   0.864   5.216  0.6105 -1.2473  0.3954
 7239SOL    HW233354   4.300   0.849   5.339  1.4541  0.6171 -0.1726
 7240SOL     OW33355   1.203   4.086   9.354  0.0497 -0.1045 -0.7240
 7240SOL    HW133356   1.213   4.055   9.264 -0.3440  1.9461 -1.4851
 7240SOL    HW233357   1.275   4.149   9.346 -1.8333  1.8520 -2.2764
 7241SOL     OW33358   2.192   0.888   4.425  0.2775 -0.0840  0.3747
 7241SOL    HW133359   2.283   0.864   4.408 -0.6383 -2.1275 -1.5372
 7241SOL    HW233360   2.185   0.979   4.396 -1.2834 -0.0374  0.8900
 7242SOL     OW33361   3.943   0.503  15.670 -0.5664  0.8165 -0.2587
 7242SOL    HW133362   4.034   0.492  15.643 -1.1548  1.2409 -2.4106
 7242SOL    HW233363   3.949   0.571  15.737  0.6724  2.0847 -1.6518
 7243SOL     OW33364   4.268   4.238  15.971 -0.3155  0.1501  0.0563
 7243SOL    HW133365   4.300   4.324  15.997  1.9538 -1.0386  1.2578
 7243SOL    HW233366   4.186   4.250  15.924  0.5579  0.8617 -1.2598
 7244SOL     OW33367   3.533   3.950   8.871 -0.7400 -0.0608  0.0110
 7244SOL    HW133368   3.513   4.015   8.804 -1.6381 -1.6211 -1.2250
 7244SOL    HW233369   3.607   3.920   8.819 -2.9889 -0.6947 -2.8439
 7245SOL     OW33370   1.315   2.548  17.284  0.4303 -0.2146 -0.0690
 7245SOL    HW133371   1.230   2.512  17.261  0.9791 -1.7174  0.2380
 7245SOL    HW233372   1.354   2.474  17.331 -1.5486 -0.3159  1.4142
 7246SOL     OW33373   0.967   1.998   8.243 -0.0324  0.1909 -0.5486
 7246SOL    HW133374   0.971   1.947   8.162 -0.8543  0.3857 -0.7204
 7246SOL    HW233375   0.873   1.988   8.262  0.1513  2.9649  1.9268
 7247SOL     OW33376   1.112   3.360   8.953  0.2079 -0.1454 -0.2173
 7247SOL    HW133377   1.204   3.331   8.956 -0.0642 -0.9241  0.6401
 7247SOL    HW233378   1.129   3.445   8.913  0.8616 -0.5419 -0.7895
 7248SOL     OW33379   2.305   3.553   3.795 -0.0501  0.8288 -0.0248
 7248SOL    HW133380   2.245   3.521   3.862  0.5008 -1.1495 -0.4669
 7248SOL    HW233381   2.303   3.648   3.809 -0.4919  0.3797  3.0320
 7249SOL     OW33382   0.467   2.484   5.932 -0.5957  0.2542 -0.0593
 7249SOL    HW133383   0.433   2.544   5.866  1.2994 -0.2653 -1.5132
 7249SOL    HW233384   0.491   2.537   6.007 -1.0886  1.4231 -0.7278
 7250SOL     OW33385   4.432   3.914   4.063  0.0911  0.1041  0.1845
 7250SOL    HW133386   4.408   3.827   4.094  2.0853 -0.2618  0.6928
 7250SOL    HW233387   4.367   3.976   4.098  0.4567  0.1373  0.8117
 7251SOL     OW33388   1.411   0.319   3.723  0.0034 -0.4007  0.1223
 7251SOL    HW133389   1.447   0.243   3.768 -4.2556 -0.6029  3.1867
 7251SOL    HW233390   1.397   0.281   3.636  1.1075  2.2677 -1.2141
 7252SOL     OW33391   0.136   0.135   7.845  0.3814 -0.1806  0.3103
 7252SOL    HW133392   0.163   0.142   7.754 -0.0507 -1.2972  0.0992
 7252SOL    HW233393   0.108   0.226   7.852  1.4298  0.1878 -0.3154
 7253SOL     OW33394   2.291   0.305   1.191 -0.3765 -0.0487 -0.0494
 7253SOL    HW133395   2.363   0.253   1.155 -0.6285 -0.3546 -0.1166
 7253SOL    HW233396   2.305   0.385   1.140  2.5027 -1.3128 -1.2675
 7254SOL     OW33397   2.721   3.293   8.830 -0.3034  0.3645  0.0615
 7254SOL    HW133398   2.776   3.221   8.799  1.7544  2.0462 -0.1807
 7254SOL    HW233399   2.751   3.359   8.768  1.1837  0.1555  0.5560
 7255SOL     OW33400   4.222   2.320   0.367  0.4059  0.4702  0.3131
 7255SOL    HW133401   4.207   2.234   0.328  1.4059  0.9720 -1.1726
 7255SOL    HW233402   4.285   2.364   0.310 -0.4230 -0.4192 -1.2909
 7256SOL     OW33403   1.857   1.037   6.654 -0.6873 -0.7058 -0.2860
 7256SOL    HW133404   1.777   1.087   6.670 -0.2746 -0.2804  0.4285
 7256SOL    HW233405   1.810   0.953   6.660 -0.3287 -1.0083 -1.8477
 7257SOL     OW33406   4.494   0.187   2.014  0.0973 -0.1301  0.1360
 7257SOL    HW133407   4.431   0.119   1.990  1.0960 -1.6813  1.9370
 7257SOL    HW233408   4.512   0.228   1.929  0.4809  0.4447  0.5010
 7258SOL     OW33409   0.992   1.586   8.176 -0.4428 -0.0503 -0.2152
 7258SOL    HW133410   0.905   1.572   8.213  0.3789 -0.5446  1.5170
 7258SOL    HW233411   0.974   1.588   8.082  0.0315 -1.4496 -0.3301
 7259SOL     OW33412   1.670   4.406   9.357  0.5450 -0.0579 -0.0734
 7259SOL    HW133413   1.625   4.325   9.334  0.7695  0.3739 -2.0150
 7259SOL    HW233414   1.649   4.462   9.283 -0.2642 -0.8295 -0.4284
 7260SOL     OW33415   4.233   0.986  16.196 -0.0039  0.5727 -0.2514
 7260SOL    HW133416   4.198   1.054  16.138 -1.5805  1.0258  1.2308
 7260SOL    HW233417   4.279   1.022  16.272  0.0844  0.0978 -0.0821
 7261SOL     OW33418   2.285   2.813  17.158 -0.2037 -0.3373 -0.2384
 7261SOL    HW133419   2.332   2.869  17.097  0.4663 -1.2330 -0.5454
 7261SOL    HW233420   2.309   2.730  17.117  2.6005 -0.0415  0.8323
 7262SOL     OW33421   3.631   3.052  15.253 -0.1565  0.1090  0.2623
 7262SOL    HW133422   3.672   3.056  15.340 -2.9796  1.4427  1.5174
 7262SOL    HW233423   3.538   3.048  15.275  0.0562 -1.4694  0.8696
 7263SOL     OW33424   2.625   1.339   8.335  0.1038  0.0297 -0.3396
 7263SOL    HW133425   2.552   1.281   8.357  1.4645 -1.1616  1.0221
 7263SOL    HW233426   2.635   1.313   8.244  1.2857 -0.3123 -0.1073
 7264SOL     OW33427   0.586   3.006   5.135  0.4760  0.0328  0.0545
 7264SOL    HW133428   0.672   2.985   5.172  0.6004  2.2903  1.0293
 7264SOL    HW233429   0.603   2.980   5.045  0.1612 -0.2173  0.0670
 7265SOL     OW33430   4.133   3.023   9.681 -0.5758 -0.2289 -0.4894
 7265SOL    HW133431   4.068   3.015   9.752 -1.1449  2.9706 -0.6731
 7265SOL    HW233432   4.210   2.967   9.694  0.4310  1.2260 -0.2637
 7266SOL     OW33433   2.400   0.333   4.437  0.1142 -0.1309 -0.0043
 7266SOL    HW133434   2.404   0.403   4.502 -1.5247 -0.5506  0.5534
 7266SOL    HW233435   2.403   0.388   4.358  0.4627  1.3742  1.0612
 7267SOL     OW33436   3.712   2.314   4.391  0.1418  0.1489  0.4440
 7267SOL    HW133437   3.750   2.297   4.477  0.6669  0.5483  0.2915
 7267SOL    HW233438   3.792   2.326   4.340 -0.3148 -0.9100 -0.5308
 7268SOL     OW33439   1.850   4.198  13.681 -0.3732 -0.8000 -0.1585
 7268SOL    HW133440   1.827   4.247  13.602 -0.4528  0.9416  0.9286
 7268SOL    HW233441   1.935   4.169  13.649 -0.1317  0.2072 -0.4289
 7269SOL     OW33442   4.373   1.934   8.417 -0.4681  0.5294  0.1151
 7269SOL    HW133443   4.342   1.931   8.327  0.8074  0.9276 -0.3354
 7269SOL    HW233444   4.447   1.994   8.405 -0.8396  0.7214 -1.1501
 7270SOL     OW33445   2.692   0.811   5.385 -0.8105  0.1132 -0.1628
 7270SOL    HW133446   2.744   0.869   5.441  0.5094  0.6644 -1.9453
 7270SOL    HW233447   2.627   0.778   5.447  0.1866  0.0443  0.8576
 7271SOL     OW33448   3.654   1.645   2.689  0.0711 -0.0343 -0.6759
 7271SOL    HW133449   3.716   1.711   2.657  0.1764  0.7271  1.0767
 7271SOL    HW233450   3.716   1.576   2.712  0.3465  0.5627  0.4104
 7272SOL     OW33451   3.857   0.645   3.006  0.4759  0.5572  0.0535
 7272SOL    HW133452   3.879   0.717   3.064 -0.4315  1.4389 -0.6992
 7272SOL    HW233453   3.888   0.676   2.921 -0.5253  0.6168 -0.2897
 7273SOL     OW33454   1.166   1.868   9.776 -0.2614 -0.4148 -0.4860
 7273SOL    HW133455   1.185   1.958   9.802 -0.1056 -0.1655 -1.4627
 7273SOL    HW233456   1.211   1.866   9.692 -0.1655  0.8599 -0.4714
 7274SOL     OW33457   2.657   3.417   7.726 -0.5370 -0.5913  0.4078
 7274SOL    HW133458   2.613   3.481   7.782 -1.0373 -0.7711  0.2167
 7274SOL    HW233459   2.600   3.403   7.650 -0.6943  1.4164  0.1530
 7275SOL     OW33460   1.198   2.091   3.768 -0.0814  0.2362 -0.0974
 7275SOL    HW133461   1.192   2.085   3.863 -0.9604 -0.8386 -0.2136
 7275SOL    HW233462   1.143   2.165   3.741 -0.3022 -1.0419 -3.2066
 7276SOL     OW33463   2.984   0.445   6.106 -0.1836 -0.3075  0.0228
 7276SOL    HW133464   2.957   0.510   6.041  1.6851 -1.5062 -1.9415
 7276SOL    HW233465   3.056   0.405   6.058  0.2043  0.6832 -0.2288
 7277SOL     OW33466   4.081   2.590  11.366  0.2850 -0.5681  0.4026
 7277SOL    HW133467   4.061   2.572  11.458  0.4549  3.6569  1.2833
 7277SOL    HW233468   4.078   2.506  11.321 -1.6192 -1.1291  1.5865
 7278SOL     OW33469   1.801   3.195  13.634 -0.0189 -0.3815  0.1244
 7278SOL    HW133470   1.805   3.102  13.612  0.3268 -0.0713 -1.1234
 7278SOL    HW233471   1.885   3.211  13.678 -0.3516  3.0422 -0.4817
 7279SOL     OW33472   0.181   2.877   4.129  0.0482 -0.7363 -0.0732
 7279SOL    HW133473   0.212   2.843   4.213 -1.7235 -0.0171  0.8580
 7279SOL    HW233474   0.091   2.903   4.149 -0.2838 -2.0452  0.1287
 7280SOL     OW33475   3.590   0.105   7.915 -0.0780  0.2407  0.5411
 7280SOL    HW133476   3.683   0.128   7.911 -0.1385  0.4920  0.5599
 7280SOL    HW233477   3.555   0.153   7.990  1.5593 -0.2457  1.6047
 7281SOL     OW33478   1.272   2.510  10.343 -0.6044 -0.1392  0.1795
 7281SOL    HW133479   1.200   2.527  10.282  1.7449  0.9947 -2.3310
 7281SOL    HW233480   1.269   2.564  10.422  0.4486  1.0049 -0.5498
 7282SOL     OW33481   4.041   1.169   8.570  0.2930 -0.0090  0.2702
 7282SOL    HW133482   4.091   1.124   8.638  1.1386 -0.1611 -0.4429
 7282SOL    HW233483   3.957   1.124   8.579  0.0927 -0.1630 -2.1827
 7283SOL     OW33484   2.498   2.144   1.735 -0.3147 -0.4717  0.5188
 7283SOL    HW133485   2.496   2.161   1.640 -2.8020 -2.5321  0.2155
 7283SOL    HW233486   2.424   2.085   1.743 -0.7650  0.0832  0.4292
 7284SOL     OW33487   4.122   3.583   5.775  0.1273  0.3767 -0.3121
 7284SOL    HW133488   4.154   3.525   5.844  0.0193 -0.1996 -0.7437
 7284SOL    HW233489   4.124   3.668   5.819  2.2467 -0.5445  1.4135
 7285SOL     OW33490   2.456   2.611   7.518 -0.5041 -0.3545  0.1388
 7285SOL    HW133491   2.486   2.558   7.592  0.5377  0.0120 -0.0201
 7285SOL    HW233492   2.519   2.683   7.523 -0.6725 -0.2385  0.5619
 7286SOL     OW33493   2.875   1.889   6.524 -0.0142  0.3371  0.5060
 7286SOL    HW133494   2.945   1.954   6.525  1.8135 -1.6788  1.7930
 7286SOL    HW233495   2.857   1.914   6.615 -2.1720 -1.3484  0.5437
 7287SOL     OW33496   3.283   4.645  12.995  0.2157 -0.1570  0.5772
 7287SOL    HW133497   3.203   4.602  12.966 -0.0541  0.7972 -0.1099
 7287SOL    HW233498   3.258   4.697  13.072 -0.3545 -0.2938  0.4858
 7288SOL     OW33499   3.570   1.866  14.262  0.1877 -0.1440  0.6435
 7288SOL    HW133500   3.547   1.943  14.209 -0.8096 -0.5994  0.4107
 7288SOL    HW233501   3.483   1.825  14.259  1.0013 -1.6373 -2.4609
 7289SOL     OW33502   2.666   2.040   6.020 -1.0884 -0.5722  0.2147
 7289SOL    HW133503   2.704   1.957   6.049  0.8112 -0.3776 -1.7068
 7289SOL    HW233504   2.625   2.060   6.104  0.3986  1.4173  0.4475
 7290SOL     OW33505   0.619   3.289  15.522  0.4060  0.1532  0.5015
 7290SOL    HW133506   0.591   3.200  15.503  1.9749 -0.6504  2.0090
 7290SOL    HW233507   0.678   3.299  15.448 -1.1009  0.6939 -0.6358
 7291SOL     OW33508   1.330   0.289   8.738 -0.3499 -0.1811  0.5017
 7291SOL    HW133509   1.341   0.216   8.677 -0.4232 -0.6289  1.0231
 7291SOL    HW233510   1.272   0.343   8.684 -0.0447  3.3623  3.7147
 7292SOL     OW33511   3.594   0.062   6.116  0.1843 -0.2169 -0.0012
 7292SOL    HW133512   3.524   0.073   6.181  1.0544  2.3957  0.4737
 7292SOL    HW233513   3.672   0.076   6.169 -1.4759 -0.6249  2.5526
 7293SOL     OW33514   1.342   4.706  10.884 -0.4575 -0.2705 -0.3794
 7293SOL    HW133515   1.246   4.710  10.883 -0.3670  1.6802 -0.7763
 7293SOL    HW233516   1.353   4.622  10.928 -0.4535 -0.3814 -0.5944
 7294SOL     OW33517   3.641   2.317   5.424  0.0808 -0.2694 -0.2799
 7294SOL    HW133518   3.693   2.247   5.463  1.6607  0.5500 -0.9107
 7294SOL    HW233519   3.564   2.328   5.480  1.4976 -0.6917  1.7619
 7295SOL     OW33520   1.599   2.649  14.776 -0.0216  0.4227 -0.1664
 7295SOL    HW133521   1.580   2.743  14.769  0.2634  0.4440 -0.6948
 7295SOL    HW233522   1.589   2.620  14.685 -0.2599  1.1904 -0.3924
 7296SOL     OW33523   3.623   2.138  14.464 -0.1784 -0.1445  0.5464
 7296SOL    HW133524   3.528   2.132  14.461 -0.1355 -0.5107 -0.0878
 7296SOL    HW233525   3.662   2.053  14.484 -2.6967 -0.9985  1.8092
 7297SOL     OW33526   3.769   0.730   1.519 -0.3162 -0.1820  0.5131
 7297SOL    HW133527   3.802   0.699   1.603  1.5447 -2.9812 -1.2768
 7297SOL    HW233528   3.850   0.764   1.482 -2.7880  4.2886 -0.8114
 7298SOL     OW33529   2.712   2.334   2.780  0.2467  0.1528  0.3050
 7298SOL    HW133530   2.771   2.407   2.799  0.0723  0.8499 -1.7906
 7298SOL    HW233531   2.681   2.365   2.694  1.6723  0.8959  0.0614
 7299SOL     OW33532   2.733   1.830  13.101 -0.4107 -0.0001 -0.2101
 7299SOL    HW133533   2.821   1.849  13.066 -0.7017 -1.9773 -2.0285
 7299SOL    HW233534   2.763   1.811  13.189  0.0328  0.0750 -0.3427
 7300SOL     OW33535   0.475   3.115   4.106 -0.0143 -0.2801  0.0790
 7300SOL    HW133536   0.569   3.134   4.110  0.5128 -3.1200  1.4876
 7300SOL    HW233537   0.486   3.025   4.135 -0.9698 -0.2908  0.4103
 7301SOL     OW33538   1.704   2.713  14.526 -0.7193 -0.5926  0.2730
 7301SOL    HW133539   1.768   2.758  14.472 -2.1119  1.2114  0.1166
 7301SOL    HW233540   1.626   2.768  14.515 -0.8155 -1.2090 -2.0265
 7302SOL     OW33541   0.176   1.373  16.480  0.7115  0.2492  0.0375
 7302SOL    HW133542   0.234   1.308  16.441  0.0342 -0.0580 -0.4534
 7302SOL    HW233543   0.144   1.311  16.546 -0.6789  0.0786 -0.7970
 7303SOL     OW33544   0.051   3.125  15.889  0.3360 -0.3159 -0.2439
 7303SOL    HW133545   4.725   3.114  15.961 -4.0757 -0.1348 -4.0360
 7303SOL    HW233546   0.031   3.205  15.840 -1.9452 -0.6029  0.2041
 7304SOL     OW33547   1.508   2.010   3.247  0.0991 -0.0216  0.1102
 7304SOL    HW133548   1.541   1.992   3.335 -0.8601 -3.0843 -0.1516
 7304SOL    HW233549   1.415   1.986   3.252  0.4135 -1.0862  0.8298
 7305SOL     OW33550   1.509   0.049  12.981 -0.2466  0.3773 -0.5290
 7305SOL    HW133551   1.579   0.042  12.915 -0.5217 -0.0499 -0.7763
 7305SOL    HW233552   1.501   4.694  13.006 -0.4022  0.5275 -0.0414
 7306SOL     OW33553   2.157   3.747   8.981 -0.6925 -0.4184 -0.5337
 7306SOL    HW133554   2.218   3.810   8.945 -1.9906 -0.1502 -2.3027
 7306SOL    HW233555   2.133   3.787   9.064  0.9030  0.7028 -0.6200
 7307SOL     OW33556   1.495   2.464   9.927  0.6198 -0.7723  0.0411
 7307SOL    HW133557   1.425   2.482   9.863  0.3027 -1.1953  0.2712
 7307SOL    HW233558   1.565   2.516   9.887  1.4925 -1.5123  0.6213
 7308SOL     OW33559   1.224   3.699   4.220 -0.0335  0.2705 -0.3070
 7308SOL    HW133560   1.166   3.645   4.166  1.0686 -1.9598  0.7015
 7308SOL    HW233561   1.160   3.732   4.284  0.7295 -0.8526  1.0432
 7309SOL     OW33562   1.198   3.188   6.060 -0.2980  0.1851 -0.7274
 7309SOL    HW133563   1.193   3.093   6.048 -0.5555  0.0147  0.7251
 7309SOL    HW233564   1.212   3.221   5.971  0.2540  0.2742 -0.6112
 7310SOL     OW33565   0.607   0.351   5.962  0.3721  0.1026 -0.3832
 7310SOL    HW133566   0.588   0.276   6.018 -1.8893  0.0184 -1.2792
 7310SOL    HW233567   0.626   0.302   5.882  1.4727 -0.0771 -0.0139
 7311SOL     OW33568   1.747   3.066   3.690 -0.6189 -0.6271  0.9130
 7311SOL    HW133569   1.769   3.059   3.783 -0.9843 -2.5029  0.8642
 7311SOL    HW233570   1.693   3.145   3.695  0.9908  0.5062  0.5160
 7312SOL     OW33571   2.143   3.400   5.108  0.2936 -0.3015 -0.0548
 7312SOL    HW133572   2.113   3.311   5.125  0.3460 -0.3464 -0.2000
 7312SOL    HW233573   2.228   3.393   5.152  2.5097  0.5704 -4.1784
 7313SOL     OW33574   0.428   0.528   7.697 -0.0887 -0.4295  0.5262
 7313SOL    HW133575   0.334   0.540   7.711 -0.2628 -0.1928 -0.9188
 7313SOL    HW233576   0.461   0.568   7.778 -0.8582  0.9855  0.1493
 7314SOL     OW33577   1.071   3.418   5.080 -0.1208  0.2516 -0.1249
 7314SOL    HW133578   0.983   3.382   5.069 -0.9574  1.9722  0.9060
 7314SOL    HW233579   1.124   3.377   5.011 -1.2715 -1.5254  0.0472
 7315SOL     OW33580   2.943   1.320  13.303 -0.0243 -0.4111  0.6636
 7315SOL    HW133581   3.001   1.365  13.365 -1.6354 -0.6780  2.3570
 7315SOL    HW233582   2.915   1.245  13.356 -0.1526 -0.8273  0.0042
 7316SOL     OW33583   2.029   4.093   0.715 -0.1121  0.4770  0.6554
 7316SOL    HW133584   2.006   4.186   0.711  1.6579  0.9952  2.4624
 7316SOL    HW233585   1.952   4.037   0.727  0.9720 -0.7483  1.9260
 7317SOL     OW33586   0.052   1.611  10.556  0.2850 -0.0178  0.0776
 7317SOL    HW133587   0.003   1.682  10.516  0.7138 -0.5557 -1.3918
 7317SOL    HW233588   0.144   1.634  10.547  0.2896  0.1837  0.6171
 7318SOL     OW33589   4.674   2.118   9.993  0.4294 -0.4077  0.2236
 7318SOL    HW133590   4.695   2.211   9.984 -3.3091  0.5704  1.4749
 7318SOL    HW233591   4.585   2.124  10.029  0.0485  0.2451 -0.7975
 7319SOL     OW33592   3.880   1.147   6.354  0.0451 -0.1391  0.4094
 7319SOL    HW133593   3.876   1.241   6.339  0.5342 -0.5735 -2.3227
 7319SOL    HW233594   3.935   1.115   6.283 -1.1962  0.7388 -0.9283
 7320SOL     OW33595   1.976   4.400   4.663 -0.6575  0.1547  0.3112
 7320SOL    HW133596   1.883   4.378   4.665 -0.9819  1.1495 -3.6460
 7320SOL    HW233597   2.002   4.410   4.572  0.0294 -0.8246  0.4088
 7321SOL     OW33598   3.292   3.056   5.338  0.4721  0.6900  0.1227
 7321SOL    HW133599   3.293   3.152   5.329  0.2896  0.5960 -0.8701
 7321SOL    HW233600   3.251   3.041   5.423  0.4382 -0.1497 -0.0465
 7322SOL     OW33601   0.939   0.342   7.909 -0.6512  0.1998 -0.5284
 7322SOL    HW133602   0.917   0.260   7.865 -0.4883  0.4129 -0.9969
 7322SOL    HW233603   0.924   0.413   7.848  0.3853  0.6535 -0.2596
 7323SOL     OW33604   2.624   3.676   4.394 -0.1248 -0.3670 -0.1539
 7323SOL    HW133605   2.601   3.595   4.441 -2.2095 -0.3760 -1.1764
 7323SOL    HW233606   2.552   3.679   4.331 -0.6643 -1.9713  0.3781
 7324SOL     OW33607   0.740   4.036   8.818  0.9779 -0.3137 -0.1437
 7324SOL    HW133608   0.696   3.953   8.833 -0.6607  0.9029  1.8255
 7324SOL    HW233609   0.769   4.052   8.908 -1.0407  2.8784 -0.0351
 7325SOL     OW33610   3.921   2.856   0.198  0.0013 -0.2595 -0.5122
 7325SOL    HW133611   3.896   2.805   0.121 -0.4082 -1.6137  0.5092
 7325SOL    HW233612   3.936   2.782   0.258 -1.4109 -0.8765 -0.9006
 7326SOL     OW33613   1.166   3.184  14.627  0.2323 -0.2964 -0.1651
 7326SOL    HW133614   1.259   3.161  14.635 -0.5658 -3.5702 -0.2638
 7326SOL    HW233615   1.134   3.152  14.711 -0.7204  1.6999  0.2147
 7327SOL     OW33616   4.569   4.511  10.920 -0.1654  0.2364 -0.3559
 7327SOL    HW133617   4.514   4.573  10.873  1.0904  1.3356 -0.3739
 7327SOL    HW233618   4.519   4.431  10.936 -1.1559  0.9805  0.2662
 7328SOL     OW33619   0.450   2.102   7.644 -0.1603  1.3736 -0.0262
 7328SOL    HW133620   0.455   2.013   7.678 -2.0753  2.2473  2.5340
 7328SOL    HW233621   0.535   2.142   7.660  0.4850  0.0169 -0.0649
 7329SOL     OW33622   4.068   2.563   7.985 -0.1810  0.1552  0.3953
 7329SOL    HW133623   4.051   2.501   7.915 -0.5886  0.1372  0.5076
 7329SOL    HW233624   3.991   2.619   7.974  0.0332  0.2530 -0.6037
 7330SOL     OW33625   3.154   4.246   2.561  0.6653  0.3405  0.1450
 7330SOL    HW133626   3.105   4.165   2.573  0.1819  0.2065 -2.7788
 7330SOL    HW233627   3.218   4.210   2.499  1.9276 -1.8380  2.7087
 7331SOL     OW33628   3.192   0.802   8.091  0.2807 -0.8385 -0.3792
 7331SOL    HW133629   3.190   0.775   8.183  1.9434  0.8543  0.1436
 7331SOL    HW233630   3.202   0.721   8.040 -0.7176 -0.3204 -1.4015
 7332SOL     OW33631   1.023   3.143   3.522  0.0937 -0.5272 -0.5806
 7332SOL    HW133632   1.062   3.104   3.600 -0.5374  0.6201  0.3125
 7332SOL    HW233633   1.098   3.184   3.479  0.0574 -0.0273 -0.1802
 7333SOL     OW33634   4.702   4.707   7.987  0.5607 -0.1221 -0.3123
 7333SOL    HW133635   4.622   4.693   7.936  0.8613 -1.0161 -0.5203
 7333SOL    HW233636   0.022   0.024   7.931  1.2431 -0.5330 -0.0074
 7334SOL     OW33637   3.579   2.179  17.171 -0.1850 -0.3188 -0.0115
 7334SOL    HW133638   3.509   2.115  17.157 -1.3174  1.3995 -2.2749
 7334SOL    HW233639   3.531   2.255  17.206 -1.5500 -1.3718  0.4182
 7335SOL     OW33640   4.368   1.222   4.250  0.1384 -0.5060  0.0857
 7335SOL    HW133641   4.329   1.221   4.162  0.1902  0.2548  0.0458
 7335SOL    HW233642   4.311   1.277   4.304  0.2265  0.6467 -0.9819
 7336SOL     OW33643   3.827   4.143   8.806 -0.4710  0.7781 -0.0414
 7336SOL    HW133644   3.756   4.204   8.829  0.2063  1.6353 -0.2246
 7336SOL    HW233645   3.792   4.060   8.840  1.2008  0.1472  0.1184
 7337SOL     OW33646   0.259   3.439  11.074 -0.8956 -0.1431  0.4651
 7337SOL    HW133647   0.166   3.463  11.067 -0.6253  0.7824 -0.0393
 7337SOL    HW233648   0.266   3.392  10.991 -4.6453 -0.9228  0.5968
 7338SOL     OW33649   3.971   4.307   8.490 -0.1027 -0.4493  0.3068
 7338SOL    HW133650   4.023   4.361   8.548 -0.2826 -1.2808  1.2528
 7338SOL    HW233651   3.948   4.228   8.539 -0.0854 -2.7499 -3.3604
 7339SOL     OW33652   1.780   0.484   1.457  0.1755  0.4270  0.1534
 7339SOL    HW133653   1.822   0.543   1.395 -0.5865  2.2526  1.3742
 7339SOL    HW233654   1.691   0.484   1.420 -0.8256 -3.8969  2.4782
 7340SOL     OW33655   4.033   2.455   4.604  0.6223 -0.3187 -0.2302
 7340SOL    HW133656   4.078   2.470   4.520  0.4756 -1.8733 -0.5714
 7340SOL    HW233657   4.065   2.532   4.651 -0.7363  0.3790 -0.4475
 7341SOL     OW33658   3.671   4.290  14.130  0.1913  0.4223  0.0126
 7341SOL    HW133659   3.731   4.271  14.059 -0.0957 -1.0290  0.1506
 7341SOL    HW233660   3.587   4.304  14.085  0.1395  0.6291  0.1740
 7342SOL     OW33661   2.295   3.490   7.762 -0.1467 -0.3745  0.6961
 7342SOL    HW133662   2.257   3.425   7.820 -1.7702 -1.0925 -1.1648
 7342SOL    HW233663   2.301   3.552   7.834  1.1808 -0.1886  0.4393
 7343SOL     OW33664   2.612   4.194   5.854 -0.7468 -0.6403 -0.2687
 7343SOL    HW133665   2.553   4.159   5.787 -1.1536 -1.5582  0.5514
 7343SOL    HW233666   2.692   4.178   5.805  0.3032 -1.3366  1.6649
 7344SOL     OW33667   2.796   3.016   7.438 -0.2102  0.4609  0.5429
 7344SOL    HW133668   2.808   3.089   7.499  1.5460 -0.0996  0.8428
 7344SOL    HW233669   2.701   3.030   7.434 -0.1078  1.0490  0.0762
 7345SOL     OW33670   2.732   3.702  11.472 -0.3176  0.5273 -0.3368
 7345SOL    HW133671   2.779   3.776  11.512  0.3191 -0.0495 -0.0057
 7345SOL    HW233672   2.772   3.696  11.385 -0.1244  0.8040 -0.2701
 7346SOL     OW33673   0.185   3.227  11.211  0.8429 -0.3019 -0.0510
 7346SOL    HW133674   0.166   3.252  11.302 -2.1634  2.2138 -1.3841
 7346SOL    HW233675   0.236   3.303  11.182  2.3553 -0.7297  1.4778
 7347SOL     OW33676   2.866   3.780   7.091 -0.0702 -0.2715 -0.0056
 7347SOL    HW133677   2.810   3.805   7.165 -0.8545 -2.0440  0.0141
 7347SOL    HW233678   2.817   3.816   7.017 -0.3060 -1.6149 -0.4993
 7348SOL     OW33679   0.830   2.261   6.601 -0.2194 -0.3347  0.3187
 7348SOL    HW133680   0.854   2.319   6.674  1.6646 -2.9029  1.7673
 7348SOL    HW233681   0.897   2.292   6.541  1.4991 -0.8660  1.9400
 7349SOL     OW33682   4.075   3.257  11.370  0.3522  0.0819 -0.1978
 7349SOL    HW133683   4.144   3.322  11.378 -0.1745  0.7642 -1.0926
 7349SOL    HW233684   4.003   3.308  11.332 -0.7352  0.0959  1.9125
 7350SOL     OW33685   0.863   4.361  14.235  0.3925 -0.2644 -0.0329
 7350SOL    HW133686   0.884   4.279  14.190  2.8104  0.5163 -0.3565
 7350SOL    HW233687   0.922   4.421  14.189  1.7140 -1.5031  0.0255
 7351SOL     OW33688   3.659   3.780   3.181 -0.0876  0.0564  0.6313
 7351SOL    HW133689   3.653   3.839   3.106 -0.4444 -1.1599 -0.2908
 7351SOL    HW233690   3.711   3.828   3.246  2.7958 -0.4614 -1.3269
 7352SOL     OW33691   2.425   2.262   9.939  0.0780  0.3875  0.2005
 7352SOL    HW133692   2.457   2.347   9.910 -1.6326  0.4439 -1.5275
 7352SOL    HW233693   2.370   2.278  10.016 -1.1495  0.1053 -0.6178
 7353SOL     OW33694   0.763   4.679   5.068 -0.1395  0.1721 -0.2675
 7353SOL    HW133695   0.820   0.014   5.096 -0.3881  0.2953 -0.0836
 7353SOL    HW233696   0.782   4.603   5.124  2.7221  0.9499 -0.1732
 7354SOL     OW33697   1.176   4.334   9.174 -0.3966  0.2397 -0.1785
 7354SOL    HW133698   1.187   4.408   9.234 -0.1327  1.7933 -2.1367
 7354SOL    HW233699   1.238   4.349   9.102 -3.2668  0.7924 -2.5277
 7355SOL     OW33700   3.420   1.089  12.406 -0.0746  0.0685 -0.0593
 7355SOL    HW133701   3.415   1.003  12.364 -0.0396 -1.1234  2.3842
 7355SOL    HW233702   3.493   1.076  12.467  0.4578  1.8564 -0.3094
 7356SOL     OW33703   0.417   1.623   7.768  0.2864 -0.2955 -0.6704
 7356SOL    HW133704   0.341   1.621   7.825  1.0480 -0.3978  0.3449
 7356SOL    HW233705   0.376   1.635   7.682  0.3228  0.3918 -0.5965
 7357SOL     OW33706   4.654   0.848  15.542 -0.3042 -0.5556 -0.1083
 7357SOL    HW133707   4.708   0.836  15.620  2.0572  1.1421 -1.4561
 7357SOL    HW233708   4.573   0.804  15.565  0.5339 -2.0044  0.0610
 7358SOL     OW33709   0.400   4.731   7.478  0.3407 -0.2974  0.8656
 7358SOL    HW133710   0.332   4.724   7.545 -0.9805  0.1558 -0.4262
 7358SOL    HW233711   0.359   4.668   7.420 -1.9782  1.2077  0.8630
 7359SOL     OW33712   2.532   1.417   7.644 -0.0956  0.3984  0.1045
 7359SOL    HW133713   2.534   1.372   7.560  0.5891 -0.3420  0.5135
 7359SOL    HW233714   2.614   1.384   7.683 -0.4500  0.8262  1.2267
 7360SOL     OW33715   1.879   1.269   4.233 -0.0675  0.1747  0.1966
 7360SOL    HW133716   1.975   1.267   4.227 -0.0505 -2.5502  1.4197
 7360SOL    HW233717   1.856   1.304   4.319 -0.1432 -1.3106  0.7817
 7361SOL     OW33718   0.903   3.857   7.624  0.2001 -0.4169 -0.1726
 7361SOL    HW133719   0.976   3.895   7.673 -1.5088  0.6462  1.5557
 7361SOL    HW233720   0.949   3.798   7.564 -0.7081  0.7987 -2.0776
 7362SOL     OW33721   0.674   3.383   8.139 -0.2086  0.1621 -0.6086
 7362SOL    HW133722   0.687   3.478   8.138  3.0514 -0.3118 -1.2066
 7362SOL    HW233723   0.613   3.380   8.212 -0.0816  1.0484 -0.4650
 7363SOL     OW33724   4.496   2.476   6.964 -0.2408  0.1275  0.0030
 7363SOL    HW133725   4.497   2.482   6.869  0.3353  0.6987  0.0452
 7363SOL    HW233726   4.562   2.408   6.975 -2.0287 -1.8740 -1.7419
 7364SOL     OW33727   3.275   2.474   8.292 -0.2413 -0.1940  0.4029
 7364SOL    HW133728   3.278   2.386   8.330 -1.5248 -1.5924 -2.6978
 7364SOL    HW233729   3.220   2.446   8.219  0.6553  0.5615 -0.5733
 7365SOL     OW33730   2.198   2.282  17.335  0.1099  0.3247  0.5758
 7365SOL    HW133731   2.111   2.278  17.373 -0.7673  0.1429 -1.4285
 7365SOL    HW233732   2.201   2.377  17.334 -0.5852  0.3373  0.1163
 7366SOL     OW33733   1.464   1.154  13.682  0.4858 -0.6337  0.2805
 7366SOL    HW133734   1.466   1.058  13.679  2.5907 -0.5781 -0.3727
 7366SOL    HW233735   1.522   1.157  13.758 -0.4699  0.5279  0.9631
 7367SOL     OW33736   3.784   3.680  11.386  0.2620 -0.1892  0.0587
 7367SOL    HW133737   3.739   3.717  11.310 -0.2344 -0.4426  0.2238
 7367SOL    HW233738   3.809   3.595  11.349  2.2680  0.9151 -1.0749
 7368SOL     OW33739   2.019   1.437   0.842  0.1836 -0.2199  0.5915
 7368SOL    HW133740   2.027   1.381   0.764 -0.4223  0.8825 -0.2548
 7368SOL    HW233741   1.993   1.375   0.910  0.6811 -1.1537 -0.0558
 7369SOL     OW33742   0.607   4.002   2.431 -0.0987 -0.3005  0.3044
 7369SOL    HW133743   0.580   3.911   2.426 -0.5270 -0.2269  1.2992
 7369SOL    HW233744   0.688   3.996   2.482  0.2598  0.2875 -0.1889
 7370SOL     OW33745   3.846   1.255   2.572  0.8013  0.8159 -0.2938
 7370SOL    HW133746   3.862   1.302   2.490  0.7241  0.1069 -0.7121
 7370SOL    HW233747   3.863   1.325   2.634  2.5293 -0.2623  0.4294
 7371SOL     OW33748   0.598   2.685   8.580 -0.0242  0.3924  0.3023
 7371SOL    HW133749   0.622   2.702   8.671 -0.4979  0.8466  0.3453
 7371SOL    HW233750   0.563   2.596   8.582 -2.2710  1.2320 -2.2937
 7372SOL     OW33751   3.702   0.568   2.753 -0.2345 -0.1233 -0.1164
 7372SOL    HW133752   3.792   0.601   2.751 -0.4208  0.3845 -0.1021
 7372SOL    HW233753   3.726   0.477   2.735  1.0348  0.2317 -0.2427
 7373SOL     OW33754   2.829   3.782   3.678  0.2519 -0.3397  0.0315
 7373SOL    HW133755   2.897   3.811   3.739  1.3823 -0.3406 -1.2198
 7373SOL    HW233756   2.859   3.837   3.605 -0.5820  1.1797  0.8384
 7374SOL     OW33757   1.235   2.265   7.752  0.7012  0.0688 -0.5760
 7374SOL    HW133758   1.200   2.354   7.762  1.0318  0.4227 -2.5867
 7374SOL    HW233759   1.323   2.287   7.784  0.8108 -1.1353 -0.0815
 7375SOL     OW33760   2.431   3.317   5.729  0.4443  0.1359  0.3327
 7375SOL    HW133761   2.430   3.376   5.654 -0.7866 -1.7061 -1.0866
 7375SOL    HW233762   2.483   3.245   5.693  0.8056 -0.3426  1.8092
 7376SOL     OW33763   3.505   0.078   1.737 -0.0084 -0.2517 -0.5858
 7376SOL    HW133764   3.421   0.108   1.705 -0.0137  0.1502 -0.1959
 7376SOL    HW233765   3.560   0.109   1.665  0.0715  1.2224  0.1077
 7377SOL     OW33766   1.203   2.497   6.662 -0.4131 -1.1207  0.3809
 7377SOL    HW133767   1.179   2.569   6.721  0.3073 -1.9802  1.7287
 7377SOL    HW233768   1.132   2.434   6.671 -0.7847 -0.5963  1.1039
 7378SOL     OW33769   1.578   3.157   0.795  0.4515  0.6728  0.0161
 7378SOL    HW133770   1.500   3.162   0.739 -0.0176  0.4920  0.6481
 7378SOL    HW233771   1.536   3.109   0.866 -0.2955  1.2184 -0.0533
 7379SOL     OW33772   3.182   0.671   6.455  0.1224  0.1833  0.0736
 7379SOL    HW133773   3.174   0.745   6.395 -0.4726  0.3518  0.3593
 7379SOL    HW233774   3.251   0.714   6.506 -0.4590 -1.0401  1.8926
 7380SOL     OW33775   4.192   0.877   3.897 -0.2151  0.0879 -0.2829
 7380SOL    HW133776   4.178   0.941   3.966 -0.7427  0.6287 -0.9007
 7380SOL    HW233777   4.174   0.932   3.821 -1.2685  0.0249 -0.0739
 7381SOL     OW33778   1.995   3.688   2.089 -1.1045 -0.4068 -0.1398
 7381SOL    HW133779   1.983   3.593   2.094 -1.8673 -0.3123 -0.1394
 7381SOL    HW233780   2.012   3.696   1.995  0.0246 -0.0051  0.1015
 7382SOL     OW33781   2.121   2.014   1.361 -0.0472  0.3696  0.1176
 7382SOL    HW133782   2.145   1.930   1.400 -0.9840 -0.0074 -0.1446
 7382SOL    HW233783   2.168   2.012   1.277 -0.2192 -2.3255  0.0793
 7383SOL     OW33784   1.561   1.716   3.173 -0.0692 -0.3966  0.0594
 7383SOL    HW133785   1.639   1.720   3.229 -1.4020 -0.7443  1.9390
 7383SOL    HW233786   1.493   1.677   3.227 -0.9531  0.0508 -0.7255
 7384SOL     OW33787   1.292   1.448   8.545 -0.5848 -0.2398 -0.0543
 7384SOL    HW133788   1.338   1.391   8.607 -0.1171 -1.8378 -1.8765
 7384SOL    HW233789   1.211   1.463   8.594  0.2103 -2.5771  2.0108
 7385SOL     OW33790   2.292   3.644  15.461 -0.2433 -0.0242 -0.6200
 7385SOL    HW133791   2.199   3.626  15.479 -0.3161  0.4679 -0.5235
 7385SOL    HW233792   2.311   3.644  15.555 -0.6724 -0.7467 -0.5260
 7386SOL     OW33793   0.628   0.141   1.453 -0.3715 -0.4209  0.7593
 7386SOL    HW133794   0.688   0.069   1.434 -1.5352 -1.2413  0.1667
 7386SOL    HW233795   0.608   0.167   1.363 -0.7164  1.8744  1.4889
 7387SOL     OW33796   0.556   0.696  11.809  0.4966  0.0940  0.7357
 7387SOL    HW133797   0.649   0.717  11.814  0.8383 -1.2984  0.4170
 7387SOL    HW233798   0.564   0.601  11.799  1.2556  0.2714 -0.4055
 7388SOL     OW33799   0.228   3.714   4.757  0.3197 -0.0547 -0.2723
 7388SOL    HW133800   0.188   3.755   4.681 -1.7300 -1.7104 -0.1022
 7388SOL    HW233801   0.303   3.772   4.770  0.2061  0.1383 -0.4778
 7389SOL     OW33802   1.381   0.039   2.749 -0.3016 -0.0246  0.6118
 7389SOL    HW133803   1.353   4.725   2.825 -0.3709 -0.0750  0.5528
 7389SOL    HW233804   1.467   0.068   2.780  0.4484 -2.1375  0.5187
 7390SOL     OW33805   0.738   3.198  11.662  0.2980 -0.3235 -0.5166
 7390SOL    HW133806   0.817   3.240  11.627  0.5816  0.8551  1.5717
 7390SOL    HW233807   0.748   3.118  11.610 -1.5492  0.6731 -2.3930
 7391SOL     OW33808   1.671   0.489  15.817  0.0611  0.3125  0.4202
 7391SOL    HW133809   1.617   0.422  15.858 -2.5972  1.7128 -0.8528
 7391SOL    HW233810   1.625   0.571  15.836 -0.5128  0.3220 -1.0671
 7392SOL     OW33811   1.697   4.315  12.817 -0.0217 -0.6308 -0.8177
 7392SOL    HW133812   1.628   4.371  12.781  0.0597 -0.2244 -0.3362
 7392SOL    HW233813   1.775   4.362  12.789  0.3721 -0.7032  0.1638
 7393SOL     OW33814   4.315   2.133   8.049 -0.1010  0.0893 -0.1130
 7393SOL    HW133815   4.233   2.152   8.094 -1.3071 -1.2318 -1.7245
 7393SOL    HW233816   4.358   2.060   8.092 -0.6157 -0.5659 -0.7100
 7394SOL     OW33817   2.830   0.417   9.844 -0.4475  0.2489 -0.0145
 7394SOL    HW133818   2.882   0.482   9.798  2.0158 -0.4862  1.7640
 7394SOL    HW233819   2.814   0.457   9.929  1.7280  0.0064  0.5077
 7395SOL     OW33820   3.511   0.069   9.812 -0.4074  0.7832  0.3713
 7395SOL    HW133821   3.570   0.139   9.784  0.0499  0.2677  0.0338
 7395SOL    HW233822   3.552   0.052   9.897 -1.3301 -0.3719  0.5905
 7396SOL     OW33823   4.598   2.745   2.480 -0.0273  0.1935 -0.0165
 7396SOL    HW133824   4.536   2.787   2.420 -0.3663  0.2613  0.3757
 7396SOL    HW233825   4.623   2.815   2.540  1.5690 -2.1264  2.0150
 7397SOL     OW33826   0.030   3.993   4.196  0.2207  0.0581 -0.1312
 7397SOL    HW133827   0.072   4.002   4.282  0.2270  1.3732 -0.2590
 7397SOL    HW233828   4.678   4.016   4.224 -0.3222 -1.6737 -0.4709
 7398SOL     OW33829   1.183   3.483  12.163  0.6274  0.1710 -0.1779
 7398SOL    HW133830   1.119   3.525  12.221 -1.0187  0.3340 -2.0925
 7398SOL    HW233831   1.160   3.521  12.078 -1.3391 -1.1873 -0.2590
 7399SOL     OW33832   1.056   2.095   8.723 -0.3938 -0.4115  0.2842
 7399SOL    HW133833   1.141   2.137   8.736 -0.1496 -0.5930 -0.7893
 7399SOL    HW233834   1.080   2.005   8.701 -1.1235 -0.8956  1.4572
 7400SOL     OW33835   3.765   2.860   7.284  0.0329  0.0500 -0.3208
 7400SOL    HW133836   3.766   2.948   7.321 -0.1276 -0.7277  1.5657
 7400SOL    HW233837   3.685   2.867   7.233  1.2319 -0.7898 -2.3171
 7401SOL     OW33838   0.617   3.114  11.878  0.1552  0.0053  0.3772
 7401SOL    HW133839   0.537   3.163  11.862  0.0995 -1.3323 -3.3939
 7401SOL    HW233840   0.676   3.133  11.804 -0.3660 -0.9690 -0.2914
 7402SOL     OW33841   4.399   3.396   5.791  0.3398 -0.4112 -0.1332
 7402SOL    HW133842   4.307   3.372   5.794  1.0109 -3.1928 -1.0167
 7402SOL    HW233843   4.385   3.486   5.763  1.1721 -0.4913 -0.8339
 7403SOL     OW33844   3.799   2.124   5.567  0.1640 -0.6252 -0.3504
 7403SOL    HW133845   3.825   2.032   5.574 -1.1798 -0.8682  1.5013
 7403SOL    HW233846   3.859   2.163   5.631 -0.2176 -1.0619  0.2861
 7404SOL     OW33847   2.134   1.299   4.230  0.0858  0.1518 -0.7060
 7404SOL    HW133848   2.180   1.266   4.307 -1.7752 -1.4834 -0.3023
 7404SOL    HW233849   2.164   1.255   4.150 -0.7786 -1.5892 -0.0790
 7405SOL     OW33850   0.887   0.868  11.456  0.2497  0.9225  0.6696
 7405SOL    HW133851   0.930   0.812  11.391 -0.2391  1.0319  0.2563
 7405SOL    HW233852   0.885   0.948  11.403  0.0885 -1.2864 -2.7191
 7406SOL     OW33853   3.641   2.409   1.970  0.1828 -0.1507 -0.8666
 7406SOL    HW133854   3.548   2.420   1.988  0.8960  1.3267  1.9370
 7406SOL    HW233855   3.648   2.319   1.940  1.0666 -0.1082 -0.8119
 7407SOL     OW33856   2.981   4.462   2.523  0.5950 -0.2738 -0.5656
 7407SOL    HW133857   3.037   4.538   2.536 -1.1182  0.7031  1.1508
 7407SOL    HW233858   3.043   4.390   2.515 -0.8241 -1.7473  1.6427
 7408SOL     OW33859   2.806   2.597   9.850  0.5360 -0.4879 -0.3278
 7408SOL    HW133860   2.867   2.564   9.784  0.1704 -1.1620 -0.3260
 7408SOL    HW233861   2.874   2.652   9.889 -0.4321  0.8999 -0.5793
 7409SOL     OW33862   1.875   4.083   8.977  0.5870 -0.3972 -0.1934
 7409SOL    HW133863   1.800   4.026   8.998  0.3536 -0.1243 -0.2895
 7409SOL    HW233864   1.833   4.165   8.954 -1.0855 -1.7316 -1.9086
 7410SOL     OW33865   2.257   2.914   9.324 -0.1944 -0.3480 -0.0442
 7410SOL    HW133866   2.294   2.854   9.259 -0.5616  0.8205 -1.3554
 7410SOL    HW233867   2.334   2.965   9.347 -2.4733  2.7628  0.7361
 7411SOL     OW33868   2.298   3.358  14.225 -0.4724  1.2682  0.6131
 7411SOL    HW133869   2.337   3.354  14.137 -3.0851  1.3639 -0.5549
 7411SOL    HW233870   2.302   3.264  14.240 -0.9357  0.7293 -2.5802
 7412SOL     OW33871   3.650   0.709   5.299  0.2328  0.1068 -0.6294
 7412SOL    HW133872   3.569   0.756   5.277 -0.7407 -1.1287  0.3222
 7412SOL    HW233873   3.619   0.618   5.302  0.5130  0.1173  2.0264
 7413SOL     OW33874   3.588   3.402   7.555  0.2746  0.6072  0.8326
 7413SOL    HW133875   3.501   3.385   7.592  0.4524  2.9641  2.3324
 7413SOL    HW233876   3.648   3.367   7.621 -1.1402 -0.8034  1.3874
 7414SOL     OW33877   2.159   2.503  15.807 -0.1265  0.3562 -0.2674
 7414SOL    HW133878   2.133   2.589  15.840  0.5159  0.4823 -0.0971
 7414SOL    HW233879   2.090   2.488  15.742 -0.5376  1.2900 -0.0442
 7415SOL     OW33880   2.699   4.526   1.853  0.4439 -0.1204 -0.2088
 7415SOL    HW133881   2.656   4.595   1.801  0.6304  0.8588  0.9450
 7415SOL    HW233882   2.644   4.448   1.858 -1.9775  1.6361  0.6193
 7416SOL     OW33883   3.357   2.282   1.911  0.0369  0.1808 -0.6846
 7416SOL    HW133884   3.316   2.255   1.828  0.4297  2.0422 -1.4854
 7416SOL    HW233885   3.438   2.235   1.894  1.1900  1.4508  1.3855
 7417SOL     OW33886   1.073   1.846   3.092  0.2679  0.0458 -0.0402
 7417SOL    HW133887   1.134   1.842   3.018  1.4695 -0.4205  0.9806
 7417SOL    HW233888   1.132   1.874   3.161  0.1576  2.1375 -0.7887
 7418SOL     OW33889   4.470   2.090  17.298  0.2195 -0.5551 -0.9304
 7418SOL    HW133890   4.410   2.021  17.269 -1.1012  0.3895 -0.4490
 7418SOL    HW233891   4.544   2.032  17.280  0.1293 -0.7055 -0.8208
 7419SOL     OW33892   3.525   1.314   5.339 -0.0656 -0.3942  0.3634
 7419SOL    HW133893   3.494   1.233   5.380 -0.9126 -0.8511 -1.1726
 7419SOL    HW233894   3.439   1.342   5.307 -0.3781 -0.1868  1.3835
 7420SOL     OW33895   1.600   2.070  12.717  0.0318  0.9943 -0.0693
 7420SOL    HW133896   1.663   2.040  12.652 -0.0792  1.2564 -0.3002
 7420SOL    HW233897   1.648   2.080  12.799  1.7099  0.7113 -1.0222
 7421SOL     OW33898   1.031   2.712  13.273 -0.0815  0.0077 -0.0178
 7421SOL    HW133899   1.120   2.736  13.298 -0.1020  0.1548 -0.0864
 7421SOL    HW233900   0.974   2.742  13.343  1.3471  0.5544  0.9065
 7422SOL     OW33901   1.246   1.265  13.827  0.8911 -0.1528  0.2755
 7422SOL    HW133902   1.289   1.210  13.761  0.9657  2.4678 -1.8247
 7422SOL    HW233903   1.318   1.327  13.822  1.1657 -0.6586 -2.3470
 7423SOL     OW33904   2.162   3.923   7.068  0.2735 -0.1364  0.1473
 7423SOL    HW133905   2.244   3.957   7.102  0.3943  0.0975 -0.3785
 7423SOL    HW233906   2.168   3.834   7.102  1.4178 -0.1740 -0.1729
 7424SOL     OW33907   0.154   3.987   6.204 -0.2147  0.1854 -0.2012
 7424SOL    HW133908   0.174   3.996   6.297 -1.0262  0.2437 -0.0332
 7424SOL    HW233909   0.145   4.082   6.191  1.9867  0.5610  1.1128
 7425SOL     OW33910   1.484   2.415   2.687 -0.0101 -0.0358 -0.0485
 7425SOL    HW133911   1.458   2.496   2.731 -2.1047 -0.2175 -0.9247
 7425SOL    HW233912   1.524   2.364   2.757  0.0076  0.8442  0.5702
 7426SOL     OW33913   4.134   1.904   2.507 -0.3958 -0.3189  0.1359
 7426SOL    HW133914   4.193   1.974   2.536  1.1186 -1.0947 -1.1513
 7426SOL    HW233915   4.202   1.838   2.496  1.1420  1.1740  0.6779
 7427SOL     OW33916   4.155   1.375   9.472 -0.2610  0.3063 -0.2786
 7427SOL    HW133917   4.160   1.297   9.417  1.2477  1.7264 -2.1454
 7427SOL    HW233918   4.148   1.332   9.557 -1.2111 -2.1902 -1.6207
 7428SOL     OW33919   0.498   0.905   6.608 -0.0986 -0.2084 -0.1925
 7428SOL    HW133920   0.495   1.000   6.601  0.7829 -0.1710 -0.1314
 7428SOL    HW233921   0.585   0.885   6.644  0.2466  0.3984 -0.6944
 7429SOL     OW33922   4.513   0.447  15.705 -0.1522  0.0066  0.1954
 7429SOL    HW133923   4.504   0.522  15.647  0.6854 -0.8256 -1.0171
 7429SOL    HW233924   4.558   0.381  15.652  1.1878  0.6018  0.5807
 7430SOL     OW33925   2.316   2.545   9.121  0.6827 -0.0781 -0.1528
 7430SOL    HW133926   2.332   2.547   9.216 -1.4259  2.0129  0.1627
 7430SOL    HW233927   2.393   2.595   9.095 -0.1617  0.8836 -0.7736
 7431SOL     OW33928   4.133   4.155   5.353 -0.5011  0.0261  0.7223
 7431SOL    HW133929   4.075   4.194   5.287  0.0375 -0.4306 -0.0117
 7431SOL    HW233930   4.181   4.086   5.307  1.4888  1.1301  1.1652
 7432SOL     OW33931   2.883   2.476   6.487  0.2792 -0.3479  0.5918
 7432SOL    HW133932   2.899   2.570   6.497 -1.6071  0.0506 -0.2104
 7432SOL    HW233933   2.922   2.439   6.566 -1.3739 -2.3942  0.4341
 7433SOL     OW33934   0.147   2.618   3.103 -0.2291 -0.3288  0.2763
 7433SOL    HW133935   0.239   2.621   3.130  0.2827  2.0695 -1.6541
 7433SOL    HW233936   0.119   2.709   3.091  0.1398  0.0206  2.0917
 7434SOL     OW33937   0.631   1.520  15.989  0.4408 -0.0746 -0.3292
 7434SOL    HW133938   0.707   1.478  15.948  0.7392 -0.3365  0.5090
 7434SOL    HW233939   0.659   1.537  16.079  1.1412  0.6726 -0.6897
 7435SOL     OW33940   1.454   1.066   9.398  0.1619  0.5393  0.0379
 7435SOL    HW133941   1.504   1.119   9.461 -0.8849  1.5718 -0.0002
 7435SOL    HW233942   1.471   1.118   9.320  0.8110 -1.6077 -1.2523
 7436SOL     OW33943   0.451   4.688  13.420  0.6431  0.3121 -0.5928
 7436SOL    HW133944   0.529   4.635  13.401  0.7957  0.9937 -1.8913
 7436SOL    HW233945   0.474   0.018  13.354 -1.0412 -0.3258 -1.8384
 7437SOL     OW33946   0.693   4.709   3.305 -0.0282  0.2307 -0.0218
 7437SOL    HW133947   0.714   4.616   3.312 -1.5188 -0.1430 -0.3593
 7437SOL    HW233948   0.680   4.716   3.211  2.5835 -0.6038 -0.4269
 7438SOL     OW33949   0.259   2.268   1.266  0.0275 -0.1644  0.0831
 7438SOL    HW133950   0.207   2.321   1.206 -0.3064 -1.6004 -0.8929
 7438SOL    HW233951   0.344   2.303   1.241 -0.1614 -0.0931 -0.4651
 7439SOL     OW33952   3.173   0.531  11.592  0.0447  0.4734  0.1870
 7439SOL    HW133953   3.110   0.522  11.520  0.6436 -0.4535 -0.2176
 7439SOL    HW233954   3.243   0.480  11.552  0.4438  2.1673 -1.2368
 7440SOL     OW33955   4.664   3.758  14.198 -0.1176  0.2481 -1.1408
 7440SOL    HW133956   4.574   3.757  14.229  0.8624  0.0097  1.6717
 7440SOL    HW233957   4.703   3.815  14.264 -0.2549 -1.2576  0.2447
 7441SOL     OW33958   2.783   0.587  11.189 -0.0316 -0.8924 -0.8119
 7441SOL    HW133959   2.707   0.639  11.217  1.7519  1.6812 -0.6985
 7441SOL    HW233960   2.841   0.659  11.163 -1.1090  0.3761  0.2669
 7442SOL     OW33961   4.564   3.464  14.701 -0.0282  0.1192 -0.0050
 7442SOL    HW133962   4.593   3.477  14.791  0.3054 -0.8622  0.0315
 7442SOL    HW233963   4.541   3.372  14.685  0.3448  0.1619 -0.8173
 7443SOL     OW33964   3.489   0.752   7.326 -0.0353 -0.1974  0.0659
 7443SOL    HW133965   3.520   0.719   7.411  0.8205  0.3421 -0.0320
 7443SOL    HW233966   3.401   0.782   7.348 -0.5439  0.4948 -2.9824
 7444SOL     OW33967   2.574   3.475   9.690  0.2753 -0.0776  0.3444
 7444SOL    HW133968   2.664   3.486   9.721  0.1627  1.3572  0.1764
 7444SOL    HW233969   2.556   3.559   9.647  0.8081 -0.7262 -1.1406
 7445SOL     OW33970   1.585   4.030   6.579  0.3892  0.0076 -0.6097
 7445SOL    HW133971   1.587   3.936   6.599 -0.5609 -0.3268 -2.0581
 7445SOL    HW233972   1.509   4.023   6.521  0.1058 -0.7947 -0.1538
 7446SOL     OW33973   0.860   0.598   5.871  0.1952  0.4240  0.0136
 7446SOL    HW133974   0.816   0.651   5.936  0.1548 -1.5130  1.5811
 7446SOL    HW233975   0.915   0.667   5.834 -0.1636 -2.4285 -5.8278
 7447SOL     OW33976   2.117   3.501   6.568 -0.1794 -0.4612  0.1741
 7447SOL    HW133977   2.180   3.555   6.615 -0.8880  1.3153 -0.9253
 7447SOL    HW233978   2.151   3.412   6.576  0.6316 -0.4759 -3.3268
 7448SOL     OW33979   0.443   2.011   1.007  0.2454  0.0710  0.3789
 7448SOL    HW133980   0.407   1.997   0.919 -1.7133  1.7312  0.9015
 7448SOL    HW233981   0.366   2.014   1.065  0.0816 -2.8559  0.3131
 7449SOL     OW33982   1.109   0.994  11.601  0.3792 -0.4409  0.5044
 7449SOL    HW133983   1.045   0.968  11.535  0.3983 -2.2416  1.2015
 7449SOL    HW233984   1.050   1.039  11.661 -1.2062 -0.5245 -0.9794
 7450SOL     OW33985   3.021   2.887   8.664 -0.0859  0.0206 -0.1081
 7450SOL    HW133986   3.002   2.846   8.748  2.8393 -0.6643  0.2007
 7450SOL    HW233987   3.106   2.848   8.647 -0.6788 -1.6458  0.7608
 7451SOL     OW33988   2.019   2.502   9.307 -0.2945  0.0419 -0.0367
 7451SOL    HW133989   2.046   2.567   9.373  0.9931 -0.7663  0.2393
 7451SOL    HW233990   2.069   2.428   9.343 -1.6397 -1.2426 -0.8324
 7452SOL     OW33991   2.951   1.444   7.972  0.7328  0.0497 -1.1190
 7452SOL    HW133992   2.955   1.414   8.063 -2.6434  0.4095 -0.8674
 7452SOL    HW233993   2.873   1.395   7.948  0.1313 -0.6253  2.2279
 7453SOL     OW33994   0.407   4.718   6.280  0.6944 -0.2750  0.3700
 7453SOL    HW133995   0.415   4.633   6.322 -0.7361  0.0723  1.3346
 7453SOL    HW233996   0.464   0.033   6.337  0.1632  1.0449 -0.2887
 7454SOL     OW33997   0.305   3.155   6.597 -0.3396 -0.1199  0.2581
 7454SOL    HW133998   0.296   3.072   6.643 -0.2159  0.1110  0.6984
 7454SOL    HW233999   0.230   3.206   6.629 -0.2862  0.3983 -0.4419
 7455SOL     OW34000   1.765   3.399   2.892 -0.1747  0.1912 -0.4520
 7455SOL    HW134001   1.780   3.429   2.981 -1.7489 -2.0667  0.5463
 7455SOL    HW234002   1.848   3.404   2.845  0.9349  1.1496  1.6298
 7456SOL     OW34003   3.980   3.708   8.682  0.2828 -0.0080  0.1089
 7456SOL    HW134004   4.051   3.707   8.618  0.4172  2.0881  0.2264
 7456SOL    HW234005   4.029   3.671   8.756  0.4462  1.0006  0.5091
 7457SOL     OW34006   2.449   1.592  12.079 -0.7989 -0.5395 -0.2243
 7457SOL    HW134007   2.540   1.564  12.095 -0.2067  0.8751 -1.0904
 7457SOL    HW234008   2.460   1.686  12.096 -1.4429 -0.3075 -1.0740
 7458SOL     OW34009   3.879   1.750   9.654 -0.0072 -1.1001  0.4695
 7458SOL    HW134010   3.960   1.709   9.683  0.1508  0.0459  1.6602
 7458SOL    HW234011   3.847   1.679   9.599 -0.7698 -0.7079  0.4115
 7459SOL     OW34012   0.230   2.488  16.862 -0.1699 -0.8288 -0.4749
 7459SOL    HW134013   0.194   2.429  16.928  1.6185 -0.9073  0.4357
 7459SOL    HW234014   0.306   2.437  16.835  1.5750  0.9379  1.0374
 7460SOL     OW34015   4.143   3.156  13.702  0.0120  0.9310  0.2105
 7460SOL    HW134016   4.152   3.108  13.619 -1.4882 -1.3968  1.3754
 7460SOL    HW234017   4.189   3.091  13.755 -1.1101  1.0500  1.3245
 7461SOL     OW34018   0.303   2.908  11.071 -0.5351  0.5434 -0.2168
 7461SOL    HW134019   0.391   2.883  11.101 -0.6561  0.9288  0.4660
 7461SOL    HW234020   0.300   2.855  10.992 -3.4713  3.0377 -1.7539
 7462SOL     OW34021   3.714   4.229   7.924 -0.6589  0.4014  1.0496
 7462SOL    HW134022   3.635   4.284   7.927 -1.7649 -1.0754 -1.1766
 7462SOL    HW234023   3.774   4.295   7.959  2.8743 -1.4722 -1.5402
 7463SOL     OW34024   3.766   3.536  11.896  0.1091 -0.0877 -0.0057
 7463SOL    HW134025   3.856   3.553  11.920  0.1070  0.8286 -0.6607
 7463SOL    HW234026   3.751   3.583  11.813  0.3089  3.1580  1.8154
 7464SOL     OW34027   1.502   2.537   6.037  0.1220  0.6688  0.5906
 7464SOL    HW134028   1.424   2.481   6.041  1.2497 -0.9349  0.0600
 7464SOL    HW234029   1.578   2.484   6.060 -0.1134 -0.2456 -0.7317
 7465SOL     OW34030   0.459   1.465   3.390  0.2698  0.2003  0.1170
 7465SOL    HW134031   0.521   1.394   3.400  1.3560  0.7476 -2.6298
 7465SOL    HW234032   0.405   1.419   3.326 -1.6483  1.9619  0.4443
 7466SOL     OW34033   2.167   4.568   5.128 -0.1827  0.4907 -0.1857
 7466SOL    HW134034   2.163   4.536   5.038 -1.2896 -0.2421  0.1227
 7466SOL    HW234035   2.234   4.637   5.123 -0.1353  0.4531 -0.0646
 7467SOL     OW34036   0.767   3.598   2.296  0.2038  0.3399  0.2341
 7467SOL    HW134037   0.812   3.676   2.263 -1.2600  0.5815 -1.1928
 7467SOL    HW234038   0.833   3.578   2.363  2.9463 -0.2684 -2.6197
 7468SOL     OW34039   0.850   0.199   0.252 -0.7966  0.2206 -0.1803
 7468SOL    HW134040   0.799   0.276   0.279  1.3780  1.1712  1.1982
 7468SOL    HW234041   0.833   0.138   0.324 -2.1251  0.4777 -0.2685
 7469SOL     OW34042   2.777   3.319   8.165  0.2350  0.0312  0.2995
 7469SOL    HW134043   2.768   3.234   8.122 -1.1891  0.8029 -0.9322
 7469SOL    HW234044   2.861   3.304   8.209 -0.3710 -1.4276  0.9844
 7470SOL     OW34045   0.591   2.550  17.280  0.0179  0.6096 -0.2374
 7470SOL    HW134046   0.677   2.529  17.316 -0.0896 -1.1572 -1.0299
 7470SOL    HW234047   0.574   2.504  17.198 -0.5426 -1.0866  0.8364
 7471SOL     OW34048   2.960   4.635   6.936 -0.1881  0.3665  0.0755
 7471SOL    HW134049   2.946   4.727   6.957 -0.5041 -0.0374  1.6579
 7471SOL    HW234050   2.884   4.614   6.881  0.2628 -1.8315  0.2855
 7472SOL     OW34051   0.889   3.946   0.770 -0.0638  0.0618  0.2026
 7472SOL    HW134052   0.858   3.861   0.739  2.2181 -1.0937  1.0765
 7472SOL    HW234053   0.874   3.940   0.865  1.3549 -1.9984  0.2955
 7473SOL     OW34054   4.514   1.494   2.793 -0.1831 -0.4424  0.3392
 7473SOL    HW134055   4.566   1.427   2.747  0.0790  0.2639 -0.3929
 7473SOL    HW234056   4.582   1.531   2.849 -0.0318 -0.5679  0.2394
 7474SOL     OW34057   1.048   4.546   3.040  0.0907  0.3355  0.0442
 7474SOL    HW134058   1.001   4.518   2.962  1.9162  0.7450 -1.2145
 7474SOL    HW234059   1.025   4.639   3.035  0.3880  0.4671  1.0694
 7475SOL     OW34060   0.340   0.122   1.366 -0.3349  0.6866 -0.0581
 7475SOL    HW134061   0.366   0.065   1.437 -0.3713  2.0053  1.0218
 7475SOL    HW234062   0.423   0.147   1.326 -0.7559  0.5457 -1.0270
 7476SOL     OW34063   3.821   3.564   7.135 -1.0650  0.3566 -0.3774
 7476SOL    HW134064   3.850   3.523   7.216  0.8491  1.5380 -0.4579
 7476SOL    HW234065   3.733   3.590   7.160 -1.2879 -1.9682  1.1911
 7477SOL     OW34066   3.747   1.984   8.201  0.4686 -0.0031  0.4450
 7477SOL    HW134067   3.662   1.998   8.241  0.5340 -1.0087  0.9382
 7477SOL    HW234068   3.726   1.982   8.107 -0.0427 -0.5545  0.5759
 7478SOL     OW34069   3.611   2.227   3.820 -0.5041  0.4515  0.1468
 7478SOL    HW134070   3.564   2.200   3.899  0.1287  1.4230  0.8634
 7478SOL    HW234071   3.675   2.288   3.857  0.7643 -0.2553 -0.8760
 7479SOL     OW34072   3.919   3.512  17.653 -0.1435 -0.2281  0.1624
 7479SOL    HW134073   4.013   3.493  17.663 -0.4140 -2.2336 -1.0724
 7479SOL    HW234074   3.894   3.419  17.656 -0.6669 -0.1025 -0.5034
 7480SOL     OW34075   4.477   4.565  14.750  0.5934 -0.3288  0.1907
 7480SOL    HW134076   4.385   4.584  14.767  0.8708 -0.9855  2.4802
 7480SOL    HW234077   4.489   4.603  14.663  2.0152  0.1035  0.5714
 7481SOL     OW34078   3.036   1.794   2.903  0.2734 -0.1353 -0.0542
 7481SOL    HW134079   3.070   1.850   2.973  2.6192 -0.3376 -1.0102
 7481SOL    HW234080   3.102   1.810   2.834 -0.9722 -1.1571 -1.4918
 7482SOL     OW34081   3.011   0.602   3.897  0.8045  0.1177  0.4171
 7482SOL    HW134082   3.059   0.685   3.906  1.3208 -0.0084 -1.0663
 7482SOL    HW234083   2.920   0.629   3.884  0.0675 -1.3006  2.6934
 7483SOL     OW34084   0.558   2.546   2.985  0.1006  0.6751  0.2388
 7483SOL    HW134085   0.509   2.522   2.906 -2.5681  0.9947  1.7778
 7483SOL    HW234086   0.493   2.578   3.047 -0.7662 -3.5200  1.4796
 7484SOL     OW34087   2.882   1.139  15.813 -0.6879  0.2634 -0.0912
 7484SOL    HW134088   2.955   1.179  15.766  2.3150  0.7522  4.9341
 7484SOL    HW234089   2.853   1.220  15.856  1.8533 -0.2879  2.6126
 7485SOL     OW34090   3.044   1.699  12.075  0.6878 -0.1902 -0.6324
 7485SOL    HW134091   3.138   1.683  12.079  0.2336 -2.1274  2.6245
 7485SOL    HW234092   3.032   1.774  12.134  2.4162 -1.9737  1.9894
 7486SOL     OW34093   2.976   1.526  11.895 -0.1334  0.2221 -0.1190
 7486SOL    HW134094   3.013   1.559  11.813  0.6446 -0.7750 -0.1576
 7486SOL    HW234095   3.014   1.574  11.969 -0.4825  1.3307 -0.6612
 7487SOL     OW34096   1.479   3.276  12.626 -0.0324  0.3166 -0.8528
 7487SOL    HW134097   1.458   3.184  12.610  3.0490 -0.2552 -1.5857
 7487SOL    HW234098   1.491   3.277  12.721 -0.1956  0.4384 -0.8320
 7488SOL     OW34099   0.322   2.478   4.485  0.3349 -0.0904  0.3096
 7488SOL    HW134100   0.328   2.525   4.568  1.4789  0.8659 -0.3265
 7488SOL    HW234101   0.410   2.451   4.459  0.1726 -0.8617  0.5388
 7489SOL     OW34102   0.029   4.082   8.488 -0.5506  0.4589 -0.0767
 7489SOL    HW134103   0.011   4.132   8.408 -2.5038 -1.6287 -0.9115
 7489SOL    HW234104   4.678   4.064   8.522 -0.7272  1.0012 -0.2404
 7490SOL     OW34105   3.593   1.712   9.071  0.1483 -0.0257  0.0417
 7490SOL    HW134106   3.603   1.621   9.100 -0.4818  0.8638  2.9711
 7490SOL    HW234107   3.660   1.721   9.003 -0.9152 -0.9849 -1.1255
 7491SOL     OW34108   0.754   1.767  15.447 -0.3525  0.4347 -0.0474
 7491SOL    HW134109   0.803   1.825  15.389 -1.2264  2.5020  1.3105
 7491SOL    HW234110   0.680   1.824  15.465  1.3046  2.9229 -1.0151
 7492SOL     OW34111   1.918   0.199   9.596  0.0463  0.5199  0.8608
 7492SOL    HW134112   1.923   0.108   9.627  3.6170 -0.7082 -3.2948
 7492SOL    HW234113   1.945   0.244   9.676  0.4210 -0.9064  1.5409
 7493SOL     OW34114   3.765   3.105   2.795  0.6766 -0.1416 -0.5878
 7493SOL    HW134115   3.828   3.040   2.827 -1.5661 -1.6806  0.6618
 7493SOL    HW234116   3.678   3.068   2.779 -0.1247  1.0628  1.0404
 7494SOL     OW34117   1.331   2.275   2.288  0.2467  0.2792 -0.0012
 7494SOL    HW134118   1.241   2.257   2.262  0.1217 -0.0531  0.6559
 7494SOL    HW234119   1.356   2.204   2.347 -0.7815 -0.5842 -0.5998
 7495SOL     OW34120   2.250   0.651   3.359 -0.2612 -0.0556 -0.0011
 7495SOL    HW134121   2.198   0.667   3.438 -1.3823 -2.8294 -0.1732
 7495SOL    HW234122   2.286   0.563   3.373  1.2319  0.4949 -0.4489
 7496SOL     OW34123   0.531   4.090   0.653 -0.3402  0.7755  0.2758
 7496SOL    HW134124   0.554   3.998   0.669 -1.0556  0.7626  1.2339
 7496SOL    HW234125   0.507   4.089   0.561 -0.4404  1.1651  0.2981
 7497SOL     OW34126   0.443   1.735   4.408  0.4828 -0.4986 -1.0895
 7497SOL    HW134127   0.433   1.668   4.340 -3.2710 -0.1725 -0.8453
 7497SOL    HW234128   0.403   1.813   4.370  1.1401  0.4949  0.2524
 7498SOL     OW34129   4.504   1.262   2.168  0.4997  0.4622 -0.5062
 7498SOL    HW134130   4.409   1.253   2.167  0.4771  0.6689  0.3727
 7498SOL    HW234131   4.512   1.329   2.235 -1.0081 -0.4393  0.5923
 7499SOL     OW34132   4.137   1.789   7.373 -0.0347 -0.3209 -0.1270
 7499SOL    HW134133   4.192   1.809   7.297  1.9016 -1.3629  1.0024
 7499SOL    HW234134   4.084   1.715   7.341  0.0318  0.4172 -1.9385
 7500SOL     OW34135   2.285   0.968   3.547 -0.0226 -0.4488  0.5320
 7500SOL    HW134136   2.380   0.957   3.538 -0.1164 -0.2595 -0.8128
 7500SOL    HW234137   2.299   1.048   3.597  1.9641 -0.2795 -0.2881
 7501SOL     OW34138   1.389   3.191   4.214  0.1116  0.6694 -0.0827
 7501SOL    HW134139   1.384   3.213   4.121  1.0292  0.5422 -0.1552
 7501SOL    HW234140   1.304   3.230   4.236 -0.6241  0.3233 -2.4168
 7502SOL     OW34141   4.315   2.371   1.546 -0.2234 -0.0673  0.4046
 7502SOL    HW134142   4.256   2.297   1.560 -0.0021 -0.4684 -0.7908
 7502SOL    HW234143   4.331   2.370   1.452  2.3610  0.3813  0.8568
 7503SOL     OW34144   4.561   4.584   5.930 -0.3948  0.2304  0.0986
 7503SOL    HW134145   4.607   4.505   5.958 -0.0767  0.8187  1.2276
 7503SOL    HW234146   4.526   4.604   6.017 -0.5216  0.1304  0.0704
 7504SOL     OW34147   0.504   3.675  14.620  0.3892  0.2569 -0.2085
 7504SOL    HW134148   0.537   3.658  14.708 -0.5353 -1.0584 -0.1050
 7504SOL    HW234149   0.411   3.667  14.640  0.5096 -2.3068 -0.5639
 7505SOL     OW34150   0.232   2.557  17.190 -0.0797  0.6070 -0.0371
 7505SOL    HW134151   0.183   2.615  17.132  0.6133  2.8938  1.6611
 7505SOL    HW234152   0.205   2.478  17.144  1.4276  1.5602 -2.5464
 7506SOL     OW34153   1.225   2.449   8.975  0.1469 -0.6129 -0.2653
 7506SOL    HW134154   1.286   2.517   8.947  0.0246 -0.7414 -0.8452
 7506SOL    HW234155   1.243   2.388   8.904  0.3554 -1.1676  0.2614
 7507SOL     OW34156   4.323   4.118   5.802 -0.4892 -0.1898 -0.1754
 7507SOL    HW134157   4.354   4.053   5.864  1.0337  0.1467 -0.5970
 7507SOL    HW234158   4.230   4.126   5.824 -0.1583  1.1237  0.7912
 7508SOL     OW34159   1.330   0.931   1.958  0.2258  0.2195 -0.0929
 7508SOL    HW134160   1.306   0.878   2.034  1.0148 -0.2437 -0.1539
 7508SOL    HW234161   1.250   0.915   1.907 -1.4857  4.7450  1.2391
 7509SOL     OW34162   0.101   2.418   5.547 -0.4520  0.3645 -0.1287
 7509SOL    HW134163   0.155   2.436   5.470 -0.0141  0.6902  0.2582
 7509SOL    HW234164   0.034   2.486   5.545 -1.1297 -0.3019 -0.1033
 7510SOL     OW34165   3.735   1.867  17.451  0.3947 -0.8069  0.1128
 7510SOL    HW134166   3.746   1.775  17.479  1.8377 -0.9021 -0.7624
 7510SOL    HW234167   3.696   1.860  17.364  0.7990 -0.9896 -0.0570
 7511SOL     OW34168   4.208   3.402  11.018 -0.6331 -0.3575 -0.2347
 7511SOL    HW134169   4.261   3.389  10.940 -2.3594 -2.4598 -1.0273
 7511SOL    HW234170   4.225   3.496  11.032  0.6289 -0.4000 -1.4185
 7512SOL     OW34171   0.496   3.623  12.699  0.5750  0.8442  0.3899
 7512SOL    HW134172   0.583   3.656  12.723 -0.6690  3.5981  1.0097
 7512SOL    HW234173   0.440   3.618  12.776  0.9980  2.4032  0.7995
 7513SOL     OW34174   1.728   2.403  14.934  0.0322  0.0536 -0.4894
 7513SOL    HW134175   1.731   2.493  14.900  1.6352 -0.2405 -1.1477
 7513SOL    HW234176   1.818   2.372  14.926  0.5677  1.4213  0.3629
 7514SOL     OW34177   2.947   0.150   1.747 -0.0472 -0.0114 -0.3275
 7514SOL    HW134178   2.976   0.221   1.688 -2.5415  0.6710 -0.7313
 7514SOL    HW234179   2.953   0.202   1.827  0.7449  1.2981 -1.2273
 7515SOL     OW34180   3.229   4.697  12.258 -0.0633  0.1149 -0.4253
 7515SOL    HW134181   3.302   4.726  12.312  0.3756 -0.2201 -0.8347
 7515SOL    HW234182   3.267   4.628  12.203 -0.1548  1.1059 -1.7208
 7516SOL     OW34183   0.710   3.876   1.630 -0.1353  0.2383  0.1183
 7516SOL    HW134184   0.717   3.971   1.643 -0.1508  0.2994 -0.3128
 7516SOL    HW234185   0.801   3.846   1.621  0.6674  2.7311 -0.1328
 7517SOL     OW34186   0.320   2.462   7.707  0.0776 -0.2945  0.1087
 7517SOL    HW134187   0.347   2.551   7.685  0.3464 -0.3726  0.1235
 7517SOL    HW234188   0.281   2.436   7.623  0.1744  1.5919 -0.5094
 7518SOL     OW34189   2.910   0.181  17.138  0.6068  0.0279  0.0044
 7518SOL    HW134190   2.870   0.112  17.191  0.6262  2.6573  3.3951
 7518SOL    HW234191   2.991   0.140  17.105  0.3146 -1.8496  1.6092
 7519SOL     OW34192   1.407   4.077   6.343 -0.0917  0.1866 -0.1889
 7519SOL    HW134193   1.370   4.165   6.348 -2.5973 -0.9225  0.7015
 7519SOL    HW234194   1.485   4.080   6.287 -0.4577  3.8412 -0.5230
 7520SOL     OW34195   3.972   4.140   7.069  0.2360  0.4124 -0.0009
 7520SOL    HW134196   4.034   4.097   7.009  1.4991  0.9048  0.9491
 7520SOL    HW234197   3.905   4.171   7.008 -0.8079 -1.1382  0.3381
 7521SOL     OW34198   2.073   1.696   9.092  0.2474 -0.2891  0.2817
 7521SOL    HW134199   2.070   1.679   9.186  1.8774  1.5943  0.6824
 7521SOL    HW234200   2.011   1.632   9.059  0.2340 -1.2172  2.1754
 7522SOL     OW34201   1.475   2.862   3.253 -0.3973  0.1194 -0.0576
 7522SOL    HW134202   1.493   2.956   3.248  3.2083 -0.4362  1.9900
 7522SOL    HW234203   1.380   2.849   3.258 -0.3027  0.0284  1.7224
 7523SOL     OW34204   1.342   1.091   6.089  0.2262  0.3551 -0.1057
 7523SOL    HW134205   1.408   1.022   6.085 -0.6577 -0.5136  0.0683
 7523SOL    HW234206   1.347   1.124   6.000  0.8616  2.2868  0.6487
 7524SOL     OW34207   2.670   0.307  11.472 -0.3294 -0.2477  0.2861
 7524SOL    HW134208   2.630   0.220  11.479  0.6691 -0.7180  0.0873
 7524SOL    HW234209   2.697   0.295  11.563 -0.3355  1.4028  0.5183
 7525SOL     OW34210   2.442   4.500  13.335  0.6393  0.2375 -0.3174
 7525SOL    HW134211   2.537   4.488  13.336  0.6925  0.7488  1.0263
 7525SOL    HW234212   2.416   4.416  13.297  0.8816 -0.9421  2.1195
 7526SOL     OW34213   3.862   4.228   2.524 -0.2329  0.2610  0.3214
 7526SOL    HW134214   3.874   4.219   2.619  2.0350 -2.1962 -0.2016
 7526SOL    HW234215   3.916   4.150   2.511  1.1435  1.1495  0.6424
 7527SOL     OW34216   0.396   0.314   9.109  0.5843  0.3015  0.5856
 7527SOL    HW134217   0.488   0.288   9.110  0.5366  0.0863 -0.4381
 7527SOL    HW234218   0.392   0.351   9.021  0.6105 -1.8279 -0.3177
 7528SOL     OW34219   1.099   4.670  14.900  0.1195  0.3906  0.2643
 7528SOL    HW134220   1.047   0.012  14.884  0.0379  0.6496  1.7853
 7528SOL    HW234221   1.033   4.610  14.864  1.8392 -0.7338 -0.9996
 7529SOL     OW34222   3.348   2.137   6.081 -0.5983  0.4544 -0.0028
 7529SOL    HW134223   3.377   2.073   6.146  0.6582 -0.1139 -1.1256
 7529SOL    HW234224   3.353   2.077   6.007  2.8469 -0.5373  1.0399
 7530SOL     OW34225   2.886   4.708   5.274  0.1801 -0.1095  0.4655
 7530SOL    HW134226   2.930   4.733   5.193  0.3529  0.0333  0.6032
 7530SOL    HW234227   2.923   4.622   5.296  2.0171  0.1437 -1.5732
 7531SOL     OW34228   3.147   3.410   0.317 -0.4461  0.4830  0.1731
 7531SOL    HW134229   3.079   3.447   0.372 -0.3099 -1.1759  1.4637
 7531SOL    HW234230   3.230   3.452   0.340  1.5628 -3.3743  0.1061
 7532SOL     OW34231   2.780   1.754   9.156  0.5164  0.2334 -0.1937
 7532SOL    HW134232   2.720   1.680   9.148 -0.7770  1.0753  1.6220
 7532SOL    HW234233   2.836   1.735   9.081  1.0752 -2.0144  0.8030
 7533SOL     OW34234   1.196   0.062  12.596  0.3400 -0.2377  0.1903
 7533SOL    HW134235   1.122   0.075  12.537  0.1619 -2.4834 -0.0716
 7533SOL    HW234236   1.215   4.706  12.580 -1.0293 -0.1834 -1.7276
 7534SOL     OW34237   1.833   2.835   3.565 -0.7597  0.2328 -0.0401
 7534SOL    HW134238   1.815   2.907   3.625 -1.4720 -0.3463  0.4416
 7534SOL    HW234239   1.921   2.859   3.536  0.0783 -0.0115  2.3153
 7535SOL     OW34240   1.849   1.728   3.322  0.2589  1.0228 -0.0798
 7535SOL    HW134241   1.777   1.689   3.371  0.1789  1.8029  0.4158
 7535SOL    HW234242   1.899   1.768   3.393 -0.4949  0.2797  0.8649
 7536SOL     OW34243   3.687   1.344   4.585 -0.8855 -0.4210  0.1925
 7536SOL    HW134244   3.695   1.395   4.666 -1.2074 -1.4846  0.9065
 7536SOL    HW234245   3.596   1.368   4.566 -0.1118  1.5541 -0.9065
 7537SOL     OW34246   3.419   4.215  11.990  0.4408  0.5360 -0.0100
 7537SOL    HW134247   3.372   4.178  11.916 -0.6590 -2.0554  1.9824
 7537SOL    HW234248   3.477   4.141  12.009  2.0764  1.7055 -0.3509
 7538SOL     OW34249   1.652   0.832   3.134  0.3199 -0.5328 -0.6622
 7538SOL    HW134250   1.568   0.787   3.128  1.3863 -2.7342  0.5688
 7538SOL    HW234251   1.654   0.840   3.229 -0.6832  0.7667 -0.7468
 7539SOL     OW34252   2.899   1.979  15.858  0.2910  0.4343 -0.5883
 7539SOL    HW134253   2.915   1.888  15.833  2.4999  0.3870  0.9453
 7539SOL    HW234254   2.969   2.013  15.803  1.1079  0.2655  0.3336
 7540SOL     OW34255   1.444   2.063   3.697 -0.0314  0.0658 -0.2497
 7540SOL    HW134256   1.352   2.074   3.718 -0.0101 -0.6020  0.1805
 7540SOL    HW234257   1.486   2.143   3.727 -2.8023  1.9092 -1.3556
 7541SOL     OW34258   1.483   0.237   5.367  0.5986  0.0931  0.2065
 7541SOL    HW134259   1.500   0.301   5.435  0.1076 -0.9870  1.3448
 7541SOL    HW234260   1.552   0.254   5.303  0.4247 -1.4404 -0.3933
 7542SOL     OW34261   2.404   3.850   5.779  0.0930  0.3339 -0.0747
 7542SOL    HW134262   2.408   3.938   5.740 -2.1084 -0.0790 -1.2225
 7542SOL    HW234263   2.481   3.860   5.834 -0.6732 -0.9950  1.2211
 7543SOL     OW34264   1.756   4.457  10.926  0.0625 -0.8711 -0.3878
 7543SOL    HW134265   1.845   4.468  10.892  0.5295 -1.6997  0.6045
 7543SOL    HW234266   1.716   4.404  10.857 -1.1257 -2.5469  1.6064
 7544SOL     OW34267   0.471   0.640   3.068 -0.1680  0.2533 -0.5306
 7544SOL    HW134268   0.540   0.676   3.013 -0.5427 -0.9710 -1.7914
 7544SOL    HW234269   0.524   0.588   3.128 -0.7851 -0.6162 -0.7482
 7545SOL     OW34270   0.502   2.388   9.714 -0.0841 -0.2236  0.2523
 7545SOL    HW134271   0.505   2.293   9.713 -1.1155 -0.2476 -0.2855
 7545SOL    HW234272   0.557   2.396   9.636  0.0603  1.0875  0.4752
 7546SOL     OW34273   4.242   0.988   7.722 -0.5454 -0.0649 -0.3272
 7546SOL    HW134274   4.166   1.023   7.676 -0.9253 -1.8989 -1.0893
 7546SOL    HW234275   4.303   1.061   7.712 -1.3617  0.6159 -0.3239
 7547SOL     OW34276   1.161   3.476   6.202 -0.9177 -0.0660 -0.1810
 7547SOL    HW134277   1.221   3.423   6.151 -1.0010 -1.7520  1.4837
 7547SOL    HW234278   1.140   3.536   6.130  2.2627 -0.4534 -1.3984
 7548SOL     OW34279   3.593   2.737   9.466  0.1475  0.1359  0.2173
 7548SOL    HW134280   3.652   2.722   9.391 -0.5684  4.1198 -1.1621
 7548SOL    HW234281   3.540   2.800   9.417 -0.2156 -0.6351 -0.3720
 7549SOL     OW34282   2.656   2.214   6.539 -0.4477  0.3246 -0.2972
 7549SOL    HW134283   2.712   2.186   6.611  0.0900  0.2634 -0.7437
 7549SOL    HW234284   2.580   2.158   6.556 -1.1173  1.4803  0.5521
 7550SOL     OW34285   4.633   3.339   0.946 -0.1907 -0.6728 -0.0839
 7550SOL    HW134286   4.587   3.261   0.916 -0.1075 -0.0512 -1.8080
 7550SOL    HW234287   4.630   3.392   0.867  2.6190 -1.6968 -0.9150
 7551SOL     OW34288   0.506   3.733   6.755 -0.2026 -0.1052  0.0539
 7551SOL    HW134289   0.474   3.681   6.829 -3.0383  1.1363 -0.2982
 7551SOL    HW234290   0.433   3.725   6.694  0.1955  0.9053 -0.5678
 7552SOL     OW34291   3.036   1.116   5.808 -0.3958 -0.2119 -0.2620
 7552SOL    HW134292   2.987   1.194   5.835 -1.5173 -1.3568  1.0391
 7552SOL    HW234293   2.972   1.050   5.836 -0.2941 -0.4775 -0.6575
 7553SOL     OW34294   2.417   4.648   7.883  0.1632  0.4300  0.4242
 7553SOL    HW134295   2.337   4.599   7.864  0.1484  0.5462  0.1853
 7553SOL    HW234296   2.454   4.581   7.940 -2.2953  0.3063  1.8874
 7554SOL     OW34297   3.856   0.320  16.259 -0.6952 -0.0491  0.3998
 7554SOL    HW134298   3.944   0.290  16.286 -0.6655  0.4797  0.8893
 7554SOL    HW234299   3.805   0.240  16.274  2.3665 -2.1546 -0.3533
 7555SOL     OW34300   0.455   0.330  13.391  0.6203 -0.0675 -0.3138
 7555SOL    HW134301   0.530   0.371  13.347  1.4353  0.4121  1.5199
 7555SOL    HW234302   0.401   0.408  13.377  1.2473 -0.3751 -4.6608
 7556SOL     OW34303   0.275   2.524   9.763  0.4554 -0.3782 -0.1138
 7556SOL    HW134304   0.355   2.499   9.718  0.1599 -1.4872 -0.0284
 7556SOL    HW234305   0.247   2.435   9.784 -1.3675  0.0920 -0.4870
 7557SOL     OW34306   4.531   3.966   4.541  0.0653 -0.2575  0.9623
 7557SOL    HW134307   4.519   4.005   4.454  0.6007 -1.2506  0.4473
 7557SOL    HW234308   4.463   4.001   4.599 -1.8578  0.6589 -1.8320
 7558SOL     OW34309   4.636   1.339   5.008 -0.2975  0.1762  1.0618
 7558SOL    HW134310   4.708   1.371   4.954  1.0085 -0.2863  2.5027
 7558SOL    HW234311   4.635   1.244   4.995  0.1310  0.5061 -1.3928
 7559SOL     OW34312   0.320   1.295   4.402 -0.3713 -0.3581 -0.7987
 7559SOL    HW134313   0.288   1.243   4.328 -1.6838 -1.5768  0.6266
 7559SOL    HW234314   0.376   1.225   4.435  0.8672  2.1123  2.3497
 7560SOL     OW34315   2.532   3.822   0.402 -0.1792  0.2416  0.1004
 7560SOL    HW134316   2.503   3.883   0.469 -1.0868  0.2806 -0.3179
 7560SOL    HW234317   2.510   3.740   0.445  1.5722 -1.2278 -1.7937
 7561SOL     OW34318   1.505   4.188   8.618 -0.2302  0.8148  0.4237
 7561SOL    HW134319   1.438   4.157   8.558 -0.2010 -1.5763  1.6498
 7561SOL    HW234320   1.485   4.281   8.605 -0.5676  0.8129  0.9070
 7562SOL     OW34321   3.283   2.229  14.752 -0.4474  0.0543  0.8010
 7562SOL    HW134322   3.287   2.135  14.733 -1.7418  0.0678  0.4401
 7562SOL    HW234323   3.282   2.264  14.664  0.8497 -1.4621  0.1737
 7563SOL     OW34324   1.756   4.712  13.143  0.6943  0.0377 -0.0022
 7563SOL    HW134325   1.687   0.012  13.198  2.3905  1.8060  0.9376
 7563SOL    HW234326   1.716   4.630  13.115 -0.3513 -0.3576  2.6402
 7564SOL     OW34327   4.259   1.728   3.305  0.3458  0.5457  0.3446
 7564SOL    HW134328   4.283   1.821   3.308  1.5205  0.2736 -0.5284
 7564SOL    HW234329   4.330   1.686   3.256 -0.0855 -0.4613  0.5793
 7565SOL     OW34330   0.578   1.008   4.985 -0.3862 -0.1156  0.4190
 7565SOL    HW134331   0.654   1.066   4.987  0.0104 -0.6206 -0.2344
 7565SOL    HW234332   0.553   1.009   5.077  1.1821 -0.6491  0.8519
 7566SOL     OW34333   0.989   3.407   7.092  0.3118 -0.8842 -0.4763
 7566SOL    HW134334   1.057   3.473   7.102 -0.9095  0.4130 -0.7395
 7566SOL    HW234335   0.936   3.443   7.021 -1.0801  0.9117  1.4838
 7567SOL     OW34336   1.746   0.841   6.861 -0.3720  0.0137  0.1009
 7567SOL    HW134337   1.804   0.775   6.898  0.7346 -0.1853 -1.9555
 7567SOL    HW234338   1.685   0.787   6.810  1.0465 -0.3409 -1.2182
 7568SOL     OW34339   1.755   3.669   1.760 -0.5262  0.2865  0.3436
 7568SOL    HW134340   1.849   3.666   1.778 -0.0689  1.4179 -1.7662
 7568SOL    HW234341   1.736   3.575   1.755 -1.8595  0.5943 -0.3953
 7569SOL     OW34342   0.640   2.904  14.600 -0.3432  0.2172  0.1893
 7569SOL    HW134343   0.570   2.863  14.549 -0.7939  0.6120  0.4913
 7569SOL    HW234344   0.715   2.885  14.542 -0.8255 -3.0235  0.6493
 7570SOL     OW34345   1.343   3.771   3.475 -0.4838  0.3737 -0.2262
 7570SOL    HW134346   1.289   3.845   3.448 -0.5295  0.1256 -0.8098
 7570SOL    HW234347   1.348   3.774   3.571  1.8368  1.1060 -0.3710
 7571SOL     OW34348   0.666   1.642   5.570 -0.6709  0.4607 -0.0146
 7571SOL    HW134349   0.756   1.611   5.558 -0.3666  1.0378  0.8286
 7571SOL    HW234350   0.658   1.659   5.664  1.1684  1.8450 -0.1185
 7572SOL     OW34351   1.612   2.768   9.114  0.3249  0.0969  0.1168
 7572SOL    HW134352   1.535   2.756   9.059  0.7921 -2.2810 -0.0379
 7572SOL    HW234353   1.676   2.814   9.061 -1.0129  1.8904  0.0621
 7573SOL     OW34354   4.275   4.174   1.892 -0.0205 -0.2710 -0.3726
 7573SOL    HW134355   4.209   4.180   1.823  1.7459  1.6176 -1.8662
 7573SOL    HW234356   4.346   4.116   1.866  1.3588  0.8583  0.8595
 7574SOL     OW34357   4.214   4.514  13.676  0.3959 -0.3530 -0.4446
 7574SOL    HW134358   4.296   4.507  13.626 -0.6258  2.4438 -2.5272
 7574SOL    HW234359   4.188   4.605  13.662 -0.6377 -0.4297  1.0651
 7575SOL     OW34360   0.314   4.199   7.201  0.4266  0.1189  0.5215
 7575SOL    HW134361   0.343   4.226   7.113  1.0615  0.0779  0.7216
 7575SOL    HW234362   0.291   4.282   7.244 -1.5025  0.4291 -1.0411
 7576SOL     OW34363   2.840   3.510   9.742 -0.3665 -0.1512 -0.1345
 7576SOL    HW134364   2.834   3.604   9.727 -4.5289 -0.2383  1.0173
 7576SOL    HW234365   2.875   3.511   9.831 -1.4010 -0.1483  0.2801
 7577SOL     OW34366   1.782   0.408   6.841 -0.5835 -0.5110 -0.2848
 7577SOL    HW134367   1.827   0.395   6.924 -1.5814 -1.7128  0.0637
 7577SOL    HW234368   1.705   0.356   6.863  0.7677 -3.0946 -1.7680
 7578SOL     OW34369   1.384   4.199   2.062  0.0410 -0.0374  0.1569
 7578SOL    HW134370   1.411   4.271   2.120  2.0085 -1.9167  1.5678
 7578SOL    HW234371   1.423   4.123   2.105 -0.4707 -1.0628 -1.2189
 7579SOL     OW34372   0.082   2.534   6.388 -0.3592 -0.0426 -0.0113
 7579SOL    HW134373   0.040   2.583   6.317  0.3687  0.7687  0.1169
 7579SOL    HW234374   0.003   2.483   6.406 -1.0208  0.2390 -2.1139
 7580SOL     OW34375   3.818   2.122  17.446 -0.4459  0.3774 -0.0694
 7580SOL    HW134376   3.777   2.036  17.438  1.5593 -0.7821  2.0623
 7580SOL    HW234377   3.792   2.156  17.531  2.9479  1.7984  0.4150
 7581SOL     OW34378   3.442   1.279   9.322  0.2284  0.4097 -0.0725
 7581SOL    HW134379   3.467   1.371   9.314 -0.2645  0.6041  0.6918
 7581SOL    HW234380   3.532   1.246   9.330  0.5736  0.6402 -2.9940
 7582SOL     OW34381   2.271   4.587   3.166  0.4256 -0.1734 -0.1414
 7582SOL    HW134382   2.288   4.506   3.214  1.6054 -0.1840 -0.5668
 7582SOL    HW234383   2.274   4.562   3.074  2.5540  1.1522 -0.4136
 7583SOL     OW34384   0.492   3.978   8.291  0.0966  0.1103 -0.1626
 7583SOL    HW134385   0.503   4.064   8.331  0.5195 -1.0775  2.3191
 7583SOL    HW234386   0.563   3.968   8.228 -0.8987 -0.4736 -1.1865
 7584SOL     OW34387   4.478   1.375   5.779  0.3957  0.0638 -0.2266
 7584SOL    HW134388   4.474   1.382   5.684 -2.5516 -3.9425 -0.4098
 7584SOL    HW234389   4.488   1.280   5.783  1.8844  0.2889  1.2554
 7585SOL     OW34390   3.870   0.699  16.622 -0.1610 -0.1433  0.4762
 7585SOL    HW134391   3.864   0.640  16.697  1.4164  0.9269  1.4323
 7585SOL    HW234392   3.834   0.781  16.655  0.4801  0.9394 -1.4709
 7586SOL     OW34393   4.190   0.126  16.165 -0.0338  0.1570  0.3689
 7586SOL    HW134394   4.258   0.181  16.127  0.5600 -0.8238  0.0177
 7586SOL    HW234395   4.173   0.079  16.083 -0.0193  3.3184 -1.4403
 7587SOL     OW34396   3.232   2.158   2.450 -0.0429  0.0087  0.3414
 7587SOL    HW134397   3.206   2.067   2.433 -0.1688  0.1170 -0.0303
 7587SOL    HW234398   3.154   2.212   2.456  1.2129  1.8020  0.3728
 7588SOL     OW34399   3.899   2.826   6.707  0.4219  0.0123  0.3749
 7588SOL    HW134400   3.992   2.814   6.687  0.0825 -1.8860 -0.1227
 7588SOL    HW234401   3.866   2.896   6.651  1.4457  0.8135  0.7726
 7589SOL     OW34402   1.195   2.800   3.295  0.4056  0.1430  0.8164
 7589SOL    HW134403   1.112   2.751   3.289 -0.3547  1.4403  0.6448
 7589SOL    HW234404   1.188   2.831   3.386 -1.4526  1.1627  0.3265
 7590SOL     OW34405   1.178   1.125  15.683  0.2401 -0.4558  0.0980
 7590SOL    HW134406   1.126   1.176  15.621  2.3798 -0.4219 -1.6714
 7590SOL    HW234407   1.135   1.040  15.688 -1.2015  0.2607 -0.2690
 7591SOL     OW34408   2.245   1.909   6.207  0.2508 -0.4168  0.6549
 7591SOL    HW134409   2.271   1.818   6.219 -1.8574 -0.6962  2.9022
 7591SOL    HW234410   2.254   1.920   6.112 -3.4425 -0.7329  0.2604
 7592SOL     OW34411   1.558   1.380  16.510  0.0593 -0.4249 -0.5788
 7592SOL    HW134412   1.512   1.322  16.450  1.2015 -2.4397  0.4636
 7592SOL    HW234413   1.639   1.398  16.462  1.2541 -5.2873 -0.3922
 7593SOL     OW34414   4.466   1.640   3.167 -0.3071 -0.3651 -0.0656
 7593SOL    HW134415   4.505   1.556   3.193  2.3992  1.4297  1.6624
 7593SOL    HW234416   4.505   1.650   3.080 -0.5902  1.3013  0.0082
 7594SOL     OW34417   2.321   0.678  15.164 -0.4643  0.2431  0.0954
 7594SOL    HW134418   2.362   0.592  15.168 -1.3442 -0.2279 -1.0870
 7594SOL    HW234419   2.348   0.712  15.249 -1.9715  1.1019  0.2172
 7595SOL     OW34420   0.675   1.531   4.925 -0.6301  0.3173 -0.0850
 7595SOL    HW134421   0.590   1.512   4.885 -0.9946  0.3702  0.6690
 7595SOL    HW234422   0.679   1.472   5.000 -0.1439  0.8886  0.3330
 7596SOL     OW34423   3.327   1.962  14.713  0.4956  0.1118 -0.1543
 7596SOL    HW134424   3.284   1.950  14.798 -2.8455 -0.0465 -1.8984
 7596SOL    HW234425   3.268   1.920  14.650  0.0875  1.2575 -0.5192
 7597SOL     OW34426   3.587   1.063   6.639 -0.2712 -0.1122 -0.3596
 7597SOL    HW134427   3.584   1.026   6.551 -2.3048 -0.8499  0.0131
 7597SOL    HW234428   3.682   1.053   6.644 -0.4340 -0.4317  2.4909
 7598SOL     OW34429   3.495   3.775   2.864 -0.0643 -0.0442 -0.1091
 7598SOL    HW134430   3.558   3.845   2.884 -0.1685  0.2742 -0.9101
 7598SOL    HW234431   3.447   3.810   2.790  1.0718  0.2520 -0.7115
 7599SOL     OW34432   2.061   0.179   1.932  0.7755 -0.3381  0.2067
 7599SOL    HW134433   2.032   0.265   1.901 -0.1942  0.0898  2.3279
 7599SOL    HW234434   2.154   0.188   1.953  0.3246  1.2282  1.5321
 7600SOL     OW34435   0.217   1.936   6.199 -0.0223  0.1868 -0.3800
 7600SOL    HW134436   0.157   1.905   6.267  2.0131  1.1211  1.8472
 7600SOL    HW234437   0.301   1.904   6.230 -1.0602  0.7279  3.0573
 7601SOL     OW34438   4.408   2.046  10.901 -0.3475  0.2170 -0.1540
 7601SOL    HW134439   4.476   2.011  10.843  0.9376 -2.4771  2.9753
 7601SOL    HW234440   4.352   1.969  10.916 -1.6195  1.2439  0.3469
 7602SOL     OW34441   1.234   1.666   5.386 -0.0295  0.3624 -0.0418
 7602SOL    HW134442   1.299   1.599   5.410  1.2581  1.0567 -1.6109
 7602SOL    HW234443   1.205   1.700   5.471 -2.1083  0.3517 -0.7438
 7603SOL     OW34444   1.446   4.594   7.707 -0.3152  0.0029  0.1869
 7603SOL    HW134445   1.524   4.557   7.664  1.2685  0.5754  2.5562
 7603SOL    HW234446   1.440   4.674   7.655 -1.0807 -0.4898 -0.4850
 7604SOL     OW34447   4.199   4.449  17.723 -0.0032 -0.2450 -0.1762
 7604SOL    HW134448   4.234   4.417   0.062 -1.4208 -0.7412  0.2332
 7604SOL    HW234449   4.105   4.427  17.719  0.1060 -0.4735 -1.4594
 7605SOL     OW34450   2.681   3.068  16.629 -0.1182 -0.4054 -0.2519
 7605SOL    HW134451   2.684   3.164  16.624 -0.6025 -0.4128 -0.6672
 7605SOL    HW234452   2.686   3.033  16.539 -0.4666  0.2521 -0.5259
 7606SOL     OW34453   0.334   1.999   3.334  0.5981 -0.1207 -0.5061
 7606SOL    HW134454   0.351   1.913   3.372  1.3139  1.2088  2.1787
 7606SOL    HW234455   0.417   2.046   3.344  0.1174  0.8309 -1.0106
 7607SOL     OW34456   2.503   2.694   0.740  0.0843  0.2530 -0.6181
 7607SOL    HW134457   2.482   2.706   0.647  2.5285 -0.0469 -1.2163
 7607SOL    HW234458   2.439   2.753   0.781 -0.3439 -1.1369  0.7168
 7608SOL     OW34459   3.823   0.231  15.682  0.1150 -0.0611 -0.6863
 7608SOL    HW134460   3.874   0.230  15.763  1.7784 -0.5488 -1.7381
 7608SOL    HW234461   3.865   0.313  15.657 -1.4688  0.5369 -1.3546
 7609SOL     OW34462   4.171   2.969  12.024 -0.6290 -0.2887 -0.3875
 7609SOL    HW134463   4.265   2.974  12.042 -0.5167  1.3703 -1.3553
 7609SOL    HW234464   4.154   2.880  11.994  1.6918 -0.6245 -0.7017
 7610SOL     OW34465   2.340   1.236   1.703  0.2962  0.6277 -0.3783
 7610SOL    HW134466   2.338   1.316   1.650  0.2087  0.0975 -1.1656
 7610SOL    HW234467   2.340   1.272   1.792 -0.2554  0.3511 -0.2683
 7611SOL     OW34468   3.211   2.346   3.517 -0.0550  0.3184  0.7910
 7611SOL    HW134469   3.172   2.345   3.604 -1.8958  1.9548 -0.0243
 7611SOL    HW234470   3.304   2.332   3.536  0.0505 -0.8817 -0.5366
 7612SOL     OW34471   1.731   0.323   8.090 -0.3423  0.0952  0.4203
 7612SOL    HW134472   1.761   0.414   8.090 -0.9459  0.2959  0.8345
 7612SOL    HW234473   1.713   0.321   8.184 -1.9316 -0.4023  0.1087
 7613SOL     OW34474   4.041   0.836  17.610  0.1762  0.7077 -0.2404
 7613SOL    HW134475   4.043   0.897  17.536 -0.4038 -0.5513 -1.2798
 7613SOL    HW234476   3.954   0.797  17.602 -0.3289  1.5634  1.0800
 7614SOL     OW34477   0.519   1.639   8.993 -0.4650 -0.2261  0.1513
 7614SOL    HW134478   0.495   1.553   8.958 -2.2057  0.3359 -0.0276
 7614SOL    HW234479   0.458   1.701   8.953 -2.3160 -1.0397  1.7276
 7615SOL     OW34480   3.187   1.564   3.892  0.1920 -0.1187  0.3706
 7615SOL    HW134481   3.256   1.629   3.876  0.2299  0.1581  1.6443
 7615SOL    HW234482   3.110   1.615   3.915  2.0658  1.9261  2.0685
 7616SOL     OW34483   0.895   2.540   7.021 -0.3420 -0.5061  0.1578
 7616SOL    HW134484   0.985   2.510   7.033 -0.0141 -0.1478 -1.4710
 7616SOL    HW234485   0.889   2.622   7.071  0.8512 -0.4940  0.2726
 7617SOL     OW34486   0.321   2.402   7.441 -0.2944  0.5905 -1.0621
 7617SOL    HW134487   0.329   2.311   7.470 -1.7666  0.1420 -2.0617
 7617SOL    HW234488   0.396   2.399   7.382 -0.4458 -4.5184 -0.9718
 7618SOL     OW34489   4.532   4.615  17.264  0.2255  0.0827 -0.3615
 7618SOL    HW134490   4.599   4.547  17.273  2.3730  2.2049 -0.2955
 7618SOL    HW234491   4.559   4.677  17.332 -0.4824 -1.3805  1.2558
 7619SOL     OW34492   0.564   3.214  17.071  0.6735 -0.1369 -0.0755
 7619SOL    HW134493   0.491   3.274  17.058 -0.8774 -1.6496  1.6132
 7619SOL    HW234494   0.522   3.145  17.123 -1.2827  1.5682  0.5642
 7620SOL     OW34495   3.047   1.516   2.567  0.0701 -0.3550  0.3246
 7620SOL    HW134496   3.007   1.451   2.625  0.9721 -2.9262 -1.9257
 7620SOL    HW234497   2.992   1.513   2.489  0.6004 -2.3642  0.0262
 7621SOL     OW34498   1.669   3.821   3.479  0.7552  0.0052 -0.0531
 7621SOL    HW134499   1.660   3.911   3.508  0.9299  1.3417 -4.1600
 7621SOL    HW234500   1.583   3.780   3.495  1.0394 -0.9290 -0.8901
 7622SOL     OW34501   0.916   2.818   3.773  0.3406  0.4155 -0.6278
 7622SOL    HW134502   0.901   2.869   3.853 -0.4775  2.2889 -1.9799
 7622SOL    HW234503   0.838   2.837   3.721  0.2585  3.2368  0.5174
 7623SOL     OW34504   1.073   1.425  15.547 -0.0704  0.6323 -0.4906
 7623SOL    HW134505   1.057   1.407  15.455  3.5751  0.2434 -1.0499
 7623SOL    HW234506   0.991   1.467  15.571 -0.3085 -0.0315 -0.1334
 7624SOL     OW34507   3.589   0.347   1.820  0.2891 -0.0335 -0.1718
 7624SOL    HW134508   3.518   0.398   1.781 -0.5516 -0.8458  0.2924
 7624SOL    HW234509   3.662   0.400   1.788  1.0591 -0.8155  0.2881
 7625SOL     OW34510   1.515   4.096   2.648  0.0603 -0.4961  0.1322
 7625SOL    HW134511   1.425   4.084   2.617 -0.6877  0.4246  1.9472
 7625SOL    HW234512   1.539   4.183   2.616  1.9950 -0.8579  0.6012
 7626SOL     OW34513   4.568   0.236   5.537 -0.4990 -0.1490  0.2680
 7626SOL    HW134514   4.513   0.314   5.542  1.9880  1.7631 -2.8210
 7626SOL    HW234515   4.653   0.277   5.554  0.2847 -1.6978  0.0788
 7627SOL     OW34516   1.902   0.496   2.326 -0.4772 -0.0635  0.5362
 7627SOL    HW134517   1.951   0.488   2.244 -2.7883 -1.7915 -0.6788
 7627SOL    HW234518   1.828   0.440   2.302 -0.0258 -0.6290  0.4962
 7628SOL     OW34519   3.973   0.775   4.435 -0.2398 -0.6591 -0.3004
 7628SOL    HW134520   4.042   0.790   4.370  0.2523  2.9714  1.0806
 7628SOL    HW234521   4.011   0.814   4.514 -0.2641 -0.6928 -0.2722
 7629SOL     OW34522   3.558   1.430   9.680  0.3780  0.2446 -0.2340
 7629SOL    HW134523   3.592   1.342   9.692  1.4179  0.9419  1.9237
 7629SOL    HW234524   3.472   1.443   9.720  0.6685  0.7299  0.2320
 7630SOL     OW34525   1.086   0.131  12.065  0.0071 -0.1547  0.2436
 7630SOL    HW134526   1.179   0.155  12.066 -0.5460  1.8992  1.5744
 7630SOL    HW234527   1.073   0.071  11.991  2.4597  0.1881 -0.4504
 7631SOL     OW34528   2.154   1.348   8.512 -0.1576  0.1918  0.3628
 7631SOL    HW134529   2.063   1.356   8.484  0.1872  0.7043 -0.6323
 7631SOL    HW234530   2.140   1.370   8.604  2.1316  1.1158  0.5081
 7632SOL     OW34531   3.368   1.712   6.450 -0.1839 -0.5144  0.1310
 7632SOL    HW134532   3.341   1.727   6.359 -0.7363 -1.6631  0.1109
 7632SOL    HW234533   3.419   1.793   6.455  1.0361 -1.1983 -1.0463
 7633SOL     OW34534   1.881   2.361   8.672 -0.0065  0.6650 -0.5874
 7633SOL    HW134535   1.852   2.362   8.764  0.9873 -1.7782 -0.2724
 7633SOL    HW234536   1.878   2.268   8.651 -0.9606 -0.4771  4.4938
 7634SOL     OW34537   1.039   4.415  12.755  0.7304  0.0651  0.1994
 7634SOL    HW134538   0.995   4.458  12.682  2.6613  0.6698 -0.6078
 7634SOL    HW234539   1.101   4.361  12.707  0.5089 -0.0364  0.0306
 7635SOL     OW34540   4.733   4.398   2.240  0.0693 -0.0141 -0.2822
 7635SOL    HW134541   4.638   4.398   2.232  0.0041  1.6892  0.4614
 7635SOL    HW234542   0.015   4.380   2.332  3.4688 -2.1469 -1.3715
 7636SOL     OW34543   1.127   4.479  17.461  0.3179  0.2618  0.3468
 7636SOL    HW134544   1.100   4.389  17.480  0.4001  0.1553 -0.0394
 7636SOL    HW234545   1.223   4.477  17.465  0.3023 -0.6640  0.2468
 7637SOL     OW34546   4.638   0.275   4.946  0.7425 -0.0848  0.0437
 7637SOL    HW134547   4.627   0.306   5.036  0.3706  2.3029 -0.8265
 7637SOL    HW234548   4.725   0.239   4.961 -0.2731 -2.5381  0.0388
 7638SOL     OW34549   0.809   1.382  10.433  0.0604  0.8555 -0.4304
 7638SOL    HW134550   0.894   1.401  10.474 -0.6465  1.6401  0.6752
 7638SOL    HW234551   0.751   1.411  10.504  0.2334 -0.8565  0.4226
 7639SOL     OW34552   2.814   1.625   1.637 -0.4508  0.2350 -0.1533
 7639SOL    HW134553   2.799   1.685   1.711 -0.0066 -0.3442  0.4054
 7639SOL    HW234554   2.768   1.546   1.665 -1.5398  1.6188  1.9492
 7640SOL     OW34555   3.941   2.428   7.785  0.0724 -0.1038  0.2417
 7640SOL    HW134556   3.846   2.414   7.778  0.1125 -0.7025  0.8809
 7640SOL    HW234557   3.976   2.367   7.719 -0.0408  0.3151 -0.2027
 7641SOL     OW34558   4.064   0.819   0.414 -0.8557  0.2244 -0.0821
 7641SOL    HW134559   4.100   0.767   0.343 -0.0506  0.7099 -0.0294
 7641SOL    HW234560   4.024   0.887   0.360  0.6824  0.2521 -1.1665
 7642SOL     OW34561   2.341   0.861   7.399 -0.5816 -0.4978 -0.1216
 7642SOL    HW134562   2.267   0.866   7.460  0.8295 -1.8963  1.6810
 7642SOL    HW234563   2.302   0.802   7.333 -0.7528  0.3321 -0.7643
 7643SOL     OW34564   1.674   2.229   2.799  0.6628  0.3149  0.6776
 7643SOL    HW134565   1.621   2.215   2.877  0.5230  1.5769  0.8121
 7643SOL    HW234566   1.727   2.149   2.803 -0.4574 -0.3730  1.6138
 7644SOL     OW34567   4.517   3.134  10.635 -0.8647 -0.1437  0.3782
 7644SOL    HW134568   4.610   3.150  10.647 -0.3517 -0.2998 -3.4448
 7644SOL    HW234569   4.479   3.203  10.690 -0.9522 -1.3820  1.8970
 7645SOL     OW34570   3.657   0.012   3.294  0.4656  0.1028  0.1348
 7645SOL    HW134571   3.656   0.090   3.349  1.1511  0.3607 -0.2244
 7645SOL    HW234572   3.683   0.037   3.206  0.8486  2.1693  0.8375
 7646SOL     OW34573   2.763   3.946   6.873  0.2035  0.6798  0.0358
 7646SOL    HW134574   2.770   4.032   6.915  1.6807  0.6035 -0.0761
 7646SOL    HW234575   2.809   3.971   6.793 -1.4810  0.6333 -0.9605
 7647SOL     OW34576   0.338   3.072   2.149 -0.0145  0.2698  0.1728
 7647SOL    HW134577   0.259   3.119   2.174  0.1299 -0.4054  1.9519
 7647SOL    HW234578   0.299   2.989   2.123 -2.5217  0.7901  2.2348
 7648SOL     OW34579   0.217   1.275   3.886 -0.1070  0.2636 -0.2908
 7648SOL    HW134580   0.269   1.355   3.884  0.2530 -0.0313 -2.5371
 7648SOL    HW234581   0.235   1.248   3.796 -0.9396  1.5307 -0.8386
 7649SOL     OW34582   1.630   3.979  10.670  0.2379 -0.1267  0.0685
 7649SOL    HW134583   1.715   4.008  10.636 -0.1176 -0.2320 -0.9007
 7649SOL    HW234584   1.648   3.923  10.746  0.6083 -0.3108 -0.1484
 7650SOL     OW34585   0.738   1.090   8.829 -0.1819  0.2858 -0.1084
 7650SOL    HW134586   0.759   1.183   8.822  0.6401 -0.0918 -2.5881
 7650SOL    HW234587   0.745   1.074   8.923 -1.0572  1.5768  0.1691
 7651SOL     OW34588   3.227   2.410  14.498  0.7622 -0.2474  0.2005
 7651SOL    HW134589   3.317   2.441  14.510  0.6191 -0.1477  0.9633
 7651SOL    HW234590   3.230   2.355  14.419  1.6743  0.0706  0.0080
 7652SOL     OW34591   4.088   2.620   9.097 -0.4384 -0.1422  0.4337
 7652SOL    HW134592   4.183   2.615   9.113 -0.8509 -1.8725  2.4049
 7652SOL    HW234593   4.067   2.528   9.078 -1.8910  0.9589 -3.2944
 7653SOL     OW34594   4.602   0.422   2.874  0.2629 -0.4384 -0.2541
 7653SOL    HW134595   4.517   0.416   2.918  1.5355 -1.8514  2.0380
 7653SOL    HW234596   4.573   0.461   2.792 -0.0868 -0.8857 -0.3466
 7654SOL     OW34597   4.538   4.247   2.903 -0.2476  0.0686 -0.4767
 7654SOL    HW134598   4.531   4.197   2.985 -1.1586  3.4177  1.4739
 7654SOL    HW234599   4.622   4.289   2.921 -0.4852 -0.4229  1.7370
 7655SOL     OW34600   2.001   4.174   5.849 -0.3264 -0.0107  0.3666
 7655SOL    HW134601   1.964   4.259   5.823 -0.6070 -0.4956 -0.8190
 7655SOL    HW234602   2.088   4.208   5.873 -0.1451 -1.1060  1.2628
 7656SOL     OW34603   2.036   2.132   7.074  0.3330  0.2027 -0.5863
 7656SOL    HW134604   1.965   2.091   7.124  0.4447  0.9337  0.1769
 7656SOL    HW234605   2.072   2.194   7.138 -1.1205 -1.4725  1.8464
 7657SOL     OW34606   0.254   1.165   3.637 -0.7323 -0.0861  0.1463
 7657SOL    HW134607   0.307   1.085   3.638  1.2224  1.2376  4.1952
 7657SOL    HW234608   0.175   1.128   3.599 -0.4671 -1.1690  0.6371
 7658SOL     OW34609   2.276   3.439   4.575 -0.4835 -0.6695 -0.0098
 7658SOL    HW134610   2.300   3.360   4.528  0.6342  0.2454 -1.0054
 7658SOL    HW234611   2.261   3.419   4.668  1.2138  0.2360  0.4684
 7659SOL     OW34612   3.140   3.107  15.910  0.4094 -0.2409  0.0182
 7659SOL    HW134613   3.104   3.106  15.821  0.8049  1.5165 -0.1682
 7659SOL    HW234614   3.067   3.068  15.960  0.5665  0.1948  0.5928
 7660SOL     OW34615   3.255   1.068   7.598 -0.0291  0.6508  0.6976
 7660SOL    HW134616   3.222   1.140   7.652 -2.6581  0.6444 -0.8885
 7660SOL    HW234617   3.331   1.031   7.642  0.9982  0.7782 -0.9662
 7661SOL     OW34618   1.110   1.913   7.179 -0.2021  0.4052  0.5347
 7661SOL    HW134619   1.176   1.948   7.118 -0.4895 -1.2225 -0.7218
 7661SOL    HW234620   1.148   1.936   7.264  3.5181  0.2643 -1.0898
 7662SOL     OW34621   0.781   2.935   5.731  0.2570  0.1544  0.5225
 7662SOL    HW134622   0.742   2.966   5.649  1.2956  1.7942  0.6577
 7662SOL    HW234623   0.710   2.883   5.769 -1.8000  0.9927 -2.2095
 7663SOL     OW34624   1.639   4.413   3.800 -0.3855 -0.4311  0.3051
 7663SOL    HW134625   1.574   4.416   3.730  0.8387  0.4337 -0.7834
 7663SOL    HW234626   1.577   4.417   3.873 -0.4025  1.1822  0.1861
 7664SOL     OW34627   1.237   0.991   3.254 -0.4255  0.0426  0.1236
 7664SOL    HW134628   1.161   1.023   3.207  0.3557 -1.3347 -2.0944
 7664SOL    HW234629   1.271   1.066   3.303 -0.6702 -0.0511  0.4386
 7665SOL     OW34630   1.418   0.759   4.953  0.0778 -0.2553  0.6808
 7665SOL    HW134631   1.441   0.852   4.958 -1.8461  0.1862  1.1971
 7665SOL    HW234632   1.445   0.733   5.041  1.1507  0.8693  0.6783
 7666SOL     OW34633   3.479   1.517   4.022 -0.2194  0.1435  0.3243
 7666SOL    HW134634   3.533   1.521   4.101  2.3117 -1.7860 -1.3303
 7666SOL    HW234635   3.390   1.526   4.059 -0.3451  1.6267 -0.3586
 7667SOL     OW34636   1.972   0.251   0.812 -0.1068  0.1080 -0.5996
 7667SOL    HW134637   1.961   0.219   0.902 -3.3551 -0.4414 -1.2057
 7667SOL    HW234638   2.004   0.171   0.771 -1.9053 -0.5385 -0.7521
 7668SOL     OW34639   3.680   3.961  15.946  0.1486  0.3184  0.3773
 7668SOL    HW134640   3.626   3.901  15.894 -0.4655  0.0356  1.3612
 7668SOL    HW234641   3.770   3.930  15.930  0.6215  1.3469  1.0887
 7669SOL     OW34642   4.465   2.571   8.791  0.0432  0.1498  0.0093
 7669SOL    HW134643   4.471   2.583   8.696  0.3418 -0.8611 -0.1021
 7669SOL    HW234644   4.379   2.611   8.805 -1.4125 -3.0819  0.2179
 7670SOL     OW34645   3.516   2.566   4.855  0.4240 -0.3624  0.0453
 7670SOL    HW134646   3.576   2.569   4.781  0.8244 -0.5422  0.3601
 7670SOL    HW234647   3.434   2.591   4.813  1.5857  0.6111 -1.6323
 7671SOL     OW34648   3.953   2.735  12.560  0.2325  0.0133  0.2571
 7671SOL    HW134649   4.018   2.666  12.551 -1.6876 -1.4741 -1.9511
 7671SOL    HW234650   4.009   2.798  12.605  0.1480  0.4968 -0.3106
 7672SOL     OW34651   2.201   1.465   8.892 -0.0300  0.1447  0.5220
 7672SOL    HW134652   2.278   1.513   8.922  1.4347 -0.8127 -1.7532
 7672SOL    HW234653   2.166   1.515   8.818 -0.7772  0.3987  1.0362
 7673SOL     OW34654   3.041   0.218   8.357 -0.0688  0.0269  0.1472
 7673SOL    HW134655   2.973   0.165   8.399  0.1518 -0.8722 -0.6240
 7673SOL    HW234656   3.098   0.245   8.429 -1.9229 -1.1452  2.0484
 7674SOL     OW34657   2.940   1.729   2.119 -0.2456 -0.3788 -0.2296
 7674SOL    HW134658   3.013   1.678   2.084  1.2850  0.7079  1.3633
 7674SOL    HW234659   2.974   1.817   2.103  0.3059 -0.1767  2.0860
 7675SOL     OW34660   3.684   0.024   8.939  0.1305  0.4870 -0.1950
 7675SOL    HW134661   3.767   0.069   8.951 -0.2489  0.2515  3.5313
 7675SOL    HW234662   3.707   4.679   8.985  0.3680  0.4668 -0.3514
 7676SOL     OW34663   3.150   1.426   5.682  0.5854 -0.3729  0.4343
 7676SOL    HW134664   3.230   1.375   5.695 -0.9569 -2.5612  1.1510
 7676SOL    HW234665   3.184   1.496   5.626 -2.8400  0.0990 -1.0249
 7677SOL     OW34666   2.210   2.728   5.070 -0.1964  0.5709 -0.2786
 7677SOL    HW134667   2.267   2.693   5.138 -0.8944  1.5561  0.7993
 7677SOL    HW234668   2.270   2.768   5.006  2.2295  0.6999  2.0899
 7678SOL     OW34669   1.421   0.091  10.634 -0.2435  0.5094  0.0630
 7678SOL    HW134670   1.418   0.038  10.713 -2.6239  3.5137  1.9694
 7678SOL    HW234671   1.464   0.039  10.566 -1.1565  0.7697 -0.7146
 7679SOL     OW34672   3.419   2.091   9.616  0.4137 -0.0184 -0.1139
 7679SOL    HW134673   3.372   2.043   9.547 -1.6597  0.5151  0.9218
 7679SOL    HW234674   3.500   2.041   9.621 -0.0905 -0.8643 -0.2436
 7680SOL     OW34675   2.391   0.334   0.700  0.4581 -0.2927 -0.0803
 7680SOL    HW134676   2.303   0.358   0.729 -0.5207  1.3379 -4.2610
 7680SOL    HW234677   2.435   0.419   0.695 -1.1774  0.3878 -2.9292
 7681SOL     OW34678   4.613   2.211   7.556 -0.4546 -0.4630  0.5868
 7681SOL    HW134679   4.615   2.272   7.630 -1.5968  1.1039 -0.6696
 7681SOL    HW234680   4.679   2.252   7.500  1.0150 -0.4680  2.3071
 7682SOL     OW34681   4.477   0.192   7.569 -0.2768 -0.0067 -0.1020
 7682SOL    HW134682   4.423   0.264   7.601 -1.3032  0.8399 -3.6859
 7682SOL    HW234683   4.516   0.163   7.651 -2.8787 -0.1684  1.0891
 7683SOL     OW34684   4.088   0.871   7.198  0.1201 -0.1199 -0.1687
 7683SOL    HW134685   4.057   0.951   7.240 -2.1291 -0.4047 -1.2945
 7683SOL    HW234686   4.177   0.871   7.235  0.4294  1.0616 -0.8988
 7684SOL     OW34687   2.644   4.055   2.193 -0.0734  0.4896  0.7934
 7684SOL    HW134688   2.691   3.989   2.244 -0.3223 -0.2294  0.0937
 7684SOL    HW234689   2.709   4.087   2.130  0.7858 -1.0258  0.9034
 7685SOL     OW34690   0.003   0.943   3.584  0.2591 -0.4652  0.2272
 7685SOL    HW134691   0.024   0.998   3.508  0.8205 -2.4745 -1.0642
 7685SOL    HW234692   0.074   0.880   3.576  2.2892  2.1146 -1.9195
 7686SOL     OW34693   0.888   4.194   0.091 -0.4074  0.5285 -0.3588
 7686SOL    HW134694   0.978   4.162   0.085 -1.5917 -3.2240  1.2403
 7686SOL    HW234695   0.895   4.277   0.137  3.3480  1.2233 -2.1628
 7687SOL     OW34696   0.932   2.647   4.207  0.1735 -0.1340 -0.7524
 7687SOL    HW134697   1.020   2.679   4.187  0.7110 -1.0286  0.2111
 7687SOL    HW234698   0.959   2.581   4.271  1.2147  3.2357  2.2843
 7688SOL     OW34699   1.983   4.070   5.335 -0.4919 -0.1829 -0.4566
 7688SOL    HW134700   1.977   4.081   5.240 -0.9642 -1.8642 -0.6199
 7688SOL    HW234701   2.010   4.158   5.362  1.1185 -0.9095  0.2745
 7689SOL     OW34702   3.178   3.147   2.730  0.3098  0.2675 -0.2123
 7689SOL    HW134703   3.258   3.147   2.784 -0.1500  0.5004  0.4701
 7689SOL    HW234704   3.110   3.119   2.792  0.4523  0.1322 -0.1141
 7690SOL     OW34705   4.393   3.413   0.369 -0.1307 -0.3610  0.2991
 7690SOL    HW134706   4.471   3.357   0.364  0.5010  0.5743 -0.2349
 7690SOL    HW234707   4.338   3.373   0.436 -0.1319  1.2206  1.2222
 7691SOL     OW34708   2.031   0.217   7.971  0.3745 -0.1495 -0.2575
 7691SOL    HW134709   2.083   0.166   8.034  2.0596  3.4946  1.3253
 7691SOL    HW234710   1.950   0.232   8.019 -0.3081 -0.1030 -1.4351
 7692SOL     OW34711   3.519   3.606   9.385 -0.5151  0.0792  0.1328
 7692SOL    HW134712   3.575   3.682   9.401  1.1306 -1.0348 -0.2859
 7692SOL    HW234713   3.441   3.635   9.337  0.4609  1.5101 -0.5909
 7693SOL     OW34714   3.470   0.696   2.717  0.0303 -0.3910 -0.2683
 7693SOL    HW134715   3.421   0.656   2.645  0.2951 -0.4042 -0.4414
 7693SOL    HW234716   3.531   0.622   2.720 -0.4557 -0.8823 -2.6909
 7694SOL     OW34717   0.954   0.107   3.754 -0.4117  0.0765  0.1669
 7694SOL    HW134718   0.938   0.201   3.761 -0.0975  0.1316  0.1255
 7694SOL    HW234719   0.951   0.086   3.661  2.9982 -0.4700  0.1753
 7695SOL     OW34720   2.299   1.950   1.731  0.0721  0.1658  0.0756
 7695SOL    HW134721   2.288   1.911   1.645 -0.4994  1.8602 -0.6124
 7695SOL    HW234722   2.293   1.884   1.800 -1.0622 -0.8656 -1.0205
 7696SOL     OW34723   4.022   2.328   9.293 -0.3846  0.0027 -0.0006
 7696SOL    HW134724   4.103   2.286   9.319 -0.7806  1.1986  3.1888
 7696SOL    HW234725   3.988   2.256   9.238  1.0653  0.9414 -2.1199
 7697SOL     OW34726   1.457   1.912   6.803  0.0198  0.1170  0.0051
 7697SOL    HW134727   1.477   1.831   6.757  1.7905  0.9557 -0.7278
 7697SOL    HW234728   1.503   1.901   6.886  1.4799 -1.2410 -0.9870
 7698SOL     OW34729   4.227   3.771   5.012  0.3082 -0.2074  0.2253
 7698SOL    HW134730   4.323   3.771   5.009  0.3108 -0.5599  0.2813
 7698SOL    HW234731   4.220   3.779   4.917  0.1624 -0.4007  0.2214
 7699SOL     OW34732   1.317   3.209   6.982 -0.9890  0.0009 -0.3222
 7699SOL    HW134733   1.401   3.163   6.971 -1.9319 -1.8260  0.2426
 7699SOL    HW234734   1.327   3.265   6.905 -0.6351  1.9568  1.1294
 7700SOL     OW34735   2.357   2.839   9.078  0.4222 -0.2988 -0.3883
 7700SOL    HW134736   2.340   2.928   9.049  1.5791  0.0610  0.0636
 7700SOL    HW234737   2.280   2.801   9.035 -0.4713 -0.6181  1.4695
 7701SOL     OW34738   0.991   0.132   1.863  0.4887 -0.3762 -0.1263
 7701SOL    HW134739   0.972   0.062   1.926 -1.8300 -0.6645 -1.1515
 7701SOL    HW234740   1.079   0.155   1.892 -0.5195  3.0994  0.1366
 7702SOL     OW34741   1.012   1.093   3.135 -0.1436 -0.7126  0.0574
 7702SOL    HW134742   0.931   1.132   3.102  0.6819  0.8187 -0.1606
 7702SOL    HW234743   1.066   1.107   3.057  1.1306  1.2371  1.2844
 7703SOL     OW34744   3.254   3.976   6.721 -0.2057 -0.1378  0.1360
 7703SOL    HW134745   3.292   3.906   6.773  1.5729  0.0550 -0.9027
 7703SOL    HW234746   3.265   4.041   6.791  0.7139 -0.9284  0.7290
 7704SOL     OW34747   1.580   1.194  15.035 -0.2082 -0.2469 -0.2568
 7704SOL    HW134748   1.651   1.138  15.003 -0.8786 -0.7188 -0.8976
 7704SOL    HW234749   1.503   1.138  15.036 -0.2193 -0.2722 -2.1614
 7705SOL     OW34750   2.563   4.044   4.210 -0.5115  0.1728 -0.4930
 7705SOL    HW134751   2.638   4.017   4.156 -0.0085 -0.6557  0.6165
 7705SOL    HW234752   2.613   4.044   4.292 -0.3856 -2.3230 -0.5638
 7706SOL     OW34753   1.795   0.756   1.785  0.2289 -0.3966  0.2173
 7706SOL    HW134754   1.702   0.768   1.767  0.5277  2.6005  0.8172
 7706SOL    HW234755   1.842   0.783   1.707 -1.1592  0.7715 -0.2023
 7707SOL     OW34756   2.651   3.126   2.473  0.5109 -0.1966 -0.5058
 7707SOL    HW134757   2.580   3.168   2.425 -0.4905 -1.0135  0.2732
 7707SOL    HW234758   2.725   3.181   2.445  0.4875 -0.3577 -0.8817
 7708SOL     OW34759   0.362   2.077  11.979  0.0062 -0.0233 -0.0432
 7708SOL    HW134760   0.357   2.072  12.074 -2.4775 -0.1981 -0.1800
 7708SOL    HW234761   0.327   2.165  11.966 -0.1914 -0.6184 -3.6047
 7709SOL     OW34762   4.093   1.890   3.696 -0.1768  0.2986  0.2050
 7709SOL    HW134763   4.008   1.893   3.740 -0.6515  1.3962 -0.8050
 7709SOL    HW234764   4.148   1.926   3.767 -0.1135 -1.6777  1.1563
 7710SOL     OW34765   0.759   4.318  14.729 -0.0067  0.3481  0.1789
 7710SOL    HW134766   0.775   4.224  14.736 -0.8122  0.1499 -0.5131
 7710SOL    HW234767   0.745   4.325  14.634  0.4098  1.3862  0.1940
 7711SOL     OW34768   0.769   3.969   4.403 -0.1947 -0.0094 -0.3217
 7711SOL    HW134769   0.792   4.028   4.332  1.1803 -0.4393 -0.2411
 7711SOL    HW234770   0.755   4.030   4.475  0.9284 -2.2466  1.7992
 7712SOL     OW34771   1.158   0.445  11.049 -0.1109  0.1856 -0.3060
 7712SOL    HW134772   1.155   0.541  11.057  0.1582  0.2587 -1.0854
 7712SOL    HW234773   1.192   0.426  10.962  0.8806 -1.5056  0.4570
 7713SOL     OW34774   0.681   2.404  14.537  0.2460 -0.1770  0.2667
 7713SOL    HW134775   0.586   2.411  14.538  0.2229 -0.3807 -0.8070
 7713SOL    HW234776   0.693   2.335  14.471 -0.5481  0.6714 -0.7570
 7714SOL     OW34777   3.877   0.439   5.528 -0.7888 -0.4865  0.0306
 7714SOL    HW134778   3.931   0.421   5.605  0.0400  1.6075 -0.0722
 7714SOL    HW234779   3.936   0.494   5.477 -1.1776  0.6179  0.7611
 7715SOL     OW34780   3.974   3.608  16.404  0.0422  0.2508  0.2403
 7715SOL    HW134781   4.057   3.656  16.400 -0.5690  1.2201 -0.8149
 7715SOL    HW234782   3.916   3.662  16.351 -0.0448 -1.0634 -1.0247
 7716SOL     OW34783   0.199   3.288   5.427  0.1953 -0.4605 -0.3709
 7716SOL    HW134784   0.172   3.293   5.519 -0.6708 -2.3798 -0.5130
 7716SOL    HW234785   0.204   3.194   5.412 -1.5431 -0.6228 -0.0126
 7717SOL     OW34786   1.284   2.565   9.797  0.1440  0.1381  0.3835
 7717SOL    HW134787   1.192   2.571   9.769 -0.1439  1.0995  1.4869
 7717SOL    HW234788   1.308   2.658   9.797  2.3639 -0.4387 -1.3094
 7718SOL     OW34789   4.087   0.379  10.857  0.4276  0.2605  0.0690
 7718SOL    HW134790   4.114   0.378  10.765  1.4143  2.4708  0.3095
 7718SOL    HW234791   4.144   0.451  10.885  0.8588 -0.0122 -0.1039
 7719SOL     OW34792   1.462   3.149   4.567 -0.6998 -0.4748 -0.6951
 7719SOL    HW134793   1.382   3.164   4.516 -0.1940  0.3179 -1.2628
 7719SOL    HW234794   1.468   3.058   4.538 -2.4219 -0.6716 -0.4528
 7720SOL     OW34795   3.013   0.408  12.125  0.3760  0.3303 -0.3421
 7720SOL    HW134796   3.068   0.440  12.197 -0.9542 -0.2442  0.9112
 7720SOL    HW234797   3.075   0.421  12.052  2.4973  1.4767  1.6600
 7721SOL     OW34798   2.597   2.719  12.711  0.3897 -0.2959  0.0335
 7721SOL    HW134799   2.556   2.759  12.634  1.3739 -0.7283 -0.7122
 7721SOL    HW234800   2.569   2.628  12.700  1.3763 -0.7013  0.8605
 7722SOL     OW34801   3.323   1.735   6.185 -0.0810  0.0091 -0.2697
 7722SOL    HW134802   3.227   1.735   6.178 -0.1961  1.6100  1.4715
 7722SOL    HW234803   3.354   1.748   6.096  0.7736 -2.3082 -0.3158
 7723SOL     OW34804   1.704   2.956   8.905 -0.5199 -0.1913  1.0450
 7723SOL    HW134805   1.645   3.001   8.966 -0.1513 -0.3389  1.5179
 7723SOL    HW234806   1.739   3.039   8.872 -0.9904 -0.1370  0.7029
 7724SOL     OW34807   0.012   1.469   7.652 -0.0815  0.0824 -0.3371
 7724SOL    HW134808   0.035   1.400   7.590  2.9523  0.2215  0.6176
 7724SOL    HW234809   0.079   1.536   7.638 -1.2873  1.2507 -0.4999
 7725SOL     OW34810   0.377   2.203   0.185 -0.0883 -0.3207  0.5797
 7725SOL    HW134811   0.396   2.120   0.142 -0.6231 -0.3418  0.3755
 7725SOL    HW234812   0.381   2.261   0.108 -1.6687 -0.3520  0.4745
 7726SOL     OW34813   0.462   3.892   4.324 -0.6288 -0.2900 -0.3078
 7726SOL    HW134814   0.369   3.913   4.313 -0.7217 -0.8882 -0.6983
 7726SOL    HW234815   0.494   3.975   4.358 -1.1177 -0.1990 -0.0718
 7727SOL     OW34816   1.719   3.229   8.886  0.5403 -0.3295  0.2417
 7727SOL    HW134817   1.690   3.250   8.797 -0.7043 -3.1381 -0.0241
 7727SOL    HW234818   1.809   3.262   8.876  0.8267 -2.0843 -2.9505
 7728SOL     OW34819   4.428   2.635   4.710 -0.0454 -0.2856  0.5962
 7728SOL    HW134820   4.338   2.643   4.741 -0.5911 -3.6534 -0.1998
 7728SOL    HW234821   4.468   2.636   4.797 -0.1464  0.6994  0.6364
 7729SOL     OW34822   4.408   3.144  15.648  0.4643  0.2015  0.1425
 7729SOL    HW134823   4.374   3.215  15.703 -0.9252 -2.5189  2.7913
 7729SOL    HW234824   4.395   3.075  15.713  0.0698 -0.6373 -0.8317
 7730SOL     OW34825   0.263   1.201  12.642  0.3333  0.2319  0.4988
 7730SOL    HW134826   0.173   1.189  12.672 -0.2797 -2.0928 -2.3020
 7730SOL    HW234827   0.296   1.127  12.692 -0.5895  0.8418  1.9933
 7731SOL     OW34828   3.248   1.866   3.799 -0.4543  0.4298 -0.4829
 7731SOL    HW134829   3.315   1.812   3.757 -0.4496  0.2955 -0.3012
 7731SOL    HW234830   3.289   1.901   3.878 -1.2998 -0.8129  0.5085
 7732SOL     OW34831   3.754   1.551  11.782 -0.0406 -0.5422 -0.9029
 7732SOL    HW134832   3.838   1.505  11.784 -0.8941 -1.9497  4.1106
 7732SOL    HW234833   3.765   1.613  11.711 -0.0431 -1.0473 -1.3464
 7733SOL     OW34834   0.383   1.923   2.690 -0.0572 -0.5537  0.6159
 7733SOL    HW134835   0.452   1.910   2.756 -1.0099  0.7331  1.8635
 7733SOL    HW234836   0.309   1.873   2.727 -0.4170 -0.5650 -0.1232
 7734SOL     OW34837   1.537   3.233   1.481  0.1763  0.2464  0.1354
 7734SOL    HW134838   1.587   3.281   1.547 -1.7574  0.7805  1.2050
 7734SOL    HW234839   1.447   3.229   1.513  0.2038  2.0461  0.4544
 7735SOL     OW34840   0.306   3.684   7.254 -0.1474 -0.0350 -0.2587
 7735SOL    HW134841   0.231   3.701   7.197 -1.0175  3.5725  1.9966
 7735SOL    HW234842   0.373   3.730   7.203 -0.5666 -0.7410 -1.4413
 7736SOL     OW34843   2.157   3.470   3.563 -0.3743  0.0531  0.1577
 7736SOL    HW134844   2.192   3.481   3.652  3.8773  0.1021 -1.5003
 7736SOL    HW234845   2.227   3.416   3.526 -1.7133  0.1927 -2.4995
 7737SOL     OW34846   0.441   2.338   8.344  0.0241 -0.2999  0.4155
 7737SOL    HW134847   0.501   2.378   8.407 -1.6402  1.3728  0.9444
 7737SOL    HW234848   0.494   2.322   8.266 -1.0859  0.2838 -0.4587
 7738SOL     OW34849   1.388   3.791   4.019  0.1687 -0.0114 -0.1196
 7738SOL    HW134850   1.325   3.752   4.079  1.2602 -1.2437  0.2297
 7738SOL    HW234851   1.457   3.731   4.046 -0.6614 -0.9946 -0.1780
 7739SOL     OW34852   2.275   3.593  15.732 -0.4786  0.2471  0.0967
 7739SOL    HW134853   2.272   3.589  15.828  0.3450  0.7108  0.1418
 7739SOL    HW234854   2.267   3.500  15.711  0.1584 -0.0797  1.3006
 7740SOL     OW34855   0.329   2.848   1.248  0.2589  0.5637 -0.0229
 7740SOL    HW134856   0.374   2.819   1.168  1.4917  0.0767  0.8551
 7740SOL    HW234857   0.333   2.763   1.292 -1.6389  0.0859 -0.7694
 7741SOL     OW34858   1.112   2.056   7.888 -0.1117  0.8087  0.0180
 7741SOL    HW134859   1.170   2.005   7.945 -2.8854 -0.5338  1.6401
 7741SOL    HW234860   1.165   2.127   7.854  1.8189  0.3227  2.0210
 7742SOL     OW34861   2.002   3.327   0.215  0.3669 -0.0826  0.2920
 7742SOL    HW134862   1.919   3.372   0.198 -0.1578  0.0501  3.1825
 7742SOL    HW234863   1.979   3.303   0.305 -2.9715  0.8055 -0.3041
 7743SOL     OW34864   0.454   0.003   8.960  0.2914  0.0054 -0.0566
 7743SOL    HW134865   0.510   4.716   9.035  0.5539  1.1318  0.1020
 7743SOL    HW234866   0.365   4.716   8.983  0.1892  1.3908  0.9346
 7744SOL     OW34867   3.186   4.503  15.096  1.0035  0.0403  0.1526
 7744SOL    HW134868   3.184   4.464  15.184  0.1530 -0.7752 -0.2390
 7744SOL    HW234869   3.134   4.582  15.112  1.6042  0.4377  0.1635
 7745SOL     OW34870   3.133   0.232   5.779 -0.1689  0.0080  0.3024
 7745SOL    HW134871   3.177   0.191   5.853 -0.1119  1.2482  0.9641
 7745SOL    HW234872   3.069   0.288   5.824 -0.4502  0.4535 -0.6433
 7746SOL     OW34873   2.111   2.757   8.915  0.5083 -0.1880 -0.6048
 7746SOL    HW134874   2.061   2.830   8.953  2.2789  1.7086 -1.9528
 7746SOL    HW234875   2.064   2.686   8.959 -1.0054  0.6455 -0.8918
 7747SOL     OW34876   4.276   3.928   6.582  0.0354 -0.7189  0.2938
 7747SOL    HW134877   4.194   3.964   6.617  0.9879  0.1267  1.6626
 7747SOL    HW234878   4.253   3.836   6.592 -2.3706 -0.1215  0.2009
 7748SOL     OW34879   3.508   1.578   5.768  0.6330 -0.3089  0.4989
 7748SOL    HW134880   3.598   1.571   5.735  0.3466  0.9409 -0.5392
 7748SOL    HW234881   3.521   1.525   5.847 -2.3727 -1.0336  0.4963
 7749SOL     OW34882   2.427   2.196   5.215 -0.6156  0.0166  0.7175
 7749SOL    HW134883   2.430   2.270   5.154 -1.0168 -0.4845  0.0907
 7749SOL    HW234884   2.418   2.245   5.297  0.0628  0.9347  0.2440
 7750SOL     OW34885   0.741   4.005  10.427 -0.3206 -0.2791  0.2552
 7750SOL    HW134886   0.725   4.076  10.489 -1.5970 -0.5535  0.2414
 7750SOL    HW234887   0.652   3.970  10.420 -1.6692  2.7213  2.4434
 7751SOL     OW34888   3.097   0.329   4.773 -0.1465  0.5698 -0.2813
 7751SOL    HW134889   3.025   0.300   4.829  1.1108  0.1650  1.1284
 7751SOL    HW234890   3.051   0.397   4.723  0.7971  1.7822  0.4977
 7752SOL     OW34891   1.069   1.411  12.930  0.2276  0.2154 -0.7106
 7752SOL    HW134892   1.135   1.349  12.963 -0.3380  0.7097  1.3428
 7752SOL    HW234893   1.126   1.486  12.917  0.0888  0.6691  1.2870
 7753SOL     OW34894   1.196   0.144  10.243  0.0600  0.1807 -0.2009
 7753SOL    HW134895   1.114   0.095  10.250 -0.3652  1.1833  1.7339
 7753SOL    HW234896   1.169   0.211  10.180 -1.1965 -0.1204  0.0264
 7754SOL     OW34897   4.562   1.832   6.162  0.0183  0.3577 -0.3263
 7754SOL    HW134898   4.583   1.921   6.134 -0.3315  1.0353  1.5924
 7754SOL    HW234899   4.529   1.798   6.078 -0.2144  0.9583 -0.4781
 7755SOL     OW34900   3.029   3.676   9.460  0.2802 -0.1166 -0.4265
 7755SOL    HW134901   2.969   3.630   9.401  1.2242 -0.0084 -1.4661
 7755SOL    HW234902   3.048   3.605   9.521  2.3607  2.1425  1.5287
 7756SOL     OW34903   4.525   2.946  13.128  0.1671 -0.0152 -0.0113
 7756SOL    HW134904   4.583   2.880  13.090 -0.4034 -1.2563  1.2544
 7756SOL    HW234905   4.460   2.965  13.061 -1.0665  1.5036  1.5962
 7757SOL     OW34906   0.716   3.144   5.954  0.4628 -0.2501 -0.1381
 7757SOL    HW134907   0.768   3.146   5.874  1.0723 -0.4396  0.2488
 7757SOL    HW234908   0.781   3.176   6.016 -1.3381 -0.1658  1.7231
 7758SOL     OW34909   2.436   3.071   4.219 -0.1600 -0.1063  0.3363
 7758SOL    HW134910   2.442   3.166   4.207  0.7978 -0.5448 -2.7391
 7758SOL    HW234911   2.516   3.048   4.266  0.4640  2.2035  0.4331
 7759SOL     OW34912   0.711   1.970  11.812  0.2751  0.7794 -0.0445
 7759SOL    HW134913   0.736   1.999  11.900 -1.9969  1.5731  0.3522
 7759SOL    HW234914   0.655   1.898  11.839  0.1336  1.4881  1.5326
 7760SOL     OW34915   2.675   2.643   9.253 -0.0922 -0.4627  0.2287
 7760SOL    HW134916   2.653   2.552   9.273 -1.4586 -0.3855 -0.9707
 7760SOL    HW234917   2.654   2.644   9.160  0.4888  1.1484  0.1123
 7761SOL     OW34918   0.213   2.794   7.248  0.3357 -0.0335 -0.0745
 7761SOL    HW134919   0.306   2.813   7.235 -0.1616  1.1704 -1.8955
 7761SOL    HW234920   0.195   2.747   7.167 -0.0508 -0.7250  0.4186
 7762SOL     OW34921   4.438   3.661   6.207  0.6068 -0.1728  0.3555
 7762SOL    HW134922   4.495   3.659   6.130 -0.1522 -1.5684 -0.1747
 7762SOL    HW234923   4.507   3.709   6.253 -0.4320  1.2185  0.4418
 7763SOL     OW34924   0.750   3.408   3.301 -0.0100 -0.1633  0.4641
 7763SOL    HW134925   0.794   3.488   3.330  0.4455 -1.5610  3.5972
 7763SOL    HW234926   0.750   3.353   3.379 -0.3335 -2.9783 -1.5108
 7764SOL     OW34927   2.748   1.889   2.714 -0.4831 -0.5122 -0.0149
 7764SOL    HW134928   2.774   1.955   2.650  2.5520 -1.7399 -0.0490
 7764SOL    HW234929   2.758   1.938   2.796 -2.6886 -0.5854  0.2955
 7765SOL     OW34930   3.642   4.602   9.384  0.0910 -0.0681 -0.2820
 7765SOL    HW134931   3.580   4.672   9.402 -2.0960 -1.4937 -2.4130
 7765SOL    HW234932   3.680   4.612   9.472 -0.7472 -0.2833  0.0998
 7766SOL     OW34933   1.352   0.770   8.673  0.1405 -0.1419 -0.1308
 7766SOL    HW134934   1.341   0.703   8.605 -0.7205  1.3215 -1.4268
 7766SOL    HW234935   1.438   0.805   8.652  0.1138  0.0491  0.0830
 7767SOL     OW34936   2.192   0.386   7.326 -0.3319  0.2938  0.6665
 7767SOL    HW134937   2.150   0.324   7.268  3.8352  0.5927 -2.6589
 7767SOL    HW234938   2.129   0.458   7.328  0.0522  0.5772  2.9708
 7768SOL     OW34939   3.946   4.267   4.355  0.3372 -0.2820  0.0697
 7768SOL    HW134940   3.984   4.327   4.419 -1.8393 -0.1723  1.2782
 7768SOL    HW234941   3.851   4.282   4.359  0.4091 -0.3151  2.0871
 7769SOL     OW34942   3.488   4.445  12.994 -0.4612  0.5019  0.2823
 7769SOL    HW134943   3.415   4.506  13.003 -1.4127 -0.5071 -0.5349
 7769SOL    HW234944   3.477   4.397  13.076 -0.7366 -0.8903 -0.5611
 7770SOL     OW34945   3.885   4.043   7.832 -0.2930  1.2548 -0.5828
 7770SOL    HW134946   3.843   3.959   7.810  0.1110  0.9250 -0.0938
 7770SOL    HW234947   3.813   4.099   7.860 -1.7803 -0.5165 -0.8344
 7771SOL     OW34948   3.925   3.343   8.595 -0.1906  0.0349  0.3979
 7771SOL    HW134949   3.859   3.413   8.593 -0.2354 -0.0458 -1.0376
 7771SOL    HW234950   3.932   3.340   8.690  0.2608 -1.5315  0.3090
 7772SOL     OW34951   3.194   0.968   9.464 -0.8839 -0.1942  0.3208
 7772SOL    HW134952   3.144   0.983   9.545  0.3212  1.9004  0.6760
 7772SOL    HW234953   3.189   0.873   9.464 -1.5304 -0.1579  0.3599
 7773SOL     OW34954   4.710   0.288   8.121  0.2866  0.0751  0.5320
 7773SOL    HW134955   4.736   0.281   8.029  0.7988  3.4235  0.4305
 7773SOL    HW234956   0.049   0.241   8.157  0.0270 -0.6686  0.1093
 7774SOL     OW34957   1.825   4.694   6.777 -0.2769 -0.1478  0.2920
 7774SOL    HW134958   1.859   4.723   6.862 -0.6163 -0.0466  0.3923
 7774SOL    HW234959   1.782   4.614   6.805  0.6868 -0.6666  0.2928
 7775SOL     OW34960   1.899   3.465   3.546 -0.1423 -0.1447  0.6085
 7775SOL    HW134961   1.993   3.483   3.537 -0.5816  1.2987 -0.9033
 7775SOL    HW234962   1.900   3.441   3.639 -0.0370  2.5942  1.3056
 7776SOL     OW34963   2.439   0.885   8.386  0.4773  0.0189  0.9053
 7776SOL    HW134964   2.444   0.974   8.420 -0.2872  0.1753  0.6077
 7776SOL    HW234965   2.450   0.899   8.292 -0.8077  0.1766  0.7704
 7777SOL     OW34966   4.289   2.781   6.123 -0.4192  0.5335 -0.1170
 7777SOL    HW134967   4.297   2.759   6.030 -0.3782  1.5302 -0.3474
 7777SOL    HW234968   4.296   2.877   6.128  1.9548  0.3746 -0.2601
 7778SOL     OW34969   2.319   0.415   5.388  0.2396 -0.5096 -0.5541
 7778SOL    HW134970   2.387   0.356   5.419  0.4020  0.6638  1.2850
 7778SOL    HW234971   2.271   0.349   5.338  0.5406 -0.4578 -0.9121
 7779SOL     OW34972   3.818   1.768   6.457 -0.4152 -0.0604  0.3065
 7779SOL    HW134973   3.797   1.685   6.499 -1.7256  0.3351  0.4324
 7779SOL    HW234974   3.871   1.748   6.380 -0.7743 -0.1281  0.0780
 7780SOL     OW34975   2.737   0.882  11.897 -0.2845  0.7203  0.4008
 7780SOL    HW134976   2.696   0.964  11.868  0.9600  0.6766 -1.4844
 7780SOL    HW234977   2.786   0.904  11.976 -1.1881  0.0683  1.1403
 7781SOL     OW34978   2.507   1.920   1.402  0.1541 -0.8920 -0.4311
 7781SOL    HW134979   2.460   1.837   1.401  0.4984 -1.0975  0.7050
 7781SOL    HW234980   2.571   1.906   1.472 -1.9901 -2.9705  1.0890
 7782SOL     OW34981   0.874   2.171   9.226 -0.4584  0.3969 -0.3931
 7782SOL    HW134982   0.782   2.188   9.246 -0.2297 -0.4682  1.3211
 7782SOL    HW234983   0.862   2.154   9.132  1.2273  1.2154 -0.7666
 7783SOL     OW34984   2.602   3.973   1.765  0.2608  0.3738  0.4227
 7783SOL    HW134985   2.635   3.946   1.680  2.4479 -1.8555  1.9891
 7783SOL    HW234986   2.604   3.893   1.817 -2.5592 -0.1199 -0.2277
 7784SOL     OW34987   3.176   3.833   8.007 -0.8397 -0.0981  0.4626
 7784SOL    HW134988   3.185   3.780   8.087 -0.0345  1.5804  1.4760
 7784SOL    HW234989   3.210   3.771   7.942 -0.6200  2.5517 -1.9207
 7785SOL     OW34990   2.963   0.257   8.855  0.4182 -0.5547 -0.0396
 7785SOL    HW134991   2.915   0.177   8.876 -2.0315  0.6208 -1.2556
 7785SOL    HW234992   3.050   0.242   8.894  1.1587 -0.5337 -1.6897
 7786SOL     OW34993   3.638   3.749   6.904  0.9540 -0.1957  0.6945
 7786SOL    HW134994   3.676   3.836   6.920 -1.3067  0.7828  0.7084
 7786SOL    HW234995   3.644   3.706   6.989  0.1990 -0.8039  0.4371
 7787SOL     OW34996   0.698   0.297   2.315 -0.8760 -0.2767 -0.2715
 7787SOL    HW134997   0.651   0.298   2.232  0.8203 -0.8854 -1.2353
 7787SOL    HW234998   0.718   0.204   2.324 -1.2428 -0.4270 -1.0541
 7788SOL     OW34999   3.872   1.137  14.185 -0.2858 -0.3612 -0.0385
 7788SOL    HW135000   3.921   1.168  14.109  0.9741  1.1162  1.3676
 7788SOL    HW235001   3.918   1.166  14.264 -0.0409  0.8665 -0.6456
 7789SOL     OW35002   0.226   1.694   4.128  0.1952 -0.0628 -0.1027
 7789SOL    HW135003   0.260   1.641   4.200 -1.5556  0.8507  1.4207
 7789SOL    HW235004   0.251   1.781   4.160 -2.2761  0.4353  0.5307
 7790SOL     OW35005   2.541   4.563   7.651  0.0665  0.1762 -0.0227
 7790SOL    HW135006   2.464   4.506   7.644 -0.1284 -0.0980  4.4560
 7790SOL    HW235007   2.516   4.618   7.725 -0.4476 -0.7748  0.5238
 7791SOL     OW35008   4.161   0.589   5.208 -0.2860  0.5928 -0.8991
 7791SOL    HW135009   4.214   0.668   5.216  2.0171 -0.8320 -2.2888
 7791SOL    HW235010   4.160   0.567   5.301 -0.6596  0.5159 -0.9190
 7792SOL     OW35011   4.518   0.353   2.355  0.3115 -0.6780 -0.6878
 7792SOL    HW135012   4.569   0.422   2.312  0.5062 -0.0986  0.4709
 7792SOL    HW235013   4.447   0.336   2.293 -2.3349  1.9305  1.6196
 7793SOL     OW35014   1.025   4.708  12.312  0.0832 -0.0454  0.1475
 7793SOL    HW135015   0.960   0.025  12.357 -0.4636 -1.0377  0.5080
 7793SOL    HW235016   1.060   0.044  12.260  0.4062 -0.9463 -0.8818
 7794SOL     OW35017   2.785   0.737   0.204 -0.0129  0.4705 -0.5085
 7794SOL    HW135018   2.813   0.827   0.216 -0.1022  0.1970  1.6678
 7794SOL    HW235019   2.816   0.713   0.117 -0.4610 -0.2964 -0.4610
 7795SOL     OW35020   3.581   1.537   0.536  0.3497  0.1509  0.1289
 7795SOL    HW135021   3.624   1.606   0.587  3.6390 -1.6764 -0.1911
 7795SOL    HW235022   3.654   1.478   0.514  1.7133  1.3904  1.2978
 7796SOL     OW35023   1.212   3.101   3.747 -0.0476 -0.2115 -0.4727
 7796SOL    HW135024   1.268   3.037   3.792 -0.1704 -1.2871 -1.8729
 7796SOL    HW235025   1.277   3.159   3.707  1.9057  0.6041  3.7673
 7797SOL     OW35026   1.769   3.218  17.551  0.6979  0.0750 -0.2227
 7797SOL    HW135027   1.860   3.213  17.522  0.4711 -0.2903 -0.8743
 7797SOL    HW235028   1.744   3.137  17.506  0.5591  0.8640 -1.5734
 7798SOL     OW35029   4.429   4.479   6.461  0.1102 -0.1605  0.5080
 7798SOL    HW135030   4.377   4.404   6.491  0.7351 -0.1033  1.7296
 7798SOL    HW235031   4.393   4.485   6.372  2.8162 -0.8309 -0.6303
 7799SOL     OW35032   4.257   4.658  17.284 -0.0274 -0.6817  0.3068
 7799SOL    HW135033   4.236   4.641  17.192 -0.1998 -0.7576  0.3607
 7799SOL    HW235034   4.346   4.622  17.284  1.1017  2.1070  0.8686
 7800SOL     OW35035   3.273   3.413   8.062 -0.0522 -0.1294  0.8234
 7800SOL    HW135036   3.328   3.336   8.058 -1.0483 -0.8902  1.6948
 7800SOL    HW235037   3.218   3.396   7.986  1.3725  0.5395 -0.3551
 7801SOL     OW35038   3.601   4.326   8.548  0.9076 -0.6001 -0.1959
 7801SOL    HW135039   3.538   4.360   8.486  0.3164 -2.1202 -0.4308
 7801SOL    HW235040   3.675   4.347   8.491 -0.5550  1.0193 -1.4811
 7802SOL     OW35041   0.768   2.635   4.454 -0.1195 -0.6666 -0.0201
 7802SOL    HW135042   0.703   2.565   4.446 -0.5968 -0.0746 -1.3228
 7802SOL    HW235043   0.782   2.656   4.362  1.5294 -1.5005  0.0497
 7803SOL     OW35044   3.347   3.060   7.027 -0.4255 -0.6950 -0.1404
 7803SOL    HW135045   3.268   3.014   6.998 -2.1683  1.9535  0.4930
 7803SOL    HW235046   3.384   3.091   6.944  1.5311 -1.5049  0.4178
 7804SOL     OW35047   3.114   4.069  11.229  0.0300  0.1848 -0.2782
 7804SOL    HW135048   3.086   4.114  11.149  1.7305  1.7821  0.0234
 7804SOL    HW235049   3.207   4.089  11.221  0.5017 -0.5292  3.4130
 7805SOL     OW35050   2.639   3.008  10.492 -0.1395 -0.1070  0.3011
 7805SOL    HW135051   2.637   2.942  10.423 -0.2100  1.8731 -1.5712
 7805SOL    HW235052   2.653   3.091  10.448  0.4441 -0.1887  0.3325
 7806SOL     OW35053   3.537   1.146   3.312  0.0798  0.8264 -0.2776
 7806SOL    HW135054   3.554   1.241   3.314 -0.0950  0.8399  0.3492
 7806SOL    HW235055   3.524   1.130   3.405 -2.3844 -0.3369 -0.8165
 7807SOL     OW35056   0.891   4.076   4.750  0.2490  0.4385  0.0587
 7807SOL    HW135057   0.897   3.981   4.742 -0.3818  0.4975 -1.0540
 7807SOL    HW235058   0.936   4.077   4.835 -2.3842 -3.7282  1.5813
 7808SOL     OW35059   1.021   4.341   9.839  0.4001  0.3918 -0.5836
 7808SOL    HW135060   1.006   4.345   9.745 -1.8071 -0.6344 -0.2638
 7808SOL    HW235061   1.106   4.386   9.848 -0.3904  1.7918 -0.1599
 7809SOL     OW35062   1.110   1.344   8.036 -0.0781  0.3764  0.1951
 7809SOL    HW135063   1.015   1.339   8.026  0.1868  1.7339 -3.1373
 7809SOL    HW235064   1.135   1.383   8.120 -1.2820 -0.0745  0.7611
 7810SOL     OW35065   0.781   3.544  17.088  0.2635  0.7495 -0.3084
 7810SOL    HW135066   0.815   3.465  17.131  0.6541  1.9110  1.5022
 7810SOL    HW235067   0.741   3.512  17.007 -0.4181 -1.7466  0.9998
 7811SOL     OW35068   1.932   3.818   3.805 -0.3878  0.1380  0.2798
 7811SOL    HW135069   2.027   3.830   3.802 -0.8500  3.4674 -0.9793
 7811SOL    HW235070   1.907   3.734   3.845  0.3594 -0.2520 -0.0695
 7812SOL     OW35071   2.087   3.638   6.985  0.2450  0.4636 -0.0907
 7812SOL    HW135072   2.043   3.553   6.976  1.8775 -0.5464  1.3541
 7812SOL    HW235073   2.114   3.635   7.077 -0.6410  2.5655  0.2405
 7813SOL     OW35074   2.057   0.797   9.960 -0.0929 -0.0100 -0.1135
 7813SOL    HW135075   2.060   0.769   9.868  1.5622 -1.6896  0.4601
 7813SOL    HW235076   2.107   0.727  10.003  0.7963  0.2533 -0.7221
 7814SOL     OW35077   3.694   1.464   4.196 -0.3328 -0.5528 -0.7130
 7814SOL    HW135078   3.744   1.520   4.137  0.5156 -0.0897  0.4676
 7814SOL    HW235079   3.733   1.503   4.274 -0.1313 -0.5893 -0.7958
 7815SOL     OW35080   4.498   3.212   3.643 -0.7510  0.4261 -0.3383
 7815SOL    HW135081   4.438   3.180   3.709  0.6954  1.8538  1.6760
 7815SOL    HW235082   4.579   3.182   3.683 -1.7876 -1.3330  0.4191
 7816SOL     OW35083   1.237   1.689   8.222  0.0696 -0.5528  0.1295
 7816SOL    HW135084   1.240   1.733   8.307 -0.0734  0.0572 -0.1792
 7816SOL    HW235085   1.144   1.671   8.212 -0.2768  0.1704  1.9907
 7817SOL     OW35086   1.333   2.919   4.903  0.3788  1.0207  0.0213
 7817SOL    HW135087   1.330   2.828   4.931  2.1115 -0.2590 -3.9641
 7817SOL    HW235088   1.426   2.918   4.877  0.8151 -2.8329  1.7082
 7818SOL     OW35089   4.496   1.283   3.114 -0.1061  0.0818 -0.2542
 7818SOL    HW135090   4.576   1.329   3.090  0.0323  1.0049  1.9937
 7818SOL    HW235091   4.522   1.193   3.132 -1.0952 -0.4274 -1.2951
 7819SOL     OW35092   2.216   0.250  10.228  0.1417 -0.0665 -0.0740
 7819SOL    HW135093   2.259   0.256  10.312 -0.2455 -1.9731  0.2588
 7819SOL    HW235094   2.143   0.198  10.261  0.2434  1.1796  2.0857
 7820SOL     OW35095   1.835   2.431  10.879 -0.7948 -0.0006  0.7905
 7820SOL    HW135096   1.796   2.494  10.818  1.8299  0.0670 -0.8257
 7820SOL    HW235097   1.797   2.464  10.960  1.9031 -1.0112  2.4487
 7821SOL     OW35098   2.327   1.256   5.064 -0.3690 -0.0902  0.4968
 7821SOL    HW135099   2.343   1.235   4.972  1.1114  1.6757  0.3722
 7821SOL    HW235100   2.370   1.182   5.107 -1.8864  0.7730  3.4836
 7822SOL     OW35101   1.082   2.687  15.331  0.3023  0.9863 -0.3360
 7822SOL    HW135102   1.049   2.598  15.321 -0.0787  1.1643 -0.6477
 7822SOL    HW235103   1.024   2.741  15.278 -1.1040 -0.4493 -0.2754
 7823SOL     OW35104   1.980   4.266   5.075 -0.1476  0.1384 -0.0887
 7823SOL    HW135105   2.032   4.347   5.082 -0.6492  0.5671 -1.3405
 7823SOL    HW235106   1.896   4.309   5.089  0.7871  1.9727 -0.0463
 7824SOL     OW35107   3.258   4.075   5.794  0.2987 -0.3928 -0.2151
 7824SOL    HW135108   3.255   3.989   5.836  1.6579 -0.4501 -0.2317
 7824SOL    HW235109   3.176   4.082   5.746  0.7885 -0.6440 -1.0774
 7825SOL     OW35110   1.261   3.224  11.869  0.1221  0.4960  0.1112
 7825SOL    HW135111   1.349   3.203  11.837 -0.7280 -0.9796 -1.2402
 7825SOL    HW235112   1.262   3.212  11.964  0.4157  2.7525  0.3934
 7826SOL     OW35113   4.523   1.408   3.771 -0.0211  0.4589 -0.3580
 7826SOL    HW135114   4.573   1.415   3.853  0.1625  0.4880 -0.4727
 7826SOL    HW235115   4.572   1.474   3.722  1.8862 -2.0084 -1.7783
 7827SOL     OW35116   0.521   3.354   5.208  0.2432  0.4019  0.1204
 7827SOL    HW135117   0.435   3.351   5.167  0.4203 -0.3203 -0.1918
 7827SOL    HW235118   0.554   3.442   5.190  2.2980 -0.0430  1.5691
 7828SOL     OW35119   3.898   0.221   1.186 -0.0374 -0.6420  0.2980
 7828SOL    HW135120   3.899   0.264   1.271 -0.6819 -2.0841  1.0388
 7828SOL    HW235121   3.949   0.142   1.205 -0.8096 -0.9563  1.0732
 7829SOL     OW35122   4.281   4.541   7.052 -0.1712 -0.1522  0.6112
 7829SOL    HW135123   4.344   4.480   7.091  0.5053  1.7791  2.5045
 7829SOL    HW235124   4.223   4.544   7.128 -3.5777  1.1870 -2.0312
 7830SOL     OW35125   1.169   0.974   5.366 -0.0731  0.3306  0.1197
 7830SOL    HW135126   1.135   1.010   5.447 -2.5308 -1.4940 -0.0788
 7830SOL    HW235127   1.134   0.885   5.377  0.8297 -0.0264  0.1496
 7831SOL     OW35128   0.187   2.266   9.840 -0.1843 -0.2937 -0.3128
 7831SOL    HW135129   0.112   2.311   9.879 -0.7823  0.4338 -2.2639
 7831SOL    HW235130   0.244   2.252   9.915 -2.2969 -3.0871  0.7893
 7832SOL     OW35131   2.215   0.902   0.267 -0.2581 -0.3975 -0.5152
 7832SOL    HW135132   2.238   0.886   0.358  3.3995 -0.6149 -1.4846
 7832SOL    HW235133   2.300   0.895   0.223 -1.1028 -2.5732 -1.7921
 7833SOL     OW35134   4.649   2.510  17.376 -0.2101  0.2664 -0.1731
 7833SOL    HW135135   4.649   2.530  17.283 -0.2996  1.8273  0.1658
 7833SOL    HW235136   4.573   2.453  17.392 -0.5293  0.6468 -0.3554
 7834SOL     OW35137   0.650   2.909   1.229  0.7523 -0.5062  0.1576
 7834SOL    HW135138   0.718   2.970   1.256  0.4774  0.9100 -2.3498
 7834SOL    HW235139   0.633   2.930   1.138  2.0710 -0.7541 -0.1495
 7835SOL     OW35140   2.055   3.892   6.529 -0.5788  0.0968 -0.1431
 7835SOL    HW135141   2.078   3.844   6.609 -2.3445  0.4715  0.5752
 7835SOL    HW235142   2.037   3.980   6.560  1.1742 -0.1087  1.4423
 7836SOL     OW35143   1.641   1.675   4.266  0.5070  0.3809  0.4602
 7836SOL    HW135144   1.607   1.601   4.216  0.4442  1.0369 -0.4708
 7836SOL    HW235145   1.701   1.639   4.332  1.2554 -2.1993 -1.6332
 7837SOL     OW35146   4.615   0.475   3.326  0.0762 -0.2347 -0.5459
 7837SOL    HW135147   4.550   0.459   3.258 -0.7115 -2.0854  0.6349
 7837SOL    HW235148   4.698   0.454   3.282 -0.0050 -0.0833 -0.7725
 7838SOL     OW35149   4.278   2.119   2.602 -0.1164  0.4264 -0.1145
 7838SOL    HW135150   4.359   2.166   2.585  0.3394  0.0409  1.0018
 7838SOL    HW235151   4.245   2.178   2.671  0.2060  1.2024 -0.6294
 7839SOL     OW35152   2.929   2.247  15.614 -0.7032 -0.1199 -0.0870
 7839SOL    HW135153   2.851   2.253  15.560 -0.2966  2.1002 -0.4545
 7839SOL    HW235154   2.933   2.326  15.670 -2.2152 -1.7611  2.3401
 7840SOL     OW35155   4.267   3.131   9.468  0.7953  0.0250 -0.3561
 7840SOL    HW135156   4.267   3.049   9.418 -1.4971  0.1292 -0.5416
 7840SOL    HW235157   4.211   3.110   9.542  1.9476 -1.0707  0.1939
 7841SOL     OW35158   0.561   3.436  11.742  0.2428 -0.4382 -0.0502
 7841SOL    HW135159   0.492   3.474  11.796  1.2879  2.5743 -0.8308
 7841SOL    HW235160   0.548   3.341  11.743  0.9331 -0.5307 -0.0050
 7842SOL     OW35161   3.142   0.972  14.933  0.6078  0.0375 -0.1376
 7842SOL    HW135162   3.058   1.004  14.966 -0.2123 -1.1009 -1.0835
 7842SOL    HW235163   3.198   0.993  15.007  1.0061 -0.2017 -0.3675
 7843SOL     OW35164   0.346   1.464   2.150 -0.2201 -0.0589  0.1579
 7843SOL    HW135165   0.393   1.452   2.233 -0.1162 -0.1227  0.0895
 7843SOL    HW235166   0.330   1.372   2.128 -0.3507 -0.2201  0.9069
 7844SOL     OW35167   3.121   2.364   0.197 -0.0293  0.0016  0.6494
 7844SOL    HW135168   3.068   2.439   0.171  0.6122 -0.0115 -0.6841
 7844SOL    HW235169   3.058   2.297   0.221  0.8141 -1.3935 -1.0295
 7845SOL     OW35170   3.142   1.722  10.154  0.2496 -0.5853 -0.5757
 7845SOL    HW135171   3.168   1.691  10.241 -1.1472 -1.1493 -0.3599
 7845SOL    HW235172   3.101   1.806  10.176  0.2686 -0.0192 -2.6587
 7846SOL     OW35173   4.457   0.612   4.832 -0.2785 -0.2422  0.0381
 7846SOL    HW135174   4.461   0.616   4.737  1.1237 -2.8982 -0.0188
 7846SOL    HW235175   4.436   0.520   4.845 -0.9792  0.0324  0.8422
 7847SOL     OW35176   3.927   1.456   9.851 -0.8308  0.2431  0.5135
 7847SOL    HW135177   3.901   1.377   9.804  0.5802 -1.3914  2.5023
 7847SOL    HW235178   3.975   1.494   9.778 -0.3508 -0.5353  0.4268
 7848SOL     OW35179   3.503   2.628   5.622  0.0525  0.5121  0.4073
 7848SOL    HW135180   3.548   2.641   5.706 -0.3162  1.7601  0.4125
 7848SOL    HW235181   3.409   2.636   5.636 -0.0459  1.3126 -0.6718
 7849SOL     OW35182   3.262   3.531  16.898  0.6710 -0.0751  0.5554
 7849SOL    HW135183   3.242   3.610  16.947  0.6943  1.6739 -2.2499
 7849SOL    HW235184   3.261   3.587  16.820  0.9480  0.3784  0.8813
 7850SOL     OW35185   3.349   3.875  14.803  0.1960 -0.2826  0.0305
 7850SOL    HW135186   3.324   3.946  14.744  0.4239 -0.7385 -0.6155
 7850SOL    HW235187   3.287   3.807  14.779 -0.9264  0.7181  0.1202
 7851SOL     OW35188   4.435   3.199   0.814  0.2785  0.0186 -0.0001
 7851SOL    HW135189   4.398   3.244   0.738 -2.2988  1.4312  2.0864
 7851SOL    HW235190   4.494   3.132   0.780  1.2374 -0.3921  2.4680
 7852SOL     OW35191   4.389   2.978   2.417  0.5411  0.1559  0.3885
 7852SOL    HW135192   4.357   3.021   2.497  1.7188 -1.7707  1.8875
 7852SOL    HW235193   4.475   3.020   2.425  0.1049  1.0038  0.6483
 7853SOL     OW35194   3.081   2.668  14.476  0.1704  0.0338 -0.1402
 7853SOL    HW135195   3.114   2.753  14.447 -0.4620 -0.3873 -2.0625
 7853SOL    HW235196   3.151   2.609  14.452  0.1053  0.6211 -1.7407
 7854SOL     OW35197   2.506   3.099   7.504  0.6794 -0.2497 -0.2891
 7854SOL    HW135198   2.450   3.140   7.438 -2.0576 -0.2600  2.0074
 7854SOL    HW235199   2.445   3.028   7.527 -0.3376 -0.2688 -3.0392
 7855SOL     OW35200   2.563   3.535   9.361 -0.3848 -0.2453  0.0698
 7855SOL    HW135201   2.611   3.585   9.295  1.1106 -0.2428  1.1467
 7855SOL    HW235202   2.536   3.603   9.422 -1.6564 -0.4857 -0.2351
 7856SOL     OW35203   0.851   1.408   2.948  0.7131  0.1979  0.0021
 7856SOL    HW135204   0.814   1.368   3.026 -0.4625 -2.0301 -1.7075
 7856SOL    HW235205   0.942   1.427   2.972  0.7137  1.4418 -0.9776
 7857SOL     OW35206   2.936   0.468   4.141 -0.0411  0.2355  0.4020
 7857SOL    HW135207   3.023   0.508   4.149 -0.9573  2.2444  0.0158
 7857SOL    HW235208   2.931   0.465   4.045 -2.3409  1.3547  0.5024
 7858SOL     OW35209   0.928   3.338   0.232 -0.1838  0.3808  0.1828
 7858SOL    HW135210   0.968   3.405   0.177 -1.3349 -0.0232 -1.1327
 7858SOL    HW235211   0.934   3.374   0.321 -1.3734  2.9820 -0.7831
 7859SOL     OW35212   1.266   3.676   2.559  1.4443 -0.1024  0.2439
 7859SOL    HW135213   1.329   3.729   2.510 -0.0804  2.0565  0.6783
 7859SOL    HW235214   1.321   3.600   2.579  2.7859  0.7068 -0.3505
 7860SOL     OW35215   2.177   1.305   2.275  0.3666 -0.2660  0.2318
 7860SOL    HW135216   2.233   1.369   2.318 -1.0449 -0.0712  1.8066
 7860SOL    HW235217   2.120   1.354   2.216  1.8170  1.1318  0.0068
 7861SOL     OW35218   1.061   0.741   5.293  0.0140  0.0007 -0.4016
 7861SOL    HW135219   1.028   0.786   5.215  1.9354  0.9024 -0.6872
 7861SOL    HW235220   1.003   0.665   5.286 -0.4779  0.4527 -1.3776
 7862SOL     OW35221   4.232   3.231  10.421 -0.1003  0.0277  0.3305
 7862SOL    HW135222   4.241   3.232  10.516 -2.6668  0.7996  0.5462
 7862SOL    HW235223   4.152   3.281  10.406 -1.8183 -1.8171  3.5873
 7863SOL     OW35224   3.142   0.799   2.907 -0.8162 -0.6577  0.3014
 7863SOL    HW135225   3.102   0.775   2.991  0.2369 -0.9845  0.7035
 7863SOL    HW235226   3.099   0.878   2.876  0.1377 -0.4313 -0.4551
 7864SOL     OW35227   0.581   1.143   2.424 -0.1783 -0.3037  0.1128
 7864SOL    HW135228   0.559   1.059   2.464  0.8093 -0.5613  0.1166
 7864SOL    HW235229   0.669   1.114   2.400  0.5386  2.2013 -0.3142
 7865SOL     OW35230   0.359   4.324   7.481 -0.6610 -0.1738  0.5835
 7865SOL    HW135231   0.333   4.324   7.574 -2.4772  0.7794  0.0859
 7865SOL    HW235232   0.450   4.298   7.493 -0.4745 -0.0374 -0.5599
 7866SOL     OW35233   2.549   2.612   4.329 -0.0276 -0.0398 -0.2188
 7866SOL    HW135234   2.612   2.572   4.270 -1.1123 -0.4826 -1.0785
 7866SOL    HW235235   2.476   2.549   4.335  0.2864 -0.8253 -4.5110
 7867SOL     OW35236   3.783   3.294   4.661  0.1295 -0.3207  0.0980
 7867SOL    HW135237   3.870   3.334   4.663  0.5981 -1.4372  1.5460
 7867SOL    HW235238   3.743   3.339   4.587  1.0058  1.3835  0.6672
 7868SOL     OW35239   2.787   3.742   5.145  0.1163  0.1449 -0.2025
 7868SOL    HW135240   2.874   3.704   5.154  1.2254  2.6118 -0.6497
 7868SOL    HW235241   2.789   3.837   5.137 -0.8120  0.1034 -1.0480
 7869SOL     OW35242   0.626   0.958  12.679  0.2965 -0.2257  0.0970
 7869SOL    HW135243   0.615   1.053  12.688  1.1806 -0.2140  1.1034
 7869SOL    HW235244   0.717   0.950  12.651 -0.0695  3.9237 -2.4021
 7870SOL     OW35245   4.344   2.058   5.117 -0.5720 -0.8505  0.3064
 7870SOL    HW135246   4.350   1.962   5.117  0.3826 -0.7803  1.6933
 7870SOL    HW235247   4.321   2.064   5.024 -0.4113 -2.1492  0.1738
 7871SOL     OW35248   1.948   2.689   9.709 -0.1524  0.3816  0.5021
 7871SOL    HW135249   1.924   2.781   9.704 -0.9252  0.1541 -0.0250
 7871SOL    HW235250   1.870   2.641   9.738 -0.6071  0.2452 -0.8984
 7872SOL     OW35251   4.286   4.065   4.604  0.1065  0.4162  0.3849
 7872SOL    HW135252   4.199   4.045   4.568  0.1319  0.9157  0.0460
 7872SOL    HW235253   4.279   4.160   4.594  0.3440  0.4027  0.1067
 7873SOL     OW35254   0.420   2.963   7.134  0.4515 -0.9386 -0.6475
 7873SOL    HW135255   0.418   3.057   7.152  1.8648 -1.1331  0.5610
 7873SOL    HW235256   0.442   2.962   7.041  2.6611  3.7265 -0.1405
 7874SOL     OW35257   4.173   1.651   1.751  0.2131 -0.5570 -1.0406
 7874SOL    HW135258   4.093   1.699   1.731  0.5430  1.1603  1.7422
 7874SOL    HW235259   4.136   1.563   1.759  2.2135 -1.2143  0.9224
 7875SOL     OW35260   1.696   2.227   7.075  0.2772  0.0457 -0.4986
 7875SOL    HW135261   1.709   2.132   7.078 -1.7638 -0.2367 -0.4776
 7875SOL    HW235262   1.602   2.227   7.059  0.4116  2.4303 -1.2466
 7876SOL     OW35263   3.959   2.664   5.262  0.6832  0.5265  0.4402
 7876SOL    HW135264   3.871   2.659   5.300 -0.2324 -0.3102 -1.7968
 7876SOL    HW235265   3.988   2.754   5.280 -0.2856  1.0929 -0.8307
 7877SOL     OW35266   3.056   0.751   3.180  0.2505  0.6313 -0.2134
 7877SOL    HW135267   3.111   0.826   3.202 -0.2822  0.4822  1.6540
 7877SOL    HW235268   3.108   0.677   3.213  0.9568  0.4949 -1.6380
 7878SOL     OW35269   2.314   1.274   2.968 -0.3451 -0.2287 -0.1657
 7878SOL    HW135270   2.382   1.286   2.902  0.6976 -2.9994  0.3762
 7878SOL    HW235271   2.342   1.189   3.002 -0.6596  0.4716  1.8552
 7879SOL     OW35272   1.190   3.051   7.751  0.2420 -0.3177 -0.8315
 7879SOL    HW135273   1.171   3.005   7.833  0.9475 -0.0716 -0.5233
 7879SOL    HW235274   1.108   3.035   7.706  0.1375 -1.4838 -0.2463
 7880SOL     OW35275   4.498   1.776  11.570  0.1605 -0.4072 -0.2725
 7880SOL    HW135276   4.517   1.702  11.628  1.0543  0.2390  0.2568
 7880SOL    HW235277   4.415   1.750  11.528 -1.2503  1.5441  1.3301
 7881SOL     OW35278   0.073   3.053   6.335 -0.1000  0.3461  0.4557
 7881SOL    HW135279   0.141   3.095   6.388 -2.4113  2.6278  1.6209
 7881SOL    HW235280   0.055   2.979   6.394 -1.4356  1.7152  1.7782
 7882SOL     OW35281   2.797   2.414   5.067 -0.5185 -0.3740  0.3067
 7882SOL    HW135282   2.768   2.325   5.086  0.8521 -0.2714  2.9398
 7882SOL    HW235283   2.730   2.454   5.011  0.2669 -0.6901 -0.8541
 7883SOL     OW35284   3.527   2.382  13.956 -0.1417 -0.4808  0.4071
 7883SOL    HW135285   3.589   2.358  14.026 -0.1990  1.9432  1.2996
 7883SOL    HW235286   3.472   2.304  13.961 -3.0630  1.4958 -0.9642
 7884SOL     OW35287   2.094   1.066  15.245  0.1068 -0.1724  0.3912
 7884SOL    HW135288   2.080   0.971  15.252  1.6019 -0.3313  1.1900
 7884SOL    HW235289   2.036   1.099  15.176  1.4897  0.4785 -0.4711
 7885SOL     OW35290   3.710   4.364  12.853  0.1879 -0.2709  0.2168
 7885SOL    HW135291   3.671   4.326  12.775 -1.1834  2.7393 -0.5613
 7885SOL    HW235292   3.635   4.386  12.909  1.1483  0.6276  1.1477
 7886SOL     OW35293   1.832   1.912   5.286 -0.1027 -0.1348  0.2518
 7886SOL    HW135294   1.792   1.954   5.210  0.8350 -1.5472 -0.9993
 7886SOL    HW235295   1.926   1.928   5.275 -0.5639  0.7682 -2.2579
 7887SOL     OW35296   3.022   2.091  14.449 -0.3594 -0.3246  0.1651
 7887SOL    HW135297   2.995   2.161  14.390 -2.7763 -1.7899 -0.4834
 7887SOL    HW235298   2.977   2.121  14.528 -0.4830  0.3773 -0.1678
 7888SOL     OW35299   3.864   0.163   7.197 -0.0398  0.3441 -0.7932
 7888SOL    HW135300   3.911   0.080   7.193 -0.7699 -0.0832 -0.5455
 7888SOL    HW235301   3.889   0.208   7.116 -3.7613 -1.0113 -2.6826
 7889SOL     OW35302   0.158   0.180  16.750  0.5413  0.0177 -0.5625
 7889SOL    HW135303   0.142   0.261  16.700 -4.2631 -1.0536 -0.7322
 7889SOL    HW235304   0.248   0.204  16.772  0.5225 -0.4888  0.0723
 7890SOL     OW35305   3.938   3.930  16.768 -0.0110  0.2396  0.1389
 7890SOL    HW135306   3.989   3.986  16.710  0.4038  1.4302  1.6641
 7890SOL    HW235307   3.988   3.848  16.774 -0.5438  0.1233  3.2019
 7891SOL     OW35308   4.147   3.857   5.842  0.4044 -0.1829  0.2173
 7891SOL    HW135309   4.114   3.871   5.753 -0.6942 -0.9813  0.4904
 7891SOL    HW235310   4.069   3.881   5.893 -1.4604 -0.3794 -2.5390
 7892SOL     OW35311   3.495   0.620   1.910 -0.3327  0.0184 -0.2732
 7892SOL    HW135312   3.523   0.711   1.902  1.2530 -0.4532 -0.0088
 7892SOL    HW235313   3.469   0.621   2.002  0.9388 -0.3120  0.0852
 7893SOL     OW35314   2.167   4.255   4.331 -0.1145  0.1370  0.4141
 7893SOL    HW135315   2.224   4.185   4.363 -1.8563 -2.3034 -1.8043
 7893SOL    HW235316   2.142   4.228   4.242  1.2739  0.3683 -0.0417
 7894SOL     OW35317   0.999   1.325   5.278 -0.5292 -0.0365  0.1091
 7894SOL    HW135318   1.063   1.302   5.346 -0.0541 -1.6908 -0.8903
 7894SOL    HW235319   0.956   1.239   5.277 -0.8049  0.0476  2.9557
 7895SOL     OW35320   0.476   1.607   2.563 -0.0819 -0.0472  0.4118
 7895SOL    HW135321   0.419   1.665   2.512 -1.9592 -2.3409 -0.0790
 7895SOL    HW235322   0.412   1.537   2.569  0.9806 -1.0443  0.0252
 7896SOL     OW35323   1.013   0.815  17.018  0.3209  0.3733 -0.1355
 7896SOL    HW135324   1.077   0.879  17.050 -0.3813  0.7581  0.5074
 7896SOL    HW235325   1.071   0.741  17.000  1.8349  1.3807  0.6245
 7897SOL     OW35326   2.509   0.474   3.220  0.7560 -0.9031  0.0570
 7897SOL    HW135327   2.534   0.537   3.288  0.7700 -0.5877 -0.2425
 7897SOL    HW235328   2.570   0.490   3.149 -1.8399  1.9561 -1.5310
 7898SOL     OW35329   3.621   4.540   2.154  0.1988 -0.1503  0.1527
 7898SOL    HW135330   3.537   4.495   2.162  0.6938 -0.9021  1.0486
 7898SOL    HW235331   3.677   4.476   2.197  0.4009 -1.3877 -1.9411
 7899SOL     OW35332   1.877   2.711   6.572  0.2538  0.2522  0.5766
 7899SOL    HW135333   1.818   2.677   6.504 -0.8277 -0.8055  2.0666
 7899SOL    HW235334   1.852   2.665   6.651 -2.6714  1.0386  0.0980
 7900SOL     OW35335   3.523   4.206  14.745 -0.3898 -0.2428  0.0296
 7900SOL    HW135336   3.545   4.158  14.825  1.1425 -2.0663 -1.5231
 7900SOL    HW235337   3.447   4.262  14.761 -0.3889 -0.0661 -0.6061
 7901SOL     OW35338   0.731   1.609   9.197 -0.0127 -0.2783  0.5822
 7901SOL    HW135339   0.679   1.623   9.118  2.0204  1.3796 -0.4611
 7901SOL    HW235340   0.671   1.557   9.251  1.8282  1.4528  4.3070
 7902SOL     OW35341   0.709   1.004  11.118  0.8844 -0.0719 -0.0256
 7902SOL    HW135342   0.724   1.064  11.045 -0.0704  0.9965  0.6740
 7902SOL    HW235343   0.778   1.035  11.177 -0.1874  3.2209 -0.5231
 7903SOL     OW35344   3.609   4.579   8.320 -0.0985  0.4371  0.2666
 7903SOL    HW135345   3.592   4.571   8.226 -0.1887  1.1284  0.2291
 7903SOL    HW235346   3.695   4.537   8.329 -0.1245 -0.3874 -3.1156
 7904SOL     OW35347   1.678   1.681   9.062 -0.6743 -0.1952 -0.4217
 7904SOL    HW135348   1.606   1.670   9.124 -1.8259  0.2671 -1.6649
 7904SOL    HW235349   1.725   1.599   9.060 -2.0869 -1.0478  1.1019
 7905SOL     OW35350   3.698   2.425  12.183 -0.1825  0.0592  0.3030
 7905SOL    HW135351   3.745   2.344  12.204 -0.4601  0.2904  1.8280
 7905SOL    HW235352   3.722   2.474  12.262  0.5325  0.2237 -0.0167
 7906SOL     OW35353   2.800   4.361   5.467 -0.1422 -0.1032  0.1747
 7906SOL    HW135354   2.864   4.327   5.529 -0.3487  0.6870  0.8155
 7906SOL    HW235355   2.843   4.345   5.383 -0.3579 -0.2169  0.0875
 7907SOL     OW35356   0.668   2.910   4.173  0.6667 -0.3188  0.3301
 7907SOL    HW135357   0.741   2.895   4.113  0.8879 -0.0554  0.5326
 7907SOL    HW235358   0.632   2.825   4.200 -1.6260 -0.1144 -2.0931
 7908SOL     OW35359   3.408   3.047   8.432 -0.3662  0.5244 -0.6324
 7908SOL    HW135360   3.487   3.039   8.379 -2.3013 -0.0630 -3.4746
 7908SOL    HW235361   3.437   3.075   8.518 -2.1117 -1.4168  0.6027
 7909SOL     OW35362   3.757   2.457  11.915  0.0689  0.5081 -0.0621
 7909SOL    HW135363   3.750   2.475  12.008  0.9683 -0.1759  0.1338
 7909SOL    HW235364   3.666   2.438  11.890 -0.6076  0.1144  2.7865
 7910SOL     OW35365   3.547   3.427  11.039  0.2993 -0.4310  0.0410
 7910SOL    HW135366   3.584   3.516  11.033 -0.0653 -0.3211 -0.5880
 7910SOL    HW235367   3.588   3.397  11.120 -3.2837 -0.7896  1.7447
 7911SOL     OW35368   2.075   3.633   4.980  0.1661 -0.0518 -0.5570
 7911SOL    HW135369   2.072   3.544   5.016 -0.8657  0.0341 -0.4395
 7911SOL    HW235370   2.037   3.626   4.893  2.4276 -2.8914 -1.3157
 7912SOL     OW35371   1.912   3.846  16.332  0.2390 -0.0225  0.5587
 7912SOL    HW135372   1.926   3.772  16.391 -0.9807 -1.3812 -0.8761
 7912SOL    HW235373   2.001   3.864  16.302  0.4442  0.4000  1.4138
 7913SOL     OW35374   4.161   0.612   3.265 -0.4911  0.1403  0.3431
 7913SOL    HW135375   4.245   0.637   3.305 -0.9133 -0.4521  1.6032
 7913SOL    HW235376   4.177   0.520   3.243  0.6797 -0.1016  2.2107
 7914SOL     OW35377   0.676   3.233   2.664  0.2121 -0.7304 -0.6726
 7914SOL    HW135378   0.676   3.219   2.759  0.2781  1.3039 -0.3708
 7914SOL    HW235379   0.754   3.281   2.637 -1.2824  1.0608 -1.7365
 7915SOL     OW35380   2.375   4.082   1.251 -0.1527 -0.0212  0.4756
 7915SOL    HW135381   2.456   4.030   1.260  0.5757  1.1587  0.7516
 7915SOL    HW235382   2.376   4.100   1.157 -0.7624 -0.7499  0.3273
 7916SOL     OW35383   2.001   0.439   7.789 -0.4338 -0.3840  0.7847
 7916SOL    HW135384   2.039   0.362   7.830  2.4236  0.8876  0.5412
 7916SOL    HW235385   2.076   0.499   7.788 -1.3587  0.7664 -0.4522
 7917SOL     OW35386   1.314   4.226   3.833  0.2722 -0.3749 -0.1402
 7917SOL    HW135387   1.362   4.262   3.759 -1.6619  1.7675 -0.3272
 7917SOL    HW235388   1.374   4.162   3.873 -0.9305 -0.8081  0.9523
 7918SOL     OW35389   0.565   2.701  16.969 -0.3830  0.3800 -0.6493
 7918SOL    HW135390   0.594   2.780  17.014 -1.3170 -0.2144  1.0092
 7918SOL    HW235391   0.524   2.738  16.891 -1.8545  1.6699  0.7334
 7919SOL     OW35392   2.015   3.894   8.041  0.0179 -0.2500 -0.2557
 7919SOL    HW135393   2.051   3.893   8.130 -2.8130 -1.0045  0.8841
 7919SOL    HW235394   2.028   3.984   8.010 -1.4780 -0.1306 -0.5514
 7920SOL     OW35395   4.083   2.007   3.217 -0.3587  0.4674  0.0004
 7920SOL    HW135396   4.169   1.966   3.222 -0.4168  0.4711  0.9422
 7920SOL    HW235397   4.097   2.084   3.272  1.5028  0.9159 -1.0975
 7921SOL     OW35398   0.200   1.467   7.233 -0.1186  0.2768  0.1395
 7921SOL    HW135399   0.289   1.487   7.206 -0.2972 -1.3673 -1.6839
 7921SOL    HW235400   0.147   1.532   7.188 -0.6871  0.4565  1.0635
 7922SOL     OW35401   1.059   3.586  15.226 -0.0411 -0.1323  0.2445
 7922SOL    HW135402   1.093   3.674  15.240  0.1150 -0.0507 -0.6189
 7922SOL    HW235403   0.965   3.604  15.223  0.3007  1.4805 -0.5995
 7923SOL     OW35404   4.348   3.053   1.835 -0.1133  0.6395  0.3510
 7923SOL    HW135405   4.269   3.014   1.797  0.3994  0.1785 -0.2232
 7923SOL    HW235406   4.371   3.002   1.913  1.0660  0.5048 -0.0888
 7924SOL     OW35407   1.791   2.338   9.289 -0.3705 -0.2789 -0.3528
 7924SOL    HW135408   1.763   2.284   9.363 -2.2245  1.4265  0.1937
 7924SOL    HW235409   1.852   2.398   9.331 -2.6267  0.6236  1.6682
 7925SOL     OW35410   3.475   0.417  12.488  0.5681  0.6394 -0.0123
 7925SOL    HW135411   3.539   0.353  12.459 -1.6975 -1.0914 -1.2343
 7925SOL    HW235412   3.395   0.364  12.482  1.6274 -1.0396  0.8848
 7926SOL     OW35413   2.488   2.681   4.600 -0.4571 -0.3939  0.1512
 7926SOL    HW135414   2.582   2.668   4.595 -0.5925 -0.5693 -1.7689
 7926SOL    HW235415   2.455   2.618   4.536 -0.8111 -0.9389  0.8726
 7927SOL     OW35416   3.035   1.223   8.222  0.2119 -0.4278 -0.0920
 7927SOL    HW135417   2.992   1.138   8.214  1.8253 -1.4154  1.6732
 7927SOL    HW235418   3.050   1.218   8.316 -0.5761 -0.0051  0.0490
 7928SOL     OW35419   0.064   0.534   9.214  0.2475  0.4620  0.2638
 7928SOL    HW135420   0.074   0.440   9.200 -1.1069  0.2634  0.6559
 7928SOL    HW235421   0.137   0.570   9.163  1.0114 -0.1563  0.9331
 7929SOL     OW35422   2.161   0.876   2.377  0.2503 -0.0713  0.7449
 7929SOL    HW135423   2.121   0.935   2.441  0.3656  1.1002 -0.2621
 7929SOL    HW235424   2.089   0.818   2.400 -1.8558  3.1571  2.2613
 7930SOL     OW35425   2.371   2.716   2.035  0.0406 -0.0950 -0.4449
 7930SOL    HW135426   2.409   2.634   2.006 -1.3788 -0.6181 -0.8131
 7930SOL    HW235427   2.450   2.760   2.068 -0.7014 -0.0127  1.1934
 7931SOL     OW35428   2.118   3.199   6.485 -0.1759 -0.3023  0.3015
 7931SOL    HW135429   2.205   3.161   6.487  0.0190  0.1565  0.7157
 7931SOL    HW235430   2.144   3.273   6.430 -0.1258 -2.5208 -2.6696
 7932SOL     OW35431   0.984   2.009  11.735  0.3334 -0.0714 -0.0786
 7932SOL    HW135432   1.028   1.977  11.814  1.2925 -1.3755 -1.1457
 7932SOL    HW235433   0.894   2.011  11.768  0.2131 -1.4019 -0.3470
 7933SOL     OW35434   1.450   3.440   3.461 -0.3810 -0.3109 -0.7470
 7933SOL    HW135435   1.535   3.460   3.421 -0.2199 -0.4732 -0.4852
 7933SOL    HW235436   1.405   3.523   3.449 -1.5331 -0.7754  0.3755
 7934SOL     OW35437   2.342   1.164   4.793  0.2033  0.0950  0.1921
 7934SOL    HW135438   2.363   1.238   4.735  0.3820 -0.2195 -0.1469
 7934SOL    HW235439   2.382   1.088   4.752 -2.3821 -0.6323 -0.9495
 7935SOL     OW35440   0.796   0.214   4.165 -0.0282 -0.0246  0.2198
 7935SOL    HW135441   0.703   0.212   4.142  0.2106  0.2896 -0.7724
 7935SOL    HW235442   0.795   0.155   4.240 -0.2533 -0.6414 -0.2751
 7936SOL     OW35443   1.589   3.632   7.441  0.0191  0.2332 -0.3253
 7936SOL    HW135444   1.633   3.616   7.525  0.4874 -1.4001 -0.8795
 7936SOL    HW235445   1.656   3.616   7.375 -0.3087  0.3686 -0.6869
 7937SOL     OW35446   2.059   1.575  13.097 -0.1473 -0.6776 -0.0352
 7937SOL    HW135447   2.107   1.567  13.179  0.3022 -0.3617 -0.2674
 7937SOL    HW235448   2.123   1.616  13.038 -0.5199  0.6297  0.4822
 7938SOL     OW35449   3.466   2.232  14.950 -0.1716  0.4216 -0.2561
 7938SOL    HW135450   3.443   2.238  14.857 -1.9172  1.8701  0.2599
 7938SOL    HW235451   3.382   2.269  14.976 -0.9692 -2.1730  0.8863
 7939SOL     OW35452   3.670   0.072  17.365  0.4792 -0.3942 -0.2956
 7939SOL    HW135453   3.712   0.156  17.380 -1.8773  0.6593  0.3189
 7939SOL    HW235454   3.577   0.089  17.348  0.5676 -0.0252 -0.3928
 7940SOL     OW35455   4.186   0.921   6.675  0.2757  0.2194 -0.2683
 7940SOL    HW135456   4.243   0.986   6.634 -0.2235 -0.0428 -1.3767
 7940SOL    HW235457   4.108   0.976   6.669  1.8109  2.2840 -1.3752
 7941SOL     OW35458   0.342   0.475  13.957 -0.3332 -0.2361  0.2952
 7941SOL    HW135459   0.290   0.443  13.883  0.4385  1.0231 -0.7728
 7941SOL    HW235460   0.329   0.569  13.960 -1.8254 -0.4947  1.8456
 7942SOL     OW35461   2.915   1.425   5.373  0.5260 -0.5073  0.3162
 7942SOL    HW135462   3.004   1.446   5.347 -0.0482  0.6601 -0.7245
 7942SOL    HW235463   2.866   1.468   5.303  1.2458  1.9458  1.3105
 7943SOL     OW35464   2.142   1.248   9.609 -0.3324  0.0145  0.1557
 7943SOL    HW135465   2.153   1.154   9.598  0.5642  0.2708 -1.1544
 7943SOL    HW235466   2.201   1.260   9.684  2.0498  0.6484 -1.8208
 7944SOL     OW35467   4.122   2.263   7.633  0.2724 -0.0166 -0.1994
 7944SOL    HW135468   4.125   2.291   7.542  0.7126  1.8282  0.3694
 7944SOL    HW235469   4.062   2.189   7.640  2.9388 -2.3112 -1.6273
 7945SOL     OW35470   0.680   1.450   7.965  0.1826 -0.1728  0.5095
 7945SOL    HW135471   0.648   1.384   7.903  1.7871 -0.9734  0.5329
 7945SOL    HW235472   0.730   1.399   8.028 -0.8150 -0.9660  0.6576
 7946SOL     OW35473   1.960   3.771  15.336 -0.2603  0.3096  0.1664
 7946SOL    HW135474   1.879   3.809  15.302  0.2135  1.3894  0.2167
 7946SOL    HW235475   1.978   3.816  15.419 -2.5840  1.5180  0.0382
 7947SOL     OW35476   0.797   2.546   2.684 -0.0165  0.2763  0.4298
 7947SOL    HW135477   0.852   2.600   2.627 -3.5797  2.8101 -0.5553
 7947SOL    HW235478   0.736   2.511   2.619  1.3499 -0.9716 -0.1875
 7948SOL     OW35479   3.769   3.535  14.583 -0.1561  0.4325 -0.6329
 7948SOL    HW135480   3.707   3.608  14.579  2.0042  2.3400  0.5792
 7948SOL    HW235481   3.708   3.461  14.587 -0.2453  0.5326 -0.0393
 7949SOL     OW35482   2.843   3.326   7.260 -0.0495 -0.3516  0.0758
 7949SOL    HW135483   2.905   3.318   7.332 -1.5433 -1.3467  1.2471
 7949SOL    HW235484   2.873   3.405   7.215 -0.7368 -0.6755 -0.9536
 7950SOL     OW35485   3.207   4.305   3.813 -0.2282  0.1674 -0.2663
 7950SOL    HW135486   3.142   4.296   3.743  0.3147  0.9120 -0.8745
 7950SOL    HW235487   3.226   4.399   3.801 -2.9708  0.4296 -2.4550
 7951SOL     OW35488   2.386   4.091   9.288  0.4736 -0.0150 -0.1985
 7951SOL    HW135489   2.390   4.116   9.380 -0.1429  2.2234 -0.7697
 7951SOL    HW235490   2.294   4.115   9.272 -0.0738 -1.1830  1.2165
 7952SOL     OW35491   3.736   2.230   4.914  0.0543 -0.2222 -0.8245
 7952SOL    HW135492   3.733   2.295   4.985 -1.8227 -0.5943 -0.5647
 7952SOL    HW235493   3.752   2.154   4.969  0.3615  0.8729  0.6152
 7953SOL     OW35494   3.813   1.985   2.274  0.2749  0.8112 -0.0711
 7953SOL    HW135495   3.836   1.896   2.246 -0.7517  1.3413 -2.6045
 7953SOL    HW235496   3.900   2.018   2.299  0.0872 -1.1608  3.1341
 7954SOL     OW35497   0.468   2.231   3.319 -0.5123  0.3204 -0.4889
 7954SOL    HW135498   0.392   2.271   3.276 -0.6806 -1.0243 -1.4507
 7954SOL    HW235499   0.533   2.300   3.311 -0.8589  0.9027  1.7490
 7955SOL     OW35500   3.280   3.211   2.498 -0.1578  0.7097  0.1363
 7955SOL    HW135501   3.197   3.191   2.454  2.5920 -4.0291 -2.8508
 7955SOL    HW235502   3.244   3.208   2.587 -0.9464 -0.0121 -0.2005
 7956SOL     OW35503   0.780   0.896  11.770 -0.1945  0.2827  0.9019
 7956SOL    HW135504   0.831   0.952  11.710 -3.4883  2.4027  0.0716
 7956SOL    HW235505   0.825   0.914  11.852  1.1713 -0.9773  0.4280
 7957SOL     OW35506   2.159   2.841  14.693  0.3171  0.0588  0.0564
 7957SOL    HW135507   2.233   2.893  14.661 -0.2544  1.2345  0.6239
 7957SOL    HW235508   2.130   2.811  14.607  1.4316  1.7551 -0.9252
 7958SOL     OW35509   1.281   4.514   7.218  0.1570  0.3019 -0.1438
 7958SOL    HW135510   1.223   4.579   7.257 -0.6365 -0.7994  0.5110
 7958SOL    HW235511   1.361   4.561   7.196 -0.4115  1.2767 -0.1283
 7959SOL     OW35512   2.541   4.458   5.847  0.4423 -0.4815  0.0518
 7959SOL    HW135513   2.571   4.370   5.868 -2.0246 -1.5787 -0.9562
 7959SOL    HW235514   2.618   4.512   5.865 -0.5343  0.8443  0.3163
 7960SOL     OW35515   3.510   2.435   2.301  0.4156 -0.2339  0.0587
 7960SOL    HW135516   3.525   2.342   2.316 -0.8760 -0.4947 -0.2456
 7960SOL    HW235517   3.424   2.434   2.260  0.2194 -0.7119  0.4790
 7961SOL     OW35518   2.175   0.963   8.598  0.4256 -0.4261 -0.0035
 7961SOL    HW135519   2.247   0.999   8.545  0.8883  0.6634  1.3824
 7961SOL    HW235520   2.197   1.002   8.682 -1.0487 -2.1205  1.1740
 7962SOL     OW35521   2.515   1.853   7.169  0.1173 -0.4152 -0.2699
 7962SOL    HW135522   2.591   1.906   7.190  0.4283 -1.6097  1.6751
 7962SOL    HW235523   2.460   1.917   7.124 -0.1996 -1.4501 -1.3425
 7963SOL     OW35524   2.041   0.967   8.239 -0.3275 -0.0708 -0.5859
 7963SOL    HW135525   2.075   0.950   8.327 -1.3113  1.3944  0.0622
 7963SOL    HW235526   2.012   1.057   8.248 -3.1444 -0.9777 -0.5479
 7964SOL     OW35527   2.895   3.794  14.471  0.0035  0.6733  0.3729
 7964SOL    HW135528   2.837   3.857  14.516 -1.1944  0.3733 -0.7628
 7964SOL    HW235529   2.857   3.713  14.505  1.9565 -0.3289  0.1515
 7965SOL     OW35530   0.333   1.726  10.534  0.0340 -0.1597  0.0028
 7965SOL    HW135531   0.409   1.785  10.534 -1.1727  1.4218 -0.2480
 7965SOL    HW235532   0.348   1.670  10.458  0.0337  2.1125 -1.6755
 7966SOL     OW35533   3.586   1.636   3.065 -0.7089  0.1285  0.1108
 7966SOL    HW135534   3.620   1.569   3.005  0.7710  1.2988 -0.3404
 7966SOL    HW235535   3.670   1.660   3.103 -0.0789 -0.7692 -0.7053
 7967SOL     OW35536   2.010   0.178   2.533  0.4777  0.4178  0.0505
 7967SOL    HW135537   1.932   0.129   2.559  1.7949 -0.8659  1.5896
 7967SOL    HW235538   1.976   0.222   2.455  0.1930 -1.0686 -0.6589
 7968SOL     OW35539   1.799   2.867  16.391 -0.0963 -0.4293 -0.5558
 7968SOL    HW135540   1.792   2.773  16.372  0.5830 -1.1026  2.6278
 7968SOL    HW235541   1.803   2.904  16.303  0.0600  0.1063 -0.3203
 7969SOL     OW35542   2.201   3.238  11.829 -0.1979  0.3335 -0.3645
 7969SOL    HW135543   2.157   3.154  11.840 -0.4303  0.1994 -2.2697
 7969SOL    HW235544   2.132   3.296  11.861  0.3893  0.5932  0.4400
 7970SOL     OW35545   3.133   2.741  12.856 -0.2835  0.6242  0.0191
 7970SOL    HW135546   3.085   2.738  12.773  1.0905  2.0627 -0.8334
 7970SOL    HW235547   3.153   2.834  12.861  2.6217 -0.2093  4.2140
 7971SOL     OW35548   4.165   3.140   7.963  0.4197 -0.1468 -0.6698
 7971SOL    HW135549   4.219   3.126   7.885  3.7643 -1.0275  1.8018
 7971SOL    HW235550   4.137   3.049   7.969  0.7003 -0.2409 -0.7746
 7972SOL     OW35551   3.248   0.018   4.145  0.4629 -0.3680 -0.5241
 7972SOL    HW135552   3.271   0.049   4.058  0.3265  0.1077 -0.3925
 7972SOL    HW235553   3.206   0.098   4.176  0.8577  0.1985 -1.4822
 7973SOL     OW35554   3.531   4.733   7.272  0.5059  0.4310 -0.0328
 7973SOL    HW135555   3.525   4.641   7.299  2.8123 -0.0776 -1.2524
 7973SOL    HW235556   3.608   4.731   7.216 -0.8715  0.3113 -1.9297
 7974SOL     OW35557   0.214   2.016  13.534 -0.6675 -0.6827 -0.3678
 7974SOL    HW135558   0.308   2.014  13.519 -1.0220  1.9011 -2.8934
 7974SOL    HW235559   0.204   1.987  13.625  1.8058 -1.2496 -0.2940
 7975SOL     OW35560   2.754   0.740   9.755  0.2498  0.0387 -0.2460
 7975SOL    HW135561   2.757   0.835   9.762  2.5711 -0.0622  0.3224
 7975SOL    HW235562   2.837   0.712   9.795 -0.7226  0.9710  2.3943
 7976SOL     OW35563   3.541   2.502   3.358 -0.2461  0.1961 -0.2881
 7976SOL    HW135564   3.542   2.409   3.381  0.7556 -0.4061 -2.8381
 7976SOL    HW235565   3.600   2.500   3.283 -0.5528  2.1143 -0.5787
 7977SOL     OW35566   1.464   4.248  10.866 -0.6966  0.3325 -0.4861
 7977SOL    HW135567   1.546   4.269  10.822 -0.7562  0.2008 -0.6621
 7977SOL    HW235568   1.444   4.329  10.914 -0.1332  0.4801 -0.5048
 7978SOL     OW35569   3.088   2.281   4.594  0.8805 -0.5823 -0.0512
 7978SOL    HW135570   3.138   2.304   4.672  0.7341 -0.3305 -0.0302
 7978SOL    HW235571   3.014   2.336   4.620  0.6849 -0.0888 -1.6037
 7979SOL     OW35572   0.741   4.026   2.758  0.2779 -0.6390  0.0460
 7979SOL    HW135573   0.781   3.939   2.757 -0.5436 -1.0394  1.2783
 7979SOL    HW235574   0.783   4.065   2.682 -1.9532  2.9392  0.6767
 7980SOL     OW35575   2.238   2.881   6.758 -0.7485 -0.1561  0.3463
 7980SOL    HW135576   2.170   2.917   6.814 -1.5260 -0.9100 -0.1168
 7980SOL    HW235577   2.196   2.796   6.746 -0.5052 -0.4362  1.5028
 7981SOL     OW35578   3.105   4.462   7.545  0.4359 -0.1214 -0.3262
 7981SOL    HW135579   3.162   4.537   7.562  1.0876 -0.4662 -1.0204
 7981SOL    HW235580   3.110   4.418   7.630  0.4028 -0.5423 -0.5417
 7982SOL     OW35581   0.508   2.309   7.979  0.3701 -0.0695  0.6040
 7982SOL    HW135582   0.562   2.235   8.005  2.8369  2.0122  1.4957
 7982SOL    HW235583   0.553   2.353   7.906 -0.2203 -0.1794  0.1773
 7983SOL     OW35584   4.217   0.682   2.324  0.2107  0.2358 -0.2646
 7983SOL    HW135585   4.173   0.598   2.311  0.6031 -0.2485  1.6639
 7983SOL    HW235586   4.258   0.691   2.238 -1.1006 -1.5280 -1.0629
 7984SOL     OW35587   2.455   1.156   9.579  0.3198 -0.2903 -0.3996
 7984SOL    HW135588   2.477   1.248   9.567  1.1889 -0.3307  0.8844
 7984SOL    HW235589   2.446   1.122   9.489  0.3519 -1.0098 -0.1342
 7985SOL     OW35590   2.504   4.278  14.992 -0.4891 -0.1628 -0.1672
 7985SOL    HW135591   2.481   4.221  15.066  2.4249 -0.5983  0.4023
 7985SOL    HW235592   2.431   4.339  14.998 -0.3583  0.2653 -3.0927
 7986SOL     OW35593   4.031   1.199   7.136 -0.3235  0.3632  0.0273
 7986SOL    HW135594   3.962   1.263   7.155 -0.6611 -0.8812  3.0757
 7986SOL    HW235595   4.079   1.237   7.062  1.8377 -1.1025  0.6697
 7987SOL     OW35596   4.726   1.546   5.556  0.5006  0.5191 -0.7510
 7987SOL    HW135597   4.644   1.596   5.550  0.3956  0.5894  1.4685
 7987SOL    HW235598   0.015   1.534   5.464 -1.5790  0.4118 -1.3223
 7988SOL     OW35599   0.839   1.097   5.367 -0.2712  0.1382  0.1680
 7988SOL    HW135600   0.751   1.132   5.375 -0.6483 -0.8322  0.2702
 7988SOL    HW235601   0.824   1.041   5.291 -0.6027 -0.8217  0.9271
 7989SOL     OW35602   2.224   3.755   6.357 -0.5680 -0.1014  0.2371
 7989SOL    HW135603   2.181   3.771   6.441  2.2438  1.5414  1.3311
 7989SOL    HW235604   2.147   3.778   6.303 -0.9598 -0.2341  0.7394
 7990SOL     OW35605   2.579   0.555  11.554 -0.4015 -0.2838  0.7494
 7990SOL    HW135606   2.620   0.554  11.640 -0.0767 -0.8823  0.5795
 7990SOL    HW235607   2.620   0.479  11.515  0.7332  1.0094 -0.5606
 7991SOL     OW35608   1.822   3.531   6.684  0.1909 -0.7141 -0.2910
 7991SOL    HW135609   1.883   3.601   6.659 -1.4537  1.1670  0.9414
 7991SOL    HW235610   1.879   3.457   6.703  0.8153 -0.7493 -2.3322
 7992SOL     OW35611   0.969   3.389   8.347  0.3098 -0.4096  0.1046
 7992SOL    HW135612   0.898   3.443   8.382  1.3229  0.1631  1.2703
 7992SOL    HW235613   1.033   3.455   8.321  0.2754 -0.4099  0.0174
 7993SOL     OW35614   2.008   0.795   2.753  0.8421 -0.2579  0.2090
 7993SOL    HW135615   1.998   0.769   2.662 -0.8772  0.8194  0.0945
 7993SOL    HW235616   1.915   0.805   2.772  1.0030 -2.6503  2.2190
 7994SOL     OW35617   4.240   4.328   4.586 -0.2860 -0.1904 -0.1530
 7994SOL    HW135618   4.160   4.381   4.586  0.4050  0.8650 -0.4731
 7994SOL    HW235619   4.314   4.371   4.630  0.6621 -0.9429 -1.0169
 7995SOL     OW35620   2.613   4.304   7.250  0.3698  0.1764 -0.0762
 7995SOL    HW135621   2.675   4.284   7.180  1.1486  2.8513 -0.1633
 7995SOL    HW235622   2.567   4.383   7.222  0.7588  0.1106 -0.8928
 7996SOL     OW35623   1.118   1.074   2.858 -0.4772 -0.5217  0.5705
 7996SOL    HW135624   1.152   1.163   2.852 -1.7206 -0.1456 -0.9211
 7996SOL    HW235625   1.188   1.011   2.839 -0.5822 -0.0828 -1.2517
 7997SOL     OW35626   4.355   2.750   9.101 -0.2259  0.0238 -0.2207
 7997SOL    HW135627   4.401   2.767   9.019 -3.1676  0.2769 -1.8016
 7997SOL    HW235628   4.384   2.660   9.115 -2.8034 -0.5378  1.5502
 7998SOL     OW35629   4.255   4.701  16.778  0.0140 -0.4098 -0.7404
 7998SOL    HW135630   4.340   4.661  16.759 -0.8411 -1.2359 -2.9287
 7998SOL    HW235631   4.264   4.718  16.871  0.1857 -1.3111 -0.5896
 7999SOL     OW35632   1.317   3.297   9.256  0.2115  0.4179  0.2912
 7999SOL    HW135633   1.284   3.209   9.234  1.4463  0.1315 -0.3862
 7999SOL    HW235634   1.408   3.276   9.274  0.3636  0.6738 -0.1913
 8000SOL     OW35635   4.639   0.020   5.385 -0.4522  0.5331  0.4953
 8000SOL    HW135636   4.654   4.697   5.459 -0.9391  0.4188  0.4975
 8000SOL    HW235637   4.586   0.095   5.412  0.8339  0.4574  3.2168
 8001SOL     OW35638   0.401   2.313   2.402 -0.1121  0.2217  0.6018
 8001SOL    HW135639   0.344   2.260   2.458 -0.0970 -1.2007 -0.7542
 8001SOL    HW235640   0.367   2.282   2.319 -1.3894  2.6679  0.2267
 8002SOL     OW35641   4.057   1.874   6.536  0.0691 -0.4858  0.3931
 8002SOL    HW135642   4.092   1.894   6.449  0.0651 -1.4189  0.1810
 8002SOL    HW235643   3.972   1.837   6.513  0.0530 -0.5602  0.5702
 8003SOL     OW35644   1.921   1.540   3.583  0.1878 -0.1174  0.3469
 8003SOL    HW135645   1.915   1.635   3.599  2.1140 -0.0146  0.4090
 8003SOL    HW235646   1.875   1.514   3.504 -1.2196 -1.1457  1.4992
 8004SOL     OW35647   4.164   0.100  10.790 -0.2509 -0.0377  0.2738
 8004SOL    HW135648   4.111   0.172  10.823 -0.9772 -0.2908 -0.3318
 8004SOL    HW235649   4.112   0.084  10.711  1.5353  1.0986 -1.1373
 8005SOL     OW35650   4.551   2.744   0.081  0.4078 -0.3835 -0.1958
 8005SOL    HW135651   4.476   2.686   0.074  1.2824 -1.4403 -0.9392
 8005SOL    HW235652   4.553   2.784  17.738 -0.7568  0.3316  0.1100
 8006SOL     OW35653   1.078   4.416   7.067  0.4852  0.7291  0.3002
 8006SOL    HW135654   1.016   4.347   7.089  0.3925  0.3826 -1.0566
 8006SOL    HW235655   1.130   4.429   7.147  1.6190  2.5511 -0.7424
 8007SOL     OW35656   1.703   3.493  13.646 -0.3826  0.0114 -0.4906
 8007SOL    HW135657   1.742   3.551  13.580  0.6196 -0.2354 -0.1182
 8007SOL    HW235658   1.719   3.404  13.613 -0.5138 -0.6458  1.2317
 8008SOL     OW35659   0.897   4.274   9.120  0.4866  0.0517  0.6206
 8008SOL    HW135660   0.897   4.230   9.205  0.1846  2.1298  1.7049
 8008SOL    HW235661   0.986   4.298   9.096  0.2629  1.1789  0.9105
 8009SOL     OW35662   0.219   2.304  15.640 -0.6402 -0.5502  0.0497
 8009SOL    HW135663   0.137   2.287  15.593 -1.7759 -0.6044  2.0345
 8009SOL    HW235664   0.254   2.388  15.612  0.2595 -0.8437  0.2999
 8010SOL     OW35665   4.270   2.425   3.054 -0.3909 -0.0601 -0.0660
 8010SOL    HW135666   4.192   2.480   3.054 -2.0738 -2.4739  1.4947
 8010SOL    HW235667   4.338   2.485   3.084  0.7404 -1.4943  0.2056
 8011SOL     OW35668   1.346   2.862   4.452  0.2419  0.0661 -0.9307
 8011SOL    HW135669   1.319   2.806   4.524  0.3790  0.1757 -0.7922
 8011SOL    HW235670   1.265   2.912   4.445  0.7189  1.2012  1.4184
 8012SOL     OW35671   0.547   3.399   0.218  0.1632  0.4748  0.5933
 8012SOL    HW135672   0.481   3.334   0.240  1.0948 -0.5901  0.2204
 8012SOL    HW235673   0.545   3.392   0.122  1.2011 -1.4922  0.7358
 8013SOL     OW35674   0.899   2.970  17.037 -0.2064  0.2854 -0.3904
 8013SOL    HW135675   0.965   3.038  17.026  0.7095 -0.6373 -0.6412
 8013SOL    HW235676   0.938   2.925  17.112  2.0977  0.4484 -1.5010
 8014SOL     OW35677   1.180   1.855   3.603  0.0234  0.3354 -0.0248
 8014SOL    HW135678   1.094   1.890   3.625 -0.7817 -1.9929  0.5837
 8014SOL    HW235679   1.209   1.850   3.694 -0.3100 -0.2205  0.0497
 8015SOL     OW35680   1.048   3.644   9.550 -0.3473  0.3427  0.1122
 8015SOL    HW135681   1.064   3.554   9.579  1.4189  0.4064 -0.6151
 8015SOL    HW235682   1.041   3.623   9.456  0.6356 -1.6226  0.4696
 8016SOL     OW35683   1.181   0.109   5.901  0.2469  0.0272 -0.5004
 8016SOL    HW135684   1.200   0.101   5.808  1.0213 -1.4784 -0.2151
 8016SOL    HW235685   1.223   0.032   5.938 -0.9869 -0.1933  0.4631
 8017SOL     OW35686   2.562   1.201   7.445 -0.2196 -0.2698  0.5002
 8017SOL    HW135687   2.612   1.262   7.391  1.1671 -0.9878  0.9957
 8017SOL    HW235688   2.522   1.152   7.373  0.1242 -2.4589  1.8267
 8018SOL     OW35689   0.393   3.945   7.126  0.1463  0.6625 -0.1945
 8018SOL    HW135690   0.327   3.978   7.064  0.6575  1.3034 -0.3986
 8018SOL    HW235691   0.388   4.019   7.186  3.1040  1.0513 -0.4225
 8019SOL     OW35692   0.415   1.760   8.628 -0.1306 -0.4739 -0.0719
 8019SOL    HW135693   0.380   1.704   8.558 -2.6463  0.3648  0.5104
 8019SOL    HW235694   0.490   1.788   8.575  0.6244 -3.1774 -0.4428
 8020SOL     OW35695   4.192   4.568   3.804 -0.7223 -0.0866 -0.5065
 8020SOL    HW135696   4.232   4.614   3.878  1.8320 -0.9328 -1.3454
 8020SOL    HW235697   4.122   4.516   3.842 -1.8133  1.5742 -0.2242
 8021SOL     OW35698   3.151   0.055  17.029 -0.1331 -0.3538 -0.4740
 8021SOL    HW135699   3.164   0.077  16.937  0.9165  1.8669  0.2197
 8021SOL    HW235700   3.141   4.697  17.015 -3.0616 -0.1142 -0.1693
 8022SOL     OW35701   1.894   4.714  12.455  0.3071 -0.1064 -0.1730
 8022SOL    HW135702   1.928   4.625  12.459  0.9623  0.2947  3.1032
 8022SOL    HW235703   1.903   0.017  12.542  1.1642  0.2159 -0.4058
 8023SOL     OW35704   1.563   0.011   9.640 -0.4880 -0.3766 -0.2745
 8023SOL    HW135705   1.595   0.099   9.620  0.5285 -0.4552  1.0155
 8023SOL    HW235706   1.648   4.712   9.666 -0.7976 -1.2200 -0.4235
 8024SOL     OW35707   1.852   2.453   7.071 -0.7246  0.2741  0.1686
 8024SOL    HW135708   1.811   2.509   7.137 -2.8025  1.6010 -2.2348
 8024SOL    HW235709   1.797   2.375   7.072 -1.1473  0.5701  0.2373
 8025SOL     OW35710   2.834   0.841   2.548  0.1400 -0.3016  0.1642
 8025SOL    HW135711   2.766   0.907   2.539  2.1052  1.7486  0.3327
 8025SOL    HW235712   2.916   0.891   2.547 -1.7235  2.6820 -1.0445
 8026SOL     OW35713   2.787   1.579   4.741  0.1475  0.3019 -0.0414
 8026SOL    HW135714   2.821   1.581   4.652  2.8808  1.8857  1.0140
 8026SOL    HW235715   2.807   1.487   4.760  1.4505  0.1753 -2.0211
 8027SOL     OW35716   2.110   2.083   3.320 -0.0951  0.0843  0.0780
 8027SOL    HW135717   2.094   2.174   3.297 -0.3364  0.1397  0.4774
 8027SOL    HW235718   2.151   2.058   3.237  0.4226  0.0918  0.3280
 8028SOL     OW35719   1.898   0.700  13.718  0.3708 -0.0461 -0.4344
 8028SOL    HW135720   1.855   0.645  13.653  0.5302  3.0099 -3.0903
 8028SOL    HW235721   1.853   0.784  13.713 -0.5385 -0.4054  1.5056
 8029SOL     OW35722   0.559   4.696  17.492  0.3580  0.2617  0.3219
 8029SOL    HW135723   0.522   4.732  17.573  2.4829 -1.2198  1.9495
 8029SOL    HW235724   0.480   4.649  17.466  0.5558  0.2697 -0.2807
 8030SOL     OW35725   4.010   2.444   3.321  0.2863  0.3426  0.2863
 8030SOL    HW135726   4.057   2.455   3.238  2.4680  0.4964  1.5502
 8030SOL    HW235727   4.015   2.349   3.326  0.0408  0.3709  1.1668
 8031SOL     OW35728   1.941   4.153   6.206 -0.2547 -0.0370 -1.0397
 8031SOL    HW135729   1.931   4.072   6.157  2.3023 -0.0516 -1.5382
 8031SOL    HW235730   1.886   4.130   6.281 -1.0154 -0.1198 -1.6254
 8032SOL     OW35731   2.422   3.762   3.522 -0.2135  0.1211  0.2083
 8032SOL    HW135732   2.430   3.853   3.494  2.3535 -0.5705 -1.3863
 8032SOL    HW235733   2.481   3.758   3.597 -1.0744  2.2447  1.0054
 8033SOL     OW35734   4.291   3.200  11.557  0.4903  0.5108  0.2895
 8033SOL    HW135735   4.246   3.242  11.631  1.6386 -0.4558  1.5473
 8033SOL    HW235736   4.212   3.163  11.517 -0.2498  2.1071  0.2669
 8034SOL     OW35737   4.277   2.238   9.334 -0.1617 -0.3691  0.3741
 8034SOL    HW135738   4.259   2.280   9.418  4.1478  0.7854  0.7234
 8034SOL    HW235739   4.367   2.205   9.341 -0.0311 -0.1901 -0.4220
 8035SOL     OW35740   0.534   1.294   7.810  0.6636 -0.2031  0.1191
 8035SOL    HW135741   0.510   1.312   7.719 -0.9146  1.2747  0.8222
 8035SOL    HW235742   0.453   1.326   7.851  0.4666  0.9426 -1.1500
 8036SOL     OW35743   0.074   3.221   2.163 -0.1657 -0.0256  0.1693
 8036SOL    HW135744   0.096   3.307   2.127  0.8013 -0.9544 -1.4615
 8036SOL    HW235745   0.053   3.180   2.079 -0.5104 -0.9576  0.7107
 8037SOL     OW35746   0.133   0.164   6.772 -0.3314 -0.2635 -0.1807
 8037SOL    HW135747   0.054   0.129   6.731  0.4837 -0.9166 -1.1841
 8037SOL    HW235748   0.098   0.247   6.804 -1.9741 -0.1274 -2.3918
 8038SOL     OW35749   3.131   0.640   4.757 -0.2711 -0.2151 -0.0396
 8038SOL    HW135750   3.035   0.637   4.752 -0.4501  3.5126  1.0143
 8038SOL    HW235751   3.149   0.697   4.682  1.1495 -1.2949 -0.5133
 8039SOL     OW35752   2.275   1.255   9.862  0.5569  0.1980  0.0533
 8039SOL    HW135753   2.276   1.273   9.956  0.4103  0.3293  0.0298
 8039SOL    HW235754   2.338   1.183   9.858  0.0248 -0.3907  1.8764
 8040SOL     OW35755   3.991   2.346  11.556 -0.3073  0.2402 -0.2691
 8040SOL    HW135756   4.019   2.254  11.549 -0.1057  0.2239  0.7436
 8040SOL    HW235757   3.930   2.347  11.483 -0.6802 -1.3793  0.0239
 8041SOL     OW35758   2.552   4.050   8.136  0.0824  0.5396 -0.1520
 8041SOL    HW135759   2.523   4.023   8.049 -2.5080  1.4065  0.4430
 8041SOL    HW235760   2.641   4.072   8.108 -0.3263  2.4755  0.0190
 8042SOL     OW35761   3.031   0.504   7.716  0.5240 -0.5666  0.6829
 8042SOL    HW135762   3.097   0.435   7.706  1.7751  0.4655  1.8969
 8042SOL    HW235763   2.961   0.484   7.653 -1.1329 -0.3056  2.4623
 8043SOL     OW35764   4.528   0.549   9.144  0.6291 -0.3247  0.5364
 8043SOL    HW135765   4.531   0.512   9.056 -1.0971  1.6505 -0.3182
 8043SOL    HW235766   4.615   0.534   9.182  1.8001  0.6120 -1.7553
 8044SOL     OW35767   0.442   0.909  11.946  0.4835 -0.1286 -0.4668
 8044SOL    HW135768   0.471   0.836  11.889  1.6533  0.2448 -0.3523
 8044SOL    HW235769   0.471   0.876  12.031  2.1724  2.0209 -0.2136
 8045SOL     OW35770   0.831   2.212   4.899  0.0112 -0.1424 -0.6969
 8045SOL    HW135771   0.907   2.163   4.929  1.5512  2.9062  0.3769
 8045SOL    HW235772   0.801   2.153   4.830  2.1580 -0.1442 -1.6193
 8046SOL     OW35773   4.254   0.850   5.546 -0.1134  0.3656  0.1372
 8046SOL    HW135774   4.246   0.828   5.639  0.4399 -0.2006  0.0489
 8046SOL    HW235775   4.333   0.903   5.539 -0.2437  0.5371 -0.0335
 8047SOL     OW35776   0.543   3.484   4.781 -0.2050 -0.6265  0.0420
 8047SOL    HW135777   0.604   3.543   4.825  0.1725 -1.2868  0.4035
 8047SOL    HW235778   0.611   3.423   4.754 -0.2028 -2.2240  3.7472
 8048SOL     OW35779   4.514   1.452   6.570  0.3677 -0.1865  0.6082
 8048SOL    HW135780   4.549   1.526   6.521 -0.1929 -0.1079  0.3295
 8048SOL    HW235781   4.442   1.495   6.616  0.7408 -0.3229  1.3236
 8049SOL     OW35782   4.655   2.994   5.817  0.2570  0.0015 -0.2569
 8049SOL    HW135783   4.688   3.064   5.873 -2.5536  1.0361  0.1286
 8049SOL    HW235784   4.598   3.039   5.755  0.4623  0.0535 -0.4073
 8050SOL     OW35785   0.357   3.754   5.185 -0.1201 -0.0159  0.4307
 8050SOL    HW135786   0.425   3.769   5.119 -3.1323 -1.7385 -3.1004
 8050SOL    HW235787   0.333   3.844   5.204  0.0714  0.5212 -1.7919
 8051SOL     OW35788   1.669   0.129   7.388  0.2489 -0.0445 -0.0670
 8051SOL    HW135789   1.682   0.055   7.328 -0.0947 -0.0250 -0.1667
 8051SOL    HW235790   1.730   0.105   7.457  0.0452  0.3352  0.2405
 8052SOL     OW35791   2.352   4.164  11.908  0.1153  0.0602  0.0338
 8052SOL    HW135792   2.346   4.185  11.815  3.2888  1.1465  0.0633
 8052SOL    HW235793   2.445   4.183  11.923 -0.5394  2.6883  0.7136
 8053SOL     OW35794   0.192   3.301   3.214 -0.4204 -0.0937 -0.3363
 8053SOL    HW135795   0.134   3.336   3.147  0.6935  2.1112 -0.1351
 8053SOL    HW235796   0.271   3.289   3.162 -0.2766 -0.9299  0.0719
 8054SOL     OW35797   0.123   0.612  11.212  0.3780 -0.0735  0.0179
 8054SOL    HW135798   0.120   0.699  11.173  0.7826  1.1314  2.7422
 8054SOL    HW235799   0.081   0.613  11.297  2.3198 -0.2932  0.9846
 8055SOL     OW35800   2.252   3.478   2.946  0.1126  0.2429 -0.2648
 8055SOL    HW135801   2.177   3.502   3.001 -0.6349 -0.0112 -1.1801
 8055SOL    HW235802   2.235   3.501   2.855  0.3762 -1.0504 -0.6406
 8056SOL     OW35803   3.084   1.153  16.957 -0.0345 -0.6684  0.4934
 8056SOL    HW135804   3.023   1.079  16.953  0.1178 -0.8097  0.7679
 8056SOL    HW235805   3.027   1.222  16.991 -0.3818 -1.8501  2.3173
 8057SOL     OW35806   4.178   2.844   2.422  0.5488  0.0497 -0.1703
 8057SOL    HW135807   4.264   2.884   2.409  0.8190 -1.3650 -2.7062
 8057SOL    HW235808   4.152   2.827   2.332  1.1434 -0.8172 -0.1841
 8058SOL     OW35809   0.367   0.460   5.678 -0.6521 -0.1576 -0.8348
 8058SOL    HW135810   0.353   0.432   5.769  1.7788 -0.5321 -0.5783
 8058SOL    HW235811   0.396   0.374   5.647  2.6460 -0.8897  4.2192
 8059SOL     OW35812   2.727   2.814   0.877  0.3009  0.2089 -0.3484
 8059SOL    HW135813   2.669   2.742   0.852  1.0627 -0.5885  0.1638
 8059SOL    HW235814   2.668   2.863   0.933  0.1472  0.1097 -0.4234
 8060SOL     OW35815   4.700   3.332   1.872  0.2479  0.0400  0.5775
 8060SOL    HW135816   4.605   3.322   1.865  0.4017 -2.3688  2.0411
 8060SOL    HW235817   4.728   3.372   1.790 -3.1362 -0.3089 -0.7245
 8061SOL     OW35818   0.077   4.062  15.266  0.3654  0.3543 -0.5647
 8061SOL    HW135819   0.036   4.061  15.352  0.3388 -1.9015 -0.6054
 8061SOL    HW235820   0.016   4.124  15.225  3.0538  1.0272 -3.5547
 8062SOL     OW35821   4.728   4.462  14.819  0.3306  0.0536  0.0785
 8062SOL    HW135822   4.713   4.377  14.778  1.4114 -1.0430  1.9542
 8062SOL    HW235823   4.648   4.511  14.798 -1.5934 -0.9162  4.9688
 8063SOL     OW35824   2.465   4.066   5.617  0.1071  0.1691  0.2285
 8063SOL    HW135825   2.513   4.091   5.538 -0.9909  1.0126 -0.1757
 8063SOL    HW235826   2.387   4.043   5.565  2.0553  0.9879 -3.0717
 8064SOL     OW35827   1.940   1.264   5.102 -1.0714  0.1425  0.1117
 8064SOL    HW135828   2.010   1.248   5.166 -0.7266  0.8636 -0.0828
 8064SOL    HW235829   1.892   1.182   5.105 -2.1767  0.8512  1.6184
 8065SOL     OW35830   0.518   3.514   8.595 -0.0867 -0.6455  0.2688
 8065SOL    HW135831   0.521   3.437   8.651  1.3115 -1.2572 -0.6512
 8065SOL    HW235832   0.428   3.538   8.616  0.1999  0.4525  0.2769
 8066SOL     OW35833   1.717   2.220  12.001 -0.3764 -0.1360  0.0172
 8066SOL    HW135834   1.684   2.261  12.081  3.0702 -0.0777  1.4188
 8066SOL    HW235835   1.638   2.210  11.949 -0.7277  1.5920  0.2078
 8067SOL     OW35836   3.678   0.629  16.327 -0.0234  0.4768  0.4411
 8067SOL    HW135837   3.592   0.587  16.328  1.9785 -3.6630  0.7053
 8067SOL    HW235838   3.646   0.714  16.358  0.8518  1.3037 -0.9627
 8068SOL     OW35839   2.091   0.554   6.712  0.3255 -0.1112  0.7161
 8068SOL    HW135840   2.002   0.541   6.678  0.1819 -0.5087  1.2383
 8068SOL    HW235841   2.121   0.632   6.664  0.9754 -1.1231 -0.5111
 8069SOL     OW35842   4.591   1.876  13.497 -0.2283  0.1855  0.3114
 8069SOL    HW135843   4.603   1.889  13.591 -1.3725  0.3423  0.4373
 8069SOL    HW235844   4.593   1.965  13.464  0.2197 -0.3930 -1.1900
 8070SOL     OW35845   1.949   2.575   9.047  0.1542  0.5454  0.3265
 8070SOL    HW135846   1.886   2.512   9.012  2.1406  0.0147 -2.2399
 8070SOL    HW235847   1.959   2.536   9.134 -1.8646 -2.2682 -0.6931
 8071SOL     OW35848   2.801   4.409   4.337  0.4627  0.2183 -0.0057
 8071SOL    HW135849   2.868   4.344   4.357  1.2437  1.1290  0.2832
 8071SOL    HW235850   2.861   4.480   4.314  1.4765 -0.0508  1.8663
 8072SOL     OW35851   0.477   0.559   3.780 -0.0219  0.0942  0.0731
 8072SOL    HW135852   0.484   0.566   3.685 -0.6117  0.4495  0.0545
 8072SOL    HW235853   0.561   0.597   3.805 -0.1141 -0.8612  1.8738
 8073SOL     OW35854   1.947   1.516   2.422  0.7163  0.0465  0.0387
 8073SOL    HW135855   1.966   1.422   2.419  1.6332  0.2229  0.4979
 8073SOL    HW235856   1.897   1.523   2.503 -1.4541  1.5601 -1.4363
 8074SOL     OW35857   0.799   4.617  12.953  0.1651 -0.0344 -0.1966
 8074SOL    HW135858   0.892   4.598  12.944 -0.1340 -1.2666 -0.8324
 8074SOL    HW235859   0.792   4.638  13.046  0.3715  0.5891 -0.3287
 8075SOL     OW35860   3.575   0.277   2.393 -0.1097 -0.5603  0.3919
 8075SOL    HW135861   3.499   0.330   2.369 -1.1692 -1.3240  2.0955
 8075SOL    HW235862   3.620   0.283   2.309  0.4199  0.1139  0.7147
 8076SOL     OW35863   0.358   3.947   4.822  0.2798  0.3557  0.2650
 8076SOL    HW135864   0.446   3.986   4.814  0.5491 -0.2785  0.1484
 8076SOL    HW235865   0.300   4.022   4.833 -0.6214 -0.5317  1.5873
 8077SOL     OW35866   2.799   1.293   4.736 -0.6391 -0.2371 -1.1831
 8077SOL    HW135867   2.823   1.204   4.761  0.9361  0.3788 -0.5176
 8077SOL    HW235868   2.852   1.291   4.656 -0.0335 -0.6140 -0.7720
 8078SOL     OW35869   1.805   0.174   2.029  0.0316  0.3900  0.4712
 8078SOL    HW135870   1.752   0.177   1.949 -0.4369 -0.6963  0.7357
 8078SOL    HW235871   1.891   0.193   1.992  0.2957  2.2100  2.0464
 8079SOL     OW35872   3.889   3.609  16.091 -0.8002 -0.5427 -0.0541
 8079SOL    HW135873   3.937   3.685  16.123 -0.2302 -0.5733 -0.8264
 8079SOL    HW235874   3.831   3.645  16.024  1.5836  0.3072 -1.6617
 8080SOL     OW35875   2.323   0.098   9.173 -0.1588 -0.7292  0.2852
 8080SOL    HW135876   2.387   0.168   9.187 -1.3216  0.1502  1.2157
 8080SOL    HW235877   2.354   0.064   9.089  0.3918  0.9071 -0.1850
 8081SOL     OW35878   2.157   2.126   9.862  0.3021  0.2132 -0.5051
 8081SOL    HW135879   2.247   2.152   9.882  0.6463  0.0220 -1.8101
 8081SOL    HW235880   2.116   2.207   9.833 -0.1554  0.0306 -0.3744
 8082SOL     OW35881   4.528   4.583   7.594 -0.3691  0.1593  0.4684
 8082SOL    HW135882   4.587   4.510   7.612 -1.6627 -1.1125 -0.4109
 8082SOL    HW235883   4.525   4.628   7.679 -0.5598  0.2003  0.4385
 8083SOL     OW35884   4.456   4.099   2.677 -0.0514  0.6036  0.2184
 8083SOL    HW135885   4.524   4.040   2.644 -1.2792 -1.1928  0.8962
 8083SOL    HW235886   4.478   4.135   2.763 -1.4166 -0.2769  0.9557
 8084SOL     OW35887   1.703   1.677   2.916  0.3356 -0.5822 -0.1326
 8084SOL    HW135888   1.786   1.655   2.958  1.2979 -1.1876 -2.3516
 8084SOL    HW235889   1.639   1.661   2.985 -0.8077 -0.1731 -1.1087
 8085SOL     OW35890   2.757   2.157   8.313 -0.3542 -0.3078  0.1895
 8085SOL    HW135891   2.726   2.082   8.261 -2.0948  0.6860 -0.1754
 8085SOL    HW235892   2.789   2.214   8.243 -0.1690  2.2440  2.3754
 8086SOL     OW35893   2.947   3.362   3.239 -0.2994  0.6649 -0.2249
 8086SOL    HW135894   2.955   3.375   3.333 -2.7450 -0.9736  0.2149
 8086SOL    HW235895   2.898   3.441   3.216  1.5472  1.6128 -0.9364
 8087SOL     OW35896   0.582   3.988   6.714  0.4825  0.5989  0.1591
 8087SOL    HW135897   0.609   4.013   6.626 -2.1788  0.2534 -0.7670
 8087SOL    HW235898   0.565   3.894   6.708 -0.2348  0.6525  1.2025
 8088SOL     OW35899   2.027   2.875   0.247  0.4498  0.1586 -0.4314
 8088SOL    HW135900   1.971   2.841   0.177  1.6520 -1.4108 -0.6213
 8088SOL    HW235901   1.971   2.944   0.285  1.2877  2.3282 -3.1833
 8089SOL     OW35902   1.992   1.892   2.590  0.7833  0.0430 -0.2219
 8089SOL    HW135903   2.003   1.810   2.638 -2.2473 -0.0403  0.3141
 8089SOL    HW235904   1.926   1.885   2.521 -0.8108  1.0852  1.1918
 8090SOL     OW35905   0.177   3.777   6.986  0.0341 -0.0438  0.0431
 8090SOL    HW135906   0.126   3.705   6.949  1.2828 -0.6922 -0.4131
 8090SOL    HW235907   0.265   3.741   6.976  0.5007  1.0217  0.3497
 8091SOL     OW35908   2.817   0.745  10.621  0.1633  0.0337  0.0174
 8091SOL    HW135909   2.870   0.792  10.686  1.0552  1.2600 -1.5915
 8091SOL    HW235910   2.776   0.681  10.680  1.4280 -1.1694 -0.4050
 8092SOL     OW35911   3.821   1.810  14.685 -0.4160  0.3007 -0.2317
 8092SOL    HW135912   3.769   1.846  14.757 -0.1785 -1.6002  0.8980
 8092SOL    HW235913   3.756   1.814  14.615 -0.8561  1.1309  0.2256
 8093SOL     OW35914   0.725   3.862  16.695  0.3832  0.5089  0.0751
 8093SOL    HW135915   0.644   3.913  16.706 -0.1000 -0.1379 -0.4726
 8093SOL    HW235916   0.761   3.871  16.783  0.9093  2.7104 -0.3803
 8094SOL     OW35917   3.997   3.451  12.809  0.0207  0.2234 -0.5515
 8094SOL    HW135918   3.923   3.509  12.828 -1.2691 -0.7170 -2.6650
 8094SOL    HW235919   4.040   3.454  12.895 -0.5943  0.7054 -0.2589
 8095SOL     OW35920   1.295   3.968   4.437  0.0178 -0.0936 -0.5565
 8095SOL    HW135921   1.229   3.898   4.444 -0.4235  0.2869 -0.8662
 8095SOL    HW235922   1.231   4.039   4.436 -0.3132 -0.3742  1.6125
 8096SOL     OW35923   2.054   3.605   3.106 -0.2786 -0.6338  0.1775
 8096SOL    HW135924   1.975   3.647   3.071  1.0080  0.7660 -1.0692
 8096SOL    HW235925   2.064   3.633   3.197 -1.2316 -1.5860  0.5834
 8097SOL     OW35926   2.020   4.484   4.399  0.4002 -0.5853 -0.0766
 8097SOL    HW135927   2.079   4.410   4.388  1.6402  0.6163 -1.5817
 8097SOL    HW235928   2.023   4.502   4.305  1.6667  0.6418  0.1917
 8098SOL     OW35929   4.432   1.471   7.460  0.3244 -0.3688 -0.3780
 8098SOL    HW135930   4.481   1.467   7.378  0.0343  1.2665 -0.6302
 8098SOL    HW235931   4.414   1.564   7.474  0.8985 -0.3928  0.5435
 8099SOL     OW35932   0.734   4.123   4.114  0.0925  0.2030 -0.4720
 8099SOL    HW135933   0.703   4.213   4.108 -1.5155 -0.2791  0.6876
 8099SOL    HW235934   0.828   4.139   4.112  0.1427 -0.1781 -1.3347
 8100SOL     OW35935   3.285   2.381   0.695  0.3730  0.0084 -0.2732
 8100SOL    HW135936   3.338   2.457   0.721 -1.2136  0.9881  0.1238
 8100SOL    HW235937   3.234   2.410   0.619  1.0873  0.9852 -0.3823
 8101SOL     OW35938   3.042   1.251   4.642 -0.5463  0.2181  0.1842
 8101SOL    HW135939   3.089   1.332   4.664  1.5214 -0.5594 -1.3359
 8101SOL    HW235940   3.105   1.195   4.688 -0.2845  1.8765  1.8456
 8102SOL     OW35941   4.464   0.211  13.951  0.9050 -0.4854 -0.5749
 8102SOL    HW135942   4.530   0.199  14.019 -1.0372  0.4397  1.4824
 8102SOL    HW235943   4.457   0.305  13.934  2.1784 -0.1889  0.5191
 8103SOL     OW35944   0.510   2.641   4.246 -0.0303 -0.1550  0.1950
 8103SOL    HW135945   0.499   2.572   4.312 -2.5566 -0.8814 -0.9970
 8103SOL    HW235946   0.422   2.678   4.253 -0.4754 -0.6338 -2.8972
 8104SOL     OW35947   1.274   1.896   8.045 -0.3139 -0.5049  0.3313
 8104SOL    HW135948   1.340   1.870   7.981 -2.5725  0.0012 -2.1924
 8104SOL    HW235949   1.238   1.818   8.088 -0.4841 -0.6821 -0.1290
 8105SOL     OW35950   2.775   0.404   5.795 -0.5836  0.1660  0.1634
 8105SOL    HW135951   2.789   0.331   5.856 -3.1377 -1.3128 -1.0121
 8105SOL    HW235952   2.831   0.475   5.825 -0.0429 -0.4975  0.7247
 8106SOL     OW35953   1.294   1.432   4.791 -0.2816  0.6065  0.3726
 8106SOL    HW135954   1.360   1.420   4.724 -0.0942  0.8107  0.5191
 8106SOL    HW235955   1.341   1.500   4.839  0.2019  1.9569 -2.0461
 8107SOL     OW35956   3.065   3.669   3.241 -0.1392 -0.3550 -0.2617
 8107SOL    HW135957   2.984   3.626   3.215  0.2658 -0.9022 -0.6239
 8107SOL    HW235958   3.098   3.627   3.321  1.1412 -1.3642 -1.3070
 8108SOL     OW35959   4.506   2.636   5.779  0.2820 -1.0104 -0.0258
 8108SOL    HW135960   4.419   2.638   5.819  1.1478 -1.3079  1.8758
 8108SOL    HW235961   4.560   2.674   5.848  0.1658 -1.9677  0.5970
 8109SOL     OW35962   0.138   3.947   3.749 -0.3613  0.1310  0.7194
 8109SOL    HW135963   0.042   3.944   3.747 -0.3861  1.3283  0.2197
 8109SOL    HW235964   0.155   3.950   3.843  0.4473  1.1690  0.5330
 8110SOL     OW35965   4.187   3.563   1.719 -0.0250  0.3424 -0.5200
 8110SOL    HW135966   4.121   3.604   1.775  1.1068  2.3198 -0.6319
 8110SOL    HW235967   4.266   3.594   1.765 -1.2493 -0.9867  2.4868
 8111SOL     OW35968   2.400   3.605   6.624  0.0918  0.4400 -0.5938
 8111SOL    HW135969   2.419   3.629   6.533  2.9626 -0.6130 -0.2719
 8111SOL    HW235970   2.386   3.695   6.654  0.0706 -0.1359  1.1572
 8112SOL     OW35971   0.185   3.107   7.421  0.3949 -0.3366  0.5669
 8112SOL    HW135972   0.193   3.186   7.367  1.1001 -0.5581  0.3505
 8112SOL    HW235973   0.192   3.045   7.348 -0.3849  0.7346 -0.4184
 8113SOL     OW35974   1.607   4.538  11.464  0.0868 -0.3453 -0.4147
 8113SOL    HW135975   1.571   4.610  11.411 -1.3924 -0.1183  0.8960
 8113SOL    HW235976   1.573   4.467  11.409 -2.9170  2.2271 -1.9403
 8114SOL     OW35977   3.881   2.232  11.831 -0.1692  0.4481  0.0864
 8114SOL    HW135978   3.840   2.306  11.876  1.7320  2.5605 -1.6621
 8114SOL    HW235979   3.867   2.248  11.738 -1.4252 -0.4965  0.1129
 8115SOL     OW35980   3.277   4.322   7.957  0.0631 -0.1500  0.2547
 8115SOL    HW135981   3.217   4.290   7.890  1.2710 -2.3072  0.1819
 8115SOL    HW235982   3.276   4.246   8.016 -1.0128  0.1329  0.5970
 8116SOL     OW35983   1.166   2.549   3.108  0.6708 -0.2536 -0.0753
 8116SOL    HW135984   1.089   2.596   3.138  2.1766  0.5586  2.5212
 8116SOL    HW235985   1.223   2.623   3.088  0.7750 -0.4263 -0.4226
 8117SOL     OW35986   2.463   0.541  14.905  0.3504  0.0767  0.3609
 8117SOL    HW135987   2.370   0.518  14.903  0.3576  0.0076  0.7952
 8117SOL    HW235988   2.488   0.546  14.813  1.1171  1.9652  0.6707
 8118SOL     OW35989   3.120   1.509   2.958  0.3909 -0.1070 -0.5025
 8118SOL    HW135990   3.069   1.590   2.967 -0.5509 -0.5731 -1.6148
 8118SOL    HW235991   3.192   1.551   2.911  0.8051  1.1728  1.2771
 8119SOL     OW35992   1.503   3.885   9.440 -0.5765 -0.4733 -0.6002
 8119SOL    HW135993   1.536   3.970   9.412  0.7958 -0.8014  0.0191
 8119SOL    HW235994   1.481   3.906   9.531  1.8172  1.8730 -0.5563
 8120SOL     OW35995   1.667   1.799  11.163 -0.4904 -0.5844 -0.2893
 8120SOL    HW135996   1.725   1.763  11.096 -1.6010 -0.1388 -1.4932
 8120SOL    HW235997   1.718   1.789  11.244  1.4505  0.8062 -1.3582
 8121SOL     OW35998   2.708   1.412   5.709 -0.4187  0.1285 -0.8009
 8121SOL    HW135999   2.767   1.475   5.667 -1.4693 -0.0578 -2.6062
 8121SOL    HW236000   2.662   1.395   5.627 -1.3925  2.5228 -0.7739
 8122SOL     OW36001   0.486   2.899   0.719 -0.6202 -0.1027 -0.0417
 8122SOL    HW136002   0.512   2.964   0.654 -1.4985 -0.4950 -0.7844
 8122SOL    HW236003   0.390   2.900   0.714 -0.5371  2.1829 -1.3758
 8123SOL     OW36004   0.919   1.391   8.551  0.1287 -0.3953 -0.2579
 8123SOL    HW136005   0.916   1.351   8.464  2.7240 -2.2242  0.4980
 8123SOL    HW236006   0.983   1.335   8.595 -2.1280 -1.0315  2.2466
 8124SOL     OW36007   0.768   4.282   2.130  0.5641 -0.4399 -0.0117
 8124SOL    HW136008   0.770   4.191   2.098 -0.9052 -0.9664  1.4235
 8124SOL    HW236009   0.827   4.306   2.058  2.0600 -0.0731  1.3404
 8125SOL     OW36010   3.635   1.976   5.051 -0.3614 -0.7738  0.2566
 8125SOL    HW136011   3.616   1.983   4.958  0.4622  1.5790  0.2655
 8125SOL    HW236012   3.655   1.883   5.050  1.5308 -0.3916  2.0726
 8126SOL     OW36013   1.132   3.612   9.922 -0.7343  0.1918 -0.3885
 8126SOL    HW136014   1.158   3.685   9.866  1.0893  1.2597  1.9084
 8126SOL    HW236015   1.145   3.647  10.009  2.3279 -1.4865 -0.1754
 8127SOL     OW36016   1.767   3.147   1.001 -0.2070 -0.5377 -0.2644
 8127SOL    HW136017   1.856   3.180   0.987 -0.2821 -0.6305 -0.9872
 8127SOL    HW236018   1.720   3.195   0.933 -1.1267  0.0098  0.7588
 8128SOL     OW36019   2.320   1.883   2.803 -0.3026  0.6097  0.1485
 8128SOL    HW136020   2.298   1.826   2.877  0.8448 -0.2201 -0.1423
 8128SOL    HW236021   2.242   1.938   2.809  0.7317  2.0310  0.6115
 8129SOL     OW36022   0.050   2.506   4.512 -0.5292 -0.0725  0.1628
 8129SOL    HW136023   0.134   2.515   4.466 -0.0477 -1.0589  0.8611
 8129SOL    HW236024   0.075   2.428   4.561 -1.0251 -1.2085 -1.4346
 8130SOL     OW36025   0.830   1.508  15.619 -0.1465  0.4078 -0.6698
 8130SOL    HW136026   0.745   1.466  15.627  1.0394 -1.5220  1.6355
 8130SOL    HW236027   0.804   1.586  15.570 -1.1972 -0.3020 -1.2266
 8131SOL     OW36028   1.076   0.042  16.925 -0.0904  0.3528  0.2152
 8131SOL    HW136029   1.072   4.689  16.891 -0.0734  0.2053  0.5963
 8131SOL    HW236030   1.130   0.028  17.002 -0.3252  2.0070  0.6789
 8132SOL     OW36031   0.801   3.027  16.366  0.0799  0.0558  0.0918
 8132SOL    HW136032   0.870   3.052  16.305 -2.4453  1.2664 -2.2032
 8132SOL    HW236033   0.781   3.110  16.408  1.9191  0.5995 -0.1065
 8133SOL     OW36034   2.949   2.111   5.806  0.6128 -0.5381 -0.3465
 8133SOL    HW136035   3.036   2.150   5.799 -0.2555  1.4967  0.4337
 8133SOL    HW236036   2.909   2.138   5.889 -0.3050 -0.5094 -0.7969
 8134SOL     OW36037   0.975   2.202  11.529  0.4547 -0.6093 -0.3075
 8134SOL    HW136038   0.956   2.134  11.593 -1.0759  1.1397  1.0728
 8134SOL    HW236039   0.952   2.274  11.587 -0.8839 -0.9013 -0.4620
 8135SOL     OW36040   1.357   0.642   8.444  0.1537 -0.2755  0.0158
 8135SOL    HW136041   1.386   0.579   8.377  2.9738  0.2184  0.7453
 8135SOL    HW236042   1.340   0.719   8.389  0.3542 -0.2954 -0.0754
 8136SOL     OW36043   2.071   0.399   3.009 -0.5690  0.3882 -0.2917
 8136SOL    HW136044   2.062   0.305   2.999  0.4799  0.2051  0.5417
 8136SOL    HW236045   2.101   0.417   2.921  1.9310  1.2745  0.7582
 8137SOL     OW36046   1.521   0.710  15.914  0.4274  0.3396  0.3942
 8137SOL    HW136047   1.533   0.802  15.892 -3.2895  0.4151 -1.3384
 8137SOL    HW236048   1.545   0.707  16.006  1.6335 -0.8300  0.0477
 8138SOL     OW36049   0.292   3.534   5.707 -0.2595 -0.3818 -1.0593
 8138SOL    HW136050   0.285   3.560   5.616 -1.1682 -0.4181 -0.9929
 8138SOL    HW236051   0.244   3.452   5.698  0.2029 -1.0574  2.5371
 8139SOL     OW36052   4.337   2.153  16.968  0.4692  0.3992  0.1012
 8139SOL    HW136053   4.418   2.134  16.922 -0.0662  1.4623 -1.2858
 8139SOL    HW236054   4.267   2.142  16.903 -1.4283  1.6379  1.9409
 8140SOL     OW36055   4.138   1.429   7.664 -0.6545  0.7409 -0.5563
 8140SOL    HW136056   4.165   1.495   7.599 -1.4501 -1.7477 -3.4123
 8140SOL    HW236057   4.081   1.485   7.718 -0.4885  1.3711 -1.0373
 8141SOL     OW36058   2.015   0.688   1.571  0.2448  0.3945 -0.3503
 8141SOL    HW136059   2.080   0.618   1.577 -1.2828 -1.1291 -1.5940
 8141SOL    HW236060   1.964   0.665   1.493  1.9191  1.6739 -1.8375
 8142SOL     OW36061   4.125   2.900   7.324  0.5999  0.6668 -0.5595
 8142SOL    HW136062   4.062   2.883   7.254 -0.5756  2.3921  0.0859
 8142SOL    HW236063   4.168   2.972   7.279  2.4633  0.3619  0.7474
 8143SOL     OW36064   2.567   3.527   6.812 -0.4964  0.2617  0.0580
 8143SOL    HW136065   2.510   3.556   6.740  3.2700  0.5677 -2.7751
 8143SOL    HW236066   2.560   3.605   6.866  1.6220 -0.0218  0.7276
 8144SOL     OW36067   3.801   2.910   4.576  0.2028 -0.5084  0.3917
 8144SOL    HW136068   3.743   2.986   4.569  0.2599 -0.5845 -0.8777
 8144SOL    HW236069   3.796   2.906   4.672  1.0555 -0.6078  0.4322
 8145SOL     OW36070   3.589   0.175   9.381  0.2831 -0.6325  0.0185
 8145SOL    HW136071   3.603   0.202   9.290  2.3131  0.2221  0.5701
 8145SOL    HW236072   3.582   0.262   9.421 -2.2225 -0.7702 -0.1695
 8146SOL     OW36073   0.864   3.058   2.024  0.1528  0.1791  0.1885
 8146SOL    HW136074   0.817   3.066   1.941 -0.0862 -0.1681  0.2880
 8146SOL    HW236075   0.786   3.036   2.076  0.2006  0.6656  0.4585
 8147SOL     OW36076   1.644   2.747   2.697  0.2541  0.0094 -0.4953
 8147SOL    HW136077   1.724   2.696   2.680  0.3869 -0.0394  0.2925
 8147SOL    HW236078   1.634   2.730   2.791 -0.6427  0.2499 -0.5552
 8148SOL     OW36079   2.684   1.001   2.826  0.1322 -0.0234 -0.4500
 8148SOL    HW136080   2.624   0.929   2.850  2.1560 -1.2954  0.8348
 8148SOL    HW236081   2.767   0.980   2.868  0.2962 -0.7341 -1.1106
 8149SOL     OW36082   3.107   4.026   1.280  0.0447  0.3120  1.1519
 8149SOL    HW136083   3.013   4.010   1.280  0.3179 -1.3018  1.8958
 8149SOL    HW236084   3.117   4.059   1.369  0.8835  0.3850  1.0346
 8150SOL     OW36085   0.570   0.779  16.129  0.0552  0.3718  0.0171
 8150SOL    HW136086   0.532   0.836  16.061  0.7488  2.2206  1.1818
 8150SOL    HW236087   0.633   0.843  16.162 -1.6446  2.2306 -0.3082
 8151SOL     OW36088   4.725   1.674   6.529  0.5890  0.0492 -0.7646
 8151SOL    HW136089   0.036   1.754   6.508 -0.6165  1.2358  0.9700
 8151SOL    HW236090   0.046   1.642   6.598 -0.2372  0.3080  0.0589
 8152SOL     OW36091   3.190   3.473  17.535 -0.0071 -0.4228  0.6230
 8152SOL    HW136092   3.138   3.428  17.468  1.7828  0.1668 -1.1740
 8152SOL    HW236093   3.201   3.412  17.607 -0.7651  0.7646  1.7397
 8153SOL     OW36094   0.586   3.817   7.908 -0.0275 -0.2667  0.1216
 8153SOL    HW136095   0.535   3.748   7.865  0.6085 -0.6691  0.0094
 8153SOL    HW236096   0.644   3.768   7.967 -0.2041 -0.6931 -0.0550
 8154SOL     OW36097   1.733   2.135  17.552 -0.1854 -0.3271 -0.0606
 8154SOL    HW136098   1.744   2.127  17.647 -1.3532  2.1017  0.2932
 8154SOL    HW236099   1.709   2.228  17.551  0.4673 -0.1433  2.2614
 8155SOL     OW36100   1.147   3.734   7.856 -0.0091 -0.5720  0.1132
 8155SOL    HW136101   1.242   3.734   7.864  0.0471  1.4319 -0.5800
 8155SOL    HW236102   1.129   3.824   7.829  1.6585 -0.5660 -0.9421
 8156SOL     OW36103   2.489   1.471   6.183 -0.1482  1.0279 -0.3127
 8156SOL    HW136104   2.449   1.386   6.167 -0.5911  1.3615 -0.9582
 8156SOL    HW236105   2.512   1.500   6.094 -1.9591  0.7042 -0.8749
 8157SOL     OW36106   3.136   3.933  15.206  0.3991 -0.1308  0.3055
 8157SOL    HW136107   3.171   3.978  15.129  3.4474 -1.3320  0.9961
 8157SOL    HW236108   3.068   3.995  15.233 -1.1693 -2.2821  1.3105
 8158SOL     OW36109   3.715   0.300   3.294  0.3893 -0.0189 -0.0792
 8158SOL    HW136110   3.675   0.331   3.213  3.4173 -0.0894 -1.6011
 8158SOL    HW236111   3.670   0.359   3.355  1.3079  0.5226  0.0823
 8159SOL     OW36112   4.264   1.549   8.215  0.7033  0.1512 -0.3364
 8159SOL    HW136113   4.283   1.514   8.128 -0.5866  1.2056 -1.0468
 8159SOL    HW236114   4.209   1.625   8.196 -1.0438 -1.1629 -0.5765
 8160SOL     OW36115   4.293   1.035   2.611 -0.1582  0.7695 -0.4308
 8160SOL    HW136116   4.386   1.019   2.627 -0.7383  0.3263  2.4004
 8160SOL    HW236117   4.301   1.094   2.536 -1.2987  1.3661 -0.0648
 8161SOL     OW36118   1.663   0.521   2.166 -0.0305 -0.1233  0.3915
 8161SOL    HW136119   1.737   0.581   2.154  0.7035 -0.8106  1.4369
 8161SOL    HW236120   1.624   0.521   2.079  2.2019  0.3986 -0.6129
 8162SOL     OW36121   2.204   1.104  11.914  0.1764  0.4225  0.2416
 8162SOL    HW136122   2.255   1.040  11.865  0.8404  1.5445 -0.5290
 8162SOL    HW236123   2.191   1.063  12.000  0.3188  0.5544  0.3256
 8163SOL     OW36124   4.206   2.113  15.540  0.2171  0.1441 -0.4727
 8163SOL    HW136125   4.171   2.157  15.462 -2.2267  0.0205  0.5455
 8163SOL    HW236126   4.149   2.036  15.535  0.5392  0.0009 -1.9856
 8164SOL     OW36127   3.302   2.467   2.093 -0.3800 -0.3728  0.5040
 8164SOL    HW136128   3.308   2.393   2.032  3.0112  0.1682  0.1745
 8164SOL    HW236129   3.359   2.532   2.052 -0.7330 -0.8588 -0.7816
 8165SOL     OW36130   2.604   2.974   5.438  0.4144 -0.2182  0.2240
 8165SOL    HW136131   2.514   2.973   5.405  0.6463 -0.4836 -0.3984
 8165SOL    HW236132   2.588   2.955   5.530 -3.0999 -0.1262 -0.3310
 8166SOL     OW36133   3.283   0.775   9.725  0.5893 -0.9865  0.1761
 8166SOL    HW136134   3.211   0.837   9.737  1.6469  0.2085  0.3428
 8166SOL    HW236135   3.265   0.741   9.638 -1.6571 -1.4282  0.8025
 8167SOL     OW36136   1.229   4.677   2.508  0.2832 -0.0090  0.8297
 8167SOL    HW136137   1.260   4.588   2.490  1.8950  1.1237 -1.9716
 8167SOL    HW236138   1.270   4.709   2.588  0.6609 -0.6136  0.8782
 8168SOL     OW36139   2.353   2.486   7.270  0.1410 -0.7953  0.1256
 8168SOL    HW136140   2.383   2.520   7.355 -0.9883  4.5536 -1.5785
 8168SOL    HW236141   2.384   2.556   7.212 -0.1807  0.8348  1.9149
 8169SOL     OW36142   2.504   4.395   1.191 -0.1413 -0.0957 -0.1664
 8169SOL    HW136143   2.429   4.435   1.233 -0.0415  0.4339 -0.4874
 8169SOL    HW236144   2.490   4.306   1.224 -1.0717 -0.3551 -1.2466
 8170SOL     OW36145   3.612   0.274   7.014 -0.2140  0.0985 -0.2336
 8170SOL    HW136146   3.568   0.304   7.094 -0.5865  0.3415 -0.5286
 8170SOL    HW236147   3.669   0.348   6.996 -1.4062  1.1461  0.2435
 8171SOL     OW36148   2.039   1.907   9.755  0.7125  0.1500  0.3054
 8171SOL    HW136149   2.019   1.972   9.687 -2.2434 -0.9792  0.0903
 8171SOL    HW236150   2.093   1.965   9.809 -2.4558  2.3065  1.1828
 8172SOL     OW36151   1.742   4.614   4.381  0.6424  0.5849  0.0405
 8172SOL    HW136152   1.719   4.667   4.305 -0.5263  0.0452  0.0263
 8172SOL    HW236153   1.820   4.666   4.403  1.7729 -0.3574 -1.7309
 8173SOL     OW36154   3.699   4.528  17.315 -0.2360 -0.1680 -0.2107
 8173SOL    HW136155   3.678   4.620  17.330 -2.9543 -0.9428  0.7548
 8173SOL    HW236156   3.703   4.490  17.403 -2.0616 -1.0584 -0.5132
 8174SOL     OW36157   2.040   1.229   6.243 -0.2283 -0.1845 -0.3877
 8174SOL    HW136158   1.978   1.181   6.188  0.9186 -0.9919 -0.9672
 8174SOL    HW236159   2.092   1.273   6.176  0.1530  2.0733  1.3822
 8175SOL     OW36160   3.247   1.705   6.789 -0.2090 -0.1534  0.1634
 8175SOL    HW136161   3.192   1.783   6.778  1.8404  1.3247  0.3632
 8175SOL    HW236162   3.258   1.684   6.696  0.5446  1.2054 -0.0581
 8176SOL     OW36163   1.149   4.444  14.128 -0.2859  0.2286 -0.2345
 8176SOL    HW136164   1.233   4.466  14.169 -0.3767 -0.0323  0.0876
 8176SOL    HW236165   1.119   4.532  14.102  3.5416  1.0031 -1.9989
 8177SOL     OW36166   3.909   0.824   3.568 -0.0890  0.1132  0.4650
 8177SOL    HW136167   3.929   0.763   3.497 -1.7756  1.4042 -1.1357
 8177SOL    HW236168   3.839   0.876   3.529 -0.4137 -0.7341 -0.0843
 8178SOL     OW36169   1.684   0.139  15.799 -0.6031 -0.2037  0.1268
 8178SOL    HW136170   1.709   0.210  15.858 -2.3729  0.0821  0.5204
 8178SOL    HW236171   1.677   0.193  15.721  0.6767 -1.9690 -1.2142
 8179SOL     OW36172   4.170   2.076   6.985 -0.3108 -0.1621 -0.2354
 8179SOL    HW136173   4.088   2.034   6.959 -0.8103  0.3068  0.5980
 8179SOL    HW236174   4.146   2.140   7.052  1.4276 -0.4826  0.6926
 8180SOL     OW36175   3.859   0.308  13.490  0.8614 -0.0904  0.2203
 8180SOL    HW136176   3.778   0.310  13.542  0.7765 -0.0993  0.0892
 8180SOL    HW236177   3.835   0.296  13.398  2.0828 -0.5528 -0.0349
 8181SOL     OW36178   0.680   0.558   7.140 -0.4390  0.3382  0.1463
 8181SOL    HW136179   0.705   0.611   7.065 -0.1147 -1.5627 -1.1129
 8181SOL    HW236180   0.602   0.608   7.164 -1.1740 -0.1230 -1.2722
 8182SOL     OW36181   3.366   0.853   6.581  0.0448  0.1043 -0.3074
 8182SOL    HW136182   3.353   0.945   6.602  2.2044 -0.1473  2.1796
 8182SOL    HW236183   3.349   0.808   6.664  0.3532  1.7923  0.6580
 8183SOL     OW36184   4.722   0.224   7.419 -0.2056  0.3136 -0.8129
 8183SOL    HW136185   4.722   0.128   7.428  0.2625  0.4409  0.4895
 8183SOL    HW236186   4.637   0.258   7.447  0.5308  0.7441  0.8637
 8184SOL     OW36187   1.090   1.550  15.892  0.5071 -0.0997 -0.3203
 8184SOL    HW136188   1.084   1.620  15.827  0.3077  1.5342  1.4533
 8184SOL    HW236189   1.115   1.603  15.967 -0.9061  2.6442 -1.7753
 8185SOL     OW36190   0.976   1.038   3.577  0.3829 -0.1172  0.3139
 8185SOL    HW136191   0.983   1.114   3.519 -1.5913  0.0291  0.2745
 8185SOL    HW236192   1.062   1.053   3.618 -0.0446  0.4259  1.0085
 8186SOL     OW36193   3.941   1.408   9.307  0.0677  0.2412  1.0711
 8186SOL    HW136194   3.990   1.437   9.230 -2.9260  0.8841 -0.6273
 8186SOL    HW236195   4.017   1.416   9.363  0.2006 -1.5391  1.1256
 8187SOL     OW36196   3.298   1.314   3.481 -0.2065  0.9533 -0.7534
 8187SOL    HW136197   3.202   1.313   3.480 -0.2109 -0.0805  0.9596
 8187SOL    HW236198   3.317   1.234   3.531  0.7093  1.6326 -0.0405
 8188SOL     OW36199   0.591   3.066   6.444 -0.5634 -0.3855 -0.2708
 8188SOL    HW136200   0.576   2.993   6.504 -0.1984 -0.6451 -0.4965
 8188SOL    HW236201   0.677   3.050   6.405 -0.4841 -1.2772  0.2837
 8189SOL     OW36202   3.469   3.020   5.127  0.5230 -0.5283  0.7176
 8189SOL    HW136203   3.494   2.929   5.114  1.8661  0.0645 -0.8238
 8189SOL    HW236204   3.418   3.011   5.207  0.2123  2.6596  0.8659
 8190SOL     OW36205   0.757   3.053   7.354  0.7916 -0.6467  0.2460
 8190SOL    HW136206   0.774   3.048   7.260  0.7878  1.0353  0.1617
 8190SOL    HW236207   0.686   2.991   7.371 -2.1721  2.2391 -1.7806
 8191SOL     OW36208   1.024   3.291  11.273 -0.3682  0.8159  0.4795
 8191SOL    HW136209   1.034   3.256  11.185 -1.6750 -0.5554  0.8711
 8191SOL    HW236210   1.026   3.382  11.243  1.4575  0.9517  1.0414
 8192SOL     OW36211   1.234   2.669   0.637 -0.3320 -0.0365 -0.3471
 8192SOL    HW136212   1.166   2.736   0.625 -1.5803 -0.9714  1.3726
 8192SOL    HW236213   1.203   2.618   0.712 -0.0323 -3.3843 -2.4629
 8193SOL     OW36214   0.075   2.938   4.811 -0.0903  0.0183 -0.0907
 8193SOL    HW136215   0.131   3.016   4.811 -0.2528  0.1330 -0.8577
 8193SOL    HW236216   0.027   2.938   4.729 -0.9236  1.5302  0.3996
 8194SOL     OW36217   2.572   3.986  11.765 -0.1786  0.8282  0.0171
 8194SOL    HW136218   2.658   4.007  11.728 -0.1253 -1.5338 -1.1830
 8194SOL    HW236219   2.592   3.959  11.854 -1.7888  0.6363  0.3238
 8195SOL     OW36220   4.703   3.563  14.912 -0.7039 -0.1765 -0.3755
 8195SOL    HW136221   0.054   3.535  14.885  0.2391  2.8135 -0.4218
 8195SOL    HW236222   4.712   3.656  14.890  1.1975 -0.1921  0.2674
 8196SOL     OW36223   1.141   1.861  11.347 -0.0247 -0.1766 -0.1850
 8196SOL    HW136224   1.212   1.831  11.404  1.0225  3.2638  0.2952
 8196SOL    HW236225   1.068   1.854  11.409 -0.4341 -0.2157 -0.6701
 8197SOL     OW36226   2.016   2.674   7.810 -0.0395  0.4101 -0.6520
 8197SOL    HW136227   1.934   2.654   7.765 -0.6394 -1.1145  1.1025
 8197SOL    HW236228   2.088   2.635   7.759 -1.2517  0.0196 -2.0665
 8198SOL     OW36229   0.715   4.602   3.793 -0.1090  0.2390 -0.2218
 8198SOL    HW136230   0.795   4.592   3.742  0.2837  0.9707  0.2597
 8198SOL    HW236231   0.755   4.591   3.879 -0.1439 -1.9137 -0.4844
 8199SOL     OW36232   2.554   0.313   4.197 -0.6925 -0.1100  0.2946
 8199SOL    HW136233   2.577   0.286   4.108  2.7428 -2.5162  1.9372
 8199SOL    HW236234   2.488   0.379   4.176  1.2966  1.3149 -1.5485
 8200SOL     OW36235   2.604   0.033  16.378 -0.0553  0.1514  0.1047
 8200SOL    HW136236   2.511   0.042  16.358  0.2204  2.4007 -0.1947
 8200SOL    HW236237   2.643   0.105  16.328 -0.2425  0.9843  1.1614
 8201SOL     OW36238   1.918   1.700  12.704  0.2297 -0.0201  0.4080
 8201SOL    HW136239   2.006   1.734  12.688 -0.0328  0.4889  0.0299
 8201SOL    HW236240   1.935   1.606  12.706 -0.9483 -0.1926  2.1656
 8202SOL     OW36241   1.789   4.558   3.273 -0.2504  0.6215  0.9128
 8202SOL    HW136242   1.704   4.554   3.318  0.2715  2.9087  2.1323
 8202SOL    HW236243   1.797   4.467   3.247 -4.9013  0.5983 -0.4581
 8203SOL     OW36244   1.340   4.012   9.143 -0.6629  0.2995 -0.5438
 8203SOL    HW136245   1.290   3.931   9.138 -1.3641  0.6459  0.7264
 8203SOL    HW236246   1.349   4.043   9.053  0.9572  0.7262 -0.2456
 8204SOL     OW36247   3.665   2.289   9.413  0.6358  0.3918  0.2073
 8204SOL    HW136248   3.661   2.297   9.508 -0.2154 -2.1776  0.3914
 8204SOL    HW236249   3.652   2.194   9.408  0.1813  0.5276 -1.1542
 8205SOL     OW36250   2.878   1.447  11.310 -0.2966 -0.2044 -1.0793
 8205SOL    HW136251   2.826   1.467  11.388  1.7484 -0.4293  0.3097
 8205SOL    HW236252   2.883   1.530  11.263  0.1864 -0.3889 -1.3551
 8206SOL     OW36253   3.995   4.402  15.286  0.3021 -0.0500 -0.1455
 8206SOL    HW136254   4.043   4.436  15.210  0.5035  0.0777  0.0407
 8206SOL    HW236255   3.946   4.479  15.317  0.1751  0.6096 -1.9724
 8207SOL     OW36256   3.098   2.182   7.684  0.0296 -0.2918  0.5494
 8207SOL    HW136257   3.185   2.144   7.674  0.9817  2.1525 -0.3028
 8207SOL    HW236258   3.064   2.143   7.765  1.0946 -0.0021  1.1320
 8208SOL     OW36259   4.645   3.587   2.284 -0.0505  0.9927 -0.3526
 8208SOL    HW136260   4.684   3.540   2.211  1.3739  0.5245  0.7175
 8208SOL    HW236261   4.559   3.612   2.250 -0.3540 -2.4673 -2.1789
 8209SOL     OW36262   3.253   0.513  12.291  0.0965 -0.4626  0.2210
 8209SOL    HW136263   3.340   0.536  12.260 -0.2985 -0.0303 -0.5632
 8209SOL    HW236264   3.270   0.444  12.355 -1.3514 -2.2007 -1.2762
 8210SOL     OW36265   0.634   3.881   2.174 -0.4021 -0.2736 -0.3515
 8210SOL    HW136266   0.606   3.873   2.083  0.4604  1.8021 -0.8121
 8210SOL    HW236267   0.570   3.947   2.203  0.4083  0.0102  0.8176
 8211SOL     OW36268   4.457   2.659   2.984 -0.7966 -0.0559  0.1436
 8211SOL    HW136269   4.423   2.748   2.985 -1.6719 -0.3952  0.2569
 8211SOL    HW236270   4.437   2.637   2.893 -0.8770  0.0733  0.1312
 8212SOL     OW36271   2.856   0.197   6.264  0.2620 -0.1275  0.4370
 8212SOL    HW136272   2.826   0.268   6.320 -3.5403 -2.3554  1.2647
 8212SOL    HW236273   2.815   0.118   6.301  1.2957 -2.1055 -2.6426
 8213SOL     OW36274   2.622   1.115   1.464  0.0375  0.1191  0.6100
 8213SOL    HW136275   2.527   1.103   1.453  0.2985 -0.7804 -0.7661
 8213SOL    HW236276   2.627   1.162   1.380 -0.7080 -0.6902  0.1044
 8214SOL     OW36277   1.417   4.660   4.013 -0.0930 -0.1820 -0.0471
 8214SOL    HW136278   1.365   4.649   4.093  0.4115 -0.9849  0.1693
 8214SOL    HW236279   1.446   4.569   4.007  1.0962  0.1623  0.6547
 8215SOL     OW36280   2.523   2.007   7.919 -0.0856  0.0965 -0.1179
 8215SOL    HW136281   2.612   2.022   7.889  0.3333 -0.2903  0.9279
 8215SOL    HW236282   2.517   2.073   7.988 -0.0304 -0.2714  0.2405
 8216SOL     OW36283   2.088   4.539  17.174 -0.0002 -0.0419  0.2601
 8216SOL    HW136284   1.994   4.543  17.155  0.1336 -3.1919 -1.1122
 8216SOL    HW236285   2.116   4.630  17.181 -1.3449  0.1218  3.0946
 8217SOL     OW36286   1.291   1.279   5.361  0.3142  0.2786 -0.2340
 8217SOL    HW136287   1.288   1.206   5.423  0.4921  1.1999  0.8719
 8217SOL    HW236288   1.340   1.341   5.415 -1.6376  1.1015  0.5723
 8218SOL     OW36289   4.066   4.732   4.431 -0.0116 -0.6933  0.0441
 8218SOL    HW136290   4.124   4.702   4.361 -0.7707 -0.6113 -0.6213
 8218SOL    HW236291   4.052   4.648   4.474 -1.4773  0.5347  1.9836
 8219SOL     OW36292   2.481   4.557   3.868 -0.1216  0.3142  0.0867
 8219SOL    HW136293   2.566   4.591   3.840 -0.3425 -0.0225 -1.0207
 8219SOL    HW236294   2.444   4.629   3.918 -1.9098 -1.1085  0.7727
 8220SOL     OW36295   4.227   3.904   0.010 -0.4440  0.1965 -0.0963
 8220SOL    HW136296   4.143   3.870   0.041  0.1168 -0.8566  0.2701
 8220SOL    HW236297   4.268   3.949   0.084  3.0486 -0.2284 -1.7856
 8221SOL     OW36298   3.114   2.540  13.049 -0.2797 -0.1294  0.0490
 8221SOL    HW136299   3.189   2.499  13.007  0.9896  0.8537  1.3556
 8221SOL    HW236300   3.112   2.623  13.001  0.8300  0.3691  0.8866
 8222SOL     OW36301   1.278   3.200  11.526 -1.0451  0.2281 -0.0434
 8222SOL    HW136302   1.320   3.243  11.451 -1.4309 -1.2009 -1.0852
 8222SOL    HW236303   1.344   3.194  11.594 -2.8627 -0.2856  1.6890
 8223SOL     OW36304   0.369   2.969  17.586  0.6031  0.1135  1.0405
 8223SOL    HW136305   0.332   3.020  17.514 -0.9058  0.3005  1.9554
 8223SOL    HW236306   0.460   2.972  17.556  0.3583 -0.1893  0.2639
 8224SOL     OW36307   2.100   2.887   1.788 -0.2248 -0.2515  0.0184
 8224SOL    HW136308   2.191   2.863   1.768  0.5809  1.7001  1.4076
 8224SOL    HW236309   2.065   2.815   1.735 -1.5638 -0.2027  0.8687
 8225SOL     OW36310   3.798   2.463   7.170  0.1772 -0.7973  0.1798
 8225SOL    HW136311   3.766   2.500   7.252  1.0091  0.4861 -0.0854
 8225SOL    HW236312   3.892   2.476   7.174 -0.0192  0.2790  1.1807
 8226SOL     OW36313   2.483   0.761  16.973 -0.6389  0.2154  0.1212
 8226SOL    HW136314   2.571   0.793  16.955  0.2920 -1.9583  0.8310
 8226SOL    HW236315   2.491   0.755  17.068 -2.4157  1.0592  0.3332
 8227SOL     OW36316   2.028   3.281   8.905 -0.5173  0.7779 -0.0730
 8227SOL    HW136317   2.068   3.224   8.839 -1.5846 -0.1613  0.0900
 8227SOL    HW236318   2.060   3.366   8.876 -0.3876  1.0039  0.7266
 8228SOL     OW36319   1.205   2.130   9.066  0.1997 -0.0615 -0.2942
 8228SOL    HW136320   1.139   2.064   9.087  0.3625  0.1688  0.9089
 8228SOL    HW236321   1.225   2.185   9.141 -2.2368 -0.4451  0.6436
 8229SOL     OW36322   2.020   0.646   6.981  0.3308 -0.3458 -0.2353
 8229SOL    HW136323   2.064   0.631   6.897 -0.4731  1.3261 -0.9520
 8229SOL    HW236324   1.978   0.562   6.996  0.7542 -0.2900  1.2867
 8230SOL     OW36325   4.368   2.297   7.451 -0.5483  0.0667 -0.2658
 8230SOL    HW136326   4.333   2.235   7.514  0.7544  0.2745  0.6432
 8230SOL    HW236327   4.460   2.290   7.472 -0.7751 -0.0863  0.6529
 8231SOL     OW36328   2.872   4.047   5.962  0.0947  0.0126  1.0265
 8231SOL    HW136329   2.960   4.064   5.995  0.6591  1.1094 -1.0014
 8231SOL    HW236330   2.871   4.098   5.881 -0.9110 -0.6135  0.6472
 8232SOL     OW36331   3.919   0.385   9.259 -0.1164 -0.0021  0.6854
 8232SOL    HW136332   3.846   0.347   9.210 -2.5114  1.3511  3.1934
 8232SOL    HW236333   3.885   0.395   9.347 -4.0068 -2.2191 -0.5524
 8233SOL     OW36334   2.216   0.655   3.092  0.2713 -0.1957 -0.0254
 8233SOL    HW136335   2.187   0.564   3.097  0.7552 -0.2919  0.9437
 8233SOL    HW236336   2.237   0.669   3.184 -4.6573  0.7949  0.9383
 8234SOL     OW36337   2.325   1.932  15.791 -0.0852  0.0443 -0.0391
 8234SOL    HW136338   2.310   2.014  15.838 -0.3143  0.3777 -0.6809
 8234SOL    HW236339   2.236   1.898  15.801 -0.4943  1.3506  0.8225
 8235SOL     OW36340   3.686   3.972   5.011  0.2942 -0.1063  0.1703
 8235SOL    HW136341   3.682   4.063   5.042  3.3477  0.2372 -0.4449
 8235SOL    HW236342   3.778   3.971   4.985  0.0950  1.7087 -0.6216
 8236SOL     OW36343   0.005   1.364   3.001  0.7030 -0.3377  0.0702
 8236SOL    HW136344   4.736   1.338   2.909 -0.8325 -3.9926  1.1830
 8236SOL    HW236345   0.089   1.321   3.020  0.6814  0.0923  1.1553
 8237SOL     OW36346   0.879   1.448   5.905 -0.1855  0.0798  0.0323
 8237SOL    HW136347   0.897   1.510   5.975 -2.5689 -1.1877  1.7743
 8237SOL    HW236348   0.805   1.397   5.938 -0.5436  0.2346 -0.5335
 8238SOL     OW36349   3.397   1.384   4.549 -0.0693  0.6591  0.1260
 8238SOL    HW136350   3.413   1.474   4.520  0.6590  1.4241  2.8906
 8238SOL    HW236351   3.330   1.394   4.617 -0.8853  0.2117 -0.6217
 8239SOL     OW36352   2.265   3.610   5.705  0.1971 -0.0171 -0.2893
 8239SOL    HW136353   2.314   3.690   5.726  0.2007 -0.1538  0.2149
 8239SOL    HW236354   2.240   3.616   5.612 -2.1385  1.0869  0.4192
 8240SOL     OW36355   3.114   0.800   5.785  0.2707 -0.2063  0.5293
 8240SOL    HW136356   3.184   0.865   5.784  0.5292 -0.4817  0.2271
 8240SOL    HW236357   3.169   0.724   5.767 -0.4552  0.0018 -2.5893
 8241SOL     OW36358   3.222   4.216   1.730 -0.2013  0.0777 -0.2963
 8241SOL    HW136359   3.181   4.282   1.673 -1.5101  0.5112  1.1427
 8241SOL    HW236360   3.315   4.224   1.709 -0.0342  1.4026  0.8966
 8242SOL     OW36361   3.359   3.610   1.194 -0.0411 -0.4194  0.3088
 8242SOL    HW136362   3.419   3.539   1.216  0.3005 -0.4336 -0.6751
 8242SOL    HW236363   3.295   3.584   1.261 -1.2909  2.0060  0.0645
 8243SOL     OW36364   2.518   0.387  10.792 -0.5026 -0.1125 -0.5875
 8243SOL    HW136365   2.497   0.473  10.755  0.6831 -0.0160 -1.0258
 8243SOL    HW236366   2.533   0.416  10.882 -2.4881 -0.3919 -0.1566
 8244SOL     OW36367   0.692   1.456   1.536 -0.1817 -0.0682 -0.0322
 8244SOL    HW136368   0.716   1.515   1.608  1.5673 -1.2517  0.3434
 8244SOL    HW236369   0.685   1.371   1.579 -1.9388 -1.1583 -2.4495
 8245SOL     OW36370   2.492   0.553   9.294 -0.4788  0.0406 -0.0842
 8245SOL    HW136371   2.524   0.556   9.385  2.0341 -0.1075 -0.9593
 8245SOL    HW236372   2.467   0.643   9.277  0.8301  0.1939 -1.1790
 8246SOL     OW36373   0.980   3.133   8.775 -0.4486  0.1738  0.1131
 8246SOL    HW136374   1.026   3.093   8.702  0.2765  1.5030 -0.1699
 8246SOL    HW236375   1.029   3.215   8.789 -2.4154  1.0404  1.9834
 8247SOL     OW36376   1.126   0.363   5.016 -0.0559 -0.0149 -0.0783
 8247SOL    HW136377   1.180   0.327   5.086 -1.6396  0.1505  1.2331
 8247SOL    HW236378   1.140   0.457   5.023  0.4976 -0.0474 -0.7284
 8248SOL     OW36379   0.132   3.346   8.729  0.4332  0.5480 -0.6610
 8248SOL    HW136380   0.045   3.365   8.765  0.2698 -0.0728 -0.7211
 8248SOL    HW236381   0.103   3.275   8.672  2.4892 -2.0161  1.4822
 8249SOL     OW36382   3.717   1.006  11.149 -0.2446 -0.3981  0.7982
 8249SOL    HW136383   3.635   1.047  11.175  0.2038 -0.5640  2.4421
 8249SOL    HW236384   3.728   0.945  11.222 -1.6005  1.9282  2.9104
 8250SOL     OW36385   1.806   4.353   5.703  0.0239 -0.2965  0.1816
 8250SOL    HW136386   1.728   4.351   5.759 -0.3148 -0.4429 -0.2974
 8250SOL    HW236387   1.797   4.416   5.631 -1.3373  0.0097  0.6269
 8251SOL     OW36388   2.953   1.202  13.063 -0.0525 -0.1766 -0.1483
 8251SOL    HW136389   2.987   1.287  13.036  0.6880 -0.2334  0.6093
 8251SOL    HW236390   2.920   1.232  13.147 -0.8939 -2.1946  0.2430
 8252SOL     OW36391   2.860   4.494   7.427 -0.2992  0.4264  0.7718
 8252SOL    HW136392   2.949   4.500   7.463  0.4536  0.3649 -1.1117
 8252SOL    HW236393   2.880   4.500   7.334 -0.4283 -0.9865  0.6616
 8253SOL     OW36394   1.645   4.221   1.660  0.2561 -0.1269  0.3527
 8253SOL    HW136395   1.589   4.148   1.686  1.3702 -1.0142  0.2433
 8253SOL    HW236396   1.718   4.201   1.719  1.9517  0.8336 -1.4100
 8254SOL     OW36397   1.372   3.154   0.061 -0.2033 -0.3045 -0.3701
 8254SOL    HW136398   1.402   3.074   0.104  1.2896  0.4296 -0.0413
 8254SOL    HW236399   1.453   3.195   0.031 -0.3735  0.9125  0.8529
 8255SOL     OW36400   2.454   0.056   1.903  0.1816 -0.4245  0.0910
 8255SOL    HW136401   2.508   0.096   1.971 -2.4046  0.6810  1.4898
 8255SOL    HW236402   2.454   4.701   1.931 -1.5628 -0.7157 -0.8992
 8256SOL     OW36403   0.920   4.427   4.937 -0.3833 -0.2635 -0.2885
 8256SOL    HW136404   0.890   4.417   5.027  0.0690  1.0788  0.0117
 8256SOL    HW236405   0.856   4.364   4.903  0.3724 -1.3052  0.1971
 8257SOL     OW36406   3.366   1.419   6.635 -0.1610 -0.2937 -0.0569
 8257SOL    HW136407   3.281   1.463   6.632 -1.4771 -2.7524  1.3275
 8257SOL    HW236408   3.379   1.436   6.542 -0.6927  0.3429 -0.0161
 8258SOL     OW36409   4.251   2.882   0.137  0.1282 -0.5816  0.3475
 8258SOL    HW136410   4.192   2.823   0.182 -1.8341 -0.2735 -1.8032
 8258SOL    HW236411   4.285   2.832   0.062 -0.2032 -0.7447  0.3037
 8259SOL     OW36412   0.818   4.026   5.319  0.3271  0.4175 -0.3083
 8259SOL    HW136413   0.899   4.020   5.267  0.3191 -0.3888 -0.2407
 8259SOL    HW236414   0.795   3.933   5.315 -0.0693  0.4736  0.6116
 8260SOL     OW36415   3.843   4.281   0.504 -0.0875 -0.0098  0.6500
 8260SOL    HW136416   3.842   4.361   0.452 -0.3452  0.0634  0.7682
 8260SOL    HW236417   3.765   4.303   0.554 -0.6805  1.1352 -0.7798
 8261SOL     OW36418   2.390   1.729   8.683 -0.1143  0.4753 -0.5975
 8261SOL    HW136419   2.345   1.804   8.721 -1.1817 -0.6615  0.3818
 8261SOL    HW236420   2.314   1.671   8.679  0.8717 -0.8899  0.0846
 8262SOL     OW36421   2.668   0.303   6.450  0.0660 -0.1286  0.0113
 8262SOL    HW136422   2.579   0.271   6.463 -0.4254  0.6623 -1.4608
 8262SOL    HW236423   2.645   0.385   6.406 -1.6347  0.2227  1.5302
 8263SOL     OW36424   4.177   2.578   8.854  0.9592  0.2197 -0.3305
 8263SOL    HW136425   4.142   2.490   8.854  1.0138  0.1987 -0.4794
 8263SOL    HW236426   4.105   2.617   8.904  0.3756 -0.0351 -0.9736
 8264SOL     OW36427   2.516   3.772   6.427 -0.0255 -0.6504  0.0586
 8264SOL    HW136428   2.590   3.816   6.385 -1.0553  3.4535  2.4819
 8264SOL    HW236429   2.445   3.827   6.393  1.2860  1.2021  0.2511
 8265SOL     OW36430   0.557   1.033  13.046 -0.3503  0.0023 -0.0349
 8265SOL    HW136431   0.554   1.059  13.139  3.5745  0.6695 -0.0869
 8265SOL    HW236432   0.546   1.120  13.008 -1.6799 -0.9230 -1.7610
 8266SOL     OW36433   4.092   1.486   2.833  0.7977  0.2114  0.2523
 8266SOL    HW136434   4.118   1.536   2.911 -0.3607 -1.1474  1.5014
 8266SOL    HW236435   4.150   1.411   2.851 -0.2439 -1.3011 -2.7039
 8267SOL     OW36436   0.001   1.012   7.259  0.1922  0.4804  1.2211
 8267SOL    HW136437   4.713   0.946   7.325 -3.1729  1.4485  0.9277
 8267SOL    HW236438   4.717   1.090   7.310  0.5961  1.0561  0.4850
 8268SOL     OW36439   0.806   0.640   5.055  0.0387  0.4114 -0.2218
 8268SOL    HW136440   0.837   0.572   5.115 -2.3151 -0.5101 -0.0263
 8268SOL    HW236441   0.813   0.590   4.973  0.8649 -1.6824  1.1348
 8269SOL     OW36442   2.692   3.119   6.557  0.1557  0.6020 -0.0536
 8269SOL    HW136443   2.597   3.122   6.558  0.1886  1.4955 -0.0022
 8269SOL    HW236444   2.709   3.142   6.466 -0.3774 -1.5422 -0.7060
 8270SOL     OW36445   1.939   0.930  16.325 -0.0654  0.4369  0.9906
 8270SOL    HW136446   1.846   0.914  16.342 -0.8584  0.9469 -2.7989
 8270SOL    HW236447   1.940   0.903  16.233 -2.6909  0.7729  0.8541
 8271SOL     OW36448   1.161   4.193  15.834 -0.6352 -0.4255  0.2890
 8271SOL    HW136449   1.135   4.254  15.765  3.5463 -1.6069 -2.3332
 8271SOL    HW236450   1.155   4.252  15.908  0.7734 -0.7286  0.6563
 8272SOL     OW36451   3.115   1.062   4.130 -0.1846 -0.1957 -0.1072
 8272SOL    HW136452   3.118   1.152   4.096 -0.5902 -0.5056 -0.9710
 8272SOL    HW236453   3.202   1.044   4.164 -0.6146 -0.9487  0.6077
 8273SOL     OW36454   4.115   1.708   5.506  0.2987  0.2693 -0.0992
 8273SOL    HW136455   4.059   1.631   5.494  0.7309 -0.1501  0.5896
 8273SOL    HW236456   4.172   1.712   5.429 -1.3202 -0.9409 -1.3789
 8274SOL     OW36457   3.489   1.673   4.974 -0.2100 -0.3020  0.2959
 8274SOL    HW136458   3.413   1.616   4.969 -0.0274 -0.5216  0.0226
 8274SOL    HW236459   3.474   1.718   5.058  0.6371 -0.8782  0.7510
 8275SOL     OW36460   3.140   2.831   5.453  0.5105  0.3592 -0.5152
 8275SOL    HW136461   3.186   2.789   5.525  1.1971  1.1304 -0.5057
 8275SOL    HW236462   3.198   2.810   5.381 -1.2634 -2.3729 -1.1435
 8276SOL     OW36463   2.651   1.403   6.557  0.4092 -0.0818  0.5800
 8276SOL    HW136464   2.578   1.462   6.540 -0.5043 -0.7398  2.2127
 8276SOL    HW236465   2.609   1.320   6.534  0.6005  0.0959 -0.4068
 8277SOL     OW36466   3.597   0.841  14.164 -0.0379 -0.3584  0.3418
 8277SOL    HW136467   3.587   0.928  14.203  0.4330 -0.2943  0.3198
 8277SOL    HW236468   3.568   0.861  14.075  1.1836 -1.9889 -0.4220
 8278SOL     OW36469   2.987   3.903   4.736 -0.4389 -0.1157 -0.2389
 8278SOL    HW136470   3.045   3.837   4.772 -0.0983 -1.3374 -3.0608
 8278SOL    HW236471   2.915   3.841   4.721 -0.1730 -0.1187 -1.5326
 8279SOL     OW36472   4.130   3.961   2.021 -0.2255 -0.7160 -0.2381
 8279SOL    HW136473   4.186   4.034   1.993 -1.0429 -0.0359 -0.1129
 8279SOL    HW236474   4.055   4.000   2.065 -0.2138 -1.7211  0.6713
 8280SOL     OW36475   2.109   2.568   8.053 -0.5173  0.1827 -0.0519
 8280SOL    HW136476   2.033   2.616   8.020 -0.8415 -0.5382 -0.3605
 8280SOL    HW236477   2.066   2.485   8.071  0.1609 -0.4375 -1.2771
 8281SOL     OW36478   2.351   0.515   1.022 -0.3770  0.7290  0.4357
 8281SOL    HW136479   2.413   0.567   0.971 -0.4645  0.1475 -0.2652
 8281SOL    HW236480   2.285   0.485   0.958  0.1507  0.8450 -0.1649
 8282SOL     OW36481   0.475   0.802   0.430 -0.3609 -0.1723 -0.1504
 8282SOL    HW136482   0.493   0.891   0.399 -0.7694  0.8126  2.4068
 8282SOL    HW236483   0.401   0.815   0.489 -0.9562 -1.1302 -0.6788
 8283SOL     OW36484   1.267   2.499   3.867 -0.5066 -0.0499  0.4807
 8283SOL    HW136485   1.298   2.490   3.777  1.2375 -0.5278  1.1139
 8283SOL    HW236486   1.175   2.519   3.850  0.2705  2.3608 -0.8967
 8284SOL     OW36487   4.465   1.020   1.731  0.4203  0.9458 -0.0264
 8284SOL    HW136488   4.513   1.037   1.812 -1.2063 -2.2514  1.5934
 8284SOL    HW236489   4.515   0.950   1.688  0.5672  0.0247  1.6494
 8285SOL     OW36490   0.095   2.881   6.543 -0.1861 -0.6489  0.0947
 8285SOL    HW136491   0.042   2.842   6.612 -1.8234  1.0884 -0.1636
 8285SOL    HW236492   0.182   2.888   6.582 -0.6616 -0.0482  1.0702
 8286SOL     OW36493   4.684   4.344  12.651 -0.1517 -0.3339 -0.1789
 8286SOL    HW136494   4.709   4.266  12.701 -1.6650 -2.2526 -2.3873
 8286SOL    HW236495   4.662   4.296  12.571  2.4889 -0.2586 -0.9549
 8287SOL     OW36496   3.868   2.793  12.976  1.2651 -0.1247 -0.0456
 8287SOL    HW136497   3.854   2.725  12.910 -0.2839  0.7789 -0.6557
 8287SOL    HW236498   3.953   2.761  13.006  0.9423 -0.8845  0.0477
 8288SOL     OW36499   3.021   3.717  11.574  0.9763 -0.0758 -0.5895
 8288SOL    HW136500   3.043   3.724  11.481  1.2736  1.6660 -0.3861
 8288SOL    HW236501   3.105   3.692  11.612 -0.7975 -0.5355  3.0106
 8289SOL     OW36502   0.293   1.055   5.968  0.2978 -0.3163  0.3804
 8289SOL    HW136503   0.231   1.087   5.903 -0.0584 -0.5356  0.6133
 8289SOL    HW236504   0.225   1.014   6.021  0.2856  1.2541  1.5840
 8290SOL     OW36505   3.176   0.555   4.146 -0.1611  0.7686 -0.4651
 8290SOL    HW136506   3.181   0.645   4.177  0.3460 -0.3655  2.7852
 8290SOL    HW236507   3.216   0.571   4.061  0.5844  1.3680  0.0004
 8291SOL     OW36508   3.918   0.326   1.423 -0.1974  0.0535 -0.5859
 8291SOL    HW136509   3.962   0.410   1.437 -0.7080  0.0128  1.1876
 8291SOL    HW236510   3.850   0.323   1.490 -0.5483  1.0345 -0.8934
 8292SOL     OW36511   3.931   2.027   4.063 -0.7361 -0.4723 -0.0509
 8292SOL    HW136512   3.966   1.939   4.052  1.4564  0.2142  1.4020
 8292SOL    HW236513   3.900   2.039   3.973  0.1865  1.0562 -0.1878
 8293SOL     OW36514   4.129   3.399   0.612  0.4165  0.2171 -0.5744
 8293SOL    HW136515   4.172   3.318   0.583 -2.1046 -0.8162 -1.4580
 8293SOL    HW236516   4.158   3.410   0.702  1.0966 -2.2975 -0.4623
 8294SOL     OW36517   0.158   2.001   3.118 -0.4628  0.4133 -0.6535
 8294SOL    HW136518   0.118   1.916   3.132  0.6190 -0.0069 -0.0974
 8294SOL    HW236519   0.246   1.974   3.144 -0.3868  0.4862 -0.8290
 8295SOL     OW36520   1.869   1.457   9.104 -0.3997  0.5850 -0.1150
 8295SOL    HW136521   1.936   1.389   9.103 -1.7190 -0.7630  2.3021
 8295SOL    HW236522   1.833   1.460   9.193  1.1230 -0.4535  0.5366
 8296SOL     OW36523   3.048   2.706   2.753 -0.0584  0.3779  0.0107
 8296SOL    HW136524   3.018   2.670   2.669 -0.0901 -0.3926  0.3555
 8296SOL    HW236525   3.112   2.766   2.714  0.4463  0.3309  0.7677
 8297SOL     OW36526   2.896   3.771   4.357 -0.3336  0.1927 -0.0696
 8297SOL    HW136527   2.943   3.716   4.419  0.2044  0.6246 -0.0961
 8297SOL    HW236528   2.820   3.715   4.341 -0.8630  0.9671 -0.3334
 8298SOL     OW36529   1.532   1.920   2.479 -0.3615 -0.8970 -0.6228
 8298SOL    HW136530   1.465   1.979   2.513  0.2978 -1.0997  1.0258
 8298SOL    HW236531   1.526   1.923   2.384 -1.8752  1.7138 -0.4263
 8299SOL     OW36532   1.758   3.316   7.612  0.3410  0.0075  0.2524
 8299SOL    HW136533   1.664   3.315   7.633  0.5175 -0.9115  0.9748
 8299SOL    HW236534   1.776   3.407   7.634  0.5782 -0.3928  1.7228
 8300SOL     OW36535   0.850   2.976  15.259 -0.1082 -0.0397  0.4700
 8300SOL    HW136536   0.872   2.896  15.211 -1.1643 -1.1965  1.9183
 8300SOL    HW236537   0.891   2.953  15.342  1.4757  0.4523 -0.1808
 8301SOL     OW36538   2.238   0.485   1.430  0.6183  0.1671  0.0709
 8301SOL    HW136539   2.252   0.468   1.337 -1.5361  0.0803 -0.2463
 8301SOL    HW236540   2.249   0.580   1.426 -0.2375  0.2876  0.4809
 8302SOL     OW36541   3.776   1.274  10.559  0.2339  0.0546 -0.3871
 8302SOL    HW136542   3.683   1.289  10.548  0.6765  2.8670 -0.2104
 8302SOL    HW236543   3.800   1.291  10.467  1.5018 -3.3480 -0.6851
 8303SOL     OW36544   0.003   3.862   5.346 -0.6873 -0.0187 -0.1187
 8303SOL    HW136545   0.014   3.839   5.254  1.1881 -1.2378  0.4160
 8303SOL    HW236546   4.681   3.938   5.340  1.6566  1.8963  1.4487
 8304SOL     OW36547   1.091   1.685   6.410  0.1308 -0.0851 -0.2312
 8304SOL    HW136548   1.136   1.602   6.391  1.1723  0.2694  0.6614
 8304SOL    HW236549   1.160   1.736   6.454  1.5869 -0.7432 -1.7528
 8305SOL     OW36550   3.410   0.839  12.331  0.1184  0.1233 -0.1104
 8305SOL    HW136551   3.491   0.829  12.380  1.9321 -0.3594 -3.1673
 8305SOL    HW236552   3.408   0.753  12.288 -0.8947 -0.2845  0.7606
 8306SOL     OW36553   2.535   3.863   7.154  0.0169  0.4152 -0.3627
 8306SOL    HW136554   2.619   3.852   7.198 -1.1991  1.2252  2.1674
 8306SOL    HW236555   2.473   3.866   7.227  1.2229 -0.7601  0.7060
 8307SOL     OW36556   3.682   0.293   5.862  0.0689  0.8493 -0.7408
 8307SOL    HW136557   3.677   0.300   5.766  1.2510  0.5484 -0.8343
 8307SOL    HW236558   3.697   0.199   5.873  1.1278  1.0281 -0.6555
 8308SOL     OW36559   1.015   3.734   2.007 -0.1217  0.0111  0.5333
 8308SOL    HW136560   0.952   3.805   2.005 -0.1878 -0.0734 -0.8100
 8308SOL    HW236561   0.960   3.665   1.968  1.2587  0.1301 -1.6287
 8309SOL     OW36562   0.254   2.656   0.690 -0.2758  0.6519 -0.3007
 8309SOL    HW136563   0.267   2.598   0.765 -0.4148  0.3187 -0.5313
 8309SOL    HW236564   0.308   2.611   0.624  0.8396 -0.7497  1.5589
 8310SOL     OW36565   4.040   2.906   7.959 -0.2193  0.0761  0.0197
 8310SOL    HW136566   3.950   2.875   7.950  0.4417 -1.7788 -0.2037
 8310SOL    HW236567   4.092   2.844   7.909  1.3019 -0.2832  2.0455
 8311SOL     OW36568   1.968   0.288   4.632  0.1103 -0.0405 -0.6403
 8311SOL    HW136569   1.998   0.204   4.596  0.2181  0.1248 -0.9291
 8311SOL    HW236570   1.882   0.259   4.664  0.7915 -1.5912 -0.1966
 8312SOL     OW36571   0.946   1.136  15.528  0.3812 -0.0345  0.9811
 8312SOL    HW136572   0.853   1.138  15.551 -0.0575  0.4234 -0.8181
 8312SOL    HW236573   0.954   1.203  15.460 -0.4802  1.2199  2.1153
 8313SOL     OW36574   3.043   1.249   7.196  0.2384  0.1563 -0.1402
 8313SOL    HW136575   3.089   1.205   7.125 -2.2604  0.0193 -1.6575
 8313SOL    HW236576   2.978   1.308   7.158  2.6566  2.1721 -1.1762
 8314SOL     OW36577   4.415   4.594   8.625  0.2943  0.8194 -0.1425
 8314SOL    HW136578   4.394   4.545   8.704 -0.3397  1.7930  0.2892
 8314SOL    HW236579   4.424   4.531   8.554  1.1940  2.6700 -1.6642
 8315SOL     OW36580   1.384   3.221   8.918 -0.2431  0.0870  0.2147
 8315SOL    HW136581   1.460   3.279   8.912 -0.3182 -0.0429 -2.0954
 8315SOL    HW236582   1.353   3.227   9.008  2.0225 -0.6797  1.0380
 8316SOL     OW36583   4.286   2.823   1.274  0.1417 -0.2427 -0.2060
 8316SOL    HW136584   4.302   2.876   1.196  0.4659  0.2983  0.2266
 8316SOL    HW236585   4.266   2.741   1.228  1.0212 -0.6782  0.1986
 8317SOL     OW36586   1.524   2.811   6.087 -0.5241 -0.0992  0.2955
 8317SOL    HW136587   1.518   2.716   6.089 -0.1325 -0.1211  0.2964
 8317SOL    HW236588   1.562   2.833   6.172 -1.3393 -2.4029  1.2642
 8318SOL     OW36589   4.304   0.705   9.182 -0.4692 -0.5897 -0.2812
 8318SOL    HW136590   4.390   0.663   9.182  0.2739  0.9233 -0.3836
 8318SOL    HW236591   4.285   0.693   9.089 -2.2997 -1.9842  0.2928
 8319SOL     OW36592   3.235   0.083   8.203  0.2180  0.1123 -0.3967
 8319SOL    HW136593   3.163   0.032   8.167  0.8603 -0.5831 -0.6920
 8319SOL    HW236594   3.185   0.142   8.259 -1.1391 -0.6246 -0.8485
 8320SOL     OW36595   3.847   0.132   5.598 -0.2445 -0.5776  0.1268
 8320SOL    HW136596   3.798   0.069   5.547 -0.3514 -0.2103 -0.2225
 8320SOL    HW236597   3.814   0.112   5.686  1.5483 -2.7680  0.2974
 8321SOL     OW36598   0.126   0.607   6.520  0.2197  0.0300  0.2912
 8321SOL    HW136599   0.154   0.546   6.452  3.3538  0.1864  1.4375
 8321SOL    HW236600   0.206   0.613   6.572  1.2704  0.6308 -1.4215
 8322SOL     OW36601   2.576   2.415   3.920  0.0766 -0.4692  0.3822
 8322SOL    HW136602   2.484   2.395   3.900  0.5162 -1.2880 -0.8195
 8322SOL    HW236603   2.619   2.397   3.836 -1.2513  0.9577 -0.6150
 8323SOL     OW36604   2.834   1.715   5.130 -0.2234  0.4690 -0.0041
 8323SOL    HW136605   2.771   1.783   5.152  0.0342 -0.0756  2.5030
 8323SOL    HW236606   2.790   1.635   5.161 -0.3870  1.1024  1.3956
 8324SOL     OW36607   1.281   4.284   9.693 -0.2944 -0.3820 -0.1074
 8324SOL    HW136608   1.205   4.308   9.640 -1.5439  1.1077  2.3656
 8324SOL    HW236609   1.353   4.348   9.693  0.0192 -0.7353  0.0902
 8325SOL     OW36610   4.559   3.851  14.817 -0.6151 -0.3425 -0.0312
 8325SOL    HW136611   4.489   3.786  14.811 -2.2821  1.1300  3.2316
 8325SOL    HW236612   4.548   3.886  14.729 -0.7919 -0.5668 -0.0982
 8326SOL     OW36613   3.684   1.443   6.001 -0.0931  0.0722  0.0086
 8326SOL    HW136614   3.596   1.469   6.027  0.2948  1.0369  0.3464
 8326SOL    HW236615   3.680   1.348   5.988  2.6661 -0.2474  1.4683
 8327SOL     OW36616   0.088   3.886   3.459 -0.2569  0.4506 -0.4848
 8327SOL    HW136617   0.171   3.916   3.421  1.1391 -0.9877  1.4667
 8327SOL    HW236618   0.084   3.942   3.537 -0.7426  1.1697 -1.0280
 8328SOL     OW36619   4.693   3.593   4.819 -0.2576  0.5446 -0.2132
 8328SOL    HW136620   4.686   3.562   4.729 -0.4339 -2.5790  0.8593
 8328SOL    HW236621   0.011   3.672   4.811  0.3504  0.4472  2.8271
 8329SOL     OW36622   3.994   4.398  16.321 -0.3577  0.2863  0.1166
 8329SOL    HW136623   3.953   4.313  16.339  1.9111 -0.1548  3.3606
 8329SOL    HW236624   4.045   4.401  16.402  1.7801 -0.4196 -1.1850
 8330SOL     OW36625   0.170   4.487  12.838  0.3062 -0.3537  0.2134
 8330SOL    HW136626   0.117   4.567  12.832 -1.2890 -1.5622 -1.9158
 8330SOL    HW236627   0.207   4.480  12.751 -0.1509  0.1763 -0.0275
 8331SOL     OW36628   1.668   0.345   4.152  0.0494  0.4128  0.2722
 8331SOL    HW136629   1.748   0.397   4.162 -0.7183  1.9975 -1.8711
 8331SOL    HW236630   1.620   0.405   4.096  1.7509  2.2092  0.7539
 8332SOL     OW36631   2.053   1.093   0.383 -0.0146 -0.3944 -0.2408
 8332SOL    HW136632   2.103   1.025   0.337  0.5400 -0.4968  0.5163
 8332SOL    HW236633   1.990   1.109   0.313 -2.1993  0.6870  1.9691
 8333SOL     OW36634   0.090   0.037  11.047  0.1756 -0.4479 -0.4277
 8333SOL    HW136635   0.144   0.022  11.124 -0.4075  1.9028  0.4462
 8333SOL    HW236636   0.133   0.117  11.018 -1.3949  0.6603  0.3055
 8334SOL     OW36637   4.607   1.792   5.495 -0.2991 -0.0985  0.2356
 8334SOL    HW136638   4.543   1.829   5.434  1.9232  2.6347 -0.4053
 8334SOL    HW236639   4.675   1.771   5.431 -0.8388  1.2313 -0.7529
 8335SOL     OW36640   1.818   4.261  13.405  0.0431  0.0847  0.0089
 8335SOL    HW136641   1.761   4.184  13.398 -0.6698  0.4716  1.7561
 8335SOL    HW236642   1.846   4.278  13.315 -2.9394  1.0119 -0.7420
 8336SOL     OW36643   2.522   2.644   7.887  0.2819  0.1137  0.8766
 8336SOL    HW136644   2.469   2.589   7.945 -0.1284 -0.8332 -0.3957
 8336SOL    HW236645   2.503   2.607   7.801  1.5367 -0.5453  0.8790
 8337SOL     OW36646   1.157   2.482   3.430 -0.5457 -0.2501  0.4573
 8337SOL    HW136647   1.132   2.537   3.504 -1.7754  0.7057 -0.6955
 8337SOL    HW236648   1.172   2.547   3.362 -1.3651  0.9625  1.4444
 8338SOL     OW36649   3.384   2.766  17.425  0.1687 -0.0190  0.1766
 8338SOL    HW136650   3.342   2.692  17.380  1.2591 -1.0219  0.8066
 8338SOL    HW236651   3.339   2.839  17.382 -0.6354 -0.0974  0.8775
 8339SOL     OW36652   4.208   2.056   2.167  0.1739  0.1058 -0.1472
 8339SOL    HW136653   4.194   2.147   2.193 -2.9952 -0.4718  0.1919
 8339SOL    HW236654   4.274   2.029   2.231  1.3666  3.2219 -0.0673
 8340SOL     OW36655   0.922   3.967   7.994 -0.2034  0.4966 -0.1634
 8340SOL    HW136656   0.951   3.993   7.906 -2.3326  3.5473  0.0156
 8340SOL    HW236657   1.006   3.945   8.033 -0.0436  2.5424  0.6378
 8341SOL     OW36658   3.714   1.354   8.706  0.3654 -0.2266  0.1707
 8341SOL    HW136659   3.762   1.281   8.746  1.0196 -0.4726 -1.0471
 8341SOL    HW236660   3.644   1.371   8.768  1.0828  3.1015  0.0987
 8342SOL     OW36661   4.504   0.249   8.774  0.0463 -0.0213 -0.0793
 8342SOL    HW136662   4.432   0.210   8.724  1.3721 -0.9597 -1.2654
 8342SOL    HW236663   4.452   0.316   8.817 -1.7496 -0.9041 -0.8631
 8343SOL     OW36664   2.848   2.821  17.391  0.0933  0.4071  0.4565
 8343SOL    HW136665   2.825   2.733  17.361 -1.6985  0.7099  0.9408
 8343SOL    HW236666   2.830   2.859  17.305  1.9244 -1.9082 -0.9195
 8344SOL     OW36667   2.634   1.536   9.119  0.9975  0.1885 -0.1793
 8344SOL    HW136668   2.698   1.466   9.107 -1.1545 -1.7743 -0.0327
 8344SOL    HW236669   2.588   1.519   9.037 -0.1972 -0.1860  0.5672
 8345SOL     OW36670   1.914   4.402   8.341 -0.1944  0.6163  0.3510
 8345SOL    HW136671   1.971   4.463   8.294 -1.0083  1.3032  0.2646
 8345SOL    HW236672   1.964   4.381   8.420  0.0233 -0.2416 -0.0278
 8346SOL     OW36673   2.363   0.416   8.976  0.0124 -0.1040  0.2699
 8346SOL    HW136674   2.355   0.321   8.979 -2.6845  0.2196  3.5015
 8346SOL    HW236675   2.303   0.430   8.903 -0.4822 -2.7701  0.1617
 8347SOL     OW36676   2.808   1.048   3.155 -0.1835  0.1634 -0.4554
 8347SOL    HW136677   2.810   1.121   3.216  1.6502  1.3054 -1.8779
 8347SOL    HW236678   2.820   1.104   3.078 -2.2994 -0.5472 -1.3254
 8348SOL     OW36679   1.899   0.366   6.612 -0.5112  0.0499 -0.2187
 8348SOL    HW136680   1.867   0.384   6.700 -1.9910  1.8019 -1.1085
 8348SOL    HW236681   1.844   0.291   6.592  1.0438 -1.4580  1.1794
 8349SOL     OW36682   1.389   0.938   2.540 -0.0937 -0.1590  0.0061
 8349SOL    HW136683   1.332   0.984   2.603  0.7577 -0.4627  1.0036
 8349SOL    HW236684   1.314   0.886   2.511 -0.6227  0.9393 -0.5632
 8350SOL     OW36685   3.431   0.718  14.810  0.4343 -0.2479  0.2464
 8350SOL    HW136686   3.495   0.781  14.844 -0.8577  0.6471  1.0368
 8350SOL    HW236687   3.436   0.651  14.878 -0.1724 -1.4795 -0.9384
 8351SOL     OW36688   4.170   2.728   8.443  0.2500 -0.0853 -0.1921
 8351SOL    HW136689   4.116   2.655   8.413 -0.3790 -0.4690  1.8681
 8351SOL    HW236690   4.120   2.797   8.400  0.3660 -0.6445 -1.2342
 8352SOL     OW36691   4.246   1.779   1.422  0.4848 -0.2016  0.0134
 8352SOL    HW136692   4.203   1.717   1.362 -0.8864  0.4609  0.3147
 8352SOL    HW236693   4.293   1.831   1.357 -0.1276  0.4615  0.0987
 8353SOL     OW36694   0.981   2.412   4.366  0.2279 -0.4260  0.2284
 8353SOL    HW136695   0.943   2.418   4.453 -0.8652  0.5157 -0.3140
 8353SOL    HW236696   1.011   2.321   4.358  0.0304 -0.6765  2.3575
 8354SOL     OW36697   3.838   4.595  16.190 -0.3527 -0.3908  0.3113
 8354SOL    HW136698   3.837   4.640  16.275  1.4089 -1.2592  0.7882
 8354SOL    HW236699   3.901   4.526  16.208 -0.2357 -0.1985  0.6543
 8355SOL     OW36700   3.850   4.350   5.451  0.1927 -0.5354  0.1362
 8355SOL    HW136701   3.885   4.403   5.523 -2.2582 -0.9644  1.6407
 8355SOL    HW236702   3.881   4.408   5.381 -2.2138 -1.3897 -1.6220
 8356SOL     OW36703   0.108   2.130   3.392  0.1830 -0.2643  0.1892
 8356SOL    HW136704   0.138   2.209   3.348  1.1527 -1.3467 -1.1303
 8356SOL    HW236705   0.178   2.071   3.363  0.4105 -0.0656  0.3463
 8357SOL     OW36706   4.161   2.272  10.551  0.2422  0.3046  0.2135
 8357SOL    HW136707   4.221   2.337  10.513  2.5841 -1.7608  0.3365
 8357SOL    HW236708   4.210   2.263  10.633  1.7023 -1.8945 -0.9083
 8358SOL     OW36709   4.686   2.310   6.737  0.8388 -0.2600 -0.0656
 8358SOL    HW136710   0.036   2.289   6.702 -1.0752 -4.3445 -2.4982
 8358SOL    HW236711   4.674   2.402   6.713 -2.8202 -1.3923 -2.5780
 8359SOL     OW36712   2.804   1.300   9.082 -0.2408  0.5566 -0.0577
 8359SOL    HW136713   2.854   1.218   9.084 -2.4721 -0.8249 -0.5725
 8359SOL    HW236714   2.851   1.340   9.008 -0.7594 -3.2038 -2.4032
 8360SOL     OW36715   2.612   3.582  15.225 -0.0464  0.7069 -0.0203
 8360SOL    HW136716   2.551   3.655  15.227  1.0384  1.6193  0.3985
 8360SOL    HW236717   2.669   3.592  15.302  0.0478 -0.4772  0.0735
 8361SOL     OW36718   4.267   0.323  12.124  0.1507 -0.4652 -0.6656
 8361SOL    HW136719   4.324   0.247  12.131  0.3690 -0.1343  1.2167
 8361SOL    HW236720   4.263   0.363  12.211  1.0967  0.2261 -0.9372
 8362SOL     OW36721   1.199   2.138   9.822  0.3784 -0.1232 -0.5211
 8362SOL    HW136722   1.200   2.192   9.743 -0.6067 -2.6346 -2.2777
 8362SOL    HW236723   1.158   2.191   9.889  1.0538 -0.6279  0.2974
 8363SOL     OW36724   4.464   2.747   0.667  0.4181 -0.6458 -0.4426
 8363SOL    HW136725   4.482   2.708   0.581  3.2580  0.7203 -0.4880
 8363SOL    HW236726   4.379   2.784   0.644  0.1877 -0.4562  0.7339
 8364SOL     OW36727   4.624   3.264  16.946 -0.0232  0.7418 -0.2652
 8364SOL    HW136728   4.617   3.333  17.013  2.8090  0.1764  0.6270
 8364SOL    HW236729   4.667   3.316  16.878  0.0609  1.4148  0.2967
 8365SOL     OW36730   1.681   3.952   3.843  0.4489  0.4283 -0.2963
 8365SOL    HW136731   1.752   3.888   3.834  0.5465  0.5712 -0.5328
 8365SOL    HW236732   1.726   4.006   3.909  0.6919 -1.7678  1.3415
 8366SOL     OW36733   0.572   1.195   3.308  0.3834  0.4866  0.4808
 8366SOL    HW136734   0.495   1.154   3.269  2.0327 -0.1347 -2.1378
 8366SOL    HW236735   0.565   1.177   3.401 -1.3089 -0.8574  0.0821
 8367SOL     OW36736   0.994   2.897  17.285  0.3721  0.2458 -0.3044
 8367SOL    HW136737   1.087   2.883  17.266  0.3595  0.1919 -0.3258
 8367SOL    HW236738   0.998   2.904  17.380 -0.4235 -0.0859 -0.2441
 8368SOL     OW36739   1.023   2.896   9.503 -0.3985 -0.4742 -0.6456
 8368SOL    HW136740   1.054   2.986   9.512 -0.5310 -0.3861 -1.0481
 8368SOL    HW236741   0.991   2.904   9.413 -1.6915 -1.9361 -0.3018
 8369SOL     OW36742   1.879   0.684  10.500 -0.1208  0.0768  0.3946
 8369SOL    HW136743   1.864   0.628  10.576 -0.3942 -1.2492 -0.6323
 8369SOL    HW236744   1.795   0.673  10.456 -0.4812  0.7792  0.9066
 8370SOL     OW36745   3.642   4.287   3.745  0.3161 -0.1692 -0.2596
 8370SOL    HW136746   3.659   4.205   3.698  2.1695  1.0661 -1.7349
 8370SOL    HW236747   3.620   4.342   3.670  0.1475 -0.5982 -0.5239
 8371SOL     OW36748   0.766   4.478   8.563  0.1667 -0.1330  0.1636
 8371SOL    HW136749   0.712   4.539   8.613 -1.1528 -1.1065 -0.0544
 8371SOL    HW236750   0.719   4.398   8.584  0.0667 -0.1271 -0.0320
 8372SOL     OW36751   2.581   0.959   3.586 -0.3557  0.5819  0.0930
 8372SOL    HW136752   2.563   1.028   3.651 -1.5521 -1.1692  1.6134
 8372SOL    HW236753   2.653   0.989   3.532  0.4993  1.4238  1.6787
 8373SOL     OW36754   3.997   2.529   8.346 -0.1339 -0.5030  0.0602
 8373SOL    HW136755   3.919   2.502   8.298  0.3145 -0.1955 -0.8475
 8373SOL    HW236756   3.991   2.463   8.415  0.1573  0.0508  0.6149
 8374SOL     OW36757   0.803   3.639  12.800 -0.4144 -0.2835  0.1272
 8374SOL    HW136758   0.776   3.730  12.789  0.1211 -0.5463 -3.4465
 8374SOL    HW236759   0.850   3.621  12.719 -0.1842  0.8053  0.0256
 8375SOL     OW36760   3.264   3.931   4.575  0.3194  0.3809 -0.1050
 8375SOL    HW136761   3.351   3.939   4.614  0.4416  0.7072 -0.4500
 8375SOL    HW236762   3.239   3.840   4.587 -1.3041  0.9956  1.2432
 8376SOL     OW36763   4.154   4.092   7.760  0.0136 -0.1381  0.1788
 8376SOL    HW136764   4.063   4.075   7.784  0.7379 -0.2097  2.8340
 8376SOL    HW236765   4.154   4.088   7.664  0.9468  0.3494  0.1627
 8377SOL     OW36766   4.301   0.157   7.333 -0.4461 -0.1152 -0.2414
 8377SOL    HW136767   4.351   0.120   7.260 -0.3787 -1.0788  0.2932
 8377SOL    HW236768   4.371   0.161   7.397 -2.9007  2.5401  2.2324
 8378SOL     OW36769   1.967   4.502   4.126 -0.3442  0.0573  1.1307
 8378SOL    HW136770   1.997   4.581   4.082 -1.9179 -0.6076 -1.1333
 8378SOL    HW236771   1.921   4.458   4.055  0.3330 -0.4033  0.9808
 8379SOL     OW36772   1.269   3.673   6.563 -0.3056 -0.1611  0.1399
 8379SOL    HW136773   1.195   3.641   6.511 -1.1138  0.0989  1.1394
 8379SOL    HW236774   1.339   3.615   6.532  0.1381  0.2879  0.3018
 8380SOL     OW36775   0.330   0.279  11.804  0.3347 -0.1849 -0.1087
 8380SOL    HW136776   0.250   0.329  11.792 -0.8070 -1.9105  0.3597
 8380SOL    HW236777   0.339   0.268  11.899 -1.6617 -1.5563 -0.0792
 8381SOL     OW36778   2.132   1.148   6.661  0.2656 -0.2394  0.1399
 8381SOL    HW136779   2.046   1.117   6.689  0.0887 -0.0794 -0.2316
 8381SOL    HW236780   2.112   1.204   6.586  0.3868  0.0782  0.3449
 8382SOL     OW36781   3.553   1.654   8.415  0.5352  0.1806 -0.4529
 8382SOL    HW136782   3.566   1.658   8.510 -2.8145 -1.4275  0.0730
 8382SOL    HW236783   3.476   1.597   8.411 -0.7764  1.9115  0.3328
 8383SOL     OW36784   3.431   0.811   5.180  0.1695  0.0624  0.6811
 8383SOL    HW136785   3.372   0.871   5.226 -2.6119 -0.5216 -2.1055
 8383SOL    HW236786   3.366   0.748   5.147 -0.5730  0.9164  0.5088
 8384SOL     OW36787   4.688   4.263  15.125 -0.4232  0.2328  0.0849
 8384SOL    HW136788   4.602   4.304  15.112 -1.7924 -2.0709  1.9261
 8384SOL    HW236789   4.711   4.311  15.205 -2.5622 -0.3045  1.0194
 8385SOL     OW36790   1.137   2.779   2.782 -1.1588 -0.2494 -0.4229
 8385SOL    HW136791   1.197   2.789   2.856  0.5618  1.2066 -2.0424
 8385SOL    HW236792   1.075   2.852   2.780  1.1995  1.6398 -2.8481
 8386SOL     OW36793   2.711   0.478  12.038  0.5114 -0.0100 -0.2808
 8386SOL    HW136794   2.805   0.498  12.032  0.0352  1.2979 -3.0575
 8386SOL    HW236795   2.686   0.498  11.948  0.4009 -0.2468 -0.3001
 8387SOL     OW36796   0.220   2.927   5.764  0.4281  0.3590  0.8224
 8387SOL    HW136797   0.128   2.914   5.787  0.5107 -0.5370  0.6529
 8387SOL    HW236798   0.236   3.010   5.808 -0.0933  0.6315  0.4979
 8388SOL     OW36799   1.097   0.321   2.436  0.5737  0.9918 -0.4816
 8388SOL    HW136800   1.155   0.385   2.395 -0.1945  0.6265 -2.1322
 8388SOL    HW236801   1.155   0.280   2.500 -1.4477 -0.1706  0.6130
 8389SOL     OW36802   2.683   2.300   3.394  0.4498  0.2566 -0.1052
 8389SOL    HW136803   2.728   2.365   3.340 -1.9536 -0.7821 -3.3058
 8389SOL    HW236804   2.758   2.246   3.419  0.2882  0.6246  1.1621
 8390SOL     OW36805   1.455   2.478  17.023  0.8394 -0.5335 -0.1837
 8390SOL    HW136806   1.401   2.480  17.102  1.8096  1.3496  0.4349
 8390SOL    HW236807   1.494   2.565  17.025 -0.5656  0.0795  1.5174
 8391SOL     OW36808   3.182   3.772   3.008  0.8169  0.2778  0.1608
 8391SOL    HW136809   3.121   3.763   2.935  2.0960  0.8483 -0.9843
 8391SOL    HW236810   3.136   3.756   3.091  0.5221  3.8326  0.6822
 8392SOL     OW36811   4.735   1.537  12.193 -0.2635  0.3127 -0.2022
 8392SOL    HW136812   4.706   1.468  12.252 -0.4098  0.9606  0.4753
 8392SOL    HW236813   0.092   1.524  12.178 -0.6344 -3.3132  0.7943
 8393SOL     OW36814   2.906   3.136   8.681 -0.4032 -0.1160 -0.2033
 8393SOL    HW136815   2.965   3.079   8.731  1.8484  1.8711 -0.5604
 8393SOL    HW236816   2.965   3.199   8.639 -2.8613  2.3067 -0.0158
 8394SOL     OW36817   0.703   4.728   0.444  0.0345 -0.1298 -0.3570
 8394SOL    HW136818   0.744   4.642   0.453 -0.3253 -0.0845  1.6179
 8394SOL    HW236819   0.744   0.041   0.514  0.6087 -1.1519  0.0259
 8395SOL     OW36820   4.045   1.629   3.431  0.2829 -0.0320  0.4192
 8395SOL    HW136821   4.008   1.704   3.478 -1.0757  0.9705 -2.2108
 8395SOL    HW236822   4.109   1.673   3.376  1.8086 -0.2266  2.0674
 8396SOL     OW36823   2.785   4.647   1.338  0.2552  0.1401 -0.3763
 8396SOL    HW136824   2.727   4.586   1.383  0.8688  0.9909  1.5837
 8396SOL    HW236825   2.861   4.602   1.300 -0.0012 -1.2117  0.7039
 8397SOL     OW36826   1.960   3.743   5.438 -0.4416  0.1071 -0.1308
 8397SOL    HW136827   1.949   3.746   5.342  0.1254  1.5132 -0.1511
 8397SOL    HW236828   2.020   3.669   5.446  0.0581  0.4764 -0.3886
 8398SOL     OW36829   1.420   1.450   1.959 -0.8922 -0.5245  0.1169
 8398SOL    HW136830   1.475   1.381   1.995 -1.4899 -0.9161  0.2896
 8398SOL    HW236831   1.462   1.462   1.875  1.2478  0.5571  1.3542
 8399SOL     OW36832   0.155   2.564  13.363 -0.4221 -0.3144  0.0938
 8399SOL    HW136833   0.119   2.581  13.276 -3.1763 -0.2831  1.2508
 8399SOL    HW236834   0.086   2.508  13.398 -0.4697  0.6032  1.4409
 8400SOL     OW36835   0.165   4.178  11.699 -0.2866 -0.0691  0.1973
 8400SOL    HW136836   0.161   4.166  11.794 -0.4922 -1.3431  0.0334
 8400SOL    HW236837   0.259   4.171  11.683 -0.0091 -0.4440  1.9220
 8401SOL     OW36838   0.379   3.210  11.656  0.0656 -0.0390 -0.3832
 8401SOL    HW136839   0.307   3.257  11.614 -0.8040 -0.8024  0.2551
 8401SOL    HW236840   0.355   3.117  11.650 -0.8119  0.0671  1.2155
 8402SOL     OW36841   4.465   3.187  17.306 -0.1047 -0.1948  0.1477
 8402SOL    HW136842   4.397   3.155  17.364 -1.5474  2.5586 -0.0029
 8402SOL    HW236843   4.471   3.278  17.334 -0.2386 -0.3331  0.6225
 8403SOL     OW36844   3.792   0.634   5.845  0.1634 -0.0159  1.0869
 8403SOL    HW136845   3.742   0.605   5.921  0.3410 -0.1320  1.1587
 8403SOL    HW236846   3.867   0.668   5.893  2.0532  1.0689 -2.6348
 8404SOL     OW36847   0.234   2.693   0.088  0.4688 -0.3859 -0.1055
 8404SOL    HW136848   0.170   2.763   0.101  1.2594  0.8586 -3.0364
 8404SOL    HW236849   0.191   2.658   0.010  1.9851 -0.9475 -0.6773
 8405SOL     OW36850   2.219   2.003   3.544 -0.2920 -0.0904  0.1406
 8405SOL    HW136851   2.306   2.030   3.516 -0.8391  1.7379  0.1423
 8405SOL    HW236852   2.179   2.035   3.463 -1.5416  1.7322  1.4764
 8406SOL     OW36853   1.952   2.389   8.214  0.0244 -0.1351  0.2233
 8406SOL    HW136854   2.022   2.379   8.280  1.2925  0.2479 -1.0612
 8406SOL    HW236855   1.934   2.295   8.208 -2.9497  0.6706 -3.0147
 8407SOL     OW36856   1.439   1.859   8.833 -0.3524 -0.1229 -0.3685
 8407SOL    HW136857   1.411   1.792   8.895 -0.6140  0.2660 -0.0664
 8407SOL    HW236858   1.425   1.808   8.753 -0.4960  0.6819 -0.8590
 8408SOL     OW36859   4.686   2.870  16.202 -0.4334 -0.4428 -0.0322
 8408SOL    HW136860   4.695   2.785  16.159 -0.1133 -0.2409 -0.3632
 8408SOL    HW236861   4.718   2.842  16.288  1.3638 -3.5068 -1.7120
 8409SOL     OW36862   1.200   2.461   4.201 -0.1021  0.2527 -0.2887
 8409SOL    HW136863   1.123   2.456   4.257 -1.0403 -0.4992 -1.6338
 8409SOL    HW236864   1.169   2.418   4.121 -2.9300 -0.7267  1.3486
 8410SOL     OW36865   4.535   0.988   1.154 -0.0372 -0.4222  0.6275
 8410SOL    HW136866   4.455   0.996   1.206  0.0826  0.9408  0.5891
 8410SOL    HW236867   4.573   1.065   1.196 -0.5994  0.2761 -0.1537
 8411SOL     OW36868   1.293   4.213   1.803 -0.6808 -0.1385 -0.2490
 8411SOL    HW136869   1.287   4.238   1.895  2.7974 -0.8929  0.1755
 8411SOL    HW236870   1.354   4.140   1.812 -0.3518 -0.2146 -2.9565
 8412SOL     OW36871   0.494   1.087   8.030  0.2589 -0.7604  0.1742
 8412SOL    HW136872   0.523   1.125   8.113 -0.9837  1.5734 -0.4732
 8412SOL    HW236873   0.532   1.142   7.961 -1.5856  2.0968  1.4355
 8413SOL     OW36874   4.126   4.509   2.857  0.1674 -0.0834 -0.2052
 8413SOL    HW136875   4.105   4.595   2.893  2.3981  0.2061  0.3812
 8413SOL    HW236876   4.218   4.517   2.831  0.5394 -0.2461  1.1052
 8414SOL     OW36877   0.620   1.894   7.295  0.7295  0.4377  0.1970
 8414SOL    HW136878   0.656   1.824   7.351 -1.7251 -0.4034  0.7065
 8414SOL    HW236879   0.678   1.964   7.324 -1.0618  1.2336  1.8338
 8415SOL     OW36880   3.118   1.353   7.418 -0.1966  0.1502 -0.4969
 8415SOL    HW136881   3.208   1.380   7.397  0.1807 -0.4726  0.2866
 8415SOL    HW236882   3.097   1.304   7.339 -0.9220 -1.8359  0.9326
 8416SOL     OW36883   3.928   4.598   7.143 -0.0593 -0.2657 -0.2961
 8416SOL    HW136884   4.013   4.581   7.183  0.1643 -0.8528 -1.0294
 8416SOL    HW236885   3.886   4.515   7.165 -1.1768  0.4488  0.2661
 8417SOL     OW36886   2.614   4.220   4.946  0.0436 -0.2634  0.1990
 8417SOL    HW136887   2.655   4.272   4.876 -0.4503 -0.0136  0.0945
 8417SOL    HW236888   2.548   4.272   4.991 -1.1551 -0.9686 -0.7444
 8418SOL     OW36889   0.289   1.256   0.561  0.1330  0.1246  0.3642
 8418SOL    HW136890   0.344   1.229   0.486  0.1151  0.4429  0.2384
 8418SOL    HW236891   0.341   1.223   0.635  0.0465 -0.2657  0.2537
 8419SOL     OW36892   0.642   4.359   8.294  0.2199 -0.0503 -0.7466
 8419SOL    HW136893   0.732   4.386   8.311 -0.9436  2.9505  0.5094
 8419SOL    HW236894   0.620   4.421   8.224 -1.3541 -0.1553 -0.3435
 8420SOL     OW36895   1.725   1.665   7.318 -0.7141  0.0596  0.1529
 8420SOL    HW136896   1.659   1.735   7.315 -1.5801 -0.7902 -0.7994
 8420SOL    HW236897   1.713   1.638   7.226  0.0103  2.2033 -0.5758
 8421SOL     OW36898   3.018   2.696  15.708  0.1129  0.8375  0.9957
 8421SOL    HW136899   3.005   2.643  15.629 -0.6702 -0.3284  1.9257
 8421SOL    HW236900   2.967   2.768  15.671 -0.7190  0.5430  1.5694
 8422SOL     OW36901   1.813   2.527   4.738  0.1817 -0.2621  0.4469
 8422SOL    HW136902   1.825   2.467   4.811 -1.8954 -1.0162  0.1577
 8422SOL    HW236903   1.866   2.483   4.671  0.6769 -0.1668  0.7764
 8423SOL     OW36904   4.399   1.216   4.726 -0.5765 -0.6766  0.1331
 8423SOL    HW136905   4.360   1.289   4.679 -0.0036 -0.3333  0.1882
 8423SOL    HW236906   4.471   1.192   4.668 -0.9480  0.3474 -0.7437
 8424SOL     OW36907   0.816   0.824   8.809 -0.6011 -0.4849  0.4789
 8424SOL    HW136908   0.805   0.919   8.820  1.1055 -0.1994 -0.2734
 8424SOL    HW236909   0.903   0.802   8.775 -0.2519  0.6803  0.6127
 8425SOL     OW36910   1.581   1.347   8.588 -0.1806  0.8342  0.3774
 8425SOL    HW136911   1.657   1.295   8.614 -0.6902  0.0818  0.3674
 8425SOL    HW236912   1.573   1.408   8.661  1.5981  2.9939 -1.2520
 8426SOL     OW36913   1.897   4.249   2.837  0.1267 -0.2248 -0.4834
 8426SOL    HW136914   1.833   4.205   2.893 -1.1219  2.2978  0.0691
 8426SOL    HW236915   1.929   4.176   2.784  2.8766  0.5243  0.0994
 8427SOL     OW36916   0.396   2.801   5.135 -0.3128 -0.7816 -0.0171
 8427SOL    HW136917   0.453   2.877   5.136 -2.3157  0.7003 -0.0420
 8427SOL    HW236918   0.363   2.804   5.045  1.7145 -1.7103 -0.7722
 8428SOL     OW36919   4.168   1.795   8.158 -0.4830 -0.6784 -0.1963
 8428SOL    HW136920   4.106   1.856   8.117 -0.5877 -0.7184 -0.0990
 8428SOL    HW236921   4.248   1.804   8.106  0.6238 -0.3071  1.5833
 8429SOL     OW36922   3.492   4.370  10.590  0.0328  0.0769  0.8962
 8429SOL    HW136923   3.547   4.292  10.600 -0.0706 -0.1744 -0.4430
 8429SOL    HW236924   3.440   4.340  10.515  0.4136  1.4821  0.0616
 8430SOL     OW36925   2.992   0.412   8.162 -0.0367 -0.0258  0.1885
 8430SOL    HW136926   2.914   0.452   8.202 -0.1638 -0.0826 -0.0044
 8430SOL    HW236927   3.007   0.339   8.222 -0.5624  0.5202  0.9869
 8431SOL     OW36928   2.238   0.122   5.416  0.2281 -0.3122  0.1974
 8431SOL    HW136929   2.267   0.100   5.328 -1.2379 -0.9470 -0.1360
 8431SOL    HW236930   2.322   0.127   5.461  0.2737 -0.0172  0.0802
 8432SOL     OW36931   4.182   2.082   2.888  0.5968 -0.6079  0.5989
 8432SOL    HW136932   4.087   2.092   2.896  0.6060  0.6430 -0.8775
 8432SOL    HW236933   4.212   2.171   2.869  0.6577 -0.5303  1.0563
 8433SOL     OW36934   1.713   0.548   5.276  0.0980  0.0265  0.3703
 8433SOL    HW136935   1.718   0.521   5.368  0.1326  1.4417  0.7813
 8433SOL    HW236936   1.728   0.462   5.236  1.0878  0.5778 -0.4647
 8434SOL     OW36937   1.055   2.741   9.256  0.2461 -0.0634  0.1715
 8434SOL    HW136938   1.117   2.699   9.316  0.9040  0.8507  0.1403
 8434SOL    HW236939   1.120   2.779   9.197  2.8114 -2.4251  1.4475
 8435SOL     OW36940   1.342   1.321   4.090  0.2777  0.5554  0.4125
 8435SOL    HW136941   1.288   1.282   4.158  0.4665 -0.7437 -0.1974
 8435SOL    HW236942   1.304   1.408   4.078  0.0322  0.3950  0.0718
 8436SOL     OW36943   4.147   1.598  11.793 -0.5326 -0.1631  0.5117
 8436SOL    HW136944   4.185   1.516  11.823  1.5416  0.7990  0.5031
 8436SOL    HW236945   4.213   1.661  11.820 -1.4072  0.1851  1.8221
 8437SOL     OW36946   2.913   2.227   6.305  0.1467 -0.4804 -0.4640
 8437SOL    HW136947   2.821   2.210   6.283  0.6799 -0.9593 -2.3335
 8437SOL    HW236948   2.905   2.286   6.380 -0.4937 -0.4933 -0.5173
 8438SOL     OW36949   4.050   0.813  16.107 -0.3429  0.2690  0.2211
 8438SOL    HW136950   4.114   0.880  16.132 -0.2843  0.8529 -1.5183
 8438SOL    HW236951   3.994   0.797  16.183 -1.6405  1.9762 -0.3829
 8439SOL     OW36952   0.671   1.014  14.391 -0.4625 -0.3451 -0.0439
 8439SOL    HW136953   0.751   1.062  14.367 -0.4530 -0.9688 -1.2683
 8439SOL    HW236954   0.687   0.993  14.483  0.4300  1.4174  0.2105
 8440SOL     OW36955   1.887   1.586   3.085 -0.5198  0.0943 -0.1602
 8440SOL    HW136956   1.858   1.643   3.156 -0.0982  0.0843  0.0210
 8440SOL    HW236957   1.895   1.500   3.126  0.6885  1.3595  2.2520
 8441SOL     OW36958   4.592   1.971  12.907  0.0156 -0.3232  0.5377
 8441SOL    HW136959   4.579   1.884  12.868  1.8140 -0.2132 -0.3317
 8441SOL    HW236960   4.590   1.943  12.998  0.1708 -1.8710  0.0746
 8442SOL     OW36961   2.360   1.047   1.481 -0.0132  0.3486  0.2777
 8442SOL    HW136962   2.288   0.985   1.479 -0.4297  0.8514 -0.3574
 8442SOL    HW236963   2.348   1.101   1.559  1.7778 -0.4752  1.1282
 8443SOL     OW36964   0.807   2.132  16.838 -1.0459 -0.0711 -0.2406
 8443SOL    HW136965   0.783   2.040  16.855  0.7706 -0.2757  1.1734
 8443SOL    HW236966   0.786   2.164  16.926 -0.0663 -0.2297  0.0560
 8444SOL     OW36967   0.384   1.024   7.197 -0.0879 -0.1800 -0.0227
 8444SOL    HW136968   0.296   1.048   7.167 -0.4218  0.0710  1.1624
 8444SOL    HW236969   0.410   0.985   7.113 -0.1315 -1.0794  0.3882
 8445SOL     OW36970   3.658   2.696   2.358  0.1544  0.0098  0.3216
 8445SOL    HW136971   3.651   2.601   2.345  2.3737  0.0601 -1.2944
 8445SOL    HW236972   3.739   2.706   2.409  0.8915 -2.5087 -0.3495
 8446SOL     OW36973   4.549   1.667   2.071  0.1280 -0.3885 -0.4578
 8446SOL    HW136974   4.593   1.582   2.067 -0.2811 -0.5814 -0.9531
 8446SOL    HW236975   4.468   1.637   2.029 -0.0030 -0.5768 -0.0722
 8447SOL     OW36976   3.574   3.371   7.300  0.0533 -0.7474  0.2095
 8447SOL    HW136977   3.574   3.407   7.388  1.4863 -2.1157  0.7744
 8447SOL    HW236978   3.494   3.319   7.296 -0.1773 -0.5200  1.7968
 8448SOL     OW36979   1.359   0.668   3.413 -0.0174 -0.0773 -0.3839
 8448SOL    HW136980   1.309   0.643   3.490 -1.3049  0.7365 -0.9495
 8448SOL    HW236981   1.412   0.594   3.384 -0.0626 -0.5801  0.8166
 8449SOL     OW36982   3.740   4.293   9.168  0.5584 -0.4206 -0.1237
 8449SOL    HW136983   3.696   4.221   9.123  0.0383  1.6702 -2.9594
 8449SOL    HW236984   3.730   4.270   9.261  1.1396  0.1974  0.0928
 8450SOL     OW36985   0.050   1.995   7.018  0.3692  0.2594 -0.0770
 8450SOL    HW136986   0.130   2.044   7.036 -0.9617  2.7138 -0.8152
 8450SOL    HW236987   4.727   2.039   7.078 -0.0420  1.4713 -1.3572
 8451SOL     OW36988   1.601   1.304   2.128 -0.1099 -0.0875  0.1760
 8451SOL    HW136989   1.697   1.306   2.130 -0.0838 -1.0288 -0.2698
 8451SOL    HW236990   1.583   1.214   2.154 -0.4846  0.0402  0.3565
 8452SOL     OW36991   2.187   2.711   6.328  0.1364  1.0936  0.8204
 8452SOL    HW136992   2.267   2.737   6.374  1.5309 -1.8293  0.0972
 8452SOL    HW236993   2.173   2.616   6.328  0.5066  1.0462 -2.2176
 8453SOL     OW36994   3.715   1.001   5.293  0.2746 -0.4765 -0.8811
 8453SOL    HW136995   3.733   0.951   5.213 -1.3594 -2.2315 -0.1406
 8453SOL    HW236996   3.772   1.077   5.280 -1.7349  1.2412  0.2735
 8454SOL     OW36997   1.775   4.535   4.863  0.0401 -0.6037 -0.1911
 8454SOL    HW136998   1.734   4.524   4.777  2.7980  2.2287 -1.8831
 8454SOL    HW236999   1.869   4.553   4.858  0.0944 -0.5466  0.9471
 8455SOL     OW37000   1.316   1.905  16.514  0.3422 -0.3128  0.4120
 8455SOL    HW137001   1.393   1.851  16.535  0.4733 -0.4831 -0.5217
 8455SOL    HW237002   1.313   1.966  16.588 -0.9025  0.4328 -0.2646
 8456SOL     OW37003   1.680   3.088   0.074 -0.4044 -0.0781 -0.8750
 8456SOL    HW137004   1.697   3.135  17.737 -0.1521 -1.2371 -1.4852
 8456SOL    HW237005   1.748   3.022   0.072  1.2102  1.5342  1.1330
 8457SOL     OW37006   4.642   0.062   6.701 -0.2139  0.1796 -0.1854
 8457SOL    HW137007   4.594   0.112   6.768  1.9115  0.4198  1.1557
 8457SOL    HW237008   4.585   4.723   6.689 -0.0739  0.0111  0.2065
 8458SOL     OW37009   3.786   2.619   1.128 -0.2012  0.5098  0.1885
 8458SOL    HW137010   3.819   2.631   1.218  0.0219  1.7702 -0.0661
 8458SOL    HW237011   3.793   2.706   1.088  0.7126  0.5982  0.5331
 8459SOL     OW37012   0.774   3.905   7.290  0.8822  0.2569 -0.4583
 8459SOL    HW137013   0.721   3.892   7.211  0.6883 -1.1828 -0.0921
 8459SOL    HW237014   0.822   3.822   7.285 -1.5722 -1.2360  1.0015
 8460SOL     OW37015   1.717   1.659   9.457  0.0064 -0.2960 -0.5648
 8460SOL    HW137016   1.696   1.663   9.551 -2.0302  0.8874 -1.0753
 8460SOL    HW237017   1.769   1.739   9.461 -1.6041  0.7185  0.0458
 8461SOL     OW37018   1.779   4.541   1.554 -0.2587  0.3624 -0.3957
 8461SOL    HW137019   1.825   4.592   1.488 -0.5426  0.9077 -0.1719
 8461SOL    HW237020   1.860   4.498   1.581 -1.4117 -0.4928  1.7089
 8462SOL     OW37021   4.564   2.207   0.252 -0.6308 -0.8324  0.4152
 8462SOL    HW137022   4.548   2.183   0.344  2.9671 -0.2877  1.1967
 8462SOL    HW237023   4.613   2.127   0.232  1.1050 -0.0350  1.4793
 8463SOL     OW37024   3.784   4.195   3.530  0.5795  0.0065 -0.0504
 8463SOL    HW137025   3.794   4.203   3.435 -2.2389  0.6684 -0.2817
 8463SOL    HW237026   3.857   4.251   3.557  0.9994  0.1735 -1.5273
 8464SOL     OW37027   2.603   1.699   1.134  0.6303 -0.1924 -0.3413
 8464SOL    HW137028   2.632   1.788   1.155  3.0470 -1.4442  1.6114
 8464SOL    HW237029   2.591   1.649   1.215  1.0707  1.9245  1.0274
 8465SOL     OW37030   4.702   3.468  14.320 -0.1325  0.0648 -0.3736
 8465SOL    HW137031   0.008   3.395  14.365 -1.1606 -0.7224 -0.6686
 8465SOL    HW237032   4.622   3.476  14.372 -0.1473  1.6976 -0.6366
 8466SOL     OW37033   1.243   1.453   5.800 -0.4628  0.4132  0.1682
 8466SOL    HW137034   1.220   1.423   5.888 -1.4520  0.6199 -0.0185
 8466SOL    HW237035   1.307   1.390   5.768 -0.9516  2.1599 -4.2346
 8467SOL     OW37036   4.025   4.621   4.826 -0.4304 -0.2562 -0.3899
 8467SOL    HW137037   4.119   4.627   4.846 -0.0708  1.9421 -2.6587
 8467SOL    HW237038   4.007   4.711   4.798  0.8588  0.0678 -0.1923
 8468SOL     OW37039   2.979   2.874   0.821 -0.8262 -0.3481  0.1276
 8468SOL    HW137040   2.887   2.850   0.829 -1.4878  2.3915  0.7289
 8468SOL    HW237041   2.974   2.903   0.730  1.5424 -0.4064 -0.0046
 8469SOL     OW37042   1.542   3.780   7.881 -0.1027 -0.1576  0.3615
 8469SOL    HW137043   1.591   3.716   7.829 -0.0651  0.4831 -0.3830
 8469SOL    HW237044   1.607   3.846   7.903  1.0962 -0.6718 -1.6083
 8470SOL     OW37045   1.614   0.848   6.410  0.7350 -0.0051  0.0697
 8470SOL    HW137046   1.594   0.939   6.388  0.1662  0.4055  2.2756
 8470SOL    HW237047   1.527   0.812   6.397  1.0893 -1.2927  1.3491
 8471SOL     OW37048   1.792   0.224   3.201  0.3200  0.2650  0.0973
 8471SOL    HW137049   1.754   0.264   3.123 -3.7451 -0.7001  1.5650
 8471SOL    HW237050   1.803   0.131   3.179  0.3679  0.4768 -0.7893
 8472SOL     OW37051   1.557   0.276  15.314 -0.2270  0.0401 -0.3163
 8472SOL    HW137052   1.532   0.368  15.317  2.6333  0.8477 -0.5386
 8472SOL    HW237053   1.497   0.250  15.244  0.0670  0.0879 -0.5877
 8473SOL     OW37054   2.411   2.186   4.507  0.5981 -0.4697 -0.7679
 8473SOL    HW137055   2.451   2.100   4.499 -0.0754 -0.8426 -0.0571
 8473SOL    HW237056   2.386   2.185   4.599 -0.3102 -0.3033 -1.0185
 8474SOL     OW37057   0.666   2.106   8.635  0.1562 -0.2587 -0.2603
 8474SOL    HW137058   0.581   2.102   8.679 -0.4882  1.5940 -1.3530
 8474SOL    HW237059   0.721   2.122   8.711 -0.8689 -2.0739  0.8805
 8475SOL     OW37060   4.033   0.514   9.711  0.0647  0.3598  0.3871
 8475SOL    HW137061   4.051   0.599   9.672  0.2726 -0.6317 -1.6623
 8475SOL    HW237062   4.122   0.481   9.726  0.1565  0.0840 -0.8098
 8476SOL     OW37063   1.211   4.255   4.116 -0.1860  0.1476  0.6682
 8476SOL    HW137064   1.280   4.188   4.110  0.1010  0.5657 -0.6864
 8476SOL    HW237065   1.239   4.289   4.201  1.4207 -0.4695  0.3895
 8477SOL     OW37066   3.291   3.677  11.714 -0.4987  0.0355 -0.0431
 8477SOL    HW137067   3.347   3.710  11.644 -0.5440  1.3116  0.5292
 8477SOL    HW237068   3.353   3.633  11.772 -1.8612 -2.1575 -0.2297
 8478SOL     OW37069   0.628   2.942  17.554 -1.0222  0.6407 -0.2002
 8478SOL    HW137070   0.662   2.972  17.470  2.2113 -1.0139  0.5570
 8478SOL    HW237071   0.705   2.901  17.591 -1.8750 -0.3427  0.4793
 8479SOL     OW37072   3.365   4.581   7.655 -0.2843 -0.0142 -0.0459
 8479SOL    HW137073   3.343   4.662   7.608  1.0819  0.3081 -0.1295
 8479SOL    HW237074   3.455   4.603   7.682 -0.1448 -1.5789  0.7422
 8480SOL     OW37075   1.278   4.123  13.648  0.3299 -0.3003 -0.2894
 8480SOL    HW137076   1.251   4.034  13.626 -0.0355 -0.1911 -0.2802
 8480SOL    HW237077   1.320   4.111  13.733 -2.9109 -0.4807  1.2682
 8481SOL     OW37078   3.694   4.218   5.125  0.0477 -0.0496 -0.1156
 8481SOL    HW137079   3.647   4.196   5.205  0.6878 -0.7284  0.0710
 8481SOL    HW237080   3.673   4.312   5.125  0.8101  0.1324 -1.3707
 8482SOL     OW37081   2.964   2.876   2.455 -0.0012 -0.3308 -0.0326
 8482SOL    HW137082   2.964   2.969   2.432  1.2106 -0.0878  0.9459
 8482SOL    HW237083   2.876   2.868   2.494  0.7736 -2.2611  1.3014
 8483SOL     OW37084   1.639   2.125   8.149 -0.9287 -0.0473  0.2503
 8483SOL    HW137085   1.657   2.065   8.077  2.1762  0.8891  0.2057
 8483SOL    HW237086   1.611   2.207   8.109 -0.0421 -0.1083 -0.4894
 8484SOL     OW37087   4.340   0.948   0.065  0.1452  0.0283 -0.1526
 8484SOL    HW137088   4.252   0.972   0.093 -0.2158  2.0137 -3.0646
 8484SOL    HW237089   4.335   0.853   0.052  2.4469 -0.0135 -0.7612
 8485SOL     OW37090   3.519   2.360   6.092 -0.5583 -0.2083  0.1540
 8485SOL    HW137091   3.450   2.302   6.122  0.2614 -0.0900  2.2801
 8485SOL    HW237092   3.580   2.291   6.066  0.3464  1.4356 -2.1312
 8486SOL     OW37093   3.006   0.867   6.826  0.2645 -0.1807  0.1897
 8486SOL    HW137094   3.028   0.777   6.805  0.0549 -0.3088  0.5185
 8486SOL    HW237095   2.931   0.855   6.885 -0.9035  1.1677 -1.0407
 8487SOL     OW37096   1.754   1.047   7.475 -0.1515 -0.1011  0.0853
 8487SOL    HW137097   1.820   1.054   7.544 -0.4683  0.4253  0.3411
 8487SOL    HW237098   1.727   0.956   7.477 -0.9969  0.0929 -2.0611
 8488SOL     OW37099   1.544   4.506  12.198 -0.1692 -0.0956  0.2803
 8488SOL    HW137100   1.587   4.439  12.252 -2.6197 -1.5394  0.4201
 8488SOL    HW237101   1.565   4.583  12.250 -1.8005  1.6785 -1.7356
 8489SOL     OW37102   2.765   3.831   8.686 -0.5031 -0.2068  0.1803
 8489SOL    HW137103   2.778   3.864   8.597 -0.7219 -0.9577 -0.1337
 8489SOL    HW237104   2.847   3.783   8.700 -1.6818 -1.9928  1.0627
 8490SOL     OW37105   0.020   3.601   6.824  0.2577 -0.4947 -0.3105
 8490SOL    HW137106   4.663   3.607   6.841  0.3795  1.0719 -0.1914
 8490SOL    HW237107   0.037   3.514   6.858  1.2635 -0.1956 -0.0323
 8491SOL     OW37108   1.674   1.498   0.058  0.1381  0.3124  0.1208
 8491SOL    HW137109   1.585   1.494   0.093 -0.5625  1.2369 -1.5673
 8491SOL    HW237110   1.660   1.435  17.733 -0.0859 -0.1855  0.6143
 8492SOL     OW37111   0.725   2.866  13.097  0.7815 -0.8275  0.3463
 8492SOL    HW137112   0.807   2.913  13.109 -0.5264  1.6690 -0.5356
 8492SOL    HW237113   0.697   2.863  13.188  3.6583 -2.5904  1.1379
 8493SOL     OW37114   1.176   0.404   1.815  0.6151  0.6227  0.5692
 8493SOL    HW137115   1.186   0.489   1.773 -0.3168  0.8955  0.9099
 8493SOL    HW237116   1.123   0.429   1.891  1.3979  1.3900  0.8621
 8494SOL     OW37117   0.686   1.237  12.711  0.3867  0.3817  0.0520
 8494SOL    HW137118   0.627   1.287  12.655 -0.8399  0.2434  1.2240
 8494SOL    HW237119   0.644   1.253  12.796  2.8744  0.4755  1.2727
 8495SOL     OW37120   1.143   1.122   5.082 -0.6260 -0.2803 -0.1303
 8495SOL    HW137121   1.188   1.115   5.166 -1.9194 -0.9993  0.4967
 8495SOL    HW237122   1.217   1.134   5.022  1.5921 -2.2603  2.2165
 8496SOL     OW37123   2.409   1.822   9.777 -0.1426 -0.2730 -0.2818
 8496SOL    HW137124   2.437   1.908   9.809 -1.1148 -0.3102  0.6754
 8496SOL    HW237125   2.429   1.829   9.684  1.6600  0.7049  0.1747
 8497SOL     OW37126   1.874   0.494   5.551 -0.7597  0.0730 -0.0466
 8497SOL    HW137127   1.951   0.521   5.602 -0.8851 -2.0200  1.2311
 8497SOL    HW237128   1.895   0.406   5.522 -0.8800  0.7399 -2.1470
 8498SOL     OW37129   4.379   3.680  11.592  0.1062 -0.0369  0.6444
 8498SOL    HW137130   4.290   3.650  11.606  0.5202 -0.3393  2.5248
 8498SOL    HW237131   4.371   3.775  11.603  0.0120 -0.0055  0.3173
 8499SOL     OW37132   4.372   2.860   7.097  0.5169 -0.4212 -0.6844
 8499SOL    HW137133   4.323   2.783   7.126 -0.2078  1.2288  2.3849
 8499SOL    HW237134   4.301   2.890   7.041 -1.4242 -1.1305  1.4339
 8500SOL     OW37135   2.847   2.734  12.762  0.3000  0.1043 -0.2050
 8500SOL    HW137136   2.862   2.653  12.811  2.1075  0.6011  0.0507
 8500SOL    HW237137   2.752   2.731  12.755  0.2746 -1.5690  0.8218
 8501SOL     OW37138   4.635   1.895   8.185  0.0126 -0.2154 -0.6403
 8501SOL    HW137139   4.640   1.983   8.221 -3.2678  0.3305 -1.4522
 8501SOL    HW237140   4.631   1.837   8.261  1.4999 -2.2972 -2.1557
 8502SOL     OW37141   3.480   2.311   3.086 -0.5024 -0.1141  0.1766
 8502SOL    HW137142   3.566   2.335   3.122 -1.0086 -1.2608  2.1519
 8502SOL    HW237143   3.510   2.239   3.031 -1.1245  0.1631 -0.5190
 8503SOL     OW37144   3.439   2.331   5.595 -0.2580 -0.4517  0.0328
 8503SOL    HW137145   3.493   2.400   5.634 -0.6385  1.5352 -2.9144
 8503SOL    HW237146   3.448   2.271   5.668  1.0416 -0.7045 -0.3386
 8504SOL     OW37147   0.057   2.492  10.521  0.3031  0.0607  0.2885
 8504SOL    HW137148   0.005   2.415  10.502 -1.2908  1.1607  0.1895
 8504SOL    HW237149   4.734   2.537  10.581 -1.3127 -0.0755 -1.2120
 8505SOL     OW37150   3.657   0.780  14.953  0.6786  0.4031  0.6448
 8505SOL    HW137151   3.703   0.699  14.932 -0.0803  0.3642 -0.8640
 8505SOL    HW237152   3.708   0.850  14.913  2.4033 -1.4261 -0.3392
 8506SOL     OW37153   2.588   3.194   3.025 -0.2402  0.3835 -0.4308
 8506SOL    HW137154   2.577   3.100   3.041 -0.0789  0.7847  1.9440
 8506SOL    HW237155   2.535   3.232   3.094  1.0026  0.9754  0.1880
 8507SOL     OW37156   1.755   2.879   6.865 -0.3491  0.4735  0.3263
 8507SOL    HW137157   1.742   2.925   6.782 -0.4733  2.0463  1.2294
 8507SOL    HW237158   1.723   2.789   6.855  0.8503  0.2281 -1.2040
 8508SOL     OW37159   2.848   2.035  12.751 -0.8384 -0.1839 -0.1405
 8508SOL    HW137160   2.893   1.971  12.695 -1.5921 -2.0207  1.3572
 8508SOL    HW237161   2.842   2.008  12.843 -0.3533  0.4114  0.0605
 8509SOL     OW37162   2.351   3.087   2.620 -0.4040 -0.3100  0.2758
 8509SOL    HW137163   2.274   3.141   2.640 -0.2654 -0.9748  2.5630
 8509SOL    HW237164   2.411   3.136   2.676 -0.9969 -0.2473  0.8613
 8510SOL     OW37165   1.463   2.764   6.934 -0.3241  0.6279 -0.5201
 8510SOL    HW137166   1.509   2.735   7.013 -0.5299  0.3022 -0.5195
 8510SOL    HW237167   1.454   2.678   6.892 -0.2644 -0.1868  1.1356
 8511SOL     OW37168   3.490   1.420   3.636  0.3106  1.0584  0.2419
 8511SOL    HW137169   3.442   1.379   3.564  0.9665 -0.9218  0.9216
 8511SOL    HW237170   3.453   1.379   3.715  0.4151 -0.0871 -0.3081
 8512SOL     OW37171   1.611   2.981   5.881 -0.2844 -0.3531  0.2534
 8512SOL    HW137172   1.543   2.931   5.926 -0.8300  1.0015  0.9413
 8512SOL    HW237173   1.686   2.973   5.941  0.3328 -2.0231 -0.7444
 8513SOL     OW37174   3.502   0.751  12.950  0.1920 -0.6031  1.0257
 8513SOL    HW137175   3.543   0.666  12.964  1.0347  0.4186  4.9614
 8513SOL    HW237176   3.480   0.740  12.858 -0.5808  1.5888  0.9478
 8514SOL     OW37177   0.359   0.268   6.588  0.0767 -0.3646 -0.3836
 8514SOL    HW137178   0.292   0.213   6.627 -1.9940 -0.9944 -4.7236
 8514SOL    HW237179   0.353   0.347   6.641  2.7330 -0.4450  0.0243
 8515SOL     OW37180   3.257   4.098   3.984  0.1053 -0.1380 -0.0495
 8515SOL    HW137181   3.277   4.035   3.915  0.3727  1.3968 -1.3742
 8515SOL    HW237182   3.258   4.177   3.930 -0.3111  1.1016  1.7523
 8516SOL     OW37183   0.273   2.088   5.300  0.3110 -0.0345 -0.2753
 8516SOL    HW137184   0.236   2.061   5.385 -0.7254  1.7979 -0.1404
 8516SOL    HW237185   0.355   2.039   5.304  0.8423  0.7655 -1.5330
 8517SOL     OW37186   1.421   1.844   1.885  0.5465 -0.5016  0.0662
 8517SOL    HW137187   1.416   1.834   1.980 -0.4564  1.7426  0.2445
 8517SOL    HW237188   1.514   1.829   1.872  0.3623 -1.7253  0.1317
 8518SOL     OW37189   4.378   4.442  16.668 -0.2072  0.6995 -0.5600
 8518SOL    HW137190   4.461   4.446  16.716  0.0104  0.5853 -0.9265
 8518SOL    HW237191   4.395   4.516  16.609  1.0180  0.9932  0.1581
 8519SOL     OW37192   1.365   1.265   2.903  0.0029  0.1262  0.0834
 8519SOL    HW137193   1.454   1.278   2.870  0.6781  1.9793  2.6362
 8519SOL    HW237194   1.359   1.173   2.929 -0.4028  0.0788 -0.1828
 8520SOL     OW37195   1.174   1.908   0.938  0.0795 -0.1260  0.3734
 8520SOL    HW137196   1.252   1.951   0.973 -0.2472  0.7464  0.0178
 8520SOL    HW237197   1.116   1.983   0.926  1.1139  0.6039 -0.1289
 8521SOL     OW37198   1.615   0.117   8.330  0.7543 -0.2492 -0.4131
 8521SOL    HW137199   1.696   0.161   8.357 -0.1809  1.7719 -0.8726
 8521SOL    HW237200   1.627   0.041   8.386 -3.8242 -0.7247 -0.1089
 8522SOL     OW37201   2.912   3.598   1.687 -0.2861 -0.3007  0.3738
 8522SOL    HW137202   2.840   3.548   1.727  0.1010 -0.5502  0.7531
 8522SOL    HW237203   2.919   3.540   1.611  1.1531 -2.8213  2.4483
 8523SOL     OW37204   3.925   1.559   6.085  0.0012  0.1819  0.4027
 8523SOL    HW137205   3.842   1.542   6.041 -0.4416 -2.0802  2.1306
 8523SOL    HW237206   3.981   1.498   6.038  0.3595 -0.9497  2.2948
 8524SOL     OW37207   1.571   3.061   7.887 -0.0962  0.4939  0.5380
 8524SOL    HW137208   1.599   3.032   7.974 -1.2704  2.6860  1.6446
 8524SOL    HW237209   1.545   3.151   7.906 -0.1985  0.6544 -0.3733
 8525SOL     OW37210   0.415   1.396   6.337 -0.0611  0.1801  0.7596
 8525SOL    HW137211   0.405   1.330   6.268  0.2840  1.7707 -0.7976
 8525SOL    HW237212   0.480   1.461   6.309 -0.0697 -0.5342 -0.9502
 8526SOL     OW37213   1.231   1.625   6.100 -0.5850 -0.1132  0.5097
 8526SOL    HW137214   1.183   1.645   6.180 -3.8408  1.0831 -1.7444
 8526SOL    HW237215   1.182   1.552   6.064  1.3460 -1.3732  0.4447
 8527SOL     OW37216   0.820   2.878   3.085 -0.4835  0.8190  0.0885
 8527SOL    HW137217   0.860   2.956   3.047 -0.3230  0.7076  0.0286
 8527SOL    HW237218   0.841   2.818   3.013  0.5286  1.9905 -0.5855
 8528SOL     OW37219   0.758   0.647   4.668  0.2016 -0.4252 -0.4925
 8528SOL    HW137220   0.774   0.571   4.723  1.5116 -0.4927 -0.9644
 8528SOL    HW237221   0.834   0.700   4.693  0.2771 -1.1472  0.8283
 8529SOL     OW37222   2.954   3.756   1.169 -0.1973  0.5205  0.3293
 8529SOL    HW137223   2.979   3.764   1.261  0.1751  2.9994  0.0160
 8529SOL    HW237224   2.940   3.662   1.170 -0.1301  0.5028 -1.2069
 8530SOL     OW37225   1.707   3.986  15.021 -0.3843 -0.2824  0.2154
 8530SOL    HW137226   1.706   3.891  15.009  1.0897 -0.2437 -0.2225
 8530SOL    HW237227   1.793   3.982  15.061 -0.8390 -1.9094  1.0372
 8531SOL     OW37228   2.063   2.016  12.964 -0.0038  0.0893 -0.5589
 8531SOL    HW137229   2.025   2.097  12.929  1.0806  0.6351 -0.4904
 8531SOL    HW237230   2.117   2.059  13.031  0.1474  0.0382 -0.6467
 8532SOL     OW37231   4.576   4.069   5.270 -0.2075  0.4266 -0.9195
 8532SOL    HW137232   4.593   4.131   5.199  1.2145  0.3217 -0.6572
 8532SOL    HW237233   4.484   4.051   5.249 -1.0725  1.1329  2.3425
 8533SOL     OW37234   3.083   1.775   8.207 -0.0370 -0.2044  0.4708
 8533SOL    HW137235   3.079   1.696   8.261 -0.3704 -0.6742 -0.2323
 8533SOL    HW237236   3.168   1.767   8.164  0.7781 -0.4015  2.1065
 8534SOL     OW37237   3.947   2.886   9.091  0.3050  0.0501  0.2910
 8534SOL    HW137238   3.887   2.841   9.151 -1.5177  2.6508  0.4139
 8534SOL    HW237239   3.985   2.817   9.037 -2.0504 -0.3968 -0.7910
 8535SOL     OW37240   2.982   2.469   3.408  0.0334 -0.1237  0.9040
 8535SOL    HW137241   3.069   2.433   3.424 -0.7866 -0.9210  3.6009
 8535SOL    HW237242   2.953   2.423   3.329 -2.7858 -1.4969  2.7361
 8536SOL     OW37243   3.207   3.885   0.793  1.0526 -0.0238  0.3865
 8536SOL    HW137244   3.269   3.957   0.786  0.4087  0.5509  0.6853
 8536SOL    HW237245   3.242   3.840   0.870 -0.0212 -1.4772  0.0353
 8537SOL     OW37246   3.321   4.646  15.459  0.3752 -0.3007 -0.1314
 8537SOL    HW137247   3.333   4.639  15.554 -1.0746  0.9404  0.1440
 8537SOL    HW237248   3.288   4.736  15.454 -1.2940 -1.0478 -2.4148
 8538SOL     OW37249   0.926   0.371  13.141 -0.7311 -0.3320 -0.5235
 8538SOL    HW137250   0.990   0.310  13.104  1.4875  0.9961  1.0792
 8538SOL    HW237251   0.990   0.435  13.172 -0.5586 -0.5749 -0.3798
 8539SOL     OW37252   0.032   3.492   7.987 -0.0540  0.3747 -0.1581
 8539SOL    HW137253   4.688   3.444   8.005 -0.2002  0.6229 -0.1621
 8539SOL    HW237254   0.003   3.550   7.916  0.1722  3.4708  2.2737
 8540SOL     OW37255   0.922   3.816   3.555  0.5472  0.4490  0.0912
 8540SOL    HW137256   0.856   3.868   3.510 -0.4121  1.3837  2.5943
 8540SOL    HW237257   0.868   3.792   3.630  0.8140 -1.3383 -0.2706
 8541SOL     OW37258   0.395   4.316   6.532  0.3586 -0.2450  0.1918
 8541SOL    HW137259   0.465   4.344   6.590  2.7364 -0.9799 -2.3240
 8541SOL    HW237260   0.325   4.380   6.545 -0.0663 -0.3564 -1.5800
 8542SOL     OW37261   2.545   4.304   7.814  0.5076 -0.4506  0.6308
 8542SOL    HW137262   2.551   4.351   7.898 -1.3083  2.2173 -0.7381
 8542SOL    HW237263   2.606   4.347   7.754 -1.3360 -0.0396 -0.9358
 8543SOL     OW37264   2.700   2.004   4.306 -0.0406 -0.4497 -0.3795
 8543SOL    HW137265   2.700   2.100   4.309  1.4509 -0.4337 -1.0593
 8543SOL    HW237266   2.630   1.976   4.247 -0.7086  2.1256 -0.8142
 8544SOL     OW37267   0.318   1.756   2.424  0.2608  0.2114 -0.5658
 8544SOL    HW137268   0.313   1.804   2.341 -1.4563  1.6077  0.3446
 8544SOL    HW237269   0.236   1.708   2.430  1.2380 -0.9813  3.1704
 8545SOL     OW37270   3.140   2.344   7.473  0.3118  0.1179  0.5768
 8545SOL    HW137271   3.121   2.297   7.554  0.2551  1.0231  1.0969
 8545SOL    HW237272   3.052   2.351   7.435  0.7085  0.9240 -0.1988
 8546SOL     OW37273   2.129   4.510   1.878 -0.3022  0.8282 -0.1258
 8546SOL    HW137274   2.036   4.491   1.889 -0.3978  0.9772 -0.7161
 8546SOL    HW237275   2.125   4.589   1.824 -0.8386  1.3667  0.6979
 8547SOL     OW37276   0.355   3.788  11.017  0.7129  0.9661 -0.1822
 8547SOL    HW137277   0.403   3.721  11.066 -0.8147 -0.0349 -0.0454
 8547SOL    HW237278   0.411   3.865  11.014 -0.8710  2.1643  1.1346
 8548SOL     OW37279   1.720   3.368  11.650  0.3167  0.3323  0.5528
 8548SOL    HW137280   1.776   3.407  11.717  1.2868  1.0288 -0.6610
 8548SOL    HW237281   1.776   3.387  11.575 -0.5883 -0.8485 -0.4249
 8549SOL     OW37282   2.315   0.495   6.836  0.1805 -0.1872  0.8165
 8549SOL    HW137283   2.318   0.408   6.797 -3.8021 -0.6885  1.6572
 8549SOL    HW237284   2.237   0.521   6.787  0.9146  0.9489  0.2504
 8550SOL     OW37285   0.383   1.730   7.346  0.5533  0.1882 -0.0869
 8550SOL    HW137286   0.405   1.653   7.294  0.8080 -0.7180  1.3781
 8550SOL    HW237287   0.456   1.787   7.321  1.8693 -1.8437 -0.8811
 8551SOL     OW37288   2.430   1.908  12.726 -0.2154 -0.2007 -0.1661
 8551SOL    HW137289   2.341   1.880  12.745 -0.8808  0.5524 -2.1210
 8551SOL    HW237290   2.470   1.902  12.812  0.3405 -1.5834 -0.5230
 8552SOL     OW37291   3.081   1.986   2.071  0.2273 -0.5217  0.0966
 8552SOL    HW137292   3.168   2.000   2.034 -0.4923 -0.3785 -1.5183
 8552SOL    HW237293   3.105   1.959   2.159  1.5176  1.6856  0.4195
 8553SOL     OW37294   1.002   2.699   4.901  0.7126  0.3400 -0.2700
 8553SOL    HW137295   1.082   2.652   4.924  0.3047 -0.6360 -0.8811
 8553SOL    HW237296   0.942   2.637   4.942 -0.8285  0.9954 -1.5665
 8554SOL     OW37297   4.131   2.028   5.432 -0.4067 -0.0212 -0.2439
 8554SOL    HW137298   4.100   1.938   5.440 -3.2900  0.9806 -0.1395
 8554SOL    HW237299   4.117   2.036   5.338  1.5032  1.2054 -0.4288
 8555SOL     OW37300   0.449   3.504   3.144 -0.1786 -0.7255 -0.2940
 8555SOL    HW137301   0.427   3.493   3.236  0.9264 -0.7936 -0.0330
 8555SOL    HW237302   0.526   3.560   3.155  0.8119 -2.3322  0.8226
 8556SOL     OW37303   3.365   1.023  14.162  0.1839 -0.6432  0.0040
 8556SOL    HW137304   3.442   1.080  14.153 -1.3262  1.0480 -2.0240
 8556SOL    HW237305   3.366   1.019  14.258 -2.4132 -0.1611  0.0490
 8557SOL     OW37306   1.152   4.660   3.715 -0.1824 -0.4346 -0.0779
 8557SOL    HW137307   1.152   4.601   3.790 -3.6589  1.0173  1.0691
 8557SOL    HW237308   1.102   4.730   3.756 -1.0278 -1.0973  0.0377
 8558SOL     OW37309   3.421   2.350   9.313 -0.0500 -0.1119 -0.5416
 8558SOL    HW137310   3.510   2.347   9.348  0.2197 -0.5077 -1.2546
 8558SOL    HW237311   3.442   2.425   9.257  0.5338  1.5396  1.8986
 8559SOL     OW37312   1.666   0.926   1.216  0.3486 -0.1311  0.1462
 8559SOL    HW137313   1.749   0.917   1.168  0.6450  0.8905  0.4620
 8559SOL    HW237314   1.675   1.010   1.260 -0.8547 -0.6906  1.4349
 8560SOL     OW37315   1.501   1.681   6.663 -0.2915 -0.1889  0.7375
 8560SOL    HW137316   1.527   1.646   6.578 -0.3492  2.1178 -0.2287
 8560SOL    HW237317   1.528   1.618   6.730  0.3246 -0.4511  0.2482
 8561SOL     OW37318   4.431   0.406   3.159  0.1649 -0.4098 -0.1809
 8561SOL    HW137319   4.444   0.312   3.161 -0.4154 -0.5125 -0.8556
 8561SOL    HW237320   4.378   0.408   3.079  2.1203 -2.6542 -1.5038
 8562SOL     OW37321   2.778   3.982   9.829  0.2344  0.1267  0.1641
 8562SOL    HW137322   2.783   3.927   9.907 -1.8494 -1.2497 -0.6783
 8562SOL    HW237323   2.772   3.916   9.760  0.9400  0.8436 -0.5718
 8563SOL     OW37324   0.866   2.702   8.481 -0.1103  0.3423  0.1553
 8563SOL    HW137325   0.784   2.734   8.519 -0.1254  1.8295 -1.1378
 8563SOL    HW237326   0.864   2.609   8.503  1.7222  0.3092  0.1749
 8564SOL     OW37327   1.739   2.393   6.068 -0.3520 -0.5599  0.6876
 8564SOL    HW137328   1.774   2.410   6.155 -0.4966 -0.0332  0.6447
 8564SOL    HW237329   1.811   2.437   6.023  1.1798 -0.0686  3.6400
 8565SOL     OW37330   2.831   1.744   7.481 -0.6243 -0.4629  0.1602
 8565SOL    HW137331   2.856   1.678   7.417  0.7502  0.0465  0.1722
 8565SOL    HW237332   2.903   1.760   7.543 -2.1161 -1.0685  2.0298
 8566SOL     OW37333   1.850   1.499  13.951 -0.0430  0.1362 -0.3686
 8566SOL    HW137334   1.918   1.564  13.969 -0.2810  0.8944 -2.1454
 8566SOL    HW237335   1.803   1.551  13.885 -1.4135 -2.0453 -1.1071
 8567SOL     OW37336   0.531   2.111   6.235 -0.1427 -0.5064  0.0797
 8567SOL    HW137337   0.497   2.036   6.284  1.5143 -1.0790  0.3536
 8567SOL    HW237338   0.587   2.061   6.176  0.5133  1.0143 -0.5853
 8568SOL     OW37339   4.111   2.439   4.112 -0.0710  0.2593  0.5264
 8568SOL    HW137340   4.154   2.488   4.042  2.5428 -1.0191  1.2497
 8568SOL    HW237341   4.063   2.510   4.156 -0.7866 -0.4565  0.9178
 8569SOL     OW37342   3.976   1.028  11.106 -0.4029  0.0465  0.1759
 8569SOL    HW137343   3.884   1.055  11.113 -0.2444  0.8538 -0.9089
 8569SOL    HW237344   3.975   0.942  11.149 -1.3742 -1.3757 -2.6550
 8570SOL     OW37345   4.440   3.650   8.383  0.1105 -0.3118  0.3089
 8570SOL    HW137346   4.530   3.658   8.352 -0.4274  0.4524 -1.0921
 8570SOL    HW237347   4.427   3.555   8.379 -2.1058 -0.0071  0.2267
 8571SOL     OW37348   1.113   0.476   0.120 -0.0827 -0.2357  0.2058
 8571SOL    HW137349   1.194   0.460   0.072 -0.3557  1.5792 -0.8647
 8571SOL    HW237350   1.055   0.517   0.057  3.2419  1.8233 -1.5111
 8572SOL     OW37351   4.440   0.021   7.141  0.5860  0.2416  0.2832
 8572SOL    HW137352   4.402   4.682   7.097 -1.7881  1.4704  0.2168
 8572SOL    HW237353   4.531   4.730   7.153 -0.1480 -2.9705 -1.5188
 8573SOL     OW37354   2.698   2.094   3.775 -0.7513  0.3525  0.2759
 8573SOL    HW137355   2.736   2.157   3.836 -0.4085  0.4621 -0.0514
 8573SOL    HW237356   2.729   2.126   3.690 -2.6411  1.1453 -0.1094
 8574SOL     OW37357   3.198   4.648   5.694  0.5512 -0.0566  0.7806
 8574SOL    HW137358   3.244   4.566   5.711 -1.8286 -1.4221  0.6863
 8574SOL    HW237359   3.145   4.648   5.774 -1.3922 -1.8313 -0.4760
 8575SOL     OW37360   1.607   0.811   2.054  0.1185 -0.3141  0.0884
 8575SOL    HW137361   1.698   0.783   2.066  0.1634  0.0153  0.5031
 8575SOL    HW237362   1.559   0.741   2.010  1.0413 -1.6080  1.1448
 8576SOL     OW37363   4.431   1.928   5.887  0.0369  0.1460 -0.2307
 8576SOL    HW137364   4.410   1.959   5.799 -0.6591 -0.5081 -0.3037
 8576SOL    HW237365   4.522   1.954   5.898 -0.5970  2.6489 -0.9935
 8577SOL     OW37366   3.157   3.840  14.617  0.0845 -0.6775 -0.6929
 8577SOL    HW137367   3.133   3.882  14.534  2.8556 -0.2405 -1.2735
 8577SOL    HW237368   3.093   3.769  14.619 -0.3308 -0.3336 -1.6719
 8578SOL     OW37369   4.274   1.158   6.599  0.6406  0.0897  0.5668
 8578SOL    HW137370   4.365   1.188   6.599  0.3959  0.8356  1.2726
 8578SOL    HW237371   4.249   1.149   6.507 -1.4074 -0.5103  1.1779
 8579SOL     OW37372   1.592   4.712  10.457 -0.2012 -0.3337 -0.5016
 8579SOL    HW137373   1.661   0.032  10.492 -2.5214  2.3322 -0.2844
 8579SOL    HW237374   1.553   0.034  10.392  0.0397 -0.4058 -0.7147
 8580SOL     OW37375   1.358   4.126  12.923  0.3055  0.7186 -0.4799
 8580SOL    HW137376   1.369   4.134  12.828  2.1633  1.2399 -0.2167
 8580SOL    HW237377   1.285   4.064  12.929 -0.7707  1.8969 -1.3700
 8581SOL     OW37378   4.711   1.017   1.437 -0.6275 -0.3847 -0.4136
 8581SOL    HW137379   4.661   0.973   1.506 -0.7719 -2.7547 -2.0457
 8581SOL    HW237380   4.714   0.957   1.362  0.5004 -1.9082  0.8641
 8582SOL     OW37381   2.546   3.575  12.833 -0.1730 -0.3788 -0.3039
 8582SOL    HW137382   2.574   3.574  12.741  2.0359  2.6412  0.3505
 8582SOL    HW237383   2.592   3.496  12.860 -4.0712 -2.0260  1.4963
 8583SOL     OW37384   4.228   2.759  14.891  0.8252 -0.4481 -0.3502
 8583SOL    HW137385   4.248   2.717  14.974 -0.1146  0.1917  0.1965
 8583SOL    HW237386   4.214   2.848  14.924  1.5240  0.1671 -1.7075
 8584SOL     OW37387   4.263   0.920  14.774  0.4934  0.6271 -0.4788
 8584SOL    HW137388   4.191   0.890  14.828 -0.7344  2.1333 -1.2826
 8584SOL    HW237389   4.335   0.860  14.795 -0.5705 -0.4934 -0.0897
 8585SOL     OW37390   0.845   0.899   5.571  0.3955 -0.4445 -0.0113
 8585SOL    HW137391   0.862   0.964   5.502  1.1541 -0.0425  0.5564
 8585SOL    HW237392   0.810   0.826   5.520 -1.6709 -1.2891  2.6225
 8586SOL     OW37393   0.278   4.426  13.247 -0.3017  0.2672  0.8614
 8586SOL    HW137394   0.298   4.341  13.287  1.0332  0.5218  0.7452
 8586SOL    HW237395   0.208   4.438  13.311 -1.5041 -1.0682 -0.2091
 8587SOL     OW37396   2.116   3.890   4.811  0.1600  0.4288  0.1517
 8587SOL    HW137397   2.161   3.884   4.727 -0.6118  0.5800 -0.2685
 8587SOL    HW237398   2.137   3.802   4.844 -1.9140 -0.8114 -1.8259
 8588SOL     OW37399   2.281   1.704  15.015 -0.2888  0.2510 -0.2673
 8588SOL    HW137400   2.343   1.660  14.957 -0.9181 -1.0486  0.0465
 8588SOL    HW237401   2.232   1.755  14.951 -0.6162 -0.0823 -0.2871
 8589SOL     OW37402   3.013   0.931  14.185  0.7062  0.7745  0.2242
 8589SOL    HW137403   3.015   0.841  14.216 -0.1877  0.4859 -0.5461
 8589SOL    HW237404   2.926   0.929  14.146  0.0785  0.6129  1.6466
 8590SOL     OW37405   2.392   2.308  14.709  0.1317  0.3559 -0.0832
 8590SOL    HW137406   2.382   2.366  14.634 -2.1462  0.7013  0.4895
 8590SOL    HW237407   2.301   2.295  14.735 -0.3850  1.8100 -1.2118
 8591SOL     OW37408   3.120   4.626   6.204  0.7270 -0.1185 -0.5569
 8591SOL    HW137409   3.078   4.575   6.274  0.5271 -0.1403 -0.6952
 8591SOL    HW237410   3.137   4.705   6.256  1.6158 -1.0396  0.5765
 8592SOL     OW37411   2.521   4.438   6.339  0.1910 -0.1075  0.0107
 8592SOL    HW137412   2.458   4.443   6.411  0.2659 -2.9504  0.2699
 8592SOL    HW237413   2.493   4.355   6.301 -0.7672  1.0833 -1.8885
 8593SOL     OW37414   3.213   2.310   4.025  0.1461 -0.1648  0.1074
 8593SOL    HW137415   3.146   2.289   3.961  1.1670  4.0016 -2.3453
 8593SOL    HW237416   3.158   2.350   4.093 -1.2203  1.0274 -1.6942
 8594SOL     OW37417   1.601   1.133   6.596  0.8286 -0.2499 -0.1768
 8594SOL    HW137418   1.536   1.109   6.663 -0.1076  1.4890 -0.4626
 8594SOL    HW237419   1.560   1.119   6.511  0.7073 -0.0077 -0.1594
 8595SOL     OW37420   4.094   2.670   1.004  0.2430 -0.0796 -0.0688
 8595SOL    HW137421   4.060   2.630   1.084 -1.1421 -1.4130 -1.3337
 8595SOL    HW237422   4.188   2.679   1.020  0.5371 -3.4045  0.0375
 8596SOL     OW37423   1.257   4.107   6.639  0.5315  0.3948  0.1805
 8596SOL    HW137424   1.199   4.147   6.574  2.0210 -1.3339 -2.2511
 8596SOL    HW237425   1.220   4.126   6.725 -0.2728 -1.4641  0.2408
 8597SOL     OW37426   2.696   1.088   5.568  0.3402  0.3095 -0.3765
 8597SOL    HW137427   2.720   1.019   5.629  1.6570  0.3170 -0.8812
 8597SOL    HW237428   2.776   1.140   5.576  0.7406  0.1465 -3.2731
 8598SOL     OW37429   2.670   1.269   1.842  0.1826  0.2890  0.0048
 8598SOL    HW137430   2.705   1.274   1.931  1.8269 -0.2124 -0.6197
 8598SOL    HW237431   2.581   1.296   1.864  0.6846  2.1693 -0.2668
 8599SOL     OW37432   1.721   0.605   5.960 -0.5214  0.0292 -0.1934
 8599SOL    HW137433   1.698   0.644   6.044  1.4448  0.7802  0.0076
 8599SOL    HW237434   1.761   0.524   5.990  0.0801  1.7012  3.5961
 8600SOL     OW37435   1.521   1.017   4.089  0.1821  0.0603  0.5161
 8600SOL    HW137436   1.477   1.058   4.014  0.2202  0.6886  0.8433
 8600SOL    HW237437   1.594   1.078   4.098  2.2171 -2.4105  0.7546
 8601SOL     OW37438   4.131   4.634   5.502  0.1431 -0.2690 -0.1159
 8601SOL    HW137439   4.221   4.601   5.503  0.2793  0.0819 -2.1381
 8601SOL    HW237440   4.099   4.585   5.578 -1.4597 -0.0383 -0.6515
 8602SOL     OW37441   1.552   4.546  13.099  0.1608 -0.0628 -0.0766
 8602SOL    HW137442   1.511   4.472  13.054  0.5274  0.7572 -1.7505
 8602SOL    HW237443   1.501   4.538  13.180  0.0627 -2.0382 -0.3293
 8603SOL     OW37444   0.572   2.558   3.881  0.0013  0.0986 -0.3759
 8603SOL    HW137445   0.660   2.526   3.897  0.7275  2.1003 -0.3607
 8603SOL    HW237446   0.545   2.583   3.969  0.7813  1.9995 -0.6734
 8604SOL     OW37447   2.224   2.014   3.807  0.2504  0.3757  0.5013
 8604SOL    HW137448   2.197   1.922   3.809  1.3164  0.0750  1.0124
 8604SOL    HW237449   2.223   2.033   3.713 -1.4261  2.5704  0.9676
 8605SOL     OW37450   4.367   1.097   8.039 -0.0271 -0.1026 -0.0125
 8605SOL    HW137451   4.404   1.128   7.956  0.1615  2.4980  1.0702
 8605SOL    HW237452   4.344   1.007   8.014 -0.5196  0.6469 -2.2524
 8606SOL     OW37453   1.853   1.276   2.203 -0.0944 -0.6548  0.3151
 8606SOL    HW137454   1.836   1.252   2.295  1.5301 -0.7514  0.5848
 8606SOL    HW237455   1.870   1.190   2.166  0.5552 -0.1646 -0.5278
 8607SOL     OW37456   1.886   2.785   8.232 -0.1254 -0.4642  0.9896
 8607SOL    HW137457   1.842   2.699   8.228 -3.8236  1.4920 -0.7438
 8607SOL    HW237458   1.971   2.768   8.272  0.0367  0.8556  1.1970
 8608SOL     OW37459   0.428   0.606   8.199 -0.0396  0.1819  0.4462
 8608SOL    HW137460   0.440   0.560   8.283  1.9166  1.0454  0.6323
 8608SOL    HW237461   0.339   0.577   8.179  0.8248 -1.2391 -1.2793
 8609SOL     OW37462   1.603   1.451  14.071  0.4337  0.4556 -0.3058
 8609SOL    HW137463   1.613   1.534  14.118  1.8608  0.2950 -0.3194
 8609SOL    HW237464   1.682   1.456  14.017  0.7004  0.9913  0.1318
 8610SOL     OW37465   1.385   3.516   1.366 -0.0109 -0.2505 -0.0987
 8610SOL    HW137466   1.479   3.496   1.362 -0.2361 -1.0497 -1.6294
 8610SOL    HW237467   1.375   3.556   1.452 -0.9773 -0.7238  0.0040
 8611SOL     OW37468   1.988   4.078   2.639 -0.2576  0.0116  0.0375
 8611SOL    HW137469   1.957   4.031   2.561  1.2324 -2.2681  0.8289
 8611SOL    HW237470   2.083   4.084   2.632 -0.1169  0.4367  2.4961
 8612SOL     OW37471   0.030   2.404  16.654 -0.4558  0.5550  0.1739
 8612SOL    HW137472   4.702   2.387  16.723 -1.5910 -3.6139 -1.8891
 8612SOL    HW237473   0.100   2.450  16.702 -0.6006  0.6081  0.3350
 8613SOL     OW37474   1.212   1.761   3.873 -0.0876  0.2073  0.2341
 8613SOL    HW137475   1.305   1.780   3.885  0.2677 -0.6969 -1.0718
 8613SOL    HW237476   1.161   1.789   3.949 -1.5298  0.3042 -0.7603
 8614SOL     OW37477   2.339   3.850   6.732 -0.2198  0.0488 -1.1110
 8614SOL    HW137478   2.416   3.853   6.788  0.5410  0.2116 -2.1801
 8614SOL    HW237479   2.300   3.928   6.770  0.9141  0.5843 -1.0664
 8615SOL     OW37480   3.415   3.265   6.719  0.2692  0.0177  0.6948
 8615SOL    HW137481   3.467   3.268   6.800  1.9466  2.6922 -0.4881
 8615SOL    HW237482   3.454   3.187   6.680 -0.9646 -0.6252  0.7688
 8616SOL     OW37483   2.461   1.058   9.843  0.1903 -0.6433 -0.0925
 8616SOL    HW137484   2.477   1.073   9.750 -4.0457  3.3648 -0.1647
 8616SOL    HW237485   2.432   0.968   9.831  0.6562 -0.9306  0.8823
 8617SOL     OW37486   3.952   3.206   3.245 -0.0610  0.0856  0.2718
 8617SOL    HW137487   3.901   3.282   3.275  1.2655  1.4542 -0.9516
 8617SOL    HW237488   3.926   3.139   3.308 -1.5808  0.0429 -0.3882
 8618SOL     OW37489   0.349   2.550  14.784  0.0276 -0.2738 -0.1524
 8618SOL    HW137490   0.299   2.624  14.817  4.0858  2.6837 -0.6830
 8618SOL    HW237491   0.429   2.597  14.804 -1.2877  0.9452  2.2875
 8619SOL     OW37492   0.608   2.881   6.722  0.4191 -0.0074  0.9513
 8619SOL    HW137493   0.697   2.892   6.688  0.5070 -0.2849  1.0894
 8619SOL    HW237494   0.628   2.797   6.765 -1.8636 -0.5927  0.8664
 8620SOL     OW37495   3.552   2.459  16.180  0.2911 -0.1592  0.0528
 8620SOL    HW137496   3.562   2.528  16.245  0.2944 -0.1425  0.0345
 8620SOL    HW237497   3.597   2.504  16.109 -0.3140  0.7968  0.2770
 8621SOL     OW37498   0.207   2.519   5.254  0.2628 -0.1721  0.1567
 8621SOL    HW137499   0.208   2.430   5.218 -0.9405 -0.1548  0.0740
 8621SOL    HW237500   0.153   2.564   5.189  1.3753 -0.8262 -1.2347
 8622SOL     OW37501   3.418   1.054  16.453 -0.3818 -0.9895 -0.0707
 8622SOL    HW137502   3.332   1.024  16.423 -0.5633  2.0143 -2.6789
 8622SOL    HW237503   3.411   1.147  16.431 -1.7738 -1.3099 -0.9909
 8623SOL     OW37504   0.350   4.104  16.413  0.2667 -0.1437 -0.0702
 8623SOL    HW137505   0.282   4.138  16.355  0.0345 -1.8149 -0.7681
 8623SOL    HW237506   0.380   4.031  16.360  2.5781  0.0565  0.9721
 8624SOL     OW37507   4.633   3.468  11.791  0.1872  0.1345 -0.7543
 8624SOL    HW137508   4.641   3.489  11.698  2.3009 -2.4437 -1.1521
 8624SOL    HW237509   4.619   3.373  11.783 -0.0408 -0.0962  2.3435
 8625SOL     OW37510   2.686   2.486   2.133 -0.1757 -0.1685  0.3697
 8625SOL    HW137511   2.677   2.446   2.047  1.0513  0.6684 -0.1447
 8625SOL    HW237512   2.781   2.479   2.146  0.2150  0.3529 -2.2957
 8626SOL     OW37513   2.192   1.551   4.324  0.6099 -0.4000  0.0577
 8626SOL    HW137514   2.180   1.469   4.276 -2.8630  0.0988  0.0455
 8626SOL    HW237515   2.173   1.611   4.252  0.4564 -0.5131  0.0028
 8627SOL     OW37516   2.362   1.017   6.886  0.2502 -0.3520 -0.9939
 8627SOL    HW137517   2.356   0.966   6.806  1.1823 -0.3470 -1.0666
 8627SOL    HW237518   2.434   1.076   6.864  0.8822 -0.5871  0.4427
 8628SOL     OW37519   0.452   4.315   4.685 -0.0431 -0.4834  0.4962
 8628SOL    HW137520   0.420   4.401   4.658 -4.1211 -1.7768  1.2003
 8628SOL    HW237521   0.466   4.273   4.600  2.4695  2.3420 -0.4981
 8629SOL     OW37522   0.973   1.298  15.289 -0.0095 -0.3225 -0.0908
 8629SOL    HW137523   0.899   1.359  15.285  1.8403  1.9594 -0.0576
 8629SOL    HW237524   0.967   1.257  15.203 -0.4449  1.5338 -0.9643
 8630SOL     OW37525   3.659   0.567   1.266 -0.6369  0.5763  0.6948
 8630SOL    HW137526   3.715   0.626   1.317 -1.9402  1.1836  1.4487
 8630SOL    HW237527   3.627   0.621   1.194 -0.1200 -1.0381 -0.7156
 8631SOL     OW37528   1.710   4.078   2.939 -0.4199 -0.3215  0.4014
 8631SOL    HW137529   1.671   4.041   3.018  0.4634 -0.2885  0.8454
 8631SOL    HW237530   1.651   4.036   2.876 -1.4750  1.7533 -0.0350
 8632SOL     OW37531   1.983   0.245   8.783 -0.4112 -0.0779  0.5293
 8632SOL    HW137532   1.975   0.268   8.690  1.7242  2.6345  0.9984
 8632SOL    HW237533   2.010   0.328   8.822 -3.3146  0.0780  2.1906
 8633SOL     OW37534   2.503   0.829  11.150 -0.1466 -0.6709  0.4439
 8633SOL    HW137535   2.466   0.776  11.220  0.9050 -0.3051  1.2674
 8633SOL    HW237536   2.529   0.916  11.180  0.4857 -1.1288  1.1994
 8634SOL     OW37537   2.283   3.173  13.535  0.7063 -0.2025  0.0279
 8634SOL    HW137538   2.238   3.118  13.470 -0.8235  1.6387 -0.4683
 8634SOL    HW237539   2.344   3.219  13.478  0.1302 -0.2474 -0.6373
 8635SOL     OW37540   0.121   0.148  15.799 -0.4133 -0.0523  0.1624
 8635SOL    HW137541   0.203   0.146  15.848  0.8619 -0.7172 -2.0143
 8635SOL    HW237542   0.083   0.228  15.834  0.7681  0.2205  0.8219
 8636SOL     OW37543   2.253   0.213   6.007  1.1311 -0.1535  0.0508
 8636SOL    HW137544   2.209   0.171   6.082 -1.9681 -0.6805 -2.0616
 8636SOL    HW237545   2.263   0.142   5.944 -0.6292 -0.3693  0.0079
 8637SOL     OW37546   1.692   3.119   6.692  0.4569 -0.7235 -0.2145
 8637SOL    HW137547   1.649   3.184   6.637 -0.4130  0.8022  2.2951
 8637SOL    HW237548   1.755   3.088   6.626 -0.1175 -2.2961 -0.0275
 8638SOL     OW37549   1.174   0.621   5.030  0.4373  0.2978  0.0982
 8638SOL    HW137550   1.121   0.697   5.006 -0.7494 -0.5338  0.0810
 8638SOL    HW237551   1.254   0.637   4.980  0.0197  0.7852 -0.4150
 8639SOL     OW37552   0.271   0.231  17.651 -0.0712  0.0271 -0.4326
 8639SOL    HW137553   0.189   0.261  17.611  0.9009 -0.2788 -2.6662
 8639SOL    HW237554   0.308   0.316  17.677  1.8887 -0.8380 -0.4075
 8640SOL     OW37555   2.685   1.567   3.246  0.8356 -0.0968  0.1670
 8640SOL    HW137556   2.700   1.553   3.152  1.4002  1.2366  0.0591
 8640SOL    HW237557   2.590   1.563   3.253  0.9146 -0.7005  0.8434
 8641SOL     OW37558   2.049   3.856  15.572 -0.2795 -0.5043 -0.4627
 8641SOL    HW137559   1.989   3.859  15.646  0.6071  1.5679  0.1637
 8641SOL    HW237560   2.084   3.771  15.598 -0.5418  0.1070  1.9272
 8642SOL     OW37561   3.926   0.583   6.260 -0.4003  0.0762  0.5333
 8642SOL    HW137562   3.955   0.620   6.176 -0.7836  0.6291  0.6394
 8642SOL    HW237563   3.896   0.662   6.305 -1.1404  1.2782 -2.0614
 8643SOL     OW37564   2.568   1.035  11.632  0.3281 -0.1063  0.6263
 8643SOL    HW137565   2.609   1.069  11.712  4.1569  1.4138 -2.0237
 8643SOL    HW237566   2.541   1.116  11.588  2.4030  0.0995 -0.2307
 8644SOL     OW37567   1.292   3.286   5.286  0.4624 -0.6588  0.6315
 8644SOL    HW137568   1.225   3.282   5.218 -0.2765  1.9521  1.1952
 8644SOL    HW237569   1.317   3.379   5.289 -0.0841 -0.4860 -0.2481
 8645SOL     OW37570   3.394   2.265  14.312 -0.6730  0.0489  0.1152
 8645SOL    HW137571   3.413   2.187  14.261  0.8307 -0.4217  1.3975
 8645SOL    HW237572   3.474   2.311  14.286 -0.4718 -0.9115 -0.9247
 8646SOL     OW37573   1.398   1.595   3.631  0.5526 -0.5923  0.4743
 8646SOL    HW137574   1.356   1.665   3.680  3.0183 -1.0426  3.2509
 8646SOL    HW237575   1.466   1.572   3.695  1.1411 -2.4681 -0.8266
 8647SOL     OW37576   4.461   3.721   4.607 -0.0129 -0.8039  0.7913
 8647SOL    HW137577   4.480   3.683   4.521 -0.9742 -1.7395  0.9949
 8647SOL    HW237578   4.510   3.803   4.606 -0.0628 -0.7740  0.7801
 8648SOL     OW37579   4.186   2.676   9.645 -0.7784 -0.0237  0.2264
 8648SOL    HW137580   4.210   2.690   9.736 -0.9194 -0.1778  0.2873
 8648SOL    HW237581   4.100   2.637   9.664 -1.3956  1.1732 -0.0901
 8649SOL     OW37582   3.897   3.412  14.783  0.0495  0.1664 -0.4590
 8649SOL    HW137583   3.819   3.424  14.837  1.4612  3.5518  0.8248
 8649SOL    HW237584   3.859   3.454  14.706  0.1109  0.6538 -0.2274
 8650SOL     OW37585   0.940   1.586  14.724 -0.5933 -0.3440 -0.0749
 8650SOL    HW137586   0.849   1.557  14.725 -0.4960 -0.5458  2.9956
 8650SOL    HW237587   0.939   1.621  14.635  1.0209  2.2267  0.9087
 8651SOL     OW37588   2.118   2.259  14.744 -0.6481 -0.1146  0.0143
 8651SOL    HW137589   2.041   2.290  14.696  0.5496 -1.1813 -2.6145
 8651SOL    HW237590   2.087   2.279  14.833  0.2465  2.5054 -0.2656
 8652SOL     OW37591   2.778   1.815   3.039  0.0101 -0.4540  0.0599
 8652SOL    HW137592   2.804   1.734   3.082  0.5285 -1.5578 -2.3147
 8652SOL    HW237593   2.863   1.818   2.995  0.6543  0.1420  1.3379
 8653SOL     OW37594   2.644   0.877   4.044 -0.4417  0.4010  0.9129
 8653SOL    HW137595   2.733   0.910   4.032 -0.5783 -0.3407 -2.0764
 8653SOL    HW237596   2.617   0.854   3.955 -0.9128 -0.0932  1.1840
 8654SOL     OW37597   3.613   0.410   6.305 -0.8084 -0.3167  0.0821
 8654SOL    HW137598   3.642   0.329   6.345  0.2714 -1.3083 -2.6757
 8654SOL    HW237599   3.605   0.467   6.381  0.2133 -1.5732  1.1173
 8655SOL     OW37600   2.765   2.991   5.811 -0.6663 -0.0714  0.1322
 8655SOL    HW137601   2.689   2.949   5.772 -0.8903  0.6702 -0.2174
 8655SOL    HW237602   2.735   3.062   5.867  0.4643  0.9762 -0.5800
 8656SOL     OW37603   0.499   1.924   2.951 -0.0655 -0.7099 -0.7086
 8656SOL    HW137604   0.463   2.012   2.961 -0.0794 -1.0531  2.5372
 8656SOL    HW237605   0.585   1.938   2.990  0.4620  0.4979 -2.3164
 8657SOL     OW37606   4.615   2.746   3.193  0.0396 -0.0790 -0.3656
 8657SOL    HW137607   4.644   2.670   3.243 -1.4334 -0.2660  0.1790
 8657SOL    HW237608   4.572   2.705   3.118  1.0499 -0.7852 -0.5622
 8658SOL     OW37609   2.304   0.566  17.706  0.0878  0.2500 -0.1712
 8658SOL    HW137610   2.281   0.474  17.692  3.4910 -0.4931 -0.9351
 8658SOL    HW237611   2.395   0.560  17.734 -0.6291 -0.7623  1.9917
 8659SOL     OW37612   4.593   4.664   3.928  0.2142 -0.0144 -0.8951
 8659SOL    HW137613   4.630   4.589   3.881 -0.8631 -0.1851 -1.4676
 8659SOL    HW237614   4.672   4.715   3.938  0.3239 -0.0457 -1.6220
 8660SOL     OW37615   0.314   1.131  16.466  0.1386 -0.1984  0.1585
 8660SOL    HW137616   0.345   1.056  16.416 -0.6514 -0.8842  0.7005
 8660SOL    HW237617   0.387   1.132  16.527  1.7200 -2.0648 -1.7325
 8661SOL     OW37618   3.447   4.710  17.211 -0.2448  0.3635 -0.2980
 8661SOL    HW137619   3.504   4.684  17.139 -0.7122 -0.0633 -0.5127
 8661SOL    HW237620   3.390   0.040  17.172 -0.1018  1.6030  1.6312
 8662SOL     OW37621   1.154   0.787   2.513  0.1201  0.0592 -0.1099
 8662SOL    HW137622   1.105   0.779   2.431  0.3272  1.3441 -0.3518
 8662SOL    HW237623   1.125   0.710   2.561  0.7997 -1.8612 -2.7722
 8663SOL     OW37624   1.442   2.811   5.196 -0.4260  0.2651  0.1141
 8663SOL    HW137625   1.436   2.773   5.284  2.1269  0.4448  0.3731
 8663SOL    HW237626   1.396   2.890   5.222 -1.1691 -0.4426  0.9616
 8664SOL     OW37627   1.489   3.584   9.569 -0.1054 -1.1476  0.5480
 8664SOL    HW137628   1.480   3.489   9.572 -0.1968 -1.1898 -1.2339
 8664SOL    HW237629   1.446   3.609   9.487  1.8883 -0.3862 -0.2709
 8665SOL     OW37630   2.068   1.069   3.082  0.3368 -0.6495  0.3416
 8665SOL    HW137631   2.055   1.023   3.165 -1.9415 -0.0729  0.3083
 8665SOL    HW237632   2.142   1.032   3.035  0.9163  0.7100  0.1717
 8666SOL     OW37633   2.899   0.404   0.565  0.6755 -0.5903 -0.2707
 8666SOL    HW137634   2.890   0.452   0.647 -1.8419 -0.4154 -0.6547
 8666SOL    HW237635   2.858   0.469   0.508  2.1153  1.0659  0.5828
 8667SOL     OW37636   2.549   3.791   6.915 -0.3166  0.3013 -0.0932
 8667SOL    HW137637   2.623   3.851   6.905 -0.1045  0.2170  0.9699
 8667SOL    HW237638   2.532   3.813   7.007  2.0065 -1.9572  0.8814
 8668SOL     OW37639   3.512   1.608  17.532 -0.6906 -0.4447 -0.1371
 8668SOL    HW137640   3.431   1.633  17.487 -1.5563 -0.4469  1.4016
 8668SOL    HW237641   3.513   1.674  17.602 -0.8435  1.0931 -1.5802
 8669SOL     OW37642   3.352   4.542   0.995  0.0729  0.6741 -0.0961
 8669SOL    HW137643   3.365   4.628   1.035  2.2178  0.1968  0.2216
 8669SOL    HW237644   3.393   4.553   0.909  0.5221 -1.2126 -0.1358
 8670SOL     OW37645   2.864   0.974   7.466  0.5728  0.1816 -0.0114
 8670SOL    HW137646   2.792   0.923   7.430  0.8760  0.0193 -0.3963
 8670SOL    HW237647   2.925   0.902   7.479 -1.2784 -1.0631  1.7629
 8671SOL     OW37648   4.345   3.627   7.403 -0.0040 -0.0594 -0.1256
 8671SOL    HW137649   4.432   3.615   7.441 -0.3157  2.1550  1.2500
 8671SOL    HW237650   4.301   3.671   7.476  0.2522 -0.0801  0.0428
 8672SOL     OW37651   3.446   0.257   8.116  0.3076 -0.4817  0.1253
 8672SOL    HW137652   3.370   0.199   8.125  0.4895 -0.2472  3.0576
 8672SOL    HW237653   3.407   0.327   8.167  0.2394  1.5206 -2.7061
 8673SOL     OW37654   1.183   2.021  13.362  0.4889 -0.4757 -0.4746
 8673SOL    HW137655   1.249   2.036  13.295  2.2060  1.1007  1.5739
 8673SOL    HW237656   1.188   2.104  13.409  1.5794 -2.0315  2.1613
 8674SOL     OW37657   0.561   4.245   8.034 -0.3569  0.2366 -0.0577
 8674SOL    HW137658   0.612   4.241   8.115 -0.0836  1.7029 -0.1565
 8674SOL    HW237659   0.571   4.337   8.010 -1.3119 -0.6155 -3.6522
 8675SOL     OW37660   3.509   3.710   3.762  0.2687  0.2285 -0.2216
 8675SOL    HW137661   3.572   3.684   3.694 -1.2345  1.0042 -1.9175
 8675SOL    HW237662   3.472   3.623   3.768  0.7308  0.2840  3.4004
 8676SOL     OW37663   1.404   0.494   2.642  0.2292  0.2352  0.1225
 8676SOL    HW137664   1.387   0.427   2.576 -0.8458  1.0843 -0.4365
 8676SOL    HW237665   1.474   0.539   2.595 -0.6852 -0.2665 -1.7205
 8677SOL     OW37666   0.993   2.555   3.711  0.3167  0.4640  0.0220
 8677SOL    HW137667   0.936   2.558   3.634 -1.2588  2.1457  1.2511
 8677SOL    HW237668   0.972   2.644   3.740 -0.2198  0.1777  0.4988
 8678SOL     OW37669   3.998   2.134   5.913  0.5336 -0.3401 -0.7102
 8678SOL    HW137670   4.036   2.122   5.826  0.0228  1.5651 -1.1788
 8678SOL    HW237671   4.074   2.117   5.969 -0.9486 -0.4370  1.2593
 8679SOL     OW37672   4.173   1.230   5.706  0.2161  0.6344 -0.1739
 8679SOL    HW137673   4.155   1.207   5.615  1.1731  0.1436 -0.2413
 8679SOL    HW237674   4.257   1.187   5.722 -0.9974 -2.0261 -0.8656
 8680SOL     OW37675   4.435   3.432   5.127  0.7311 -0.0614  0.4259
 8680SOL    HW137676   4.524   3.459   5.105 -0.0965  1.5226 -0.9899
 8680SOL    HW237677   4.449   3.418   5.221  0.3665  0.7402  0.6028
 8681SOL     OW37678   0.618   4.087   1.960  0.3103  0.1887 -0.3812
 8681SOL    HW137679   0.653   4.123   1.878  3.6365 -0.6578  0.6963
 8681SOL    HW237680   0.617   4.161   2.021 -1.5348 -1.2997  1.3960
 8682SOL     OW37681   3.609   2.705  13.640  0.1991 -0.2719  0.4700
 8682SOL    HW137682   3.519   2.675  13.656 -0.2774  0.7231 -0.2604
 8682SOL    HW237683   3.653   2.656  13.709  0.3736 -0.2568  0.3687
 8683SOL     OW37684   1.671   3.067  13.235  0.3988 -0.0145 -0.1250
 8683SOL    HW137685   1.753   3.018  13.247 -0.0150 -0.6081  0.3180
 8683SOL    HW237686   1.664   3.102  13.324 -2.4161 -0.3931 -0.1937
 8684SOL     OW37687   2.730   3.072  16.367  0.3948  0.2967 -0.3452
 8684SOL    HW137688   2.741   3.167  16.369 -1.4402  0.5235 -1.0000
 8684SOL    HW237689   2.707   3.047  16.278 -1.4441 -0.3682  0.3328
 8685SOL     OW37690   0.285   0.739   3.826 -0.7628 -0.0033  0.1627
 8685SOL    HW137691   0.348   0.667   3.825 -2.0489 -1.0955 -0.8760
 8685SOL    HW237692   0.285   0.763   3.733  0.0177  1.0735  0.4303
 8686SOL     OW37693   0.186   1.306   1.896 -0.1407  0.3202 -0.2470
 8686SOL    HW137694   0.253   1.277   1.833 -0.0648  0.1385 -0.0831
 8686SOL    HW237695   0.185   1.399   1.876  1.5364 -0.2411 -2.9563
 8687SOL     OW37696   0.486   1.825  17.317 -0.0987 -0.0384  0.5476
 8687SOL    HW137697   0.504   1.759  17.250  1.9172  0.5668  0.4897
 8687SOL    HW237698   0.417   1.779  17.365 -1.4860 -0.1232 -1.5460
 8688SOL     OW37699   3.069   1.857  16.264 -0.3087 -0.2415  0.5987
 8688SOL    HW137700   3.094   1.923  16.199  3.2352 -1.9810  0.1748
 8688SOL    HW237701   3.010   1.913  16.314 -1.6593  0.4032 -1.7152
 8689SOL     OW37702   0.764   0.519   8.073  0.1251  0.0385 -0.2711
 8689SOL    HW137703   0.796   0.521   8.163 -1.1523  1.8364  0.1445
 8689SOL    HW237704   0.840   0.489   8.024  0.9418 -1.7216  2.0243
 8690SOL     OW37705   1.832   2.365   5.066 -0.0779  0.3139  0.4013
 8690SOL    HW137706   1.791   2.344   5.149 -0.8845  1.2467  0.2340
 8690SOL    HW237707   1.875   2.449   5.087 -0.8021  0.3030  1.8972
 8691SOL     OW37708   1.238   0.689  13.421  0.1857 -0.2489  0.4857
 8691SOL    HW137709   1.242   0.701  13.515  1.2403  0.3117  0.3707
 8691SOL    HW237710   1.317   0.637  13.407  1.4463  1.9606 -0.5302
 8692SOL     OW37711   0.539   1.761   3.377  0.5620  0.6015  0.2845
 8692SOL    HW137712   0.605   1.782   3.310 -1.3532 -0.6099 -1.9709
 8692SOL    HW237713   0.521   1.667   3.369 -1.8739  1.0827  0.0988
 8693SOL     OW37714   1.974   2.949   4.058  0.5319 -0.1921  0.4156
 8693SOL    HW137715   1.924   2.963   3.978  2.0653  0.1547 -0.4753
 8693SOL    HW237716   2.020   2.865   4.051 -1.8100 -1.4373 -0.0314
 8694SOL     OW37717   1.809   1.178   7.237 -0.2743 -0.0898 -0.1126
 8694SOL    HW137718   1.721   1.211   7.219 -0.5946  0.7650  3.0464
 8694SOL    HW237719   1.789   1.127   7.315  1.7581  0.2254  0.5995
 8695SOL     OW37720   2.773   0.604   8.661  1.2257 -0.3646 -0.0788
 8695SOL    HW137721   2.746   0.522   8.621 -0.9160  0.8511 -1.1719
 8695SOL    HW237722   2.704   0.603   8.728  0.1531 -0.2183 -1.1713
 8696SOL     OW37723   2.431   0.698   6.966  0.1856 -0.3606  0.8778
 8696SOL    HW137724   2.359   0.736   7.016 -0.1715 -0.3905  0.3881
 8696SOL    HW237725   2.390   0.638   6.905  0.3441  1.6713 -1.2494
 8697SOL     OW37726   4.400   0.918   2.145 -0.0606 -0.1267 -0.3065
 8697SOL    HW137727   4.478   0.971   2.123 -1.0334  0.5150 -2.2049
 8697SOL    HW237728   4.342   0.979   2.190  0.0865  0.2048 -0.5606
 8698SOL     OW37729   0.711   2.940  17.291 -0.0626 -0.5970  0.1777
 8698SOL    HW137730   0.798   2.903  17.272  0.1757 -0.4246  0.9426
 8698SOL    HW237731   0.680   2.953  17.201 -0.6129  1.4909  0.6674
 8699SOL     OW37732   2.217   3.825   9.379  0.2516 -0.0541 -0.6373
 8699SOL    HW137733   2.152   3.755   9.380  0.8352 -0.5946 -0.2818
 8699SOL    HW237734   2.191   3.884   9.308  1.0712  0.5160 -0.4639
 8700SOL     OW37735   2.818   0.074  12.788 -0.5174  0.9840  0.0762
 8700SOL    HW137736   2.797   0.167  12.775  0.0957  1.1915  0.5677
 8700SOL    HW237737   2.731   0.040  12.809 -0.5886  1.0676 -0.0828
 8701SOL     OW37738   3.181   3.806   7.641 -0.1123 -0.0306  0.5909
 8701SOL    HW137739   3.088   3.796   7.660 -0.2323 -2.2578 -1.1458
 8701SOL    HW237740   3.172   3.851   7.557  2.2542  1.8106  1.3192
 8702SOL     OW37741   4.001   2.375   8.958 -0.3786  0.6716 -0.4818
 8702SOL    HW137742   4.052   2.312   9.009 -1.3978 -1.0002 -1.5021
 8702SOL    HW237743   3.980   2.329   8.876 -3.0419  2.0635 -0.5844
 8703SOL     OW37744   1.757   0.907  10.180  0.7324  0.0245 -0.7195
 8703SOL    HW137745   1.689   0.973  10.195 -0.4647 -1.0559 -1.3345
 8703SOL    HW237746   1.742   0.840  10.246  0.6918 -1.1292 -1.8912
 8704SOL     OW37747   2.998   0.374   1.588 -0.3616 -0.1812 -0.0588
 8704SOL    HW137748   2.926   0.391   1.527  0.7258  0.2114 -1.2561
 8704SOL    HW237749   3.073   0.379   1.528 -0.4676 -1.0344 -0.2596
 8705SOL     OW37750   1.109   3.909   8.823  0.2164 -0.2760 -0.1784
 8705SOL    HW137751   1.065   3.994   8.816  0.1426 -0.1993  1.2037
 8705SOL    HW237752   1.109   3.895   8.918 -1.3661  3.2763  0.3760
 8706SOL     OW37753   3.743   3.297   0.847  0.3346 -0.2279 -0.1992
 8706SOL    HW137754   3.796   3.327   0.921  0.9087 -2.9958  0.5070
 8706SOL    HW237755   3.729   3.380   0.801  0.8565 -0.5804 -0.9921
 8707SOL     OW37756   0.879   2.905  17.727 -0.0405 -0.2510 -0.3684
 8707SOL    HW137757   0.905   2.939  17.642  2.4966  0.6509  0.7829
 8707SOL    HW237758   0.861   2.985   0.032 -0.7020  0.6856 -2.1312
 8708SOL     OW37759   2.020   2.899  12.441  0.5441  0.3870 -0.3139
 8708SOL    HW137760   2.006   2.917  12.534  1.9063 -2.4531  0.4496
 8708SOL    HW237761   1.946   2.951  12.410  1.4225  2.0609  0.3532
 8709SOL     OW37762   3.496   3.781   0.316  0.3580  0.1533 -0.6405
 8709SOL    HW137763   3.545   3.863   0.325  0.1689  0.2629 -0.6091
 8709SOL    HW237764   3.502   3.772   0.221  1.6477  1.9961 -0.7310
 8710SOL     OW37765   1.794   0.072  15.383 -0.1017 -0.5612 -0.0587
 8710SOL    HW137766   1.716   0.077  15.327 -1.7953  0.3470  2.3409
 8710SOL    HW237767   1.827   0.162  15.384 -0.2694 -0.5149  2.5221
 8711SOL     OW37768   3.133   3.362   7.840 -0.6586  0.1886 -0.2428
 8711SOL    HW137769   3.106   3.271   7.830  1.3779 -0.6852  2.1124
 8711SOL    HW237770   3.052   3.414   7.836 -0.6884  0.1862  0.2535
 8712SOL     OW37771   0.738   2.420   6.287 -0.4886  0.3471  0.0746
 8712SOL    HW137772   0.745   2.490   6.222 -1.3642  2.0549  1.8273
 8712SOL    HW237773   0.656   2.454   6.322 -0.5235  0.0029  0.3251
 8713SOL     OW37774   0.589   3.727   2.482 -0.6314 -0.0600  0.1006
 8713SOL    HW137775   0.661   3.721   2.545 -1.7634 -0.6626  1.3236
 8713SOL    HW237776   0.623   3.675   2.409 -1.5792 -2.3560  1.2977
 8714SOL     OW37777   4.708   3.695   4.307 -0.1401 -0.3991  0.0222
 8714SOL    HW137778   4.685   3.716   4.216  0.5307 -1.0125 -0.2819
 8714SOL    HW237779   0.064   3.671   4.302 -0.2625 -0.7690 -0.4193
 8715SOL     OW37780   4.230   1.069  14.531 -0.4646  0.2010  0.0066
 8715SOL    HW137781   4.312   1.039  14.570 -1.0581 -0.5932  0.6448
 8715SOL    HW237782   4.181   1.067  14.613 -3.3312  0.6500 -1.6918
 8716SOL     OW37783   2.906   2.345   3.165  0.6750 -0.0888 -0.0839
 8716SOL    HW137784   2.954   2.265   3.144 -0.8404 -1.2579  0.9225
 8716SOL    HW237785   2.861   2.352   3.081  2.6237 -0.7151 -1.1685
 8717SOL     OW37786   0.329   3.664  12.938 -0.2774  0.3813 -0.4097
 8717SOL    HW137787   0.290   3.659  13.025  0.9246 -2.9480 -0.0647
 8717SOL    HW237788   0.412   3.700  12.968 -0.9782  0.6381  1.1979
 8718SOL     OW37789   4.121   4.282  17.350  0.9597 -0.6942  0.4532
 8718SOL    HW137790   4.047   4.330  17.314  0.1697  0.0083  2.9694
 8718SOL    HW237791   4.086   4.201  17.388 -0.0611 -0.6466 -0.3746
 8719SOL     OW37792   3.316   3.182   4.630  0.8888  0.5043  1.0566
 8719SOL    HW137793   3.306   3.243   4.703  2.0305  0.1740  1.4724
 8719SOL    HW237794   3.407   3.197   4.604  0.9484 -3.1371 -0.8523
 8720SOL     OW37795   3.365   0.883   7.805  0.6482  0.2421 -0.0272
 8720SOL    HW137796   3.331   0.866   7.893 -0.6991 -2.5578 -1.1125
 8720SOL    HW237797   3.398   0.796   7.785  1.9379  0.2876  1.7953
 8721SOL     OW37798   3.205   4.029   2.902  0.0524 -0.1716 -0.6095
 8721SOL    HW137799   3.281   4.055   2.850 -0.5280 -1.5865 -2.1597
 8721SOL    HW237800   3.211   3.938   2.930  2.8034 -0.4847 -2.2786
 8722SOL     OW37801   1.894   3.149  12.529 -0.2658 -0.1149  0.3931
 8722SOL    HW137802   1.866   3.096  12.454 -1.0354 -1.9176  1.9201
 8722SOL    HW237803   1.832   3.222  12.533 -0.1419  0.0196 -0.1246
 8723SOL     OW37804   2.097   0.336   4.901  0.1986  0.3962  0.0011
 8723SOL    HW137805   2.086   0.338   4.806  1.5901  3.1981 -0.1012
 8723SOL    HW237806   2.083   0.244   4.923 -0.6649  0.3941 -0.5248
 8724SOL     OW37807   3.975   2.219   8.673 -0.6423 -0.3589 -0.5986
 8724SOL    HW137808   4.009   2.296   8.627 -1.0241  0.3927  0.3848
 8724SOL    HW237809   4.048   2.159   8.654  0.6299  1.1686 -0.4966
 8725SOL     OW37810   2.133   0.845   7.580  0.3974 -0.9708  0.2848
 8725SOL    HW137811   2.067   0.813   7.519 -0.9310 -0.6689  1.5555
 8725SOL    HW237812   2.089   0.928   7.601  1.7289  0.2177 -1.7258
 8726SOL     OW37813   2.118   1.051   1.909  0.3123 -0.5703 -0.3755
 8726SOL    HW137814   2.135   1.023   1.819 -2.1034  2.9642 -1.9323
 8726SOL    HW237815   2.192   1.111   1.919 -0.1008  0.1764 -1.6979
 8727SOL     OW37816   2.242   4.413  14.134  0.5768 -0.7015  0.4717
 8727SOL    HW137817   2.320   4.454  14.170 -1.1284  1.9532  1.2089
 8727SOL    HW237818   2.193   4.488  14.099  0.4735 -1.1593 -0.3724
 8728SOL     OW37819   2.060   2.877   5.574  0.6557 -0.0034  0.0650
 8728SOL    HW137820   2.026   2.953   5.621  0.8231 -0.1017  0.3486
 8728SOL    HW237821   2.107   2.903   5.494 -0.1333  2.0443  0.2798
 8729SOL     OW37822   1.981   3.971   2.376  0.5596  0.1992  0.0856
 8729SOL    HW137823   1.922   3.922   2.319 -2.1051  1.3286  1.8386
 8729SOL    HW237824   2.043   3.902   2.398  2.1127  0.7013 -2.7309
 8730SOL     OW37825   1.542   4.339   2.531 -0.6162 -0.0089  0.4227
 8730SOL    HW137826   1.514   4.430   2.521 -3.9643 -1.1669 -0.7387
 8730SOL    HW237827   1.619   4.344   2.475  0.0992  1.5307  1.5546
 8731SOL     OW37828   2.674   2.579   3.159  0.4278 -0.0509 -0.2510
 8731SOL    HW137829   2.617   2.518   3.113  2.0063 -0.3061 -1.8954
 8731SOL    HW237830   2.706   2.637   3.090  0.0750  0.0977 -0.2904
 8732SOL     OW37831   1.350   1.418   2.368 -0.2900  0.5338 -0.5080
 8732SOL    HW137832   1.440   1.429   2.340 -0.5526  0.6984 -1.2818
 8732SOL    HW237833   1.360   1.353   2.437 -3.0200  0.9533  0.2894
 8733SOL     OW37834   3.576   2.535   8.795 -0.0123  0.4062  0.6324
 8733SOL    HW137835   3.634   2.525   8.869  0.5593 -0.7613  0.0230
 8733SOL    HW237836   3.622   2.591   8.733 -1.0241  1.4321  0.8091
 8734SOL     OW37837   3.171   0.661  13.490  0.3427 -0.3526 -0.2167
 8734SOL    HW137838   3.079   0.679  13.511  0.5683  0.0411  0.4243
 8734SOL    HW237839   3.213   0.747  13.487 -3.4224  1.5023  0.3842
 8735SOL     OW37840   4.079   3.358   7.189 -0.4993 -0.5425  0.2769
 8735SOL    HW137841   4.079   3.383   7.281 -0.6063 -0.2094  0.1857
 8735SOL    HW237842   4.143   3.420   7.153 -2.1425  1.2639  0.4547
 8736SOL     OW37843   3.887   1.068   4.884  0.4842  0.3742 -0.6304
 8736SOL    HW137844   3.814   1.017   4.917  2.0513 -0.9599  0.7282
 8736SOL    HW237845   3.930   0.998   4.835 -1.1115 -2.2243  1.7199
 8737SOL     OW37846   4.142   1.150   3.217 -0.0560 -0.3006 -0.4445
 8737SOL    HW137847   4.061   1.109   3.249 -0.0227 -0.0023  0.0146
 8737SOL    HW237848   4.105   1.199   3.143 -1.7769  1.3616  1.5060
 8738SOL     OW37849   4.396   2.617   2.721  0.3091  0.0371 -0.3682
 8738SOL    HW137850   4.355   2.568   2.650 -3.0955  0.8247  1.0487
 8738SOL    HW237851   4.487   2.621   2.693  0.6859 -2.5722  0.5367
 8739SOL     OW37852   3.151   0.371   3.847  0.2923 -0.0081  0.1010
 8739SOL    HW137853   3.098   0.299   3.880  0.1914  0.6142  1.2883
 8739SOL    HW237854   3.095   0.447   3.861 -0.5950 -1.1039  2.4367
 8740SOL     OW37855   0.699   1.670  13.135 -0.0076  0.4594  0.7777
 8740SOL    HW137856   0.689   1.753  13.181  3.8062  1.5379 -0.4175
 8740SOL    HW237857   0.791   1.688  13.119  0.7092 -3.6947  0.3513
 8741SOL     OW37858   0.455   3.145   5.661  0.5678  0.0184  0.4929
 8741SOL    HW137859   0.410   3.120   5.580  0.3660  0.4814  0.4649
 8741SOL    HW237860   0.536   3.184   5.628  1.5796 -1.8370  0.7266
 8742SOL     OW37861   2.130   2.319   8.391 -0.0401  0.0913  0.1072
 8742SOL    HW137862   2.209   2.294   8.342  0.4058 -1.1012  1.4523
 8742SOL    HW237863   2.105   2.230   8.417  0.7242 -0.1824 -0.0782
 8743SOL     OW37864   3.317   1.591   2.537  0.1905  0.3014 -0.0333
 8743SOL    HW137865   3.223   1.576   2.531  0.5842 -2.4016  0.4345
 8743SOL    HW237866   3.328   1.516   2.596 -0.7724 -0.4854 -0.8519
 8744SOL     OW37867   4.384   1.983   5.617  0.2681 -0.5284  0.7771
 8744SOL    HW137868   4.375   2.008   5.525  2.7364 -0.3596  0.5787
 8744SOL    HW237869   4.437   1.904   5.605  0.4648 -1.0312  5.0499
 8745SOL     OW37870   1.586   1.146   4.770 -0.3582 -0.3968  1.1998
 8745SOL    HW137871   1.593   1.206   4.845 -4.9770  0.2246  1.0928
 8745SOL    HW237872   1.649   1.077   4.790 -0.2978 -1.0283 -1.2427
 8746SOL     OW37873   3.005   1.070  11.619  0.4208  0.3240  0.3506
 8746SOL    HW137874   2.971   1.122  11.692  0.7448 -0.1821  0.8747
 8746SOL    HW237875   2.927   1.020  11.593  0.2163  0.0644  1.4576
 8747SOL     OW37876   4.602   1.723   4.470 -0.0871  0.1755 -0.4022
 8747SOL    HW137877   4.611   1.639   4.515 -0.1346  0.4253  0.0754
 8747SOL    HW237878   4.645   1.782   4.531  0.6563 -0.0846 -0.6840
 8748SOL     OW37879   2.988   0.763   8.564 -0.1357  0.3729  0.3816
 8748SOL    HW137880   2.953   0.844   8.527  0.4161  0.6555  0.4814
 8748SOL    HW237881   2.907   0.713   8.576 -1.0503  2.2035  1.8534
 8749SOL     OW37882   3.590   3.988  14.926  0.0106  0.0661  0.0609
 8749SOL    HW137883   3.505   3.950  14.904  0.7580 -1.2400 -0.6021
 8749SOL    HW237884   3.646   3.927  14.877 -0.5146 -0.5537  0.2315
 8750SOL     OW37885   2.011   2.928   6.976 -0.4512 -0.0255  0.4866
 8750SOL    HW137886   2.043   2.880   7.052 -1.5748 -3.4141 -1.1579
 8750SOL    HW237887   1.929   2.884   6.955 -1.1826  1.3486  0.4647
 8751SOL     OW37888   4.621   3.210   2.381 -0.3203 -0.7545 -0.7652
 8751SOL    HW137889   4.550   3.274   2.390  1.6934  1.3697 -0.0935
 8751SOL    HW237890   4.668   3.234   2.301  2.4463  1.2458  1.4530
 8752SOL     OW37891   2.138   2.724   4.139  0.1263 -0.2628  0.4134
 8752SOL    HW137892   2.230   2.736   4.164  0.3975 -0.3221 -0.5470
 8752SOL    HW237893   2.151   2.703   4.047  2.4156 -0.0349  0.6617
 8753SOL     OW37894   0.599   4.275   6.708 -0.8306 -0.0389  0.1879
 8753SOL    HW137895   0.576   4.200   6.762  0.9329  0.5172  1.7383
 8753SOL    HW237896   0.654   4.236   6.640  1.2879  0.3810  1.6619
 8754SOL     OW37897   1.297   0.424  17.654 -0.2833  0.3366 -0.0956
 8754SOL    HW137898   1.253   0.401  17.573 -1.1767 -2.3303  1.1386
 8754SOL    HW237899   1.282   0.518  17.660 -0.8394  0.2318  0.1481
 8755SOL     OW37900   4.324   1.877   8.834 -0.0058 -0.1562 -0.1742
 8755SOL    HW137901   4.302   1.813   8.902  3.0552 -0.4051  0.6152
 8755SOL    HW237902   4.420   1.877   8.844  0.0777 -1.8645 -1.0130
 8756SOL     OW37903   1.406   4.396   3.621 -0.4200  0.1212  0.1529
 8756SOL    HW137904   1.317   4.429   3.606  0.4196  1.0012 -2.9922
 8756SOL    HW237905   1.411   4.317   3.567 -0.7027  0.2726 -0.0922
 8757SOL     OW37906   2.183   3.134   8.193  0.5899  0.6391 -0.5808
 8757SOL    HW137907   2.161   3.174   8.277 -0.1210 -0.1026 -0.4134
 8757SOL    HW237908   2.242   3.067   8.229 -0.1078  0.2817 -0.0917
 8758SOL     OW37909   4.260   0.474   6.006 -0.3772 -0.1646 -0.0520
 8758SOL    HW137910   4.221   0.392   6.036  1.9526 -1.2397  0.0672
 8758SOL    HW237911   4.175   0.517   5.995 -0.3745 -0.6766 -2.0621
 8759SOL     OW37912   0.845   3.144   6.768  0.1642 -0.0785  0.4142
 8759SOL    HW137913   0.896   3.142   6.849  1.1683 -2.6418 -0.2852
 8759SOL    HW237914   0.786   3.217   6.784  0.1267 -0.3270  1.4243
 8760SOL     OW37915   2.245   4.692   6.734  0.3267 -0.3536 -0.2214
 8760SOL    HW137916   2.180   4.709   6.666  0.2347  2.1335  0.5015
 8760SOL    HW237917   2.282   0.043   6.742 -0.4098  0.0930 -1.6670
 8761SOL     OW37918   1.800   2.332   9.003 -0.6681  0.4004 -0.1577
 8761SOL    HW137919   1.822   2.252   8.955  1.5724  0.8547  0.1229
 8761SOL    HW237920   1.828   2.310   9.092 -1.2773  0.0465 -0.0553
 8762SOL     OW37921   0.598   2.805   5.899  0.1734  0.0366 -0.4285
 8762SOL    HW137922   0.551   2.760   5.969  0.6511 -1.3012 -0.9529
 8762SOL    HW237923   0.529   2.833   5.839  0.1471 -1.6307 -1.1843
 8763SOL     OW37924   1.284   4.280   6.156  0.0539  0.1729 -0.7350
 8763SOL    HW137925   1.268   4.292   6.063  0.8333 -0.6340 -0.9715
 8763SOL    HW237926   1.205   4.315   6.197 -0.9866 -0.3280 -2.3144
 8764SOL     OW37927   4.142   3.447  12.570  0.2348  0.6254 -0.8060
 8764SOL    HW137928   4.104   3.484  12.650  0.9316 -1.8228  0.6353
 8764SOL    HW237929   4.196   3.521  12.542 -0.1207  0.9392 -0.6659
 8765SOL     OW37930   1.095   2.225   2.175  0.0421 -0.5136  0.0609
 8765SOL    HW137931   1.071   2.133   2.163  2.3440 -0.6713 -3.3676
 8765SOL    HW237932   1.013   2.268   2.202 -0.4540 -1.1359 -0.4408
 8766SOL     OW37933   3.614   1.051   6.945 -0.0447 -0.0889  0.6093
 8766SOL    HW137934   3.686   1.114   6.945 -1.1136  1.1053  4.0084
 8766SOL    HW237935   3.576   1.059   6.857 -1.2532  0.8869  1.2314
 8767SOL     OW37936   0.687   4.368   4.040  0.4379 -0.6516  0.0716
 8767SOL    HW137937   0.594   4.384   4.023  1.1954  2.6005 -0.9693
 8767SOL    HW237938   0.728   4.448   4.071  3.2283 -1.7484 -0.8188
 8768SOL     OW37939   1.413   2.670   8.955 -0.1238  0.1835  0.2906
 8768SOL    HW137940   1.426   2.673   8.860 -1.1345  2.2661  0.2270
 8768SOL    HW237941   1.452   2.585   8.975 -1.5220 -0.7862 -1.1227
 8769SOL     OW37942   4.570   0.608   0.574  0.1620 -0.1450  0.4136
 8769SOL    HW137943   4.549   0.700   0.592  0.0483 -0.5622  2.4336
 8769SOL    HW237944   4.531   0.577   0.656  0.4811 -1.6198  0.0053
 8770SOL     OW37945   0.234   3.802  14.194 -0.8014 -0.1410  0.1953
 8770SOL    HW137946   0.304   3.791  14.258 -0.1649 -1.2017 -0.6791
 8770SOL    HW237947   0.278   3.862  14.135  1.3522 -0.9729  0.9514
 8771SOL     OW37948   0.459   3.262   3.559 -0.1472  0.1515  0.0166
 8771SOL    HW137949   0.438   3.198   3.628 -1.0202  2.1048  1.5615
 8771SOL    HW237950   0.551   3.238   3.551 -0.2081  0.3900 -1.3639
 8772SOL     OW37951   2.446   0.509   4.619  0.1096  0.5498  0.5229
 8772SOL    HW137952   2.490   0.509   4.704 -0.1387 -0.0968  0.6491
 8772SOL    HW237953   2.361   0.552   4.634  0.3774  1.1774  0.2595
 8773SOL     OW37954   3.533   2.528   9.131  0.0161 -0.1052 -0.1281
 8773SOL    HW137955   3.581   2.451   9.101 -1.5219 -1.1336  0.0617
 8773SOL    HW237956   3.604   2.592   9.126 -1.2048  1.1966 -0.7929
 8774SOL     OW37957   0.983   0.032   4.597 -0.2425  0.1783  0.1834
 8774SOL    HW137958   1.003   0.124   4.614 -1.0483  0.1547  1.2706
 8774SOL    HW237959   0.939   0.003   4.677 -1.5103 -1.3031 -1.0438
 8775SOL     OW37960   1.990   2.367   4.592  0.2344 -0.2712  0.1200
 8775SOL    HW137961   2.066   2.344   4.644  0.5494 -3.1346 -1.6281
 8775SOL    HW237962   2.037   2.414   4.523 -3.0449  2.6204 -0.1540
 8776SOL     OW37963   2.986   2.319   6.670  1.0074 -0.0614 -0.2272
 8776SOL    HW137964   3.056   2.274   6.622  0.6579 -2.5838  1.6113
 8776SOL    HW237965   3.007   2.289   6.759 -0.3367  1.2036  0.5112
 8777SOL     OW37966   1.827   1.024   1.626 -0.3229 -0.4053  0.1234
 8777SOL    HW137967   1.805   1.054   1.714  0.1715 -0.1748  0.1685
 8777SOL    HW237968   1.743   1.039   1.582  0.9077  1.2693 -1.6718
 8778SOL     OW37969   0.700   1.146   2.027  1.0522 -0.0894  0.0430
 8778SOL    HW137970   0.778   1.146   1.971  0.1353  0.1425 -1.2356
 8778SOL    HW237971   0.670   1.234   2.006 -1.0083 -0.4339  1.5337
 8779SOL     OW37972   2.579   0.459   2.326  0.1184  0.0052 -0.0122
 8779SOL    HW137973   2.596   0.445   2.419  2.4098 -0.2094 -0.4587
 8779SOL    HW237974   2.557   0.370   2.298  0.6767 -0.7024  1.8022
 8780SOL     OW37975   0.816   3.336   4.777  0.0158  0.0427 -0.3484
 8780SOL    HW137976   0.871   3.402   4.736  0.2808  0.2032  0.2614
 8780SOL    HW237977   0.888   3.286   4.816 -0.0864  0.5484  0.4910
 8781SOL     OW37978   0.077   3.518   2.045 -0.6748 -0.4144  0.1168
 8781SOL    HW137979   0.171   3.503   2.041 -0.5093  1.0217 -1.5669
 8781SOL    HW237980   0.041   3.467   1.972 -0.7722  0.6155 -0.5556
 8782SOL     OW37981   0.526   3.466   5.987 -0.3042  0.9553 -0.3227
 8782SOL    HW137982   0.469   3.402   5.945 -0.5773  0.3901  0.9109
 8782SOL    HW237983   0.563   3.413   6.057  1.2989  0.8990 -1.2053
 8783SOL     OW37984   4.387   3.661   4.119 -0.2167  0.1794 -0.1942
 8783SOL    HW137985   4.302   3.619   4.108  0.2756 -1.3107  1.5912
 8783SOL    HW237986   4.438   3.634   4.044 -2.0215 -2.1928 -0.5687
 8784SOL     OW37987   0.266   1.632   8.436  0.1315 -0.6085  0.2294
 8784SOL    HW137988   0.273   1.704   8.374  0.2591 -1.8904 -1.2483
 8784SOL    HW237989   0.180   1.594   8.414 -0.1853 -0.3376  1.0170
 8785SOL     OW37990   2.398   1.843   3.197 -0.4844 -0.2068  0.3732
 8785SOL    HW137991   2.466   1.886   3.145 -0.0403 -0.8114  0.4502
 8785SOL    HW237992   2.326   1.902   3.177  0.7010  0.8869 -0.5966
 8786SOL     OW37993   2.979   1.386   1.833  0.0096  0.1228 -0.1003
 8786SOL    HW137994   2.964   1.318   1.899 -0.3117  0.3114  0.0192
 8786SOL    HW237995   2.996   1.331   1.756  1.7855  0.1803  0.2453
 8787SOL     OW37996   0.088   2.234   4.527 -0.1252  0.2116  0.9590
 8787SOL    HW137997   0.159   2.174   4.505  0.1262  0.7356  0.3584
 8787SOL    HW237998   0.014   2.191   4.484 -0.2744  2.1521 -0.7152
 8788SOL     OW37999   2.722   1.811   9.812 -0.0765 -0.0400  0.1441
 8788SOL    HW138000   2.649   1.762   9.849 -1.9441  3.1168  0.6086
 8788SOL    HW238001   2.690   1.900   9.829  1.7380  0.8426 -1.0296
 8789SOL     OW38002   4.231   3.957  14.568  0.0919  0.7372  0.4324
 8789SOL    HW138003   4.229   3.990  14.478 -1.0608 -0.4643  0.0152
 8789SOL    HW238004   4.156   4.007  14.602 -0.4814  0.1968 -0.0485
 8790SOL     OW38005   2.242   0.193   8.453  0.0762  0.5856 -0.1688
 8790SOL    HW138006   2.179   0.251   8.497  0.9588  0.9941  0.5618
 8790SOL    HW238007   2.316   0.252   8.469  1.1727 -0.7032 -0.4832
 8791SOL     OW38008   2.572   4.673   2.204  0.7177 -0.1167 -0.7385
 8791SOL    HW138009   2.565   4.649   2.296  0.0338 -0.0094 -0.7664
 8791SOL    HW238010   2.567   4.581   2.177 -1.9758 -0.4289  0.8410
 8792SOL     OW38011   1.611   4.593   3.553  0.2064  0.3394 -0.2266
 8792SOL    HW138012   1.568   4.510   3.535  3.1856 -1.4489  1.0132
 8792SOL    HW238013   1.548   4.666   3.549  1.3388  1.1721 -2.9200
 8793SOL     OW38014   1.760   3.948   7.942  0.5678  1.1203 -0.1394
 8793SOL    HW138015   1.789   3.890   8.012 -2.1718 -0.0923 -0.0302
 8793SOL    HW238016   1.810   4.023   7.975 -1.9171  1.7275  2.2108
 8794SOL     OW38017   0.036   2.646   7.062 -0.3873  0.4742 -1.0570
 8794SOL    HW138018   0.012   2.595   7.139  0.9094  0.3728 -0.7192
 8794SOL    HW238019   0.025   2.578   6.995 -0.9575  1.1916 -1.6950
 8795SOL     OW38020   1.145   0.278   1.234  0.0974 -0.5540  0.1084
 8795SOL    HW138021   1.077   0.298   1.298  0.6606  3.0279 -0.4296
 8795SOL    HW238022   1.148   0.355   1.178 -1.1270  0.7086  1.7843
 8796SOL     OW38023   0.626   0.971   1.470  0.0045  0.3764  0.0055
 8796SOL    HW138024   0.669   1.056   1.468  1.9809 -0.5787  1.8809
 8796SOL    HW238025   0.593   0.966   1.381  0.7470  0.0021 -0.2467
 8797SOL     OW38026   4.348   2.238   7.793  0.1901  0.0018 -0.2134
 8797SOL    HW138027   4.262   2.241   7.752 -0.0022  2.1682  0.3397
 8797SOL    HW238028   4.331   2.190   7.874  2.3343 -1.8014 -0.8248
 8798SOL     OW38029   1.922   0.855   8.637  0.7993  0.2543 -0.1592
 8798SOL    HW138030   2.012   0.884   8.649  0.5743  1.1599 -0.7328
 8798SOL    HW238031   1.894   0.894   8.555 -2.7145  0.9533  1.3904
 8799SOL     OW38032   3.900   2.584  12.822 -0.0988  0.5981 -0.2185
 8799SOL    HW138033   3.916   2.504  12.871 -0.6777  1.1905  0.9344
 8799SOL    HW238034   3.927   2.567  12.731  0.1458  2.4686 -0.5002
 8800SOL     OW38035   0.532   4.451   2.445  0.1479 -0.3974 -0.6609
 8800SOL    HW138036   0.524   4.359   2.423  0.3650 -0.7550  0.7986
 8800SOL    HW238037   0.441   4.458   2.472  0.2418 -0.4778 -0.3311
 8801SOL     OW38038   0.215   2.690   7.502 -0.2993  0.1257  0.1581
 8801SOL    HW138039   0.237   2.600   7.477  1.0172  1.2088 -2.6343
 8801SOL    HW238040   0.191   2.712   7.412 -1.5180  0.3528  0.5423
 8802SOL     OW38041   4.012   1.663   7.728 -0.0703 -0.4499 -0.0351
 8802SOL    HW138042   3.999   1.636   7.818  1.6040 -0.6085  0.1550
 8802SOL    HW238043   4.055   1.748   7.736  1.7144 -1.5564  1.9900
 8803SOL     OW38044   1.108   1.992  11.114  0.4244  0.2862 -0.2869
 8803SOL    HW138045   1.177   2.004  11.049  0.5161 -3.6105 -0.8988
 8803SOL    HW238046   1.147   1.939  11.184 -0.0409  1.7382  1.0669
 8804SOL     OW38047   3.175   0.658   0.927 -0.2098 -0.0767 -0.1971
 8804SOL    HW138048   3.130   0.575   0.917  2.3842 -1.1410 -3.0802
 8804SOL    HW238049   3.264   0.633   0.899 -0.5927 -0.8163 -0.7600
 8805SOL     OW38050   1.969   1.330   3.196 -0.4725  0.0927 -0.3178
 8805SOL    HW138051   2.010   1.250   3.162  1.1777  1.4681 -1.5617
 8805SOL    HW238052   2.042   1.361   3.248 -0.1451 -0.8751 -0.1995
 8806SOL     OW38053   1.489   3.273   6.510 -0.7565 -0.3304 -0.1465
 8806SOL    HW138054   1.443   3.222   6.443  2.5725 -1.7690 -1.3184
 8806SOL    HW238055   1.502   3.363   6.481  3.7125 -0.9604 -0.0196
 8807SOL     OW38056   0.468   0.860   5.848 -0.1843 -0.1054 -0.1673
 8807SOL    HW138057   0.398   0.796   5.832 -0.1499 -0.3633  0.7193
 8807SOL    HW238058   0.427   0.941   5.875 -2.5091  0.0056 -4.0735
 8808SOL     OW38059   3.296   1.167   5.678  0.2754  0.0436  0.3291
 8808SOL    HW138060   3.250   1.145   5.598  1.2100  2.4648 -0.8962
 8808SOL    HW238061   3.225   1.176   5.742 -0.0523 -0.3269  0.0079
 8809SOL     OW38062   4.461   4.533   4.688 -0.7970 -0.4044  0.7353
 8809SOL    HW138063   4.423   4.605   4.739 -0.4757  0.6815 -0.5648
 8809SOL    HW238064   4.515   4.511   4.764  0.9776 -0.9025 -0.6790
 8810SOL     OW38065   3.669   0.235  12.453  0.0501 -0.2973 -0.0918
 8810SOL    HW138066   3.702   0.198  12.535  1.3311  1.8554  0.3677
 8810SOL    HW238067   3.754   0.244  12.410 -0.0833  1.7117  0.0605
 8811SOL     OW38068   0.946   4.076   5.023 -0.5018  0.0662 -0.7337
 8811SOL    HW138069   0.976   4.155   5.068 -0.2118  0.7903 -2.1740
 8811SOL    HW238070   0.993   4.005   5.065 -0.9227 -0.6066 -1.3876
 8812SOL     OW38071   0.901   1.839   9.268 -0.1119 -0.1526 -0.1801
 8812SOL    HW138072   0.863   1.887   9.341 -1.3894  0.9555 -1.5493
 8812SOL    HW238073   0.847   1.761   9.260 -0.3532  0.0423 -0.4801
 8813SOL     OW38074   0.446   0.400   8.406 -0.5955  0.1898 -0.3940
 8813SOL    HW138075   0.503   0.420   8.480  0.0863 -1.6588 -0.4058
 8813SOL    HW238076   0.382   0.337   8.438  1.8050 -2.1798 -0.2302
 8814SOL     OW38077   4.564   1.128   6.228 -0.3188  0.0478  0.0893
 8814SOL    HW138078   4.652   1.162   6.244  0.1453  0.0963 -2.4996
 8814SOL    HW238079   4.519   1.198   6.276  1.6062  1.4401 -0.1066
 8815SOL     OW38080   0.864   1.733   5.284  0.3141 -0.6148  0.2716
 8815SOL    HW138081   0.878   1.661   5.346 -1.3260 -0.3676  0.9327
 8815SOL    HW238082   0.943   1.788   5.282 -0.3241  0.3258  0.9177
 8816SOL     OW38083   3.520   1.751  13.598 -0.6603 -0.2015 -0.0450
 8816SOL    HW138084   3.545   1.696  13.524  0.2808  0.8979 -0.5417
 8816SOL    HW238085   3.483   1.678  13.647  1.9926  1.0442  3.7699
 8817SOL     OW38086   0.559   2.601   2.228  0.7396  0.0770  0.0406
 8817SOL    HW138087   0.473   2.638   2.249 -0.1558 -2.2859  0.5282
 8817SOL    HW238088   0.589   2.575   2.315  2.3365  0.2949 -0.4526
 8818SOL     OW38089   0.619   3.804   8.500 -0.0524 -0.0816  0.0794
 8818SOL    HW138090   0.616   3.856   8.420  0.8558  0.3265  0.3019
 8818SOL    HW238091   0.524   3.799   8.508 -0.4715  4.7114 -1.8519
 8819SOL     OW38092   2.571   3.718   4.045  0.6519 -0.0637 -0.2614
 8819SOL    HW138093   2.617   3.639   4.076 -1.1387 -1.3706 -0.9325
 8819SOL    HW238094   2.635   3.786   4.061 -0.4241  1.0296 -0.6170
 8820SOL     OW38095   1.962   1.193   3.475  0.2305 -0.4549  0.0628
 8820SOL    HW138096   1.979   1.130   3.405  0.8446  0.1454 -0.3291
 8820SOL    HW238097   2.045   1.197   3.523  1.9425 -1.6451 -2.7611
 8821SOL     OW38098   2.670   4.446   3.562  0.2333  0.0089  0.6708
 8821SOL    HW138099   2.630   4.405   3.639 -1.0675  2.4485  1.3152
 8821SOL    HW238100   2.617   4.525   3.553  0.6655  0.1229 -0.8524
 8822SOL     OW38101   2.741   4.054   3.363  0.4660 -0.1103  0.2033
 8822SOL    HW138102   2.671   4.084   3.421 -0.1476 -0.9504 -0.0966
 8822SOL    HW238103   2.777   4.135   3.327  1.6245  0.0764  1.7796
 8823SOL     OW38104   2.710   3.465   4.752 -0.7224  0.0973 -0.6467
 8823SOL    HW138105   2.747   3.379   4.772  0.5981  1.3537  2.2418
 8823SOL    HW238106   2.788   3.520   4.757 -1.3426  0.7804  1.7340
 8824SOL     OW38107   1.672   1.649   9.730  0.0096  0.0479  0.6250
 8824SOL    HW138108   1.707   1.616   9.813 -0.8926 -0.6837  0.7162
 8824SOL    HW238109   1.622   1.723   9.764  0.4168  1.0727 -0.9988
 8825SOL     OW38110   4.333   2.546   7.439 -0.3571  0.4501 -0.0650
 8825SOL    HW138111   4.331   2.451   7.426  0.6855  0.3729  0.3739
 8825SOL    HW238112   4.346   2.559   7.533  0.6283 -0.4368 -0.0811
 8826SOL     OW38113   1.244   2.066   5.913 -0.2042  0.0632 -0.4655
 8826SOL    HW138114   1.331   2.026   5.918 -0.6654 -0.9499 -0.4247
 8826SOL    HW238115   1.257   2.141   5.855  0.9895  1.1545  1.2295
 8827SOL     OW38116   1.565   1.201   4.380 -0.4864  0.2423  0.2427
 8827SOL    HW138117   1.471   1.222   4.377 -0.7792 -1.0772 -0.1430
 8827SOL    HW238118   1.603   1.250   4.308 -0.9770 -0.3043 -0.3909
 8828SOL     OW38119   3.526   2.130   4.289  0.3026  0.3100 -0.3467
 8828SOL    HW138120   3.524   2.077   4.368 -1.6445  0.7299 -0.1124
 8828SOL    HW238121   3.596   2.193   4.306  0.8437  0.0608 -1.6565
 8829SOL     OW38122   4.457   0.801   8.923  0.5528 -0.1163  0.3925
 8829SOL    HW138123   4.521   0.864   8.891  0.8710  0.1735  1.6100
 8829SOL    HW238124   4.508   0.720   8.926  0.1037 -0.4547 -0.8841
 8830SOL     OW38125   4.140   2.284  13.869 -0.2240  0.3659  0.8665
 8830SOL    HW138126   4.077   2.306  13.800  0.1480  1.7581  0.9619
 8830SOL    HW238127   4.150   2.371  13.908 -1.6555  0.7782  0.2996
 8831SOL     OW38128   0.674   3.859  12.702  0.4207 -0.0776  0.5719
 8831SOL    HW138129   0.589   3.897  12.724  0.2840  0.3149 -0.6288
 8831SOL    HW238130   0.667   3.844  12.607  0.7973  0.1093  0.5174
 8832SOL     OW38131   2.268   2.526  14.592 -0.0276 -0.2181  0.0099
 8832SOL    HW138132   2.282   2.586  14.665 -0.0606 -0.9849  0.6365
 8832SOL    HW238133   2.201   2.560  14.533  1.0087  1.3180 -0.2942
 8833SOL     OW38134   2.505   3.520   2.347 -0.7593  0.0635  0.2115
 8833SOL    HW138135   2.599   3.508   2.328 -0.6078  3.5556 -1.3276
 8833SOL    HW238136   2.502   3.523   2.442  0.0896  1.1714  0.2133
 8834SOL     OW38137   2.808   3.118   9.459  0.4128 -0.4453 -0.2307
 8834SOL    HW138138   2.850   3.187   9.508  0.2417  0.2693 -1.0931
 8834SOL    HW238139   2.717   3.144   9.474 -0.4359 -3.2211 -0.5247
 8835SOL     OW38140   0.854   3.305   5.750 -0.2676 -0.0494  0.0797
 8835SOL    HW138141   0.948   3.314   5.735 -0.0820 -0.9699  0.7034
 8835SOL    HW238142   0.824   3.388   5.712 -1.6178 -0.7322 -0.3508
 8836SOL     OW38143   3.722   2.035   1.612 -0.4854 -0.8051 -0.4282
 8836SOL    HW138144   3.746   1.989   1.532  2.2950  1.5268 -0.9689
 8836SOL    HW238145   3.806   2.062   1.651 -1.0315 -0.4896  0.5300
 8837SOL     OW38146   1.758   1.645   6.970  0.0370  0.5363  0.6788
 8837SOL    HW138147   1.797   1.702   6.904 -0.0987 -0.0783  0.0630
 8837SOL    HW238148   1.721   1.580   6.909 -1.2063  1.3359  0.5836
 8838SOL     OW38149   0.920   0.745   6.559 -0.2033 -0.6698  0.2195
 8838SOL    HW138150   0.996   0.687   6.553  1.3792  1.4894 -0.5063
 8838SOL    HW238151   0.904   0.768   6.467  0.1984 -0.4830  0.1977
 8839SOL     OW38152   3.400   0.173   2.577  0.6299 -0.0350 -0.2117
 8839SOL    HW138153   3.403   0.241   2.645 -1.1248 -0.4216  0.2382
 8839SOL    HW238154   3.451   0.222   2.512  1.5259  1.9779  2.0037
 8840SOL     OW38155   2.174   0.225  11.849 -0.6183  0.2365 -0.5483
 8840SOL    HW138156   2.105   0.194  11.908 -0.4980  1.3708  0.1969
 8840SOL    HW238157   2.245   0.237  11.912 -0.2636 -0.3316 -0.8390
 8841SOL     OW38158   3.292   2.638   4.081 -0.2485  0.3803 -0.0441
 8841SOL    HW138159   3.227   2.581   4.123 -1.0515  0.9851 -0.4762
 8841SOL    HW238160   3.343   2.643   4.163  0.4881  2.1104 -0.6092
 8842SOL     OW38161   3.257   1.430  12.864 -0.5987 -0.5091 -0.4154
 8842SOL    HW138162   3.342   1.436  12.908 -0.4933 -0.0602 -0.6770
 8842SOL    HW238163   3.282   1.425  12.772 -0.4936  1.1848 -0.4746
 8843SOL     OW38164   1.858   1.621   4.055 -0.1113 -0.3798  0.4190
 8843SOL    HW138165   1.910   1.700   4.040  2.6723 -1.9373  1.9281
 8843SOL    HW238166   1.799   1.661   4.118  0.9545  0.4900  0.8461
 8844SOL     OW38167   2.035   4.071   6.891  0.1102 -0.5889 -0.1670
 8844SOL    HW138168   2.120   4.112   6.910  0.3255 -1.4046  0.5973
 8844SOL    HW238169   2.052   4.006   6.959  1.0075 -0.1353  0.0449
 8845SOL     OW38170   3.036   2.694  12.573 -0.0255 -0.2590  0.0418
 8845SOL    HW138171   2.963   2.676  12.514 -2.1230  0.9840  2.2615
 8845SOL    HW238172   3.001   2.769  12.622 -0.0991 -0.0798 -0.2832
 8846SOL     OW38173   2.617   2.598  10.188  0.1780 -0.8311 -0.0054
 8846SOL    HW138174   2.685   2.553  10.138  1.6369 -1.2574  2.3363
 8846SOL    HW238175   2.542   2.589  10.129 -1.8704 -1.3419  2.6343
 8847SOL     OW38176   1.004   2.608  14.881  0.4033  0.5552  0.4027
 8847SOL    HW138177   0.979   2.517  14.893  2.4768 -0.2901 -1.7245
 8847SOL    HW238178   0.946   2.641  14.813  0.2885  1.7909  1.0866
 8848SOL     OW38179   2.436   0.029   3.342  0.1506 -0.0938 -0.2715
 8848SOL    HW138180   2.393   4.708   3.280 -0.7992  1.6167 -1.2130
 8848SOL    HW238181   2.380   0.107   3.343  1.3093  0.7549 -0.4796
 8849SOL     OW38182   0.674   3.583   7.006 -0.7556 -0.9598 -0.3602
 8849SOL    HW138183   0.747   3.590   6.944 -2.3174  3.8079 -1.6405
 8849SOL    HW238184   0.677   3.664   7.056 -0.8823 -1.8693  1.0954
 8850SOL     OW38185   2.376   2.638   5.342 -0.2840  0.2470  0.4618
 8850SOL    HW138186   2.318   2.568   5.373 -0.0995  0.2826  0.8764
 8850SOL    HW238187   2.461   2.599   5.360  0.6238  2.1530  0.2236
 8851SOL     OW38188   3.457   4.682   1.484  0.0479 -0.0178  0.1358
 8851SOL    HW138189   3.487   4.593   1.470 -0.1705  0.2975 -2.4121
 8851SOL    HW238190   3.441   4.682   1.578 -0.8361 -1.7097 -0.0224
 8852SOL     OW38191   1.646   1.949   9.016 -0.1157  0.0016 -0.6158
 8852SOL    HW138192   1.662   1.856   9.001 -0.8274  0.1867 -2.5290
 8852SOL    HW238193   1.564   1.957   8.968 -0.4663 -1.4857 -0.2490
 8853SOL     OW38194   3.487   0.539  10.644 -0.4953  0.0074 -0.0253
 8853SOL    HW138195   3.522   0.492  10.720  4.0514  1.3407 -1.3354
 8853SOL    HW238196   3.538   0.511  10.569 -1.0714 -0.8583 -0.0938
 8854SOL     OW38197   2.091   4.261   2.426 -0.0044  0.4722  0.1110
 8854SOL    HW138198   2.018   4.205   2.400  0.5157  0.4897 -1.3534
 8854SOL    HW238199   2.145   4.262   2.347 -0.0631  0.5779  0.0721
 8855SOL     OW38200   1.031   0.305   4.227  0.6018 -0.7555  0.6440
 8855SOL    HW138201   0.948   0.258   4.237  0.5644 -0.8938 -0.3138
 8855SOL    HW238202   1.095   0.244   4.191  0.3437 -2.2118  2.6356
 8856SOL     OW38203   4.688   3.964  15.500  0.2816  0.2648 -0.0945
 8856SOL    HW138204   4.690   3.962  15.595 -1.0790 -0.0022 -0.0736
 8856SOL    HW238205   4.606   4.009  15.478 -0.7020 -1.1885  0.6266
 8857SOL     OW38206   0.322   1.111  10.023 -0.5157  0.6394  0.3298
 8857SOL    HW138207   0.417   1.125  10.019 -0.7163  1.9372  0.1580
 8857SOL    HW238208   0.307   1.046  10.091  4.0380  0.2754  0.9737
 8858SOL     OW38209   2.386   2.980   8.632  0.2629  0.4213 -0.3294
 8858SOL    HW138210   2.463   2.996   8.686  0.9895  0.1861 -1.2963
 8858SOL    HW238211   2.409   2.897   8.590 -1.9191  0.2830 -1.2742
 8859SOL     OW38212   1.733   2.235   9.541  0.7816  0.2124  0.6657
 8859SOL    HW138213   1.640   2.220   9.558  0.3920  0.3205 -1.2892
 8859SOL    HW238214   1.746   2.280   9.624 -0.6553  2.6062 -0.4130
 8860SOL     OW38215   3.349   1.488   8.416 -0.4105  0.1341  0.7603
 8860SOL    HW138216   3.375   1.411   8.466  1.1471  0.9713  1.2384
 8860SOL    HW238217   3.254   1.485   8.405 -0.2613  0.6264 -0.7037
 8861SOL     OW38218   0.240   3.554   8.571  0.2703 -0.1799  0.0341
 8861SOL    HW138219   0.209   3.492   8.637 -0.2208 -0.4745 -0.4776
 8861SOL    HW238220   0.158   3.602   8.561  0.8472  1.2610  2.1342
 8862SOL     OW38221   3.875   4.483   0.338 -0.3736  0.3937 -0.1900
 8862SOL    HW138222   3.814   4.557   0.343 -0.7059  0.0825  0.3107
 8862SOL    HW238223   3.962   4.517   0.358  0.2576 -0.6655 -1.1706
 8863SOL     OW38224   2.550   2.428   0.742 -0.7079 -0.0108 -0.1225
 8863SOL    HW138225   2.543   2.522   0.759 -1.5340  0.6218 -3.8771
 8863SOL    HW238226   2.643   2.409   0.756 -0.9483  1.1514  3.2130
 8864SOL     OW38227   4.164   3.996   9.090 -0.7787 -0.4513 -0.8779
 8864SOL    HW138228   4.120   3.919   9.126 -0.1580 -0.7613 -0.7748
 8864SOL    HW238229   4.199   4.034   9.171 -1.3175  0.5750 -1.1230
 8865SOL     OW38230   3.423   3.891   1.601  0.0457 -0.0132  0.4087
 8865SOL    HW138231   3.388   3.897   1.512 -1.2920 -2.4495  0.7724
 8865SOL    HW238232   3.479   3.814   1.585  1.3689  0.6980  1.5365
 8866SOL     OW38233   3.142   2.731   8.241  0.2455 -0.4847  0.2257
 8866SOL    HW138234   3.188   2.652   8.270  0.9951  0.5575  1.8819
 8866SOL    HW238235   3.062   2.718   8.291  0.0740 -1.8131 -0.3935
 8867SOL     OW38236   0.949   4.142   9.353  0.0063 -0.0926  0.4703
 8867SOL    HW138237   1.045   4.141   9.346  0.0792  0.5035  1.4375
 8867SOL    HW238238   0.929   4.059   9.397 -0.3983  0.1272  0.7019
 8868SOL     OW38239   3.085   3.066   4.502 -0.1603  0.5102 -0.1241
 8868SOL    HW138240   3.165   3.096   4.546  0.1001  0.5214 -0.6030
 8868SOL    HW238241   3.133   2.998   4.454 -0.4931  1.1029 -1.2871
 8869SOL     OW38242   2.650   4.098   0.930  0.1246  0.3191  0.3238
 8869SOL    HW138243   2.629   4.112   1.022 -1.0997  0.4330  0.0260
 8869SOL    HW238244   2.636   4.004   0.922  1.9942  0.4261 -4.1374
 8870SOL     OW38245   1.504   0.064   3.795 -0.4200 -0.1825  0.5654
 8870SOL    HW138246   1.471   0.014   3.869  0.0217 -2.5660 -0.8371
 8870SOL    HW238247   1.475   0.009   3.722  0.6606  0.5018 -0.3818
 8871SOL     OW38248   0.427   0.333   4.797  0.4901  0.0855 -0.4406
 8871SOL    HW138249   0.522   0.335   4.787  0.4651  0.6525 -0.5620
 8871SOL    HW238250   0.401   0.424   4.783  1.2747  0.4832  0.6623
 8872SOL     OW38251   2.047   2.117  11.408 -0.5363  0.2128  0.0419
 8872SOL    HW138252   2.050   2.095  11.501  0.6562 -0.7394 -0.2214
 8872SOL    HW238253   1.955   2.144  11.399 -0.0227  1.7507 -0.6094
 8873SOL     OW38254   2.295   0.962  16.935  0.3147 -0.1341  0.0739
 8873SOL    HW138255   2.343   1.011  16.868  0.2603  0.0964  0.2065
 8873SOL    HW238256   2.351   0.887  16.956  0.6832 -0.6601 -2.7149
 8874SOL     OW38257   3.700   3.820  17.076  0.0872  0.5286  0.0160
 8874SOL    HW138258   3.766   3.851  17.139  0.0799  0.7609 -0.0897
 8874SOL    HW238259   3.649   3.760  17.130 -1.7445 -1.1711 -3.6298
 8875SOL     OW38260   2.384   0.403   4.932  0.3626 -0.3445  0.2337
 8875SOL    HW138261   2.345   0.479   4.976 -1.0167 -0.5396 -0.6395
 8875SOL    HW238262   2.311   0.353   4.895  0.6475 -0.8922  0.3946
 8876SOL     OW38263   0.113   0.783   7.941  0.0439 -0.0155  0.3716
 8876SOL    HW138264   0.087   0.775   8.033  0.8026 -0.8891  0.5061
 8876SOL    HW238265   0.201   0.814   7.962 -0.5952  0.3894  2.3885
 8877SOL     OW38266   2.152   0.491  10.653  0.1074 -0.1293 -0.8494
 8877SOL    HW138267   2.071   0.542  10.647  1.4883  2.0342 -0.9222
 8877SOL    HW238268   2.213   0.550  10.697 -3.0679  3.4515 -1.2475
 8878SOL     OW38269   1.383   1.492   7.156 -0.0334  0.9739  0.1306
 8878SOL    HW138270   1.332   1.418   7.123 -0.7769  1.4058  0.3139
 8878SOL    HW238271   1.439   1.457   7.225 -1.0550 -0.8212  0.0468
 8879SOL     OW38272   1.248   3.587   8.807 -0.2365 -0.4307 -0.3557
 8879SOL    HW138273   1.218   3.516   8.750 -0.0285  0.5658 -1.7041
 8879SOL    HW238274   1.238   3.659   8.745 -0.7248  0.3985  0.6828
 8880SOL     OW38275   2.108   0.974   1.361 -0.2090 -0.3488 -0.2922
 8880SOL    HW138276   2.165   1.044   1.329 -1.1454 -0.0487 -1.3028
 8880SOL    HW238277   2.025   1.019   1.373  0.5609  0.5954  1.5036
 8881SOL     OW38278   0.071   3.156   8.545  0.1562 -0.3821 -0.4660
 8881SOL    HW138279   0.058   3.221   8.475 -1.2456 -0.8931 -0.6829
 8881SOL    HW238280   0.155   3.118   8.519  1.1575  2.5479 -1.5900
 8882SOL     OW38281   0.380   1.932   4.218  0.3754 -0.6426 -0.1207
 8882SOL    HW138282   0.443   1.990   4.176 -0.1285  0.4620  0.6505
 8882SOL    HW238283   0.342   1.985   4.288  1.6074 -0.3837  0.3415
 8883SOL     OW38284   4.231   2.128   4.846  0.0073  0.1415 -0.1572
 8883SOL    HW138285   4.299   2.071   4.810 -1.3778 -1.6545  0.0039
 8883SOL    HW238286   4.236   2.197   4.780 -0.2210 -0.8441 -1.2256
 8884SOL     OW38287   3.854   3.880   5.225 -0.7054 -0.1902 -0.1665
 8884SOL    HW138288   3.836   3.815   5.156  1.9444 -0.7809 -0.2820
 8884SOL    HW238289   3.891   3.949   5.171  1.8354 -0.8362  0.7694
 8885SOL     OW38290   1.409   3.573   4.411 -0.5460 -0.0880  0.9319
 8885SOL    HW138291   1.354   3.607   4.482 -0.7239  2.2219 -0.3236
 8885SOL    HW238292   1.371   3.614   4.333  0.1972  1.3656  1.3447
 8886SOL     OW38293   4.154   1.243  10.543 -0.1707 -0.2079  0.5338
 8886SOL    HW138294   4.065   1.213  10.527  0.5916 -2.2889  0.2102
 8886SOL    HW238295   4.139   1.313  10.607  0.4501 -0.2021  0.6777
 8887SOL     OW38296   4.522   3.676   2.708 -0.0039 -0.2784 -0.1298
 8887SOL    HW138297   4.509   3.628   2.789  1.9271  1.3385  1.1238
 8887SOL    HW238298   4.451   3.640   2.654 -1.5225 -0.8882  2.3022
 8888SOL     OW38299   2.671   3.361   6.062 -0.7902 -0.2057  0.3587
 8888SOL    HW138300   2.710   3.343   5.977 -3.1230  2.1374 -1.2282
 8888SOL    HW238301   2.741   3.416   6.097  1.9063 -2.9534 -0.8120
 8889SOL     OW38302   4.082   0.801   0.680  0.2342 -0.2986  0.0324
 8889SOL    HW138303   3.990   0.823   0.690  0.0495 -0.2977 -1.7792
 8889SOL    HW238304   4.088   0.796   0.585  0.0188  1.6423 -0.0752
 8890SOL     OW38305   2.685   1.715   4.349  0.7775  0.4749  0.3149
 8890SOL    HW138306   2.718   1.800   4.319  1.4999  0.1029  0.0524
 8890SOL    HW238307   2.597   1.742   4.376 -0.0182  0.1660 -1.9445
 8891SOL     OW38308   2.182   0.676   7.782  0.3644 -0.4973 -0.8525
 8891SOL    HW138309   2.144   0.715   7.860 -1.3532 -1.4939 -1.1847
 8891SOL    HW238310   2.177   0.745   7.715 -0.2776 -0.6913 -1.0056
 8892SOL     OW38311   2.862   1.828  13.350  0.2331 -0.5548 -0.0331
 8892SOL    HW138312   2.924   1.799  13.417  0.2409 -0.6867 -0.0964
 8892SOL    HW238313   2.828   1.742  13.322  0.8105 -0.3642 -1.3415
 8893SOL     OW38314   4.324   0.644   4.582  0.2661 -0.3091 -0.2145
 8893SOL    HW138315   4.342   0.630   4.490 -0.2209  0.1780 -0.3833
 8893SOL    HW238316   4.241   0.692   4.573  0.7895  0.2268 -2.0020
 8894SOL     OW38317   0.397   0.161  12.697  0.2706  0.6407  0.6115
 8894SOL    HW138318   0.456   0.092  12.728 -2.0141 -2.0352 -0.9598
 8894SOL    HW238319   0.453   0.236  12.715  1.3920  0.7073 -2.9860
 8895SOL     OW38320   2.318   2.613  12.732  0.3005  0.1828 -0.1977
 8895SOL    HW138321   2.273   2.631  12.650  0.1714  1.3168  0.1191
 8895SOL    HW238322   2.376   2.541  12.707  2.4440  2.0673 -0.5448
 8896SOL     OW38323   4.699   2.087  16.324  0.2833  0.0934 -0.1250
 8896SOL    HW138324   0.032   2.085  16.390 -0.2510 -0.7935  0.4043
 8896SOL    HW238325   4.630   2.130  16.373 -0.0893 -2.0286  1.1769
 8897SOL     OW38326   0.300   2.783   4.387  0.3521 -0.0618 -0.3264
 8897SOL    HW138327   0.229   2.845   4.400  0.8443  0.5554 -0.6115
 8897SOL    HW238328   0.288   2.734   4.468  0.8670  0.8766  0.3088
 8898SOL     OW38329   1.611   1.666   2.658  0.3223 -0.7163 -0.4450
 8898SOL    HW138330   1.642   1.688   2.746 -0.4303 -1.1905 -0.0649
 8898SOL    HW238331   1.595   1.755   2.625  0.5936 -1.3970 -2.4284
 8899SOL     OW38332   4.681   0.628   8.907 -0.5904 -0.6274 -1.2293
 8899SOL    HW138333   0.005   0.693   8.871 -0.0969 -1.0043 -1.0806
 8899SOL    HW238334   4.717   0.552   8.862 -1.3291 -0.1124 -2.7029
 8900SOL     OW38335   4.267   2.176   0.934 -0.7772  0.0193  0.5393
 8900SOL    HW138336   4.351   2.219   0.918  0.1705 -1.6893  1.0173
 8900SOL    HW238337   4.284   2.082   0.930 -0.1357  0.1566  0.0265
 8901SOL     OW38338   1.075   3.165   3.957 -0.0861 -0.0534  0.3906
 8901SOL    HW138339   1.130   3.194   4.030  0.1979  1.3609 -0.3824
 8901SOL    HW238340   1.135   3.144   3.885 -0.7241 -1.7280  0.3365
 8902SOL     OW38341   3.462   3.212   8.096 -0.3306 -0.1818 -0.3233
 8902SOL    HW138342   3.480   3.185   8.186 -0.9897  0.9435  0.1399
 8902SOL    HW238343   3.537   3.267   8.072 -0.9553  1.2649  1.0864
 8903SOL     OW38344   2.939   3.026  14.700 -0.1459 -0.0557 -0.2623
 8903SOL    HW138345   3.013   3.029  14.761  1.0429 -0.4790 -1.6856
 8903SOL    HW238346   2.896   2.947  14.731 -1.9837 -0.2276 -3.1992
 8904SOL     OW38347   0.107   4.345  17.071 -1.0176  0.1273 -0.1474
 8904SOL    HW138348   0.154   4.305  16.998 -1.5317  1.2048 -1.0562
 8904SOL    HW238349   0.038   4.281  17.088 -0.0878 -0.5983  0.9143
 8905SOL     OW38350   3.788   2.653   4.986  0.3408  0.2300  0.0767
 8905SOL    HW138351   3.856   2.590   5.008 -0.8375 -0.3663  2.0163
 8905SOL    HW238352   3.737   2.606   4.920 -2.1283  2.6857  0.2530
 8906SOL     OW38353   0.800   1.142   4.716  0.5364 -0.0586 -0.2646
 8906SOL    HW138354   0.808   1.198   4.639 -0.6109  1.9935  1.1166
 8906SOL    HW238355   0.749   1.082   4.661  2.6159 -0.9746 -1.1776
 8907SOL     OW38356   1.613   1.214  13.895  0.5532  0.3027 -0.0278
 8907SOL    HW138357   1.554   1.285  13.920 -0.6005 -1.5559  2.4340
 8907SOL    HW238358   1.569   1.147  13.946 -1.4252  2.7377  1.4651
 8908SOL     OW38359   2.989   3.082   2.925  0.1506  0.5252  0.1498
 8908SOL    HW138360   3.017   3.158   2.977 -0.1389  0.1956  0.7784
 8908SOL    HW238361   2.977   3.008   2.984  2.7679 -1.2347 -1.5288
 8909SOL     OW38362   2.253   3.585  16.531 -0.0323  0.4743 -0.5976
 8909SOL    HW138363   2.287   3.582  16.620  3.3140  0.6307 -1.8657
 8909SOL    HW238364   2.330   3.581  16.475 -0.0713 -1.7644 -0.4845
 8910SOL     OW38365   4.419   3.382   2.337 -0.1622 -0.1194 -0.7101
 8910SOL    HW138366   4.389   3.420   2.254 -1.0216  0.5438 -0.0883
 8910SOL    HW238367   4.332   3.350   2.361 -0.6155  0.6481 -1.3400
 8911SOL     OW38368   3.088   3.730  11.312 -0.0674  0.0303  0.1212
 8911SOL    HW138369   3.029   3.655  11.303 -0.8142  0.7387 -0.9411
 8911SOL    HW238370   3.035   3.776  11.246 -0.9153 -0.0678  0.7329
 8912SOL     OW38371   2.929   0.793   9.212  0.1903  0.7707  0.1758
 8912SOL    HW138372   2.993   0.836   9.155 -0.5292 -0.6441 -1.6907
 8912SOL    HW238373   2.901   0.845   9.288 -3.0426 -0.0516 -0.4446
 8913SOL     OW38374   0.023   1.224   0.561  0.2636 -0.6827 -0.2873
 8913SOL    HW138375   0.115   1.220   0.534  0.0897 -0.5205 -0.9075
 8913SOL    HW238376   4.715   1.276   0.494  0.4919  1.4570  1.2451
 8914SOL     OW38377   2.919   1.252   5.567 -0.2279 -0.3028 -0.6768
 8914SOL    HW138378   2.970   1.316   5.616  1.8911 -1.3464 -1.5455
 8914SOL    HW238379   2.905   1.308   5.491 -2.3263  1.1195  0.7337
 8915SOL     OW38380   4.001   2.765   0.773  0.3741 -0.1051 -0.2429
 8915SOL    HW138381   3.912   2.794   0.790 -0.0223 -0.5540 -1.5468
 8915SOL    HW238382   4.031   2.722   0.853 -2.0715 -1.3129  0.0098
 8916SOL     OW38383   2.915   1.710   7.901 -0.0580  0.3825  0.1259
 8916SOL    HW138384   2.964   1.690   7.821 -2.5961 -2.1448 -0.8029
 8916SOL    HW238385   2.921   1.625   7.944  4.2277  0.7608  0.2878
 8917SOL     OW38386   0.664   4.226  13.649  0.3109 -0.3568  0.0637
 8917SOL    HW138387   0.651   4.151  13.590  2.5580 -2.4630  2.2635
 8917SOL    HW238388   0.717   4.291  13.602 -1.9449  0.2525 -1.6434
 8918SOL     OW38389   3.778   0.595  12.075 -0.5975 -0.0850 -0.2361
 8918SOL    HW138390   3.865   0.558  12.065  0.3579  1.2714  3.1270
 8918SOL    HW238391   3.795   0.687  12.057  0.9439 -0.2671  0.3247
 8919SOL     OW38392   0.626   3.844   7.075  0.2545  0.1289 -0.1048
 8919SOL    HW138393   0.665   3.919   7.030 -0.2129  0.5089  0.1148
 8919SOL    HW238394   0.532   3.865   7.082 -0.0724 -0.4281 -2.9285
 8920SOL     OW38395   3.135   0.136   6.339  0.5880 -0.0010 -0.1168
 8920SOL    HW138396   3.116   0.166   6.428 -1.3108 -1.1312 -0.1402
 8920SOL    HW238397   3.052   0.165   6.302 -0.1336 -1.4776  0.3444
 8921SOL     OW38398   4.301   4.234  11.719  0.3713  0.1874 -0.4318
 8921SOL    HW138399   4.242   4.299  11.680  0.2211  0.6534  0.5878
 8921SOL    HW238400   4.232   4.177  11.751 -0.8120  1.4171 -0.8150
 8922SOL     OW38401   0.262   3.691   3.656 -0.2530 -0.3758 -0.3390
 8922SOL    HW138402   0.198   3.762   3.664  1.4211  1.1715 -0.9735
 8922SOL    HW238403   0.228   3.650   3.577  0.1946 -1.6946  0.1469
 8923SOL     OW38404   4.094   2.891   5.197  0.8568  0.2489 -0.3767
 8923SOL    HW138405   4.063   2.955   5.261  0.4046 -0.1595 -0.1871
 8923SOL    HW238406   4.034   2.905   5.123 -0.0094  1.8074  0.6171
 8924SOL     OW38407   4.314   3.501   2.116  0.4526 -0.6459  0.5396
 8924SOL    HW138408   4.254   3.575   2.121  1.6622  0.2604  1.4507
 8924SOL    HW238409   4.268   3.454   2.046 -0.4036  2.6327 -1.1021
 8925SOL     OW38410   2.396   1.437   3.719 -0.0794  0.0604  0.3268
 8925SOL    HW138411   2.443   1.514   3.749  0.3150  0.2683 -0.8023
 8925SOL    HW238412   2.324   1.481   3.675  0.1806  2.5796  2.4669
 8926SOL     OW38413   1.763   3.488   2.584  0.3081 -0.6936  0.0909
 8926SOL    HW138414   1.707   3.493   2.507 -1.7121  1.0573  1.6806
 8926SOL    HW238415   1.810   3.406   2.570  1.6231 -0.5354  3.5876
 8927SOL     OW38416   1.165   3.151  10.203  0.3786  0.0604  0.5630
 8927SOL    HW138417   1.160   3.059  10.178 -1.6466  0.0308  1.0402
 8927SOL    HW238418   1.169   3.151  10.299  0.6293 -1.7268  0.5413
 8928SOL     OW38419   1.947   0.758  16.103 -0.6187 -0.1175  0.4438
 8928SOL    HW138420   1.912   0.680  16.147 -2.2677  0.9614  1.0314
 8928SOL    HW238421   2.020   0.709  16.065 -2.5563 -1.2947 -1.7946
 8929SOL     OW38422   4.227   2.442   1.223 -0.5003  0.8052 -0.0467
 8929SOL    HW138423   4.305   2.456   1.170  0.0520  1.4630  0.9307
 8929SOL    HW238424   4.242   2.355   1.259  0.0504  1.5861  1.5927
 8930SOL     OW38425   0.261   1.493   8.733  0.1109 -0.0904 -0.0068
 8930SOL    HW138426   0.229   1.552   8.664  1.6266 -1.1247 -1.5970
 8930SOL    HW238427   0.199   1.513   8.803  0.0348  0.2059 -0.1569
 8931SOL     OW38428   0.760   0.675  13.502  0.0477  0.0816 -0.2441
 8931SOL    HW138429   0.833   0.735  13.519 -0.0186 -0.1979  1.0167
 8931SOL    HW238430   0.688   0.737  13.493  0.2498  0.2925 -0.4155
 8932SOL     OW38431   2.118   4.600   0.828 -0.0512 -0.2901 -0.4206
 8932SOL    HW138432   2.152   4.690   0.822  4.3157 -1.9917 -1.6726
 8932SOL    HW238433   2.025   4.608   0.806  0.0440  1.6244 -0.1213
 8933SOL     OW38434   3.339   3.986   5.272 -0.0133  0.1475  0.1245
 8933SOL    HW138435   3.287   3.977   5.192 -0.5536 -1.1277  0.6261
 8933SOL    HW238436   3.292   3.939   5.341  0.8271  0.1973  0.7278
 8934SOL     OW38437   0.490   0.901   2.524 -0.2872  0.1813 -0.2580
 8934SOL    HW138438   0.551   0.833   2.494  1.0324  1.7504 -1.1406
 8934SOL    HW238439   0.414   0.868   2.475 -0.2576 -0.2987  0.0212
 8935SOL     OW38440   1.958   3.562   6.335  0.0316  0.0362  0.1112
 8935SOL    HW138441   1.987   3.543   6.424 -0.3245 -0.2674  0.1623
 8935SOL    HW238442   1.915   3.648   6.344 -0.6763 -0.2893 -0.1147
 8936SOL     OW38443   1.331   2.603  15.763  0.3712 -0.3269  0.2684
 8936SOL    HW138444   1.426   2.603  15.777  0.3968  1.8002 -0.0147
 8936SOL    HW238445   1.290   2.584  15.847  3.3572  0.4780  1.8823
 8937SOL     OW38446   1.576   3.158   3.064 -0.4341  0.3623  0.4306
 8937SOL    HW138447   1.631   3.200   3.130 -0.6910  1.5178 -0.0939
 8937SOL    HW238448   1.658   3.125   3.028 -0.7877  1.2735 -1.2381
 8938SOL     OW38449   0.637   1.272   6.931  0.5343 -0.2658  0.2630
 8938SOL    HW138450   0.673   1.357   6.905 -0.0617 -0.7522 -2.1903
 8938SOL    HW238451   0.546   1.285   6.907  0.8017 -1.6020 -1.4375
 8939SOL     OW38452   2.332   4.506   7.332 -0.3379  0.2115  0.3191
 8939SOL    HW138453   2.418   4.546   7.343 -0.0446 -0.6443  1.0776
 8939SOL    HW238454   2.316   4.487   7.424 -2.4772 -1.6822 -0.4613
 8940SOL     OW38455   3.089   2.133   1.830 -0.0002  1.4021 -0.5006
 8940SOL    HW138456   3.077   2.224   1.801 -5.0276  0.8740 -0.1065
 8940SOL    HW238457   3.054   2.137   1.919  1.2786  0.4372  0.0502
 8941SOL     OW38458   2.196   3.177   8.720 -0.0116 -0.1052 -0.1292
 8941SOL    HW138459   2.244   3.100   8.691 -0.5388 -1.2577  2.0407
 8941SOL    HW238460   2.247   3.247   8.679 -1.6033  0.3546 -1.3117
 8942SOL     OW38461   1.264   2.284   4.702 -0.2568 -0.6061  0.0799
 8942SOL    HW138462   1.255   2.358   4.643  0.1100 -0.4110  0.2665
 8942SOL    HW238463   1.177   2.275   4.740 -0.1551  0.1694  0.4862
 8943SOL     OW38464   3.145   0.170   2.012  0.1800 -0.1657 -0.1194
 8943SOL    HW138465   3.206   0.230   1.971  0.4367 -0.5606 -0.3152
 8943SOL    HW238466   3.085   0.236   2.047  2.0452  1.6011 -0.2740
 8944SOL     OW38467   1.952   4.321  11.610  0.3404  0.3176 -0.6792
 8944SOL    HW138468   1.867   4.277  11.614  0.0695  1.0444  1.3718
 8944SOL    HW238469   2.003   4.240  11.602 -0.9309 -0.8381  2.6388
 8945SOL     OW38470   0.945   3.019   7.577  0.0969  0.2638  0.6062
 8945SOL    HW138471   0.878   3.040   7.512 -0.8524  0.5132  1.6872
 8945SOL    HW238472   0.907   3.031   7.663  1.4037 -0.9838  1.3507
 8946SOL     OW38473   3.735   4.578   9.144  0.5635 -0.2841  0.0659
 8946SOL    HW138474   3.750   4.579   9.239 -1.8650  0.6610  0.4431
 8946SOL    HW238475   3.722   4.484   9.136 -1.4984  0.1775 -1.9407
 8947SOL     OW38476   0.568   1.298  11.987  0.0284  0.0883  0.1567
 8947SOL    HW138477   0.545   1.255  12.070  0.1058  0.5387  0.4110
 8947SOL    HW238478   0.513   1.243  11.932 -1.6950  1.7383  0.2169
 8948SOL     OW38479   2.888   4.686  14.451  0.1356 -0.0072 -0.2614
 8948SOL    HW138480   2.882   4.656  14.542  1.3656  0.0550 -0.1544
 8948SOL    HW238481   2.983   4.688  14.439  0.4075  1.1012  2.0868
 8949SOL     OW38482   3.705   2.842   9.717  0.6756  0.1529 -0.2824
 8949SOL    HW138483   3.648   2.909   9.756 -1.2742 -1.4602 -0.3584
 8949SOL    HW238484   3.643   2.807   9.652 -0.3645 -0.1737  0.8829
 8950SOL     OW38485   2.477   1.511  13.643  0.7368 -0.7911  0.1127
 8950SOL    HW138486   2.533   1.458  13.700 -0.6129 -1.8321  0.4568
 8950SOL    HW238487   2.396   1.510  13.695 -0.3218  0.3535 -1.5274
 8951SOL     OW38488   3.472   3.309   9.517  0.1529  0.2851  0.3347
 8951SOL    HW138489   3.512   3.330   9.432 -1.9943  2.4746 -0.1513
 8951SOL    HW238490   3.386   3.278   9.488 -1.0831  3.1458  0.9530
 8952SOL     OW38491   1.932   3.401   5.692 -0.3897  0.7483 -0.1156
 8952SOL    HW138492   1.989   3.458   5.743  0.9524  0.5437 -1.3841
 8952SOL    HW238493   1.973   3.407   5.606  1.3206  0.7055  0.6925
 8953SOL     OW38494   1.667   0.484   8.925  1.2279 -0.8202 -0.8728
 8953SOL    HW138495   1.675   0.411   8.864  1.7715 -0.8651 -0.7532
 8953SOL    HW238496   1.719   0.545   8.871  1.0895  2.0968  2.2729
 8954SOL     OW38497   1.219   3.387   7.699  0.1063  0.1455 -0.5713
 8954SOL    HW138498   1.182   3.299   7.695 -1.7079  0.8578  1.1366
 8954SOL    HW238499   1.299   3.376   7.647  1.2506  0.3060  1.1474
 8955SOL     OW38500   2.139   1.322  16.083 -0.1814  0.2174  0.1392
 8955SOL    HW138501   2.196   1.245  16.082  0.7332  0.8899  0.3812
 8955SOL    HW238502   2.173   1.366  16.006  2.0680 -1.6656  0.0586
 8956SOL     OW38503   0.675   3.385   0.501  0.5571 -0.4794  0.1595
 8956SOL    HW138504   0.768   3.363   0.505  0.4989 -0.3700  1.9138
 8956SOL    HW238505   0.669   3.384   0.405  0.7089  0.2977  0.1381
 8957SOL     OW38506   3.273   2.748   8.696 -0.4408  0.1851 -0.1735
 8957SOL    HW138507   3.321   2.797   8.763  0.8169  0.1544 -1.0436
 8957SOL    HW238508   3.260   2.663   8.738 -1.3353  0.5318  0.2490
 8958SOL     OW38509   1.357   1.293   8.786 -0.5452  0.0188 -0.2530
 8958SOL    HW138510   1.404   1.213   8.811 -1.5530 -0.0325  1.4330
 8958SOL    HW238511   1.333   1.341   8.865  0.9650 -0.2853  0.3903
 8959SOL     OW38512   2.089   3.705  11.493  0.7759 -0.0748 -0.2087
 8959SOL    HW138513   2.117   3.762  11.421  1.0547 -0.8997 -0.7451
 8959SOL    HW238514   2.172   3.695  11.539  0.4483 -0.7592  0.2305
 8960SOL     OW38515   0.011   1.149  11.476  0.1042 -0.5474  0.3607
 8960SOL    HW138516   0.076   1.098  11.523  1.3843  1.0358  0.3381
 8960SOL    HW238517   0.012   1.233  11.522  0.5606 -0.1882 -0.3104
 8961SOL     OW38518   2.811   3.262  14.629  0.4707  0.0648  0.2658
 8961SOL    HW138519   2.840   3.176  14.658  3.2422  0.6123 -0.8424
 8961SOL    HW238520   2.736   3.251  14.571 -0.8888  1.3846  1.7381
 8962SOL     OW38521   1.447   0.391   6.600 -0.0784 -0.0712  0.3756
 8962SOL    HW138522   1.460   0.301   6.569  1.1269 -0.0905  0.9459
 8962SOL    HW238523   1.458   0.423   6.511 -1.3516  3.1288  1.3842
 8963SOL     OW38524   0.328   1.677   8.151  0.1863 -1.0565 -0.1861
 8963SOL    HW138525   0.315   1.766   8.184  0.2231 -1.0722 -0.1291
 8963SOL    HW238526   0.291   1.675   8.063  0.9263 -2.2431 -0.4756
 8964SOL     OW38527   4.439   4.648  16.515  0.0615 -0.0914  0.3159
 8964SOL    HW138528   4.492   4.618  16.441 -0.0959 -0.0764  0.1979
 8964SOL    HW238529   4.424   0.003  16.491  4.3006  0.2885 -0.9473
 8965SOL     OW38530   3.582   2.280   6.360  0.2655  0.2035 -0.4097
 8965SOL    HW138531   3.587   2.363   6.407 -1.2416 -0.1286  0.3237
 8965SOL    HW238532   3.643   2.230   6.416  1.4241  0.4645 -1.4386
 8966SOL     OW38533   4.454   4.683   5.207 -0.5834 -0.8414 -0.3023
 8966SOL    HW138534   4.473   4.589   5.202  1.3241 -0.4894  0.4710
 8966SOL    HW238535   4.526   4.699   5.268  0.1452 -0.4422 -1.2730
 8967SOL     OW38536   0.211   0.138  13.535  0.0258 -0.3417 -0.0422
 8967SOL    HW138537   0.206   0.231  13.515 -0.2271  0.3073  3.0392
 8967SOL    HW238538   0.293   0.130  13.584  0.5453 -0.5190 -0.9531
 8968SOL     OW38539   3.088   2.428  10.174  0.9216 -0.1230 -0.2576
 8968SOL    HW138540   3.154   2.482  10.130 -0.3746  1.2725 -0.4492
 8968SOL    HW238541   3.111   2.437  10.266  0.9489 -1.3227 -0.1467
 8969SOL     OW38542   0.927   4.206   7.762 -0.4216 -0.1664 -0.0544
 8969SOL    HW138543   0.902   4.292   7.795  2.6559  0.6753  0.0891
 8969SOL    HW238544   0.839   4.169   7.767 -0.8036  0.9112  1.1572
 8970SOL     OW38545   1.198   0.348   6.020  0.0065 -0.2270 -0.0075
 8970SOL    HW138546   1.203   0.263   5.975  1.2784  0.1226 -0.5197
 8970SOL    HW238547   1.107   0.335   6.050 -0.4299  2.3198 -0.2562
 8971SOL     OW38548   0.884   0.955   2.788 -0.1265 -0.7867 -0.3118
 8971SOL    HW138549   0.875   1.031   2.731  1.9937  0.9817  1.6777
 8971SOL    HW238550   0.966   0.976   2.834 -0.4353 -0.1767 -0.0311
 8972SOL     OW38551   0.321   0.089   4.711 -0.0412 -0.3398  0.3125
 8972SOL    HW138552   0.271   0.113   4.788  0.0054 -0.9800  0.5433
 8972SOL    HW238553   0.400   0.142   4.723  1.3707 -1.9648 -1.5582
 8973SOL     OW38554   2.768   1.095   5.272  0.1475  0.0002  0.0790
 8973SOL    HW138555   2.757   1.110   5.366 -1.0826  1.8647 -0.3672
 8973SOL    HW238556   2.677   1.093   5.244 -0.1126 -0.4418  0.9603
 8974SOL     OW38557   3.364   2.526   2.983  0.3499 -0.1429  0.0055
 8974SOL    HW138558   3.413   2.455   3.025 -1.0913 -1.8563 -1.1925
 8974SOL    HW238559   3.439   2.576   2.952 -1.4392  1.0923 -2.3341
 8975SOL     OW38560   0.993   3.991  15.472 -0.4825  0.0936  0.2039
 8975SOL    HW138561   1.078   4.006  15.513 -1.2291  1.5996  1.1930
 8975SOL    HW238562   0.934   3.985  15.547 -0.9678 -2.8474 -0.3954
 8976SOL     OW38563   1.195   0.682  17.682 -0.3233 -0.2373  0.1136
 8976SOL    HW138564   1.178   0.709   0.028  0.2447  0.8233 -0.1072
 8976SOL    HW238565   1.107   0.673  17.646 -0.2421  0.2592 -0.1977
 8977SOL     OW38566   0.616   3.724   4.196 -0.5467 -0.3236 -0.1964
 8977SOL    HW138567   0.538   3.687   4.155  0.2340  0.5327 -2.4108
 8977SOL    HW238568   0.576   3.789   4.254 -0.6899  2.0078 -2.9417
 8978SOL     OW38569   0.922   3.076   4.607  0.1737  0.2920 -0.2914
 8978SOL    HW138570   0.948   2.985   4.622  2.3333  0.5667 -2.3741
 8978SOL    HW238571   0.854   3.067   4.540  0.0282  0.7563 -0.2076
 8979SOL     OW38572   2.239   3.246   5.340 -0.7755  0.1735  0.0421
 8979SOL    HW138573   2.239   3.151   5.327 -1.2271 -0.0011  1.2969
 8979SOL    HW238574   2.313   3.239   5.400  1.3125 -0.1233 -2.6016
 8980SOL     OW38575   0.840   4.475  14.923 -0.1670  0.1129 -0.6323
 8980SOL    HW138576   0.830   4.407  14.989  0.8253  1.1276  0.5620
 8980SOL    HW238577   0.811   4.433  14.842  0.3729 -0.4652 -0.5237
 8981SOL     OW38578   1.633   2.038   3.495 -0.0684  0.4954 -0.0141
 8981SOL    HW138579   1.701   1.989   3.540 -1.3944 -1.4953 -0.1631
 8981SOL    HW238580   1.565   2.050   3.562  0.2043 -0.6636  0.4634
 8982SOL     OW38581   4.278   2.068   6.074  0.2342 -0.0983  0.8412
 8982SOL    HW138582   4.314   1.986   6.041 -1.4845 -0.4564 -0.1225
 8982SOL    HW238583   4.321   2.132   6.018  2.4863 -1.8367  0.5646
 8983SOL     OW38584   3.204   3.260   3.218  0.0219  0.5234  0.4832
 8983SOL    HW138585   3.108   3.265   3.219  0.0455  1.2328 -1.9360
 8983SOL    HW238586   3.226   3.167   3.214 -0.3362  0.4710 -0.1921
 8984SOL     OW38587   0.292   1.585   3.609 -0.8114  0.2669  0.1636
 8984SOL    HW138588   0.329   1.673   3.599 -2.3199  0.9309  0.4356
 8984SOL    HW238589   0.336   1.534   3.541 -0.1974  0.6852  0.2496
 8985SOL     OW38590   0.202   1.447   2.489 -0.2524 -0.3176  0.3250
 8985SOL    HW138591   0.146   1.522   2.469 -0.7607 -0.4200  1.3327
 8985SOL    HW238592   0.131   1.386   2.509  0.8395 -0.8108  2.8040
 8986SOL     OW38593   1.277   0.696  13.678 -0.1160  0.2803  0.2660
 8986SOL    HW138594   1.278   0.760  13.750 -0.6149 -0.5216  0.9912
 8986SOL    HW238595   1.256   0.612  13.719  1.5098  0.0741  0.6846
 8987SOL     OW38596   2.684   1.479   2.974 -0.2274  0.5388 -0.4415
 8987SOL    HW138597   2.729   1.533   2.909  1.0019 -0.7796 -0.6886
 8987SOL    HW238598   2.592   1.489   2.948 -0.7713 -1.4361  0.7110
 8988SOL     OW38599   3.103   4.282   8.744  0.0317 -0.3561 -0.0594
 8988SOL    HW138600   3.045   4.207   8.757 -0.7577  0.4757  1.1987
 8988SOL    HW238601   3.172   4.260   8.807 -0.4628  1.1934  1.0154
 8989SOL     OW38602   0.125   2.993   2.766  0.2176 -0.0619  0.2687
 8989SOL    HW138603   0.114   2.968   2.857  0.3363  0.3212  0.3894
 8989SOL    HW238604   0.197   3.056   2.765  0.1063  0.0825  1.3542
 8990SOL     OW38605   2.135   0.602   8.265 -0.2323 -0.4051 -0.3796
 8990SOL    HW138606   2.203   0.598   8.334 -0.0740 -0.9191 -0.5657
 8990SOL    HW238607   2.158   0.530   8.207  1.8070  0.9529 -1.2787
 8991SOL     OW38608   2.858   0.055   2.520 -0.0792 -0.0236  0.0499
 8991SOL    HW138609   2.953   0.059   2.516 -0.0502 -1.3656 -0.6342
 8991SOL    HW238610   2.855   0.072   2.614  1.1009 -2.0793  0.4537
 8992SOL     OW38611   0.956   3.743   9.255 -0.3788  0.4167  0.6692
 8992SOL    HW138612   0.912   3.659   9.271 -0.1327  0.1534 -0.0255
 8992SOL    HW238613   0.925   3.795   9.329  1.2868  0.7841  1.1225
 8993SOL     OW38614   2.979   0.673   2.164  0.4313 -0.0290 -0.1573
 8993SOL    HW138615   2.982   0.723   2.082  2.3856 -1.8021 -1.1669
 8993SOL    HW238616   2.939   0.589   2.140  1.1069 -0.4661  0.2781
 8994SOL     OW38617   3.375   3.247  15.292 -0.0090  0.5934 -0.4111
 8994SOL    HW138618   3.293   3.252  15.341  0.1699 -2.1215  0.1640
 8994SOL    HW238619   3.395   3.337  15.266  3.2791 -0.4044 -1.3276
 8995SOL     OW38620   2.484   4.385  16.540 -0.5573  0.0283  0.2698
 8995SOL    HW138621   2.495   4.369  16.634  0.0553 -0.1298  0.1741
 8995SOL    HW238622   2.406   4.439  16.554  1.1102  1.7928  2.7197
 8996SOL     OW38623   2.451   2.405  16.083 -0.3044  0.0138  0.5028
 8996SOL    HW138624   2.466   2.494  16.115  0.3350  0.8224 -2.0876
 8996SOL    HW238625   2.519   2.361  16.135 -0.1357 -2.2258 -1.6444
 8997SOL     OW38626   4.519   0.334   8.309  0.1985 -0.7026 -0.1369
 8997SOL    HW138627   4.494   0.426   8.303  2.7760  0.0502  0.5804
 8997SOL    HW238628   4.572   0.314   8.232  3.1666  1.7639  1.2539
 8998SOL     OW38629   1.019   2.809   8.808  0.4015 -0.2091  0.1257
 8998SOL    HW138630   1.016   2.714   8.807 -1.8701 -0.1246 -0.6708
 8998SOL    HW238631   0.932   2.832   8.842  0.5829  2.3311 -1.1352
 8999SOL     OW38632   2.085   2.714  16.524 -0.2866  0.3332 -0.3917
 8999SOL    HW138633   2.021   2.782  16.506 -0.2145  0.1878 -1.2094
 8999SOL    HW238634   2.116   2.694  16.436  1.9202 -2.1259  0.9255
 9000SOL     OW38635   0.550   1.387   1.981  0.5022  0.4823  0.4830
 9000SOL    HW138636   0.590   1.411   2.064  0.6943  0.4516  0.3990
 9000SOL    HW238637   0.463   1.425   1.994 -0.5130 -1.0136 -1.9524
 9001SOL     OW38638   4.131   3.175   8.264 -0.5259 -0.1113  0.2377
 9001SOL    HW138639   4.137   3.259   8.309 -2.0232 -0.3769  0.9383
 9001SOL    HW238640   4.149   3.212   8.178  1.1064 -0.8369  0.2697
 9002SOL     OW38641   0.720   3.028   8.717  0.3125  0.4178  0.1086
 9002SOL    HW138642   0.805   3.062   8.745  1.2714 -1.4747 -0.4896
 9002SOL    HW238643   0.700   2.959   8.779  1.9441  1.1682  1.4688
 9003SOL     OW38644   1.465   2.269  10.964  0.8185  0.2535 -0.1614
 9003SOL    HW138645   1.435   2.186  11.001  2.2838 -0.4802 -0.6111
 9003SOL    HW238646   1.382   2.316  10.963 -0.0410 -1.2930 -1.6113
 9004SOL     OW38647   0.881   1.051   7.836 -0.5721  0.1083 -0.1664
 9004SOL    HW138648   0.855   1.105   7.761 -4.0137 -1.0327  0.2192
 9004SOL    HW238649   0.823   1.076   7.908 -0.2313  2.2928 -0.6508
 9005SOL     OW38650   3.243   0.526   7.111  0.3055 -0.1464  0.5111
 9005SOL    HW138651   3.185   0.560   7.180  1.0521  0.4307  0.8547
 9005SOL    HW238652   3.185   0.502   7.039  0.8269 -0.9794  0.3720
 9006SOL     OW38653   1.691   2.292   3.335 -0.0397  0.6501 -0.6090
 9006SOL    HW138654   1.631   2.366   3.344 -0.3105  0.4076 -0.4267
 9006SOL    HW238655   1.649   2.215   3.375  1.0884 -0.2686 -1.1911
 9007SOL     OW38656   0.199   0.011   3.329 -0.4384 -0.4308 -0.0841
 9007SOL    HW138657   0.118   0.051   3.360 -0.2721  2.4212 -3.3250
 9007SOL    HW238658   0.253   0.089   3.341  0.6536 -0.6900 -3.2516
 9008SOL     OW38659   2.236   3.901   1.783  0.1025 -0.0518  0.1170
 9008SOL    HW138660   2.255   3.898   1.876  1.1204  0.9620 -0.0456
 9008SOL    HW238661   2.320   3.887   1.739  0.0744  0.2238 -0.0277
 9009SOL     OW38662   3.828   1.373   7.220  0.3293  0.2123  0.3279
 9009SOL    HW138663   3.766   1.351   7.150 -0.8949 -0.3090  1.5827
 9009SOL    HW238664   3.784   1.332   7.294 -0.5682 -1.5945 -1.2220
 9010SOL     OW38665   1.836   2.520   2.595  0.0947 -0.5756 -0.7599
 9010SOL    HW138666   1.925   2.526   2.561  0.3802 -1.6533 -0.1882
 9010SOL    HW238667   1.786   2.536   2.515 -1.7955  1.5469  0.8227
 9011SOL     OW38668   0.827   0.245   7.090  0.7447  0.4292 -0.3247
 9011SOL    HW138669   0.880   0.302   7.033  1.3169 -1.0886 -1.3329
 9011SOL    HW238670   0.809   0.308   7.159  1.2524 -1.7137  1.7444
 9012SOL     OW38671   3.470   2.166   4.043  0.2779 -0.4915 -0.1558
 9012SOL    HW138672   3.393   2.221   4.057 -2.3491 -3.7393 -1.5085
 9012SOL    HW238673   3.477   2.149   4.137 -0.8060 -2.0716 -0.3416
 9013SOL     OW38674   2.324   3.288   7.023  0.3464  0.4384 -0.0890
 9013SOL    HW138675   2.336   3.282   7.117  1.5137 -0.1785 -0.2767
 9013SOL    HW238676   2.231   3.306   7.014  0.0871 -0.2679  1.3116
 9014SOL     OW38677   3.324   0.975   2.699  0.3359  0.1479  0.4744
 9014SOL    HW138678   3.344   0.928   2.780 -2.0697  0.8335  1.4802
 9014SOL    HW238679   3.237   1.001   2.729  0.9441  3.7894 -0.9033
 9015SOL     OW38680   2.871   0.804   3.535  0.3474  0.7613  0.5312
 9015SOL    HW138681   2.852   0.888   3.577  0.6274 -0.0787  2.3573
 9015SOL    HW238682   2.860   0.824   3.442  2.3523  2.1285  0.5706
 9016SOL     OW38683   0.630   3.695  16.093  0.5023 -0.2005 -0.1943
 9016SOL    HW138684   0.700   3.705  16.028  0.3499 -0.4346 -0.3961
 9016SOL    HW238685   0.560   3.747  16.053  0.9747 -0.6867 -1.6795
 9017SOL     OW38686   4.133   0.110   6.434 -0.2135  0.1584 -0.5249
 9017SOL    HW138687   4.106   0.103   6.526  1.3660  0.4494 -0.0313
 9017SOL    HW238688   4.186   0.190   6.432  1.0207 -0.6322  0.7038
 9018SOL     OW38689   3.892   3.381  16.247  0.0203  0.2793  0.1795
 9018SOL    HW138690   3.912   3.434  16.324  0.7368 -1.1158  0.9530
 9018SOL    HW238691   3.888   3.448  16.179 -1.3919 -2.0030 -1.9948
 9019SOL     OW38692   3.888   4.117  12.862 -0.0936  0.5803 -0.6844
 9019SOL    HW138693   3.877   4.124  12.767  0.4643 -1.9409 -0.9414
 9019SOL    HW238694   3.864   4.206  12.887  0.4820  1.1825 -2.2529
 9020SOL     OW38695   0.758   3.715   3.768 -0.2424 -0.8998 -0.1128
 9020SOL    HW138696   0.732   3.755   3.851  0.8705 -1.2009  0.3732
 9020SOL    HW238697   0.674   3.697   3.724 -0.3556  1.8601 -1.0217
 9021SOL     OW38698   3.521   1.763   0.030 -0.1363  0.3648 -0.1743
 9021SOL    HW138699   3.537   1.855   0.007  0.0536 -0.0269 -1.5950
 9021SOL    HW238700   3.547   1.780   0.121  1.2486  1.5774 -0.7742
 9022SOL     OW38701   4.295   0.286   5.337  0.4942  0.1763  0.3104
 9022SOL    HW138702   4.236   0.269   5.264  0.7234 -0.5291  0.2942
 9022SOL    HW238703   4.254   0.228   5.401 -1.3148  1.7122  0.5253
 9023SOL     OW38704   1.182   2.457  11.785 -0.0730  0.0259 -0.1861
 9023SOL    HW138705   1.143   2.488  11.703 -0.1384  0.6911  0.0897
 9023SOL    HW238706   1.271   2.443  11.752 -0.4048  0.1704 -1.1293
 9024SOL     OW38707   2.979   4.472   6.390 -0.5670  0.2073 -0.2424
 9024SOL    HW138708   3.000   4.395   6.338  0.5050  0.0552  0.4348
 9024SOL    HW238709   3.009   4.455   6.479  2.7417 -0.6333 -1.5379
 9025SOL     OW38710   0.705   2.289   5.376  0.0424 -0.3519  0.4820
 9025SOL    HW138711   0.674   2.327   5.294 -1.9630  1.4188  2.0729
 9025SOL    HW238712   0.650   2.338   5.437  0.2381 -2.0622  2.0334
 9026SOL     OW38713   0.138   2.545  16.304 -0.2692 -0.1442  0.0165
 9026SOL    HW138714   0.141   2.598  16.224 -0.4124  1.5737  1.1680
 9026SOL    HW238715   0.160   2.460  16.265 -1.1085 -0.3512 -0.0038
 9027SOL     OW38716   1.764   0.097   6.547 -0.0722 -0.0540 -0.4963
 9027SOL    HW138717   1.669   0.109   6.551  0.0986  0.4367  2.1922
 9027SOL    HW238718   1.785   0.076   6.638  0.4506  1.2159 -0.3251
 9028SOL     OW38719   2.985   2.906  13.888  0.0724 -0.2607 -0.0048
 9028SOL    HW138720   2.912   2.968  13.886 -0.1132 -0.5029 -0.8127
 9028SOL    HW238721   3.051   2.953  13.939 -0.6076  1.0421 -0.3236
 9029SOL     OW38722   1.469   1.783   6.252 -0.1397  0.3165 -0.0734
 9029SOL    HW138723   1.407   1.840   6.297  0.7647 -0.9166  2.7134
 9029SOL    HW238724   1.500   1.731   6.326  2.8415  0.1651 -1.4018
 9030SOL     OW38725   2.298   2.806  10.794  0.1693  0.3741 -0.2649
 9030SOL    HW138726   2.333   2.727  10.753 -0.2703 -0.7899  1.6264
 9030SOL    HW238727   2.210   2.782  10.822  0.1636  1.1674  0.4153
 9031SOL     OW38728   2.673   0.939   8.712  0.0121 -0.0484  0.0862
 9031SOL    HW138729   2.648   0.906   8.798 -2.0217 -0.6327 -0.7477
 9031SOL    HW238730   2.607   0.899   8.655 -1.4377 -0.6408  2.2078
 9032SOL     OW38731   2.966   2.880   9.520 -0.1932 -0.4676  0.2400
 9032SOL    HW138732   3.043   2.934   9.538 -1.6359  1.6524  0.0455
 9032SOL    HW238733   2.902   2.950   9.508  0.0814 -0.0293  1.2913
 9033SOL     OW38734   1.456   3.484   2.084  0.5325 -0.0221 -0.2548
 9033SOL    HW138735   1.413   3.416   2.032  3.5386 -1.4601 -0.8325
 9033SOL    HW238736   1.470   3.545   2.011  2.4957 -0.7617 -0.5006
 9034SOL     OW38737   2.805   4.161   7.623 -0.4477 -0.1542 -0.2048
 9034SOL    HW138738   2.866   4.145   7.551 -0.0692  3.2737 -0.6791
 9034SOL    HW238739   2.820   4.255   7.639 -1.0577 -0.2626  1.0197
 9035SOL     OW38740   0.138   1.924   8.020  0.0857  0.0420 -0.1704
 9035SOL    HW138741   0.060   1.932   8.075  2.7451  1.6939  3.3228
 9035SOL    HW238742   0.125   1.997   7.959 -1.1753 -0.2177 -0.2210
 9036SOL     OW38743   4.379   2.365   0.144  0.2248 -0.9930 -0.4161
 9036SOL    HW138744   4.419   2.401   0.065  1.7084 -1.8238 -0.0291
 9036SOL    HW238745   4.435   2.290   0.160  1.0694 -0.8547 -2.7013
 9037SOL     OW38746   0.024   1.485   8.394 -0.2471  0.2595  0.8035
 9037SOL    HW138747   4.681   1.510   8.347  0.8795 -0.4224 -1.4587
 9037SOL    HW238748   4.722   1.432   8.464 -2.0257  0.1476 -0.2368
 9038SOL     OW38749   1.415   2.156   4.431  0.1821 -0.3569 -0.0344
 9038SOL    HW138750   1.448   2.238   4.395 -1.7317  1.2719  1.8882
 9038SOL    HW238751   1.332   2.181   4.472  1.2961  1.9793  0.8168
 9039SOL     OW38752   4.567   2.556  17.127  0.5065 -0.3184 -0.2069
 9039SOL    HW138753   4.501   2.626  17.130  0.5695 -0.2008 -1.3933
 9039SOL    HW238754   4.513   2.481  17.102 -0.5340  0.3555  0.0302
 9040SOL     OW38755   2.824   4.252   1.554  0.1933 -0.3822  0.5315
 9040SOL    HW138756   2.759   4.320   1.533  1.3166  0.4257 -0.3363
 9040SOL    HW238757   2.808   4.247   1.648  0.8252 -0.9295  0.6047
 9041SOL     OW38758   0.999   0.901   5.026  0.3259  0.2941  0.0669
 9041SOL    HW138759   0.926   0.931   5.080 -0.0582  0.0432 -0.3262
 9041SOL    HW238760   1.039   0.988   5.019  3.1600 -1.2075 -2.2535
 9042SOL     OW38761   1.464   2.206  11.917 -0.2954  0.4170  0.1417
 9042SOL    HW138762   1.449   2.240  11.829  1.3128 -0.5357 -0.4860
 9042SOL    HW238763   1.386   2.240  11.962 -0.6087 -2.9562  2.2330
 9043SOL     OW38764   1.364   2.600   2.848 -0.8274  0.8980  0.2201
 9043SOL    HW138765   1.276   2.613   2.811 -0.8633  0.2084  0.0672
 9043SOL    HW238766   1.339   2.660   2.918  1.3452  1.7133  0.2893
 9044SOL     OW38767   4.575   1.493   2.312 -0.9857 -0.0987 -0.1944
 9044SOL    HW138768   4.518   1.555   2.266  0.4261  1.5963  0.3422
 9044SOL    HW238769   4.659   1.533   2.331 -1.9007  1.2343  1.0924
 9045SOL     OW38770   0.772   3.161   0.106  0.4160  0.6028  0.5549
 9045SOL    HW138771   0.767   3.202   0.020 -0.9578  0.8259  0.7410
 9045SOL    HW238772   0.823   3.228   0.152  0.6032  1.7255 -1.2804
 9046SOL     OW38773   2.096   4.501   2.596  0.0324 -0.3818 -0.2077
 9046SOL    HW138774   2.106   4.412   2.563  0.9212  0.0159 -1.0029
 9046SOL    HW238775   2.068   4.543   2.515 -2.5243 -0.2221  0.7614
 9047SOL     OW38776   2.068   3.919   0.947 -0.2881 -0.4896 -0.1219
 9047SOL    HW138777   2.009   3.969   1.002  0.8931 -0.2321  0.8999
 9047SOL    HW238778   2.083   3.971   0.868  0.3816 -1.3990 -0.6066
 9048SOL     OW38779   4.647   1.716   4.916  0.3697 -0.0035 -0.2359
 9048SOL    HW138780   0.003   1.695   4.901  0.6447  0.4514  0.7936
 9048SOL    HW238781   4.659   1.798   4.963 -0.9870  0.8678 -1.4206
 9049SOL     OW38782   3.211   3.964   9.066  0.3379  0.1457 -0.7199
 9049SOL    HW138783   3.214   3.890   9.006 -2.3494  0.3635 -1.1518
 9049SOL    HW238784   3.116   3.957   9.080  0.5176  0.2884  0.5599
 9050SOL     OW38785   2.859   4.638   0.961  0.0316  0.3931 -0.2143
 9050SOL    HW138786   2.919   4.590   0.904 -2.7855 -1.6139 -1.4925
 9050SOL    HW238787   2.908   4.647   1.043  0.6372  0.0836 -0.5446
 9051SOL     OW38788   0.171   3.333   4.468 -0.1518  0.1288  0.2243
 9051SOL    HW138789   0.226   3.412   4.468 -0.9083  0.6355  2.3260
 9051SOL    HW238790   0.225   3.270   4.421 -0.6220  0.6275 -0.9852
 9052SOL     OW38791   3.140   4.642   3.076 -0.2471  0.3805  0.1854
 9052SOL    HW138792   3.123   4.708   3.143 -3.6466  0.2282 -0.5233
 9052SOL    HW238793   3.060   4.590   3.063  0.6152 -0.3661 -2.1779
 9053SOL     OW38794   2.463   3.737   4.643  0.3066  0.0362 -0.4185
 9053SOL    HW138795   2.428   3.685   4.716 -0.5775  0.0390 -0.8375
 9053SOL    HW238796   2.379   3.765   4.606  0.0199  1.5920  1.3869
 9054SOL     OW38797   2.829   2.729  14.509 -0.1883  0.3052 -0.3912
 9054SOL    HW138798   2.922   2.709  14.518 -0.0147  0.8527 -1.0016
 9054SOL    HW238799   2.841   2.817  14.474 -1.5854  1.0101  0.8823
 9055SOL     OW38800   1.539   1.388   0.397 -0.0983  0.1937  0.0875
 9055SOL    HW138801   1.513   1.465   0.447  0.4681  1.0945 -1.0058
 9055SOL    HW238802   1.477   1.395   0.325  0.4539 -3.7257 -0.7599
 9056SOL     OW38803   1.420   2.714   0.383 -0.0947 -0.5910  0.2845
 9056SOL    HW138804   1.392   2.641   0.327  1.6035 -1.6231  0.7731
 9056SOL    HW238805   1.358   2.706   0.455  1.2621 -1.0692  1.3947
 9057SOL     OW38806   1.409   1.782  11.438  0.1619 -0.2612 -0.1659
 9057SOL    HW138807   1.439   1.818  11.522  1.1022  1.6702 -1.3473
 9057SOL    HW238808   1.424   1.688  11.441 -2.2655 -0.7253 -2.6874
 9058SOL     OW38809   1.300   0.584  15.807 -0.1762 -0.9730  0.5932
 9058SOL    HW138810   1.380   0.616  15.849  0.4368 -1.1666 -0.4502
 9058SOL    HW238811   1.232   0.642  15.840 -0.0748 -0.4524 -0.1292
 9059SOL     OW38812   0.329   0.042   8.708 -0.1525 -0.0891 -0.4526
 9059SOL    HW138813   0.323   4.687   8.681  0.4095 -0.8684  2.1033
 9059SOL    HW238814   0.355   0.036   8.800  2.1545 -0.3309 -1.1079
 9060SOL     OW38815   4.541   3.913   2.385  0.1095 -0.2662  0.4889
 9060SOL    HW138816   4.603   3.892   2.454 -0.6087  0.3918  1.3305
 9060SOL    HW238817   4.564   3.997   2.347 -0.1306 -0.7162 -0.6656
 9061SOL     OW38818   3.640   0.537  12.970  0.2409 -0.6266  0.6283
 9061SOL    HW138819   3.660   0.447  12.997 -3.3301 -0.5708  3.4649
 9061SOL    HW238820   3.642   0.527  12.875  1.2497 -0.3273  0.6113
 9062SOL     OW38821   3.027   2.448   1.441 -0.1374 -0.2667  0.4188
 9062SOL    HW138822   2.946   2.500   1.446  0.0801  0.1986 -0.8347
 9062SOL    HW238823   3.005   2.369   1.391  0.0338 -0.3866  0.5352
 9063SOL     OW38824   0.449   0.271   2.072  0.1966  0.6731 -0.0842
 9063SOL    HW138825   0.448   0.306   1.983  0.3840 -0.5196 -0.5622
 9063SOL    HW238826   0.517   0.204   2.061 -0.7639 -0.4050  0.4738
 9064SOL     OW38827   3.085   3.867   8.463  0.5169  0.3367  0.1397
 9064SOL    HW138828   3.018   3.934   8.453 -0.2987 -0.4303  0.4396
 9064SOL    HW238829   3.081   3.828   8.376  0.6863  0.6522 -0.0082
 9065SOL     OW38830   1.673   0.526  13.194 -0.0893 -0.1959  0.2352
 9065SOL    HW138831   1.657   0.515  13.101  1.5143  0.9034 -0.1577
 9065SOL    HW238832   1.719   0.609  13.199 -0.9783  0.2491  0.9951
 9066SOL     OW38833   1.440   3.030   2.057  0.2726 -0.2649  0.4270
 9066SOL    HW138834   1.452   3.022   2.152 -2.9582  0.4643  0.8904
 9066SOL    HW238835   1.398   2.946   2.041 -1.2411  0.4100  0.8976
 9067SOL     OW38836   0.605   2.758   0.375 -0.2317 -0.0373 -0.0208
 9067SOL    HW138837   0.518   2.724   0.394 -1.0323  1.7054 -0.5078
 9067SOL    HW238838   0.598   2.834   0.318 -0.0469  0.1897  0.2558
 9068SOL     OW38839   0.066   3.251   2.864  0.0036  0.3848  0.3632
 9068SOL    HW138840   0.059   3.266   2.770 -0.8167 -1.0818  0.2070
 9068SOL    HW238841   0.161   3.257   2.880  0.3599 -3.3546 -0.4761
 9069SOL     OW38842   3.360   2.916   9.307  0.2092  0.3409  0.3694
 9069SOL    HW138843   3.338   2.862   9.232  0.4342  0.0135  0.5391
 9069SOL    HW238844   3.401   2.988   9.260  0.5712 -0.5988 -0.7387
 9070SOL     OW38845   4.638   3.004  17.297  0.4369  0.0019  0.0490
 9070SOL    HW138846   4.577   3.076  17.286 -1.4438 -1.4395  1.0888
 9070SOL    HW238847   4.678   2.998  17.210  0.5283 -0.8090  0.1397
 9071SOL     OW38848   1.980   4.384   0.290  0.5145 -0.6905 -0.2469
 9071SOL    HW138849   1.895   4.393   0.334  1.4637  0.1909  1.4199
 9071SOL    HW238850   2.026   4.421   0.366  0.9307 -0.1863 -0.7407
 9072SOL     OW38851   1.144   0.504  14.608  0.3746  0.2272 -0.0828
 9072SOL    HW138852   1.111   0.414  14.611 -1.2861  0.8078 -0.4648
 9072SOL    HW238853   1.126   0.525  14.700 -1.0106  0.7878 -0.4723
 9073SOL     OW38854   1.384   0.365   4.411 -0.5772 -0.2965 -0.3652
 9073SOL    HW138855   1.434   0.447   4.408  0.0201 -0.6852 -0.8700
 9073SOL    HW238856   1.393   0.343   4.504 -0.4874  2.6341  0.3274
 9074SOL     OW38857   1.436   0.274  13.612  0.4160 -0.7004 -0.5541
 9074SOL    HW138858   1.520   0.264  13.656 -0.2589 -0.7853  0.7243
 9074SOL    HW238859   1.366   0.311  13.666  1.6087 -0.1952  0.6382
 9075SOL     OW38860   4.298   2.221   8.809  0.4810 -0.2249 -0.0472
 9075SOL    HW138861   4.274   2.174   8.729 -1.9039 -2.7331  2.1390
 9075SOL    HW238862   4.321   2.149   8.868  0.4177  0.3087  0.6301
 9076SOL     OW38863   4.506   2.140   3.004 -1.1156  0.1864 -0.2361
 9076SOL    HW138864   4.535   2.222   2.963 -1.5443  0.5174  0.1216
 9076SOL    HW238865   4.447   2.093   2.945 -0.6845  1.1173 -1.4273
 9077SOL     OW38866   3.778   2.124   7.262  0.0774  0.1495 -0.1765
 9077SOL    HW138867   3.778   2.173   7.344 -2.5829 -2.0736  1.1739
 9077SOL    HW238868   3.709   2.166   7.210  0.0194 -0.1904 -0.3759
 9078SOL     OW38869   0.433   4.203   2.442 -0.4726  0.9074  0.5799
 9078SOL    HW138870   0.348   4.176   2.406 -1.0482  1.0456  1.8566
 9078SOL    HW238871   0.491   4.127   2.435  0.3067  1.4894  0.7213
 9079SOL     OW38872   4.358   4.251   8.097 -0.3682  0.1409 -0.0877
 9079SOL    HW138873   4.328   4.246   8.007  0.8497  0.9453 -0.5330
 9079SOL    HW238874   4.275   4.228   8.141  1.1403 -0.2902  2.5393
 9080SOL     OW38875   1.398   2.379   3.069 -0.1305  0.1953  0.0972
 9080SOL    HW138876   1.316   2.414   3.102 -0.0734  0.8649 -0.4727
 9080SOL    HW238877   1.432   2.462   3.036  2.4811 -1.3011 -0.9911
 9081SOL     OW38878   2.830   3.430  10.004 -0.6485 -0.3305  0.0279
 9081SOL    HW138879   2.737   3.428  10.030 -1.0564 -0.0981 -1.4127
 9081SOL    HW238880   2.865   3.415  10.092  0.3698  0.5826 -0.2271
 9082SOL     OW38881   0.889   0.214   0.553  0.0057  0.2705  0.2912
 9082SOL    HW138882   0.972   0.217   0.600  0.9727 -1.9576 -1.2942
 9082SOL    HW238883   0.882   0.303   0.517  0.3994  0.7707  1.4561
 9083SOL     OW38884   1.860   1.862   6.811  0.4294 -0.1469 -0.1504
 9083SOL    HW138885   1.828   1.887   6.724 -1.0017  0.7245  0.6392
 9083SOL    HW238886   1.926   1.931   6.816 -0.4448  0.5474  1.8406
 9084SOL     OW38887   2.563   3.943   4.948 -0.0643  0.3876 -0.3046
 9084SOL    HW138888   2.573   4.038   4.956 -1.8512  0.6869 -1.4820
 9084SOL    HW238889   2.578   3.935   4.854  1.3712 -0.2288 -0.0078
 9085SOL     OW38890   0.983   0.013   9.979  0.2500 -0.0031  0.1737
 9085SOL    HW138891   1.035   0.092   9.962 -0.8617  0.5961 -0.4592
 9085SOL    HW238892   0.975   0.015  10.074  0.7980  1.8897  0.1807
 9086SOL     OW38893   3.802   1.250   7.716  0.1413 -0.7350 -0.5317
 9086SOL    HW138894   3.897   1.246   7.705  0.1086 -0.2916 -0.9736
 9086SOL    HW238895   3.787   1.226   7.807 -0.5712 -2.9374 -1.2157
 9087SOL     OW38896   1.291   0.230   5.186 -0.0264  0.1523  0.2356
 9087SOL    HW138897   1.307   0.144   5.147 -2.0387 -0.3502  0.5315
 9087SOL    HW238898   1.365   0.244   5.245 -0.5343  0.0017  0.9052
 9088SOL     OW38899   3.177   2.542  10.638  0.4126 -0.0114 -0.5888
 9088SOL    HW138900   3.146   2.546  10.547 -1.6281 -1.8061  0.0177
 9088SOL    HW238901   3.202   2.632  10.657 -2.0436 -0.0138  2.5701
 9089SOL     OW38902   0.759   0.435  16.666 -0.2442 -0.4306  0.0471
 9089SOL    HW138903   0.745   0.386  16.747 -2.0314 -1.9704 -1.1778
 9089SOL    HW238904   0.828   0.497  16.688 -1.4788  1.2549 -0.8120
 9090SOL     OW38905   0.119   0.457  17.577 -0.3716  0.0937  0.3964
 9090SOL    HW138906   0.190   0.516  17.552 -0.4264  0.7356  1.7336
 9090SOL    HW238907   0.044   0.515  17.560  0.0470  0.5057 -0.0396
 9091SOL     OW38908   3.093   3.913   2.518  0.2147 -0.0452 -0.0605
 9091SOL    HW138909   3.035   3.879   2.450  1.0519 -0.7807 -0.4061
 9091SOL    HW238910   3.181   3.910   2.482  0.4121 -0.2577  0.4412
 9092SOL     OW38911   3.541   4.355   5.716 -0.2756 -0.1120 -0.2459
 9092SOL    HW138912   3.601   4.321   5.649 -1.1232  0.6389 -1.4037
 9092SOL    HW238913   3.590   4.350   5.797 -1.0462  1.4360  0.3123
 9093SOL     OW38914   3.089   4.408   9.022 -0.0430  0.1182 -0.4118
 9093SOL    HW138915   3.066   4.346   9.091  0.1387  0.6019  0.0864
 9093SOL    HW238916   3.169   4.362   8.995  1.4649  2.0549  0.6939
 9094SOL     OW38917   1.413   3.830   3.751  0.3339 -0.1595  0.5718
 9094SOL    HW138918   1.480   3.893   3.776  0.4688 -1.4077  3.5008
 9094SOL    HW238919   1.382   3.816   3.841  2.1059 -1.9428  0.9122
 9095SOL     OW38920   1.465   0.656   2.308 -0.2706  0.5706 -0.1076
 9095SOL    HW138921   1.509   0.737   2.335  1.0034 -0.6942  1.5902
 9095SOL    HW238922   1.518   0.633   2.231  2.0707  0.4806  1.5457
 9096SOL     OW38923   2.525   1.564   7.991 -0.0835 -0.8578  0.4367
 9096SOL    HW138924   2.599   1.620   8.012  0.1297 -0.7069 -0.7320
 9096SOL    HW238925   2.565   1.487   7.950 -0.2447  0.2707 -1.8267
 9097SOL     OW38926   1.658   0.179   1.813  0.0684 -0.4211  0.1466
 9097SOL    HW138927   1.715   0.216   1.746  0.5263  1.1719  1.4092
 9097SOL    HW238928   1.578   0.229   1.798 -0.8113 -1.1063  2.5387
 9098SOL     OW38929   0.405   2.142   3.586  0.6545 -0.2045  0.3329
 9098SOL    HW138930   0.399   2.222   3.639 -2.6967 -0.4495  0.2924
 9098SOL    HW238931   0.441   2.169   3.501  1.3465  0.0983  0.7177
 9099SOL     OW38932   2.410   1.704   4.438 -0.1583 -0.0570 -0.1238
 9099SOL    HW138933   2.338   1.642   4.427 -0.6014  0.1255  1.7185
 9099SOL    HW238934   2.354   1.782   4.442  0.8318  0.6396  0.5055
 9100SOL     OW38935   2.867   3.506   9.304 -0.3511  0.4689 -0.5205
 9100SOL    HW138936   2.889   3.462   9.222  0.6932  1.3518 -0.7049
 9100SOL    HW238937   2.802   3.571   9.276  0.4498  3.0953  3.6459
 9101SOL     OW38938   1.876   4.533  12.928  0.4827  0.4621  0.0869
 9101SOL    HW138939   1.962   4.575  12.924  0.1549  1.1576  0.3198
 9101SOL    HW238940   1.823   4.600  12.885 -1.3134 -0.6545  0.5497
 9102SOL     OW38941   3.727   3.735   5.784  0.2896  0.1240 -0.7444
 9102SOL    HW138942   3.679   3.705   5.861  1.2266 -1.9150 -0.9431
 9102SOL    HW238943   3.805   3.772   5.825 -0.5007  1.9234 -0.8394
 9103SOL     OW38944   3.067   2.571   2.057 -0.2700  0.6712  0.1857
 9103SOL    HW138945   3.034   2.518   1.985  2.2221 -0.2476 -0.2860
 9103SOL    HW238946   3.155   2.537   2.072 -0.0369  1.5287  0.7629
 9104SOL     OW38947   3.986   0.352   6.066 -0.5077 -0.2173  0.6647
 9104SOL    HW138948   3.967   0.258   6.066 -3.2020  0.3304  2.6949
 9104SOL    HW238949   3.983   0.359   6.162  0.8392 -0.7534  0.7530
 9105SOL     OW38950   4.112   0.594   0.092  0.0102 -0.0606 -0.1680
 9105SOL    HW138951   4.065   0.667   0.052 -1.0704  0.6629  2.4250
 9105SOL    HW238952   4.046   0.553   0.148 -0.3073  0.7486  0.0520
 9106SOL     OW38953   0.141   4.366   5.693 -0.4300  0.3467 -0.4410
 9106SOL    HW138954   0.217   4.379   5.750 -1.2545  2.5763  0.1555
 9106SOL    HW238955   0.133   4.271   5.700 -1.2171  0.4134 -0.3938
 9107SOL     OW38956   2.711   0.378  17.526  0.2595  0.3070  0.3208
 9107SOL    HW138957   2.752   0.293  17.538 -2.5404 -1.1311 -0.3694
 9107SOL    HW238958   2.628   0.355  17.485 -1.4254  2.8793  2.2584
 9108SOL     OW38959   4.536   4.428   5.241 -0.0762 -0.2281 -0.0380
 9108SOL    HW138960   4.458   4.403   5.291 -0.4509 -0.8860 -0.9461
 9108SOL    HW238961   4.604   4.394   5.299  0.8361  2.2837  0.3922
 9109SOL     OW38962   3.564   3.631   6.460 -0.5899  0.0166  0.3297
 9109SOL    HW138963   3.483   3.580   6.456 -0.6711  0.2095 -0.5130
 9109SOL    HW238964   3.610   3.598   6.382  0.8904 -0.4891  1.4129
 9110SOL     OW38965   4.000   3.683   2.855  0.4888  0.6943 -0.4998
 9110SOL    HW138966   4.058   3.616   2.818  0.4115 -1.2307  2.7704
 9110SOL    HW238967   4.064   3.745   2.892 -0.6885  1.5326  0.1166
 9111SOL     OW38968   1.668   3.284   7.149 -0.4846  0.1960  0.7841
 9111SOL    HW138969   1.580   3.298   7.182 -0.4968 -0.6216  1.1256
 9111SOL    HW238970   1.720   3.269   7.229 -0.2249 -0.6694  0.4554
 9112SOL     OW38971   0.672   0.796   3.344 -0.3850  0.3317 -0.0808
 9112SOL    HW138972   0.624   0.878   3.349 -1.1518 -0.2117  1.4592
 9112SOL    HW238973   0.761   0.824   3.323 -0.0722 -0.7909 -0.2735
 9113SOL     OW38974   2.154   2.321   6.635 -0.6152 -0.2133  0.1664
 9113SOL    HW138975   2.207   2.284   6.564 -3.7528 -1.1052 -1.7231
 9113SOL    HW238976   2.220   2.382   6.669 -0.0840 -0.4272 -0.4688
 9114SOL     OW38977   0.861   2.658   5.755  0.0948 -0.4250 -0.5992
 9114SOL    HW138978   0.850   2.749   5.782  1.5215 -0.6736  0.8451
 9114SOL    HW238979   0.890   2.676   5.666  0.3764  0.6634 -0.2841
 9115SOL     OW38980   0.674   0.613   1.209 -0.4382 -1.0555  0.4376
 9115SOL    HW138981   0.693   0.523   1.235 -1.7826 -0.6270  2.9221
 9115SOL    HW238982   0.608   0.599   1.141 -0.1904 -1.1146  0.2098
 9116SOL     OW38983   3.627   0.965   4.976 -0.1084  0.4824  0.4177
 9116SOL    HW138984   3.595   0.962   4.886  0.4797 -1.1496  0.2673
 9116SOL    HW238985   3.550   0.932   5.021 -0.7365  0.5078 -0.6388
 9117SOL     OW38986   2.187   0.580   0.343 -0.3627  0.2569 -0.2866
 9117SOL    HW138987   2.105   0.620   0.314 -0.5427 -0.3528 -0.6323
 9117SOL    HW238988   2.208   0.526   0.266  0.1851  1.1464 -0.7580
 9118SOL     OW38989   3.503   4.070   3.238 -0.1968 -0.0769  0.1776
 9118SOL    HW138990   3.529   4.131   3.170  0.5891  0.4316  0.9341
 9118SOL    HW238991   3.461   3.993   3.200 -1.4079  0.2697  0.8091
 9119SOL     OW38992   1.692   3.815   5.582 -0.0505 -0.2544  0.1674
 9119SOL    HW138993   1.682   3.724   5.552 -1.1694 -0.9791  2.8186
 9119SOL    HW238994   1.604   3.850   5.570  1.0561  1.9445 -1.7312
 9120SOL     OW38995   1.032   0.767   0.879 -0.2744 -0.2306 -0.0710
 9120SOL    HW138996   1.041   0.862   0.883 -0.4137 -0.1684 -1.0490
 9120SOL    HW238997   1.094   0.739   0.811  1.7393 -1.2668  2.1819
 9121SOL     OW38998   2.405   3.331  13.352 -0.5053  0.5043  0.3497
 9121SOL    HW138999   2.391   3.409  13.405  2.7101  1.3611 -0.1099
 9121SOL    HW239000   2.484   3.344  13.300  0.4650 -0.6355  1.5324
 9122SOL     OW39001   2.495   1.258   3.456 -0.3666 -0.1606  0.2996
 9122SOL    HW139002   2.433   1.242   3.385 -0.4150  0.0872  0.2852
 9122SOL    HW239003   2.454   1.334   3.498  2.3772  0.1773  2.3849
 9123SOL     OW39004   2.874   0.496   1.327 -0.4221 -0.2360 -0.3936
 9123SOL    HW139005   2.835   0.547   1.397 -1.4722 -0.2007 -1.0045
 9123SOL    HW239006   2.829   0.416   1.355  0.0005 -0.0607  0.7609
 9124SOL     OW39007   2.757   0.582   2.673 -0.3551  0.1673 -0.2657
 9124SOL    HW139008   2.774   0.620   2.759 -2.8278  1.4317 -0.3374
 9124SOL    HW239009   2.787   0.656   2.619 -0.7646 -0.2423 -1.0575
 9125SOL     OW39010   0.528   1.557  10.889 -0.0556 -1.0534 -0.3355
 9125SOL    HW139011   0.502   1.649  10.886 -0.8087 -1.1646  2.2936
 9125SOL    HW239012   0.461   1.516  10.834 -0.0512 -2.3566  0.6183
 9126SOL     OW39013   3.880   4.448   4.986 -0.0238 -0.0487 -0.4871
 9126SOL    HW139014   3.812   4.493   5.035  1.1111  0.4076  0.6750
 9126SOL    HW239015   3.916   4.517   4.930 -0.1709 -0.6500 -1.3401
 9127SOL     OW39016   0.746   2.035   4.682  0.1795 -0.4023  0.2351
 9127SOL    HW139017   0.743   1.942   4.658 -0.8337  0.1205 -1.6887
 9127SOL    HW239018   0.718   2.070   4.598 -0.2535 -0.3586  0.3970
 9128SOL     OW39019   2.770   0.105   4.550  0.1831 -0.3834 -0.5073
 9128SOL    HW139020   2.715   0.095   4.473 -2.6923  2.4466  1.1949
 9128SOL    HW239021   2.824   0.026   4.548 -0.3233 -0.7683  1.3577
 9129SOL     OW39022   2.582   4.211   5.396 -0.3284  0.0671  0.6052
 9129SOL    HW139023   2.646   4.157   5.350  0.7014  0.1996  1.8935
 9129SOL    HW239024   2.645   4.270   5.437  1.8180 -0.1498 -2.4319
 9130SOL     OW39025   0.683   4.624  16.217 -0.4185  0.0864 -0.3129
 9130SOL    HW139026   0.638   4.682  16.278 -0.6663  0.7706 -1.1472
 9130SOL    HW239027   0.693   4.543  16.268 -0.2120  1.2705  1.5250
 9131SOL     OW39028   2.589   0.120   3.986  0.7727  0.1787 -0.2282
 9131SOL    HW139029   2.500   0.115   4.021  0.3798  0.5423 -1.1577
 9131SOL    HW239030   2.628   0.042   4.024  0.0661  0.3417  0.8371
 9132SOL     OW39031   3.834   0.726   9.910 -0.3957  0.3035  0.0721
 9132SOL    HW139032   3.806   0.777   9.986 -1.9276  0.3177 -0.5102
 9132SOL    HW239033   3.929   0.730   9.902 -0.3976  1.9681  0.8125
 9133SOL     OW39034   4.396   3.155   7.445  0.2258  0.1202 -0.1467
 9133SOL    HW139035   4.450   3.089   7.401 -0.0902 -0.0056 -0.3431
 9133SOL    HW239036   4.325   3.120   7.390  0.7280  1.0606 -1.3936
 9134SOL     OW39037   1.348   3.493  10.799  0.7489 -0.8467  0.3052
 9134SOL    HW139038   1.255   3.517  10.796  0.9416 -0.4371 -2.3324
 9134SOL    HW239039   1.376   3.576  10.840 -1.0744 -0.6280  1.1271
 9135SOL     OW39040   2.943   0.237  12.515 -0.2575 -0.2244  0.0866
 9135SOL    HW139041   2.935   0.276  12.428 -0.1253 -1.5694 -0.5335
 9135SOL    HW239042   2.944   0.142  12.502 -0.6918 -0.1434 -0.5313
 9136SOL     OW39043   1.438   3.649   9.034 -0.4127 -0.2996  0.5610
 9136SOL    HW139044   1.494   3.571   9.042 -0.0270  0.2092  2.7945
 9136SOL    HW239045   1.404   3.630   8.946  0.0777 -2.3840  0.8216
 9137SOL     OW39046   3.845   1.745   2.148  0.3908  0.0807  0.5211
 9137SOL    HW139047   3.890   1.667   2.182 -0.4186 -0.4799  0.2937
 9137SOL    HW239048   3.921   1.786   2.107 -0.6184  1.6218  0.2076
 9138SOL     OW39049   2.343   2.642   8.777 -0.2430  1.0189  0.4778
 9138SOL    HW139050   2.267   2.681   8.820 -0.5703 -0.8020  1.5058
 9138SOL    HW239051   2.305   2.566   8.734  1.5966 -0.4222  1.3733
 9139SOL     OW39052   0.056   3.476   1.652 -0.5378 -0.2590  0.5469
 9139SOL    HW139053   0.112   3.430   1.589  1.6812  2.8007  0.2661
 9139SOL    HW239054   0.112   3.553   1.659  0.2644 -1.0023  2.2718
 9140SOL     OW39055   2.552   0.772   2.927 -0.4414  0.3699  0.3417
 9140SOL    HW139056   2.482   0.730   2.878  1.3230  2.0700 -3.5889
 9140SOL    HW239057   2.593   0.701   2.976  0.4187  0.6671  0.0495
 9141SOL     OW39058   3.870   1.659   0.993  0.4588 -0.1106 -0.0959
 9141SOL    HW139059   3.776   1.646   1.007  0.5204 -0.0458  0.3518
 9141SOL    HW239060   3.877   1.645   0.898 -0.5936  2.5104 -0.5532
 9142SOL     OW39061   2.537   3.455   4.528  0.3972  0.1535 -0.6198
 9142SOL    HW139062   2.570   3.463   4.618  2.9898  1.7619 -1.7319
 9142SOL    HW239063   2.454   3.503   4.532  1.2660  1.5745  0.7304
 9143SOL     OW39064   4.692   1.920   2.844  0.3897 -0.0838 -0.4690
 9143SOL    HW139065   4.603   1.924   2.810 -0.2338  1.1016  1.3332
 9143SOL    HW239066   4.681   1.905   2.938  2.0260  0.8130 -0.1320
 9144SOL     OW39067   1.433   4.085  13.875  0.4552 -0.0023 -0.2148
 9144SOL    HW139068   1.439   4.171  13.917  0.2150  0.7293 -1.6866
 9144SOL    HW239069   1.528   4.074  13.879  0.2923 -1.1442  0.4653
 9145SOL     OW39070   2.142   2.182   6.074 -0.3570  0.6806  0.4374
 9145SOL    HW139071   2.126   2.252   6.137  3.6965  0.5712  1.5883
 9145SOL    HW239072   2.093   2.111   6.115  1.1311 -1.7218 -1.8875
 9146SOL     OW39073   3.820   2.660   0.381  0.2027 -0.0386 -0.5096
 9146SOL    HW139074   3.906   2.645   0.419  0.1723 -1.0077 -0.8168
 9146SOL    HW239075   3.783   2.572   0.389  0.1141  0.0829  0.4304
 9147SOL     OW39076   0.082   0.934   6.116  0.1000  0.1547 -0.0004
 9147SOL    HW139077   4.734   0.974   6.133  1.0473  2.0403  0.3093
 9147SOL    HW239078   0.064   0.844   6.140  0.9088 -0.1447 -0.4938
 9148SOL     OW39079   1.207   0.133   5.641  0.4085 -0.0200  0.1401
 9148SOL    HW139080   1.199   0.082   5.561 -0.6923  1.4181 -0.6513
 9148SOL    HW239081   1.119   0.169   5.652  1.4077  2.1996  0.7753
 9149SOL     OW39082   2.733   0.580   1.126 -0.4357 -0.7650  0.2369
 9149SOL    HW139083   2.691   0.496   1.108 -0.5462 -0.7514  0.4350
 9149SOL    HW239084   2.790   0.553   1.197  0.2883 -1.3219 -0.5497
 9150SOL     OW39085   3.607   1.416   2.909 -0.3094 -0.0961  0.4454
 9150SOL    HW139086   3.535   1.381   2.857 -1.7028 -0.1759  2.4397
 9150SOL    HW239087   3.624   1.348   2.974 -0.6105 -0.3406  0.2659
 9151SOL     OW39088   0.007   4.094  14.933  0.1950 -0.5251 -0.5624
 9151SOL    HW139089   4.698   4.137  14.859  0.2184 -0.7216 -0.6899
 9151SOL    HW239090   0.016   4.160  15.001 -1.6688  1.7333 -2.4737
 9152SOL     OW39091   4.579   4.456   4.938 -0.1728 -0.1008  0.4233
 9152SOL    HW139092   4.548   4.495   5.020  0.7697  1.0300  0.2344
 9152SOL    HW239093   4.667   4.492   4.938 -0.7039  1.2233  0.3985
 9153SOL     OW39094   3.013   2.490   9.735 -0.2121 -0.2388 -0.1450
 9153SOL    HW139095   3.090   2.540   9.710 -1.3718  1.3876 -0.4537
 9153SOL    HW239096   2.975   2.461   9.652 -0.6222  0.3185 -0.1505
 9154SOL     OW39097   2.163   4.666   1.171 -0.6010  0.2263  0.0166
 9154SOL    HW139098   2.163   4.638   1.080 -1.7765  0.6621 -0.1174
 9154SOL    HW239099   2.196   4.589   1.218 -3.5361 -1.1026 -0.0294
 9155SOL     OW39100   4.199   0.036  13.614  0.6329 -0.6831 -0.6688
 9155SOL    HW139101   4.203   0.088  13.533  0.8159 -0.0898 -0.2859
 9155SOL    HW239102   4.214   0.101  13.683 -2.3936  0.4579 -1.1023
 9156SOL     OW39103   1.386   0.332   4.695  0.4365  0.5470  0.6053
 9156SOL    HW139104   1.459   0.387   4.723  2.5259 -1.2931 -1.2372
 9156SOL    HW239105   1.321   0.398   4.672  1.2233  1.4518  0.9800
 9157SOL     OW39106   0.932   1.160   9.371 -0.7397 -0.3766  0.0104
 9157SOL    HW139107   0.850   1.202   9.398 -0.5965  0.5759 -1.0813
 9157SOL    HW239108   0.992   1.185   9.442 -0.3056 -0.4765 -0.3234
 9158SOL     OW39109   0.018   4.729   6.398 -0.0857  0.2217  0.5774
 9158SOL    HW139110   4.710   4.719   6.483  1.3868 -2.7715  0.9940
 9158SOL    HW239111   4.735   0.086   6.389 -3.5241 -0.3765  2.0360
 9159SOL     OW39112   3.268   0.335   1.102  0.0012  0.9369 -0.3207
 9159SOL    HW139113   3.349   0.322   1.053  0.0349  0.5689 -0.1725
 9159SOL    HW239114   3.213   0.268   1.061 -1.6528  1.7757  0.5400
 9160SOL     OW39115   3.349   0.663  13.814  0.3183 -0.3906 -0.1507
 9160SOL    HW139116   3.292   0.625  13.748  0.2165 -2.2361  1.0013
 9160SOL    HW239117   3.300   0.701  13.888  1.5013 -0.9735  0.9330
 9161SOL     OW39118   4.627   0.847   9.309  0.3936 -0.5388  0.2547
 9161SOL    HW139119   4.605   0.771   9.254 -0.4198 -0.8071  0.9561
 9161SOL    HW239120   4.720   0.863   9.294  0.2672 -0.6910 -0.7071
 9162SOL     OW39121   1.819   4.705   6.325 -0.3706 -0.2348 -0.0689
 9162SOL    HW139122   1.820   0.018   6.407 -2.6814 -1.0145  0.4319
 9162SOL    HW239123   1.768   4.629   6.352  0.2827 -1.7197 -3.0716
 9163SOL     OW39124   2.767   1.298   7.822 -0.0082  0.3374 -0.6119
 9163SOL    HW139125   2.852   1.301   7.780  0.5759 -1.5206  0.4190
 9163SOL    HW239126   2.730   1.216   7.788  0.5668 -0.2389  0.1306
 9164SOL     OW39127   0.859   1.830  17.340 -0.5826 -0.2037  0.1435
 9164SOL    HW139128   0.894   1.745  17.366  1.4865  0.7547  0.4716
 9164SOL    HW239129   0.822   1.853  17.425 -1.4493 -0.3295 -0.1965
 9165SOL     OW39130   2.058   2.757  13.522 -0.1210  0.1350  0.0630
 9165SOL    HW139131   2.009   2.675  13.529  0.9253 -0.5897 -1.0140
 9165SOL    HW239132   2.143   2.727  13.489  0.6135 -0.1446  2.2018
 9166SOL     OW39133   0.778   3.914   9.079  0.4108 -0.1587  0.9054
 9166SOL    HW139134   0.729   3.845   9.034  3.1111 -0.0556 -2.2263
 9166SOL    HW239135   0.835   3.873   9.145 -0.0228 -0.4234  1.1159
 9167SOL     OW39136   4.321   4.341   5.381  0.2125 -0.7010 -0.0657
 9167SOL    HW139137   4.338   4.329   5.475 -1.4162 -1.3638  0.1568
 9167SOL    HW239138   4.254   4.273   5.374 -2.1983  1.3953  2.3835
 9168SOL     OW39139   4.495   3.142  11.252 -0.5009 -0.7571  0.0178
 9168SOL    HW139140   4.429   3.129  11.183 -0.2479 -1.1846 -0.1403
 9168SOL    HW239141   4.510   3.054  11.287 -1.6527 -0.8103  0.3867
 9169SOL     OW39142   4.628   1.211   0.802  0.0826  0.3450  0.2381
 9169SOL    HW139143   4.676   1.198   0.720 -0.3570  0.3986 -0.0246
 9169SOL    HW239144   4.584   1.294   0.786  1.3609  0.9021 -0.4119
 9170SOL     OW39145   2.782   0.652   3.757 -0.6032  0.7624  0.2098
 9170SOL    HW139146   2.689   0.669   3.763 -0.7736 -0.1842  0.3296
 9170SOL    HW239147   2.813   0.706   3.684 -0.1702 -1.1436 -1.0190
 9171SOL     OW39148   1.386   1.013   5.804 -0.3696 -0.0138  0.2324
 9171SOL    HW139149   1.476   0.983   5.791 -0.3510 -0.1122  0.6088
 9171SOL    HW239150   1.350   0.950   5.866  0.0857 -0.6498 -0.1518
 9172SOL     OW39151   2.550   1.015   2.369  0.4170 -0.0581  0.1875
 9172SOL    HW139152   2.523   0.941   2.425  2.8835 -1.5068 -0.5349
 9172SOL    HW239153   2.472   1.027   2.314  1.9742  0.0812 -1.9938
 9173SOL     OW39154   3.626   2.042   7.958  0.1244  0.3578 -0.3489
 9173SOL    HW139155   3.537   2.043   7.993 -0.0256 -0.6350 -0.7205
 9173SOL    HW239156   3.617   2.034   7.863 -2.8702  0.6359 -0.0651
 9174SOL     OW39157   2.146   4.493   6.322  0.2287 -0.1421 -0.4206
 9174SOL    HW139158   2.093   4.451   6.255 -0.9248 -1.6896  1.4706
 9174SOL    HW239159   2.114   4.441   6.395 -2.1500  1.5604 -0.2126
 9175SOL     OW39160   2.628   0.184   8.771  0.2818 -0.0240  0.5901
 9175SOL    HW139161   2.674   0.101   8.765 -0.1471 -0.3334  1.7052
 9175SOL    HW239162   2.538   0.159   8.789  0.2892 -1.2045 -1.0347
 9176SOL     OW39163   2.232   1.121   4.041 -0.3565 -0.2319  0.0431
 9176SOL    HW139164   2.184   1.045   4.009  1.5731 -0.9790 -1.0966
 9176SOL    HW239165   2.301   1.093   4.101 -0.6707  0.5335  0.7625
 9177SOL     OW39166   0.771   2.623  15.463  0.0698 -0.0143 -0.8347
 9177SOL    HW139167   0.813   2.556  15.409  3.1127  0.0161  1.4992
 9177SOL    HW239168   0.754   2.571  15.542  2.6207 -0.7974 -0.8122
 9178SOL     OW39169   0.297   4.288   8.260  0.2747 -0.2678  0.0201
 9178SOL    HW139170   0.374   4.261   8.311  0.5829 -1.1036 -0.8996
 9178SOL    HW239171   0.300   4.384   8.269  0.0046 -0.1741 -0.8680
 9179SOL     OW39172   3.508   1.706  12.769  0.1346 -0.4846 -0.0174
 9179SOL    HW139173   3.525   1.689  12.676 -2.7549 -0.4899 -0.5444
 9179SOL    HW239174   3.533   1.621  12.805  0.1405  0.6112  2.5787
 9180SOL     OW39175   2.426   1.674   3.407  0.2380  0.3911 -0.0433
 9180SOL    HW139176   2.407   1.723   3.328 -2.6607  1.7768  1.5038
 9180SOL    HW239177   2.339   1.661   3.444  0.8091  0.0178  1.1801
 9181SOL     OW39178   2.443   4.442   9.564 -0.3054  0.5477  0.4320
 9181SOL    HW139179   2.462   4.500   9.637  1.4907 -0.3252  0.6663
 9181SOL    HW239180   2.419   4.508   9.499  1.0284  0.9545  0.3520
 9182SOL     OW39181   3.518   3.167   2.203  0.0459  0.3346  0.3186
 9182SOL    HW139182   3.590   3.110   2.230 -0.9550 -2.1196 -2.2956
 9182SOL    HW239183   3.538   3.254   2.238 -1.2903  0.7998 -0.0682
 9183SOL     OW39184   0.433   3.864   6.130  0.2269  0.7190 -0.6498
 9183SOL    HW139185   0.339   3.875   6.145 -0.2975 -3.8839 -0.5799
 9183SOL    HW239186   0.430   3.809   6.052 -1.2069  0.2401 -0.2500
 9184SOL     OW39187   4.577   2.042   6.828 -0.1454 -0.2738 -0.4242
 9184SOL    HW139188   4.629   2.118   6.802  0.8462 -1.4695 -1.9159
 9184SOL    HW239189   4.640   1.997   6.884 -0.8741  0.1255  0.7261
 9185SOL     OW39190   2.787   1.598   8.852  0.1328 -0.0585  0.2758
 9185SOL    HW139191   2.799   1.553   8.768 -1.5004 -0.1297  0.0848
 9185SOL    HW239192   2.864   1.574   8.904  0.0474  0.5102  0.6633
 9186SOL     OW39193   3.509   0.155   6.654  0.2848  0.0249 -0.2306
 9186SOL    HW139194   3.556   0.231   6.688 -0.5531  1.4108 -2.1482
 9186SOL    HW239195   3.510   0.102   6.734  0.8188 -0.0148 -0.2614
 9187SOL     OW39196   3.731   2.609   4.099  0.4623 -0.1279 -0.8607
 9187SOL    HW139197   3.644   2.599   4.138  0.2885 -0.9415 -1.4491
 9187SOL    HW239198   3.710   2.682   4.041 -0.0552 -0.0573 -0.5849
 9188SOL     OW39199   1.000   1.626   6.653  0.1578 -0.0379 -0.1082
 9188SOL    HW139200   1.031   1.663   6.570 -1.8200 -0.6294 -1.1023
 9188SOL    HW239201   0.911   1.599   6.634  0.1713  0.8877 -1.4774
 9189SOL     OW39202   0.200   1.723   4.927 -0.5585 -0.1257 -0.1506
 9189SOL    HW139203   0.218   1.702   5.019 -1.5520 -5.3262 -1.1522
 9189SOL    HW239204   0.273   1.682   4.882 -0.1018  0.1639  0.3140
 9190SOL     OW39205   3.234   1.961   4.756 -0.2193 -0.2018 -0.4996
 9190SOL    HW139206   3.247   2.025   4.826 -0.7407 -1.0676  0.3899
 9190SOL    HW239207   3.228   2.017   4.679  0.2075  0.2849 -0.1802
 9191SOL     OW39208   1.068   1.025   3.937 -0.0447 -0.2448  0.7160
 9191SOL    HW139209   1.117   1.009   3.857 -1.2645  0.9811 -0.2819
 9191SOL    HW239210   1.039   1.116   3.933 -0.7962 -0.5482 -0.7632
 9192SOL     OW39211   0.796   1.176  10.901 -0.2064  0.1771 -0.7524
 9192SOL    HW139212   0.830   1.243  10.842  3.7469 -0.0232  1.3157
 9192SOL    HW239213   0.701   1.189  10.900 -0.4767 -1.6866  0.6180
 9193SOL     OW39214   4.685   1.267   2.480 -0.0578  0.6021  0.0008
 9193SOL    HW139215   4.657   1.186   2.522  2.2242 -0.4028 -0.4186
 9193SOL    HW239216   4.627   1.283   2.406  0.4812  1.6063 -0.2129
 9194SOL     OW39217   1.132   2.902   7.965 -0.4422 -0.0351  0.0420
 9194SOL    HW139218   1.092   2.932   8.046 -1.3865 -0.4712 -0.2604
 9194SOL    HW239219   1.152   2.810   7.985  0.3304  0.2002  0.3422
 9195SOL     OW39220   2.876   2.592   6.016 -0.0154 -0.1391 -0.0745
 9195SOL    HW139221   2.799   2.537   6.005  1.3803 -1.9985 -0.5693
 9195SOL    HW239222   2.841   2.681   6.022  2.7629  0.7843  2.9391
 9196SOL     OW39223   2.053   0.020   3.234 -0.1070 -0.3424 -0.0237
 9196SOL    HW139224   2.107   4.677   3.224  0.8741  0.4340 -0.8811
 9196SOL    HW239225   2.037   0.047   3.144 -1.3358  0.3132  0.3967
 9197SOL     OW39226   4.631   0.534   7.636  0.0047 -0.2005  0.2513
 9197SOL    HW139227   4.580   0.537   7.555 -0.0382  1.2177  0.3246
 9197SOL    HW239228   4.608   0.615   7.683 -1.0074 -1.2415  1.5407
 9198SOL     OW39229   0.633   3.953  13.619  0.0896  0.2949 -0.0263
 9198SOL    HW139230   0.603   3.871  13.580 -1.0295  0.1056  1.2569
 9198SOL    HW239231   0.728   3.939  13.616  0.3061  1.9658 -0.6940
 9199SOL     OW39232   3.345   1.153   6.754 -0.2772  0.4847 -0.4584
 9199SOL    HW139233   3.349   1.243   6.721  0.9608 -0.2719 -2.3736
 9199SOL    HW239234   3.437   1.127   6.744  0.0091  1.5699 -0.7301
 9200SOL     OW39235   2.670   2.227  16.874  0.6405  0.6040 -0.0745
 9200SOL    HW139236   2.607   2.155  16.885  0.5576  0.4778 -1.4256
 9200SOL    HW239237   2.728   2.228  16.951  0.9911  3.2766 -0.3763
 9201SOL     OW39238   1.698   0.690   9.131  0.3543  0.0184  0.8197
 9201SOL    HW139239   1.750   0.675   9.052 -0.2293 -3.6921  1.1503
 9201SOL    HW239240   1.620   0.639   9.107  1.5589 -1.1269 -0.6600
 9202SOL     OW39241   0.994   3.784   6.302 -0.4201 -0.0535  0.0046
 9202SOL    HW139242   0.932   3.769   6.232  0.6186  0.8179 -1.1083
 9202SOL    HW239243   0.970   3.871   6.334 -0.2420 -0.2753  0.7557
 9203SOL     OW39244   2.911   3.512   7.828  0.4017 -0.0588  0.0734
 9203SOL    HW139245   2.878   3.506   7.917 -2.7982 -0.0559 -1.1262
 9203SOL    HW239246   2.836   3.479   7.779 -1.1872  0.1576  2.4121
 9204SOL     OW39247   0.457   0.334   2.767 -0.0048  0.4452  0.4803
 9204SOL    HW139248   0.374   0.378   2.784 -0.2057  0.4452 -0.5195
 9204SOL    HW239249   0.496   0.411   2.726 -0.6367  0.0436 -0.8681
 9205SOL     OW39250   4.103   4.634   6.609  0.1787 -0.5698  0.4450
 9205SOL    HW139251   4.050   4.604   6.535  0.1621  0.1252  0.1694
 9205SOL    HW239252   4.082   4.580   6.685 -3.4192  0.6091  0.3257
 9206SOL     OW39253   3.016   2.159  15.359 -0.0255  0.6322  0.8032
 9206SOL    HW139254   3.038   2.230  15.419  1.1025  0.7528  0.2479
 9206SOL    HW239255   3.042   2.086  15.414 -1.5497  0.6640  1.5683
 9207SOL     OW39256   1.181   0.976   6.571  0.0351 -0.9768  0.1476
 9207SOL    HW139257   1.189   0.937   6.484  0.3407 -1.3391  0.3418
 9207SOL    HW239258   1.138   1.054   6.536  0.3752 -1.4099 -1.2241
 9208SOL     OW39259   0.133   2.228   2.942 -0.1858  0.5247 -0.4366
 9208SOL    HW139260   0.043   2.251   2.964 -0.1906  2.4195 -2.3957
 9208SOL    HW239261   0.131   2.142   2.984 -0.2493  0.8105  0.1487
 9209SOL     OW39262   0.615   0.142   6.146  0.5353  0.1981  0.6320
 9209SOL    HW139263   0.608   0.050   6.120 -1.0676 -0.2573  2.6673
 9209SOL    HW239264   0.697   0.137   6.194  0.5253  1.7000  0.8062
 9210SOL     OW39265   2.908   3.777   7.683 -0.1564  0.0616  0.0967
 9210SOL    HW139266   2.827   3.768   7.632 -0.2887 -0.7184  0.4422
 9210SOL    HW239267   2.927   3.689   7.715  1.7382  1.3727  2.5439
 9211SOL     OW39268   4.225   3.490   6.090 -0.0743 -0.0505  0.4862
 9211SOL    HW139269   4.307   3.494   6.138 -1.0786  0.1314  2.1910
 9211SOL    HW239270   4.211   3.398   6.064 -1.2227  0.8026 -1.9615
 9212SOL     OW39271   4.028   4.052   3.829  0.3644  0.2060  0.0245
 9212SOL    HW139272   3.934   4.031   3.834 -0.0720  2.3957  0.9625
 9212SOL    HW239273   4.039   4.067   3.923 -0.5478  1.4934 -0.0669
 9213SOL     OW39274   2.070   1.285   9.032 -0.0599 -0.2483 -0.4661
 9213SOL    HW139275   2.114   1.261   9.114 -0.5190 -0.3343 -0.2505
 9213SOL    HW239276   2.124   1.351   8.988  0.9879 -0.0924  1.0478
 9214SOL     OW39277   4.135   2.445   2.302  0.2240 -0.4693  0.4244
 9214SOL    HW139278   4.198   2.483   2.363 -0.0743 -1.6485  1.4573
 9214SOL    HW239279   4.195   2.402   2.240  0.6408 -1.0508  1.2350
 9215SOL     OW39280   1.803   2.668   5.333  0.2346 -0.0689  0.1897
 9215SOL    HW139281   1.749   2.643   5.257 -0.3772 -1.4594  1.0825
 9215SOL    HW239282   1.764   2.627   5.410  0.1006 -0.0396  0.1376
 9216SOL     OW39283   1.962   4.408   8.805  0.0655  0.0138  0.2868
 9216SOL    HW139284   1.879   4.423   8.850 -0.0555  0.1226  0.0294
 9216SOL    HW239285   2.023   4.443   8.870  1.4835 -1.6480 -0.1747
 9217SOL     OW39286   1.037   3.322  13.688  0.1184  0.1131 -0.3338
 9217SOL    HW139287   1.019   3.393  13.627 -0.5487 -0.9432 -1.3605
 9217SOL    HW239288   0.957   3.311  13.740 -0.1073  0.6363 -0.5752
 9218SOL     OW39289   2.642   0.506  15.669  0.2585  0.1274 -0.3816
 9218SOL    HW139290   2.579   0.474  15.734 -0.0137 -0.1415 -0.7763
 9218SOL    HW239291   2.592   0.493  15.588  0.2607  0.9622 -0.5189
 9219SOL     OW39292   0.264   1.226   2.968  0.2536  0.6730 -0.1702
 9219SOL    HW139293   0.258   1.187   2.882 -2.1184  0.0564  0.2519
 9219SOL    HW239294   0.359   1.220   2.975  0.4737  1.6318 -2.3978
 9220SOL     OW39295   1.650   0.705  10.313 -0.3156  0.0157 -0.7569
 9220SOL    HW139296   1.626   0.615  10.293  0.6384 -0.5082  0.4512
 9220SOL    HW239297   1.564   0.742  10.294 -0.3856 -0.0536 -0.5793
 9221SOL     OW39298   0.903   1.151  14.622 -0.1425 -0.3080 -0.1543
 9221SOL    HW139299   0.916   1.149  14.527  0.4478 -0.9692 -0.0594
 9221SOL    HW239300   0.853   1.070  14.636 -0.1921 -0.5385 -1.6566
 9222SOL     OW39301   4.251   1.154   8.391 -0.0631 -0.5094 -0.0354
 9222SOL    HW139302   4.231   1.238   8.432 -0.0326 -1.1180  1.2173
 9222SOL    HW239303   4.168   1.129   8.348 -1.0260  2.0843  0.3278
 9223SOL     OW39304   3.975   2.117   9.563 -0.3234 -0.5672 -0.5418
 9223SOL    HW139305   4.021   2.190   9.603  1.0856 -0.4160 -2.4314
 9223SOL    HW239306   3.910   2.161   9.508  0.1259  2.3717  1.3136
 9224SOL     OW39307   1.967   1.114   7.652 -0.6182 -0.0096 -0.1601
 9224SOL    HW139308   2.030   1.186   7.661  0.1285 -0.7950  0.9168
 9224SOL    HW239309   1.929   1.117   7.740 -0.1855  1.4204 -0.0110
 9225SOL     OW39310   0.786   3.633   8.112 -0.1393  0.2162 -0.0792
 9225SOL    HW139311   0.821   3.689   8.182  0.8378  0.5990 -0.8868
 9225SOL    HW239312   0.866   3.593   8.078 -0.6988 -1.2658  0.3361
 9226SOL     OW39313   1.475   2.918   8.165 -0.0780 -0.3646  0.9154
 9226SOL    HW139314   1.424   2.838   8.157  0.8410 -1.1444  3.0593
 9226SOL    HW239315   1.417   2.986   8.131  1.0170 -0.5021 -1.2352
 9227SOL     OW39316   2.481   1.234  11.492  0.0595 -0.2645 -0.1378
 9227SOL    HW139317   2.456   1.238  11.400  3.3985  1.7042 -0.9498
 9227SOL    HW239318   2.461   1.323  11.520  1.1826  0.2693 -1.0543
 9228SOL     OW39319   0.267   1.538  15.690  0.1636 -0.5014 -0.2907
 9228SOL    HW139320   0.346   1.591  15.687 -0.4280  0.3641 -0.4556
 9228SOL    HW239321   0.204   1.601  15.656  0.4816 -0.1464 -0.2243
 9229SOL     OW39322   3.211   1.169  11.485 -0.4430  0.1102 -0.8935
 9229SOL    HW139323   3.240   1.078  11.477  1.9267  0.7331  0.6643
 9229SOL    HW239324   3.132   1.149  11.535 -0.1892 -0.3662 -0.6794
 9230SOL     OW39325   4.030   4.195   8.181 -0.1840  0.4771  0.5520
 9230SOL    HW139326   4.008   4.156   8.096 -1.1008  0.1756  0.9258
 9230SOL    HW239327   3.966   4.265   8.167  1.1694  1.4964 -0.5638
 9231SOL     OW39328   3.234   2.661  10.965 -0.4540 -0.3113  0.0282
 9231SOL    HW139329   3.208   2.743  11.007  1.9008 -0.2393  1.3388
 9231SOL    HW239330   3.249   2.668  10.871 -2.9519  0.1726 -0.3376
 9232SOL     OW39331   3.737   1.606   7.663  0.1116 -0.3690  0.1342
 9232SOL    HW139332   3.829   1.619   7.688 -0.3534  0.6514  1.3043
 9232SOL    HW239333   3.698   1.535   7.714  1.3209 -0.1422  1.3673
 9233SOL     OW39334   4.141   4.244   2.946 -0.8411  0.2104  0.6711
 9233SOL    HW139335   4.220   4.236   2.894 -1.6318  3.4014 -1.0315
 9233SOL    HW239336   4.119   4.337   2.935 -0.3814  0.4050  1.3797
 9234SOL     OW39337   2.718   3.627   6.550 -0.0931  0.2208  0.3595
 9234SOL    HW139338   2.630   3.665   6.558 -0.4331 -0.2540 -1.0716
 9234SOL    HW239339   2.725   3.599   6.641  0.4913 -0.3882  0.1299
 9235SOL     OW39340   3.093   2.126   7.988  0.1959  0.9558 -0.2446
 9235SOL    HW139341   3.032   2.065   8.028  1.8696 -1.1701 -0.8736
 9235SOL    HW239342   3.135   2.164   8.065 -0.8509 -0.4852  1.0348
 9236SOL     OW39343   1.727   2.808  15.047 -0.4379  0.2141 -0.8431
 9236SOL    HW139344   1.703   2.835  15.136  0.3196  1.3051 -0.9748
 9236SOL    HW239345   1.660   2.847  14.992 -0.6842  0.1653 -0.5788
 9237SOL     OW39346   3.119   1.841   7.562 -0.2503  0.7390 -0.3182
 9237SOL    HW139347   3.179   1.832   7.636 -3.5597 -1.5992  2.1073
 9237SOL    HW239348   3.167   1.803   7.489  1.3308  2.0530  0.0345
 9238SOL     OW39349   0.801   0.960  16.946 -0.1792 -0.1843 -0.4644
 9238SOL    HW139350   0.882   0.910  16.951  0.8337  1.5929  1.2219
 9238SOL    HW239351   0.800   0.943  16.852 -0.4525  0.5898 -0.5995
 9239SOL     OW39352   3.593   1.689   7.144  0.7100  0.2191  0.0656
 9239SOL    HW139353   3.540   1.765   7.121  0.2098 -0.1205  0.0938
 9239SOL    HW239354   3.620   1.714   7.233 -0.5008 -0.3235  0.5973
 9240SOL     OW39355   3.539   0.551   4.933  0.1531 -0.1825  0.0308
 9240SOL    HW139356   3.535   0.467   4.980  1.5078  0.0647  0.5936
 9240SOL    HW239357   3.626   0.573   4.967  0.1006  0.5114 -0.2947
 9241SOL     OW39358   4.488   3.120   6.620  0.3600 -0.2871  0.1730
 9241SOL    HW139359   4.450   3.044   6.664  1.5286 -0.1448  1.4284
 9241SOL    HW239360   4.442   3.113   6.536 -0.7537  2.5183  0.5588
 9242SOL     OW39361   0.283   0.247   2.274  0.8933  0.3177  0.6346
 9242SOL    HW139362   0.360   0.262   2.219 -0.3859  2.6119 -0.5200
 9242SOL    HW239363   0.219   0.235   2.204  2.4916  0.6427 -0.8865
 9243SOL     OW39364   3.411   3.177   4.928  0.3061  0.4491  0.7702
 9243SOL    HW139365   3.423   3.136   5.014  0.8403 -1.0211  0.0019
 9243SOL    HW239366   3.499   3.201   4.899  0.2558  0.1191  0.3507
 9244SOL     OW39367   1.722   3.312   4.847  0.0595 -0.1636  0.1517
 9244SOL    HW139368   1.812   3.283   4.835  0.0203 -0.0098 -0.5215
 9244SOL    HW239369   1.728   3.392   4.899 -1.3401  0.3916 -0.5336
 9245SOL     OW39370   3.426   0.513  16.290 -0.3990  0.1196  0.0144
 9245SOL    HW139371   3.436   0.495  16.197  0.4909  0.3070  0.0768
 9245SOL    HW239372   3.332   0.509  16.305 -0.0975 -3.1921  0.9706
 9246SOL     OW39373   4.158   1.946  11.921  0.0810  0.0162 -0.2872
 9246SOL    HW139374   4.093   1.927  11.988 -0.1849 -0.8438 -0.7932
 9246SOL    HW239375   4.223   1.881  11.947  2.7566  2.9474  0.4067
 9247SOL     OW39376   3.108   0.665  10.424  0.0683  0.4432 -0.0775
 9247SOL    HW139377   3.030   0.611  10.411  2.1134 -2.0260 -1.9420
 9247SOL    HW239378   3.070   0.735  10.477  0.1679  0.3066  0.1707
 9248SOL     OW39379   4.113   2.915   4.747 -0.0238 -0.2684 -0.0833
 9248SOL    HW139380   4.193   2.963   4.728 -0.5323  0.6108  0.0036
 9248SOL    HW239381   4.071   2.974   4.809 -0.6219 -0.8470  0.0597
 9249SOL     OW39382   1.138   1.456   3.261  0.8331  0.7453 -0.6760
 9249SOL    HW139383   1.142   1.453   3.165 -3.3617 -1.3361 -0.8054
 9249SOL    HW239384   1.214   1.512   3.275  0.3492  1.3765 -0.5707
 9250SOL     OW39385   4.081   4.727   5.135 -0.1499  0.2462 -0.0396
 9250SOL    HW139386   4.114   0.081   5.133 -0.2291  0.2286 -2.4738
 9250SOL    HW239387   4.157   4.684   5.174  0.1461  0.2535 -0.6057
 9251SOL     OW39388   1.626   2.668   7.150  0.7024  0.4749  0.1362
 9251SOL    HW139389   1.709   2.715   7.148 -1.1994  3.8180 -0.5870
 9251SOL    HW239390   1.641   2.621   7.231 -0.0614 -0.5824 -0.3239
 9252SOL     OW39391   1.863   0.142   5.659  0.0177  0.0536 -0.5900
 9252SOL    HW139392   1.814   0.139   5.740 -0.8855  2.0108 -1.0677
 9252SOL    HW239393   1.924   0.069   5.673 -1.9609 -1.2837  1.0506
 9253SOL     OW39394   0.592   1.278   1.731  0.2261 -0.2608 -0.3124
 9253SOL    HW139395   0.575   1.314   1.819  3.7566  1.4441 -0.3376
 9253SOL    HW239396   0.514   1.226   1.712  0.4174  0.0194 -1.8399
 9254SOL     OW39397   2.304   0.852  17.648  0.4480  0.4752  0.2210
 9254SOL    HW139398   2.301   0.758  17.628 -1.3422  0.8898 -1.4152
 9254SOL    HW239399   2.218   0.870  17.685  0.7035 -0.3511  1.2071
 9255SOL     OW39400   2.738   1.715   8.111  0.4402 -0.7371  0.5666
 9255SOL    HW139401   2.671   1.780   8.134 -0.0149 -1.1736  0.4812
 9255SOL    HW239402   2.786   1.749   8.036 -0.8961 -0.0702  0.0065
 9256SOL     OW39403   1.070   3.847   8.375  0.2590 -0.6137  0.6284
 9256SOL    HW139404   1.090   3.890   8.292 -1.7117  0.6612  0.8193
 9256SOL    HW239405   1.024   3.902   8.439  1.3312  1.9505 -0.8143
 9257SOL     OW39406   0.041   1.195   8.293 -0.5459 -0.0764 -0.0677
 9257SOL    HW139407   0.094   1.264   8.252  1.1735 -0.7463  1.0284
 9257SOL    HW239408   4.690   1.224   8.268 -0.5369 -0.1250 -0.1544
 9258SOL     OW39409   2.102   3.590   8.327  0.2774 -0.1807 -0.5212
 9258SOL    HW139410   2.032   3.554   8.381 -0.6657 -0.4021 -1.9078
 9258SOL    HW239411   2.152   3.651   8.382 -1.4827  0.8235 -0.0403
 9259SOL     OW39412   2.718   3.817   5.457  0.0478  0.1637 -0.0886
 9259SOL    HW139413   2.676   3.823   5.372 -0.1054 -2.1180 -0.1743
 9259SOL    HW239414   2.651   3.777   5.513  0.3814 -0.8441 -0.4229
 9260SOL     OW39415   2.637   0.276   5.040 -0.0408 -0.2421 -0.1104
 9260SOL    HW139416   2.548   0.292   5.009  0.4145  0.8113 -0.8840
 9260SOL    HW239417   2.627   0.188   5.075 -1.9397  0.0308  0.0131
 9261SOL     OW39418   1.811   1.194   8.673 -0.3642 -0.0741  0.3271
 9261SOL    HW139419   1.840   1.144   8.749  2.4603 -1.3695 -1.6169
 9261SOL    HW239420   1.879   1.261   8.681 -0.1098 -0.0065 -2.4409
 9262SOL     OW39421   4.523   0.603   5.748  0.0406 -0.1575 -0.2321
 9262SOL    HW139422   4.428   0.616   5.749 -0.4488 -3.6583 -0.8446
 9262SOL    HW239423   4.521   0.528   5.807  1.6626 -0.8630 -1.0825
 9263SOL     OW39424   0.624   2.446   5.588  0.2313  0.3374  0.0487
 9263SOL    HW139425   0.688   2.432   5.658  0.7142  1.5903 -0.1402
 9263SOL    HW239426   0.548   2.410   5.633  0.0947 -1.0121 -1.2533
 9264SOL     OW39427   4.532   3.722  10.421 -0.1811  0.7619 -0.2700
 9264SOL    HW139428   4.478   3.795  10.389 -1.3968 -0.2575 -0.5172
 9264SOL    HW239429   4.553   3.675  10.341 -1.1780  1.7077 -1.0793
 9265SOL     OW39430   1.537   2.387   8.100  0.1800  0.4039  1.0060
 9265SOL    HW139431   1.465   2.397   8.163  1.0965  2.5091  1.7143
 9265SOL    HW239432   1.495   2.340   8.028  2.0185  0.3508 -0.0156
 9266SOL     OW39433   3.043   4.590   4.797 -0.6665 -0.4268 -0.1528
 9266SOL    HW139434   3.027   4.621   4.708  4.7277 -0.6795 -1.2118
 9266SOL    HW239435   3.049   4.494   4.799  1.5088 -0.2985 -0.4935
 9267SOL     OW39436   3.520   3.660  14.609  0.0725 -0.2178 -0.2235
 9267SOL    HW139437   3.471   3.676  14.529 -3.4788  1.7156  2.3885
 9267SOL    HW239438   3.455   3.628  14.672  0.0112  0.4274  0.0349
 9268SOL     OW39439   0.653   1.194   4.200 -0.7617 -0.3216  0.3378
 9268SOL    HW139440   0.710   1.118   4.185  1.5135  1.6654 -1.2095
 9268SOL    HW239441   0.575   1.151   4.166  0.9991 -0.9045 -3.0410
 9269SOL     OW39442   0.718   4.222   5.504  0.7531  0.3479  0.0499
 9269SOL    HW139443   0.741   4.178   5.422 -0.5389 -0.8674  0.3483
 9269SOL    HW239444   0.625   4.199   5.513  0.3975  2.1386  0.9589
 9270SOL     OW39445   3.920   4.009   4.732  0.2753  0.6791 -0.2606
 9270SOL    HW139446   3.941   3.977   4.820 -0.1385  1.7537  0.2292
 9270SOL    HW239447   3.887   4.097   4.751  0.2084  0.4462  0.7153
 9271SOL     OW39448   0.613   4.695   0.743 -0.0277 -0.2055 -0.1337
 9271SOL    HW139449   0.577   4.611   0.772  3.6576 -0.7131  2.9356
 9271SOL    HW239450   0.577   4.681   0.655  2.9071  0.2693 -1.4365
 9272SOL     OW39451   0.047   2.884   0.157  0.4303 -0.0557  0.0737
 9272SOL    HW139452   4.699   2.873   0.114 -0.2334  0.6648  1.2058
 9272SOL    HW239453   0.043   2.822   0.230 -1.7394 -0.9941 -0.8528
 9273SOL     OW39454   2.743   3.994   2.451  0.1951  0.0381 -0.5451
 9273SOL    HW139455   2.682   3.974   2.522  0.9840 -2.7886 -0.6360
 9273SOL    HW239456   2.771   4.081   2.480 -0.5888 -0.1238  0.7202
 9274SOL     OW39457   2.050   3.449   2.417 -0.4626  0.1552  0.4514
 9274SOL    HW139458   1.986   3.381   2.436  0.1326 -1.2033 -2.3652
 9274SOL    HW239459   2.127   3.396   2.397  0.3046  1.4821 -0.1014
 9275SOL     OW39460   2.701   4.506  13.547  0.0587  0.0679  0.1295
 9275SOL    HW139461   2.728   4.598  13.538 -2.7172  0.8135 -0.4616
 9275SOL    HW239462   2.611   4.506  13.578 -0.4537  1.8854 -1.3793
 9276SOL     OW39463   1.858   1.167   5.815  0.4801  0.3164 -0.3552
 9276SOL    HW139464   1.779   1.221   5.819  1.8412  2.3619 -1.0853
 9276SOL    HW239465   1.906   1.212   5.745 -0.4795 -1.4005 -2.1293
 9277SOL     OW39466   1.069   3.635   7.595  0.5048 -0.6995  0.2414
 9277SOL    HW139467   1.158   3.624   7.563  0.5135  1.1145 -0.3702
 9277SOL    HW239468   1.077   3.619   7.689  0.6829  0.8733  0.4953
 9278SOL     OW39469   0.652   1.541  16.251 -0.5529  0.2871 -0.4460
 9278SOL    HW139470   0.577   1.504  16.298 -0.1604 -0.5193 -0.4672
 9278SOL    HW239471   0.719   1.512  16.312 -0.1613  1.0303 -0.5261
 9279SOL     OW39472   1.794   3.520  17.443 -0.1793  0.4150 -0.5236
 9279SOL    HW139473   1.830   3.579  17.510  1.4344  1.2063 -2.0903
 9279SOL    HW239474   1.758   3.452  17.500 -0.1688 -0.0333 -1.0524
 9280SOL     OW39475   2.210   4.728   2.177 -0.3390  0.2880 -0.2136
 9280SOL    HW139476   2.241   4.710   2.088 -1.6724 -1.0182 -0.4121
 9280SOL    HW239477   2.279   4.676   2.219 -2.8852 -1.9611  1.1055
 9281SOL     OW39478   3.116   2.095  15.725  0.1603  0.1479 -0.1672
 9281SOL    HW139479   3.189   2.157  15.723  0.7463 -0.4254  2.2264
 9281SOL    HW239480   3.053   2.145  15.675 -0.2781  1.1273  1.3551
 9282SOL     OW39481   4.182   2.979   9.065  0.3555 -0.0586  0.6740
 9282SOL    HW139482   4.093   2.946   9.074  0.2350 -0.1176 -0.9069
 9282SOL    HW239483   4.230   2.897   9.056 -0.4089 -0.3441 -0.8352
 9283SOL     OW39484   0.747   0.130   8.749 -0.2023 -0.2788 -0.5444
 9283SOL    HW139485   0.755   0.159   8.658 -4.7197 -0.7360 -1.0743
 9283SOL    HW239486   0.841   0.129   8.771 -0.7764  0.4857  1.9957
 9284SOL     OW39487   4.382   1.280   3.579 -0.0432  0.1257  0.4496
 9284SOL    HW139488   4.431   1.323   3.649 -1.4972  0.8835  1.0153
 9284SOL    HW239489   4.420   1.193   3.580  0.8349  0.4975 -0.7074
 9285SOL     OW39490   2.827   3.189   7.641  0.5175  0.2532 -0.0837
 9285SOL    HW139491   2.900   3.245   7.616 -0.8306  1.7936 -0.5149
 9285SOL    HW239492   2.764   3.255   7.668  1.2306  0.2996  1.4301
 9286SOL     OW39493   2.587   2.858   7.607 -0.5615 -0.0150 -0.2956
 9286SOL    HW139494   2.499   2.845   7.642 -0.8053  0.8365 -0.5797
 9286SOL    HW239495   2.591   2.952   7.588  3.4428  0.5331  3.3462
 9287SOL     OW39496   3.476   2.901   4.825  0.1358 -0.2096 -0.0923
 9287SOL    HW139497   3.408   2.959   4.860 -0.0470 -1.4736  1.5968
 9287SOL    HW239498   3.547   2.916   4.887 -1.6925 -0.7363  2.1225
 9288SOL     OW39499   4.241   0.035   6.146 -0.2989 -0.2401 -0.5924
 9288SOL    HW139500   4.329   4.732   6.150 -0.5798 -0.9247 -1.2325
 9288SOL    HW239501   4.234   0.072   6.234 -2.7060  0.6333 -1.1518
 9289SOL     OW39502   1.803   0.075   5.335  0.2540  0.0466  0.0939
 9289SOL    HW139503   1.869   0.006   5.325 -1.5397 -1.5227 -0.6927
 9289SOL    HW239504   1.817   0.107   5.425 -2.0908  2.2733 -0.3261
 9290SOL     OW39505   3.906   2.164   6.368  0.3221 -0.2699  0.0959
 9290SOL    HW139506   3.943   2.248   6.341  0.7086 -0.4876 -0.0456
 9290SOL    HW239507   3.889   2.128   6.281 -0.5939  0.1943  0.0855
 9291SOL     OW39508   2.210   1.456  15.840  0.1196 -0.1749 -0.6447
 9291SOL    HW139509   2.201   1.381  15.781  0.0655 -1.7071  1.3243
 9291SOL    HW239510   2.139   1.515  15.816  1.1545  1.7940  1.0899
 9292SOL     OW39511   1.874   2.794   7.234 -0.5279 -0.1395 -0.0151
 9292SOL    HW139512   1.965   2.777   7.212  0.2291  0.9110  2.2659
 9292SOL    HW239513   1.874   2.831   7.323  0.0997  1.2869 -0.6102
 9293SOL     OW39514   3.473   2.573  12.140 -0.4130  0.3936  0.2602
 9293SOL    HW139515   3.552   2.521  12.126  0.7874  2.1988  0.3124
 9293SOL    HW239516   3.514   2.658  12.156 -0.4588 -0.1786  3.3693
 9294SOL     OW39517   2.409   1.523   9.724 -0.2127 -0.4826 -0.0137
 9294SOL    HW139518   2.409   1.614   9.754  1.1212 -0.4414 -0.1493
 9294SOL    HW239519   2.433   1.468   9.798 -0.2796  0.2863  0.5806
 9295SOL     OW39520   1.775   1.959   2.092  0.3770 -0.5220 -0.0063
 9295SOL    HW139521   1.858   1.931   2.052 -1.0981 -1.9241 -2.1035
 9295SOL    HW239522   1.789   2.050   2.118  1.7000 -0.0448 -2.3384
 9296SOL     OW39523   3.100   2.182  17.045  0.0524 -0.2161  0.2979
 9296SOL    HW139524   3.162   2.145  17.108  0.8442  0.8993  0.1758
 9296SOL    HW239525   3.148   2.202  16.965  2.6460  2.5333  2.5120
 9297SOL     OW39526   2.101   1.558   5.839 -0.4237 -0.1100 -0.4475
 9297SOL    HW139527   2.108   1.653   5.827 -0.4216  0.0563  0.8446
 9297SOL    HW239528   2.182   1.531   5.797  0.9545  1.2567  1.3425
 9298SOL     OW39529   4.112   0.375  13.605  0.1270  1.1052  0.6398
 9298SOL    HW139530   4.018   0.368  13.590  0.1677  1.4377  0.2036
 9298SOL    HW239531   4.126   0.303  13.665 -0.9398 -1.1521 -1.8229
 9299SOL     OW39532   0.490   1.837  10.826 -0.5391 -0.2003  0.2585
 9299SOL    HW139533   0.536   1.876  10.752 -1.5213 -0.9147 -0.7318
 9299SOL    HW239534   0.562   1.825  10.889 -1.1290 -0.7606  0.8390
 9300SOL     OW39535   2.487   3.800  11.346 -0.0680 -0.1886 -0.3263
 9300SOL    HW139536   2.445   3.885  11.348  1.8266  0.7465 -0.2632
 9300SOL    HW239537   2.555   3.817  11.411  0.9074 -0.7058 -1.2042
 9301SOL     OW39538   3.281   1.078   9.226 -0.0883 -0.1902  0.7440
 9301SOL    HW139539   3.275   1.015   9.297 -2.1137  0.2106  0.9251
 9301SOL    HW239540   3.343   1.145   9.256 -0.3319  1.1339 -1.6877
 9302SOL     OW39541   0.027   0.395   6.910  0.1292 -0.0879  0.4315
 9302SOL    HW139542   4.729   0.445   6.983  0.7322  0.3827  0.3965
 9302SOL    HW239543   0.099   0.448   6.877 -0.9312  1.7051  1.0340
 9303SOL     OW39544   0.233   3.599   2.510 -0.2734  0.1479 -0.6033
 9303SOL    HW139545   0.163   3.539   2.537  1.0402 -0.7763  0.7993
 9303SOL    HW239546   0.303   3.540   2.480 -2.0214 -1.7860 -0.8923
 9304SOL     OW39547   0.579   3.134   0.587  0.2279  0.0303 -0.0109
 9304SOL    HW139548   0.525   3.121   0.509 -1.0189  1.1542  0.6550
 9304SOL    HW239549   0.608   3.225   0.585  0.6707 -0.1033  0.5827
 9305SOL     OW39550   3.978   2.860   7.099  0.1562 -0.3872  0.1296
 9305SOL    HW139551   3.905   2.841   7.159  2.3477 -0.9601  2.6193
 9305SOL    HW239552   3.968   2.788   7.037 -1.3497  1.4834 -1.8104
 9306SOL     OW39553   3.627   1.926  16.987 -0.0235  0.1029 -0.0615
 9306SOL    HW139554   3.693   1.980  16.943 -0.7944  0.0458 -1.2814
 9306SOL    HW239555   3.539   1.942  16.952  0.4412  0.6995 -0.9589
 9307SOL     OW39556   3.360   2.958   4.181  0.3400  0.2636 -0.1383
 9307SOL    HW139557   3.375   2.864   4.171  0.0626  0.3787 -1.6681
 9307SOL    HW239558   3.264   2.956   4.174  0.2082 -2.1338  2.1940
 9308SOL     OW39559   1.225   4.519   2.099 -0.2448  0.5795 -0.2378
 9308SOL    HW139560   1.304   4.549   2.144  0.5498  1.1652 -2.0492
 9308SOL    HW239561   1.190   4.453   2.159 -1.2473  0.7857 -0.6036
 9309SOL     OW39562   3.828   3.505   1.554 -0.4117  0.9668 -0.0540
 9309SOL    HW139563   3.906   3.545   1.516  1.0803 -1.9430 -0.0612
 9309SOL    HW239564   3.873   3.480   1.635  2.3755 -1.0877 -2.2276
 9310SOL     OW39565   1.286   1.010  17.717 -0.2641 -0.3826 -0.2761
 9310SOL    HW139566   1.262   0.951   0.044  1.1474  0.4027  0.8592
 9310SOL    HW239567   1.251   0.970  17.638  0.6715 -0.3303 -0.7217
 9311SOL     OW39568   3.785   0.688   9.643  0.0526 -0.7833  0.4738
 9311SOL    HW139569   3.779   0.691   9.738  0.9580 -0.7986  0.5288
 9311SOL    HW239570   3.870   0.730   9.630  0.3359 -1.9606 -1.5025
 9312SOL     OW39571   0.044   1.508   5.924 -0.3047 -0.2278  0.1492
 9312SOL    HW139572   0.123   1.555   5.950  1.0071 -2.4133  0.0738
 9312SOL    HW239573   0.069   1.485   5.834 -0.1321  1.7342 -0.3225
 9313SOL     OW39574   1.907   0.686   1.316  0.0169  0.1321 -0.0367
 9313SOL    HW139575   1.981   0.666   1.258  0.1544  1.3109 -0.2707
 9313SOL    HW239576   1.834   0.697   1.256 -0.2151 -2.1134 -0.1563
 9314SOL     OW39577   0.000   0.407   7.211  0.1218 -0.5151 -0.7115
 9314SOL    HW139578   4.664   0.466   7.193  0.3802  0.1004  0.2750
 9314SOL    HW239579   4.702   0.327   7.250  1.9914 -0.4535  1.1222
 9315SOL     OW39580   2.410   1.664   1.478  0.1821  0.3491 -0.6950
 9315SOL    HW139581   2.399   1.619   1.562 -1.4780 -1.9905 -2.1577
 9315SOL    HW239582   2.483   1.609   1.447  0.0000 -0.5766  0.5330
 9316SOL     OW39583   1.057   0.701   8.130  0.0342  0.1690 -0.1219
 9316SOL    HW139584   0.978   0.719   8.181 -0.1821 -1.4273  0.1134
 9316SOL    HW239585   1.122   0.717   8.199  0.4556 -0.3103 -0.4100
 9317SOL     OW39586   1.302   0.619   0.334 -1.0616  0.8306  0.2156
 9317SOL    HW139587   1.356   0.540   0.333 -1.3650  0.6092  1.1887
 9317SOL    HW239588   1.222   0.567   0.333 -0.1086 -0.6491  1.2965
 9318SOL     OW39589   0.655   0.200  17.346 -0.3070  0.0604 -0.4430
 9318SOL    HW139590   0.667   0.121  17.399  1.8465  0.4795 -0.3183
 9318SOL    HW239591   0.746   0.221  17.326 -0.5884  0.2696 -1.5081
 9319SOL     OW39592   2.750   3.544   6.282  0.7392 -0.4739  0.5476
 9319SOL    HW139593   2.825   3.587   6.323 -0.2767  0.4055  1.4907
 9319SOL    HW239594   2.680   3.566   6.342  1.3364  1.1141  0.6641
 9320SOL     OW39595   0.454   1.174   5.664 -0.0409  0.3671  0.5584
 9320SOL    HW139596   0.415   1.227   5.595 -1.1673 -1.4022 -0.1604
 9320SOL    HW239597   0.428   1.085   5.641  0.5158  0.1784  0.6373
 9321SOL     OW39598   1.416   2.467  12.210  0.1443 -0.0663 -0.6749
 9321SOL    HW139599   1.425   2.556  12.177  1.0159  0.5150  1.0795
 9321SOL    HW239600   1.322   2.449  12.207 -0.2747  1.8652  0.8017
 9322SOL     OW39601   1.855   3.004   1.248  0.5065  0.4449  0.5795
 9322SOL    HW139602   1.801   3.028   1.172  2.0222 -1.9349 -1.2559
 9322SOL    HW239603   1.791   2.991   1.317  1.9518 -0.5931  1.7188
 9323SOL     OW39604   0.275   2.913   2.506 -0.3824  0.0714  0.2214
 9323SOL    HW139605   0.340   2.962   2.557 -0.5964  1.6592 -1.0205
 9323SOL    HW239606   0.198   2.910   2.563  1.5858  1.6684  2.9854
 9324SOL     OW39607   2.812   0.882  15.863 -0.1592  0.1905  0.0323
 9324SOL    HW139608   2.725   0.921  15.873 -0.3464 -0.4850  0.9838
 9324SOL    HW239609   2.865   0.948  15.819  0.7047  0.7306  1.8648
 9325SOL     OW39610   1.691   1.829   8.052  0.1203  0.1150 -0.0896
 9325SOL    HW139611   1.721   1.744   8.019  0.3393 -0.8962  2.6636
 9325SOL    HW239612   1.713   1.832   8.145 -0.5447  1.4706  0.0122
 9326SOL     OW39613   0.876   1.362   3.571  1.2754 -0.3428  0.0610
 9326SOL    HW139614   0.957   1.336   3.526  0.4247 -0.7769 -1.2251
 9326SOL    HW239615   0.902   1.452   3.591 -2.8557  0.3438  2.2444
 9327SOL     OW39616   4.185   3.929   8.818 -0.4692  0.0370  0.8623
 9327SOL    HW139617   4.189   3.836   8.839  0.4108 -0.0452  0.3588
 9327SOL    HW239618   4.189   3.964   8.907 -0.8831  1.7223  0.2204
 9328SOL     OW39619   3.197   2.502   4.430  0.3343  0.2954  0.1234
 9328SOL    HW139620   3.292   2.491   4.428  0.4706  1.4119  0.6961
 9328SOL    HW239621   3.179   2.416   4.470  1.1526  0.7728  1.5088
 9329SOL     OW39622   2.696   1.047  10.020 -0.1284  0.1280 -0.1110
 9329SOL    HW139623   2.701   1.020  10.111  2.2758  0.4145 -0.1760
 9329SOL    HW239624   2.615   1.006   9.988 -0.3170  0.7570 -0.4603
 9330SOL     OW39625   3.231   1.094   0.351 -0.0432  0.3636  0.3234
 9330SOL    HW139626   3.287   1.167   0.326 -0.1126 -1.1371 -4.3553
 9330SOL    HW239627   3.145   1.122   0.322  0.4316  1.0426 -0.4304
 9331SOL     OW39628   1.658   3.832   9.087  0.0609 -0.4748  0.4422
 9331SOL    HW139629   1.707   3.752   9.105  0.9298 -0.0007  0.1718
 9331SOL    HW239630   1.574   3.790   9.068 -0.9355  1.1421  1.2930
 9332SOL     OW39631   1.111   0.778  11.307  0.1945 -0.2585  0.6095
 9332SOL    HW139632   1.144   0.791  11.218 -0.4863  0.1331  0.4219
 9332SOL    HW239633   1.177   0.727  11.355 -0.0075 -0.1638  0.9877
 9333SOL     OW39634   3.333   1.669   9.651 -0.4038  0.2882 -0.2830
 9333SOL    HW139635   3.312   1.758   9.623 -1.7824  0.2863  0.7313
 9333SOL    HW239636   3.294   1.673   9.739 -0.7747 -0.0679 -0.4306
 9334SOL     OW39637   0.589   3.761   4.958 -0.2480 -0.4642  0.0803
 9334SOL    HW139638   0.509   3.742   4.910 -0.6723  1.0099  0.2141
 9334SOL    HW239639   0.609   3.850   4.931  1.5935 -0.4937  1.3363
 9335SOL     OW39640   0.344   4.287   0.595 -0.1935  0.0074 -0.1500
 9335SOL    HW139641   0.394   4.368   0.591 -1.8362  1.0596  0.3865
 9335SOL    HW239642   0.403   4.223   0.633 -1.7208  0.0469  2.2903
 9336SOL     OW39643   2.765   0.926   6.976  0.0815 -0.0107  0.0334
 9336SOL    HW139644   2.744   0.963   7.062 -0.8135 -0.0790 -0.1536
 9336SOL    HW239645   2.735   0.836   6.990 -0.0750  0.2800  1.4999
 9337SOL     OW39646   2.186   4.374  11.780  0.1675  0.6913  0.2319
 9337SOL    HW139647   2.265   4.342  11.736 -0.1994 -1.0221  0.8147
 9337SOL    HW239648   2.117   4.309  11.768 -0.1209  1.1470 -0.5214
 9338SOL     OW39649   4.444   1.849   4.261 -0.2517 -0.2218 -0.2323
 9338SOL    HW139650   4.407   1.919   4.315  2.4370  1.0571 -0.0967
 9338SOL    HW239651   4.504   1.810   4.324  0.9210 -0.6174 -1.6113
 9339SOL     OW39652   3.801   1.218   5.493  0.4844  0.1763 -0.1591
 9339SOL    HW139653   3.768   1.284   5.433  0.7973 -0.2359 -0.7860
 9339SOL    HW239654   3.718   1.190   5.531  1.0623 -1.0404  0.2064
 9340SOL     OW39655   3.892   2.652   6.952 -0.7030 -0.3290 -0.6247
 9340SOL    HW139656   3.884   2.557   6.937 -0.6292 -0.4662  0.1863
 9340SOL    HW239657   3.890   2.685   6.862 -2.8089 -2.1939 -1.2900
 9341SOL     OW39658   2.875   2.456   8.286 -0.5367 -0.2246  0.1843
 9341SOL    HW139659   2.787   2.493   8.286 -0.3453  0.2240  0.3312
 9341SOL    HW239660   2.924   2.530   8.321 -0.7919  0.7450 -1.5373
 9342SOL     OW39661   4.193   2.165   8.362  0.0211 -0.0117 -0.4985
 9342SOL    HW139662   4.198   2.104   8.436  1.0947 -1.7970 -2.0215
 9342SOL    HW239663   4.097   2.165   8.363  0.0437  0.6267  1.3460
 9343SOL     OW39664   4.244   2.945   5.488  0.1163  0.0540  0.3015
 9343SOL    HW139665   4.210   2.975   5.572  0.5761 -2.9063  1.5339
 9343SOL    HW239666   4.187   3.002   5.435 -0.2133 -1.2628 -0.7587
 9344SOL     OW39667   3.321   0.444   8.249 -0.0633  0.2187 -0.4473
 9344SOL    HW139668   3.315   0.481   8.337  0.4222  0.8557 -0.6838
 9344SOL    HW239669   3.248   0.486   8.203 -0.4632  1.6492  1.4983
 9345SOL     OW39670   1.369   0.396   2.373  0.2113 -0.2523 -0.7638
 9345SOL    HW139671   1.368   0.492   2.375 -0.5969 -0.2953  1.2973
 9345SOL    HW239672   1.335   0.378   2.285 -2.9359 -0.7085  0.5442
 9346SOL     OW39673   3.771   2.577  12.396  0.4990  0.1737  0.2621
 9346SOL    HW139674   3.865   2.594  12.383  0.6333  1.1038  2.4174
 9346SOL    HW239675   3.778   2.593  12.490 -2.1270 -0.0864  0.4945
 9347SOL     OW39676   1.980   0.518   8.925  0.2028 -0.1224 -0.2284
 9347SOL    HW139677   2.022   0.604   8.933  0.3173  0.0875 -3.0125
 9347SOL    HW239678   2.028   0.484   9.001 -0.6082 -0.8516 -0.0376
 9348SOL     OW39679   3.621   2.109   2.980  0.1416 -0.4957 -0.2649
 9348SOL    HW139680   3.701   2.096   3.030 -0.7211 -1.4878  0.8409
 9348SOL    HW239681   3.641   2.057   2.902  2.7546 -0.4873  0.3886
 9349SOL     OW39682   1.465   0.124   6.566 -0.0449 -0.0706  0.3029
 9349SOL    HW139683   1.458   0.053   6.503  0.8917 -0.2994  0.4704
 9349SOL    HW239684   1.428   0.085   6.645  2.6298 -2.6590  0.2519
 9350SOL     OW39685   3.101   1.856   5.779 -0.1208 -0.5722 -0.6295
 9350SOL    HW139686   3.084   1.812   5.696  3.4642 -0.2621 -1.5623
 9350SOL    HW239687   3.064   1.944   5.769  2.1095  0.2137 -2.1722
 9351SOL     OW39688   4.446   2.833  10.232 -0.2474 -0.1115 -0.7878
 9351SOL    HW139689   4.541   2.840  10.221 -0.4373  3.8243  0.1401
 9351SOL    HW239690   4.426   2.892  10.304  2.7928  1.8711 -1.5486
 9352SOL     OW39691   0.910   4.070   2.543 -0.0963 -0.2265 -0.3405
 9352SOL    HW139692   0.933   4.161   2.563 -1.7517 -0.1402  1.1759
 9352SOL    HW239693   0.970   4.048   2.472  1.1272  0.7060  0.4074
 9353SOL     OW39694   1.159   3.450   3.857 -0.0589 -0.2092  0.2987
 9353SOL    HW139695   1.127   3.469   3.769  1.7980 -0.6378 -0.4634
 9353SOL    HW239696   1.092   3.490   3.913  1.4097 -1.7383  3.1761
 9354SOL     OW39697   0.426   3.742   0.072  0.3294 -0.2091 -0.3873
 9354SOL    HW139698   0.437   3.825   0.025 -2.0302  0.9992  1.1627
 9354SOL    HW239699   0.350   3.702   0.030 -1.4952  2.0792  0.7284
 9355SOL     OW39700   3.794   2.069   5.238  0.1766 -0.1359 -0.0452
 9355SOL    HW139701   3.765   2.018   5.314 -0.8731 -0.1515 -0.4574
 9355SOL    HW239702   3.732   2.033   5.175  0.7765 -0.8584 -0.2256
 9356SOL     OW39703   2.449   2.166  12.678  0.0157 -0.0927  0.4044
 9356SOL    HW139704   2.355   2.174  12.662 -0.2159  0.0521  1.8036
 9356SOL    HW239705   2.439   2.075  12.707 -0.2614  0.3930  1.8536
 9357SOL     OW39706   4.024   0.446   5.811  0.5531  0.0609 -0.1243
 9357SOL    HW139707   3.939   0.489   5.825  0.9314  0.6086  0.4873
 9357SOL    HW239708   4.021   0.386   5.884 -0.7814  0.4184  0.1148
 9358SOL     OW39709   4.206   2.482  15.871 -0.4182 -0.1425  0.5310
 9358SOL    HW139710   4.294   2.444  15.870 -0.2238  0.3220 -0.5791
 9358SOL    HW239711   4.233   2.564  15.913  0.1641  0.2349 -0.5763
 9359SOL     OW39712   0.344   2.698   6.906 -0.2561  0.2059 -0.4531
 9359SOL    HW139713   0.424   2.658   6.871 -1.5536 -0.5076 -2.5955
 9359SOL    HW239714   0.359   2.668   6.996  1.0479  2.6711  0.1288
 9360SOL     OW39715   2.664   0.084   0.861  0.0341  0.1952 -0.3940
 9360SOL    HW139716   2.734   0.139   0.828  0.7637 -2.0328 -2.5684
 9360SOL    HW239717   2.722   0.028   0.913 -1.2732  0.3819  1.2600
 9361SOL     OW39718   1.650   3.492   4.337  0.0163 -0.3280  0.0330
 9361SOL    HW139719   1.565   3.498   4.380  0.4484  1.2222  0.6768
 9361SOL    HW239720   1.661   3.399   4.319 -1.2280 -0.6449  0.8984
 9362SOL     OW39721   1.479   4.294  12.477  0.1423 -0.3386 -0.1209
 9362SOL    HW139722   1.526   4.211  12.485  2.2703  0.7728 -1.0888
 9362SOL    HW239723   1.419   4.279  12.404 -0.0932 -0.3259  0.0677
 9363SOL     OW39724   4.585   3.519   3.972  0.3623 -0.6360  0.2380
 9363SOL    HW139725   4.671   3.481   3.952  1.2226  1.2745  0.2904
 9363SOL    HW239726   4.616   3.606   3.995  0.4934 -0.7115  0.3485
 9364SOL     OW39727   4.096   3.171  10.915  0.0461 -0.1832 -0.0926
 9364SOL    HW139728   4.030   3.150  10.982 -0.1853 -1.4599 -0.7224
 9364SOL    HW239729   4.122   3.257  10.947  1.0533 -0.4483 -0.2051
 9365SOL     OW39730   1.219   2.834   9.052 -0.5654 -0.9888 -0.2856
 9365SOL    HW139731   1.288   2.783   9.009  1.6169 -0.1559  2.1813
 9365SOL    HW239732   1.166   2.869   8.980  0.7165  1.0382 -0.2441
 9366SOL     OW39733   0.700   2.242   0.296 -0.6079  0.3878 -0.0220
 9366SOL    HW139734   0.630   2.294   0.256  0.5606  1.0565 -1.1951
 9366SOL    HW239735   0.748   2.315   0.335  2.2672 -2.8561  2.5458
 9367SOL     OW39736   2.921   0.477   3.103 -0.0140  0.1051 -0.1703
 9367SOL    HW139737   2.981   0.521   3.163 -1.2010 -0.7309  1.5980
 9367SOL    HW239738   2.959   0.392   3.125 -2.0247 -0.7120  0.1751
 9368SOL     OW39739   1.527   3.070   3.502 -0.2402  0.0679 -0.5418
 9368SOL    HW139740   1.485   2.993   3.540  0.5551 -0.8378 -1.4886
 9368SOL    HW239741   1.603   3.074   3.560  1.0716  2.5061 -2.4117
 9369SOL     OW39742   0.537   4.662  10.580  0.1268 -0.1668 -0.0284
 9369SOL    HW139743   0.558   4.585  10.634  3.1354 -0.2065 -1.2788
 9369SOL    HW239744   0.461   4.698  10.625  2.0269  2.4439  1.0677
 9370SOL     OW39745   2.150   1.131   7.916  0.3875  0.3333 -0.2798
 9370SOL    HW139746   2.216   1.159   7.979  0.9089 -1.3934 -0.0735
 9370SOL    HW239747   2.209   1.122   7.841 -1.5157  0.6711 -1.8333
 9371SOL     OW39748   1.435   4.342   4.280 -0.7030 -0.0309  0.2817
 9371SOL    HW139749   1.457   4.262   4.327 -1.6135 -1.0440 -1.0115
 9371SOL    HW239750   1.450   4.403   4.352  0.9912 -1.9991  1.5868
 9372SOL     OW39751   0.079   4.412   2.707  0.2407  0.0053  0.1400
 9372SOL    HW139752   0.131   4.333   2.695  0.9232  0.3900  0.5561
 9372SOL    HW239753   0.092   4.423   2.801  0.9243  1.9960 -0.1716
 9373SOL     OW39754   3.252   1.221   3.187  0.5884 -0.2649  0.1527
 9373SOL    HW139755   3.230   1.227   3.280 -0.1782  0.2475 -0.0652
 9373SOL    HW239756   3.347   1.209   3.188  0.5502 -0.6355 -0.6427
 9374SOL     OW39757   0.925   3.247   6.115 -0.0644 -0.1171  0.0521
 9374SOL    HW139758   0.986   3.177   6.092 -0.2097 -0.5390  0.9493
 9374SOL    HW239759   0.983   3.307   6.162 -0.0057 -1.8259  2.1435
 9375SOL     OW39760   1.962   4.487   7.413  0.4211 -0.5984 -0.3374
 9375SOL    HW139761   1.974   4.411   7.470  0.7568 -1.5967 -1.7380
 9375SOL    HW239762   1.990   4.445   7.332 -0.5998 -2.5119  0.3105
 9376SOL     OW39763   3.446   2.505   7.777  0.3341 -0.1175 -0.2985
 9376SOL    HW139764   3.402   2.577   7.732 -1.6890 -1.4035 -0.4129
 9376SOL    HW239765   3.390   2.500   7.855  0.5282 -1.3220 -0.2453
 9377SOL     OW39766   3.919   2.639   9.732 -0.0484  0.1887 -0.2260
 9377SOL    HW139767   3.870   2.564   9.697  0.8434 -0.2211 -0.5862
 9377SOL    HW239768   3.851   2.706   9.724  0.0465  0.5167  1.7497
 9378SOL     OW39769   2.170   0.611  16.269 -0.0769  0.6993  0.2155
 9378SOL    HW139770   2.163   0.527  16.313 -3.1743  0.4677 -0.7009
 9378SOL    HW239771   2.173   0.577  16.179  0.7143  2.3877 -0.4032
 9379SOL     OW39772   2.163   2.973   5.973 -0.6596 -0.1189 -0.3628
 9379SOL    HW139773   2.139   3.013   6.057 -1.0273  2.8955 -1.8825
 9379SOL    HW239774   2.201   3.051   5.932  3.3264 -0.9434  1.7380
 9380SOL     OW39775   1.150   3.968   8.139 -0.2102 -0.2218 -0.1691
 9380SOL    HW139776   1.172   4.060   8.126 -1.8692  0.5030  2.1768
 9380SOL    HW239777   1.226   3.925   8.100 -0.2762  0.8198 -1.4341
 9381SOL     OW39778   2.303   1.747   1.911 -0.0610  0.3504 -0.6095
 9381SOL    HW139779   2.385   1.714   1.948 -0.6153 -0.5773 -0.2054
 9381SOL    HW239780   2.237   1.729   1.978 -1.1635 -0.4987 -1.9039
 9382SOL     OW39781   4.320   2.670  17.202 -1.0563 -0.5093  0.3446
 9382SOL    HW139782   4.297   2.750  17.153 -1.5059 -0.3806  0.7730
 9382SOL    HW239783   4.240   2.617  17.202 -1.1444 -0.3996 -1.8277
 9383SOL     OW39784   3.065   3.304   5.961 -0.0832 -0.1706 -0.4199
 9383SOL    HW139785   3.156   3.324   5.984 -0.6521  0.0522  1.6314
 9383SOL    HW239786   3.042   3.233   6.021  1.5084  0.7114  1.2457
 9384SOL     OW39787   0.144   0.353   2.867 -0.0445  0.4892 -0.8588
 9384SOL    HW139788   0.067   0.407   2.884 -1.1672 -2.0565  1.9761
 9384SOL    HW239789   0.202   0.372   2.941  0.6490  0.8245 -1.4888
 9385SOL     OW39790   4.459   4.480  15.036  0.1378 -0.3227 -0.0091
 9385SOL    HW139791   4.517   4.483  14.961 -1.3547 -0.0201 -1.1463
 9385SOL    HW239792   4.412   4.563  15.030  1.3436  0.5105  1.8670
 9386SOL     OW39793   3.926   1.110   2.107 -0.0861  0.1131 -0.3772
 9386SOL    HW139794   3.911   1.071   2.193  0.1540 -0.3568 -0.5488
 9386SOL    HW239795   3.864   1.184   2.109 -0.0355  0.1401  0.2548
 9387SOL     OW39796   4.622   2.416   2.936 -0.1587  0.1714 -0.0866
 9387SOL    HW139797   4.593   2.445   2.849 -0.4301 -2.0539 -0.7583
 9387SOL    HW239798   4.638   2.503   2.972  0.2753 -0.5862  1.5506
 9388SOL     OW39799   1.858   2.032   7.274  0.2571 -0.0850 -0.1368
 9388SOL    HW139800   1.806   2.054   7.351  0.3076  0.1111 -0.1593
 9388SOL    HW239801   1.921   1.970   7.311  0.0875  0.2432  0.6916
 9389SOL     OW39802   3.674   2.385   7.747 -0.4305 -0.1853 -0.0453
 9389SOL    HW139803   3.591   2.429   7.763  0.1010  1.3275 -1.4573
 9389SOL    HW239804   3.660   2.362   7.655 -1.0301  3.1706 -0.7735
 9390SOL     OW39805   4.425   4.527  17.012  0.1717  0.1519  0.6844
 9390SOL    HW139806   4.469   4.550  17.094  0.6254  0.5119  0.3389
 9390SOL    HW239807   4.335   4.545  17.040 -0.6532 -1.1099 -1.1119
 9391SOL     OW39808   0.270   0.843   3.581  0.6283  0.6829 -0.3813
 9391SOL    HW139809   0.358   0.881   3.585  1.1670 -0.4015 -2.3681
 9391SOL    HW239810   0.277   0.795   3.499  0.8379  1.1475 -0.6372
 9392SOL     OW39811   1.078   0.101   8.205  0.6343  0.1743  0.2857
 9392SOL    HW139812   1.146   0.082   8.140 -0.3824 -2.3042 -0.0264
 9392SOL    HW239813   1.007   0.061   8.155 -1.7073  5.3391 -0.4496
 9393SOL     OW39814   3.062   3.991  14.374 -0.3488 -0.0864 -0.1194
 9393SOL    HW139815   3.003   3.918  14.396  0.7200 -0.8515  0.1862
 9393SOL    HW239816   3.011   4.067  14.402 -0.5522 -0.0661 -0.5441
 9394SOL     OW39817   0.893   4.712   2.067  0.3453 -0.1317 -0.7830
 9394SOL    HW139818   0.851   0.059   2.087  0.0534  0.1359 -2.4723
 9394SOL    HW239819   0.946   4.701   2.145  1.2341  2.1058 -1.0706
 9395SOL     OW39820   1.768   2.918  13.555  0.6486 -0.5037 -0.0680
 9395SOL    HW139821   1.813   2.902  13.472  0.6102 -2.2563  0.2645
 9395SOL    HW239822   1.732   2.832  13.575  2.9536 -1.4717 -0.0313
 9396SOL     OW39823   4.212   1.884   7.780  0.2759  0.2226  0.1617
 9396SOL    HW139824   4.142   1.940   7.746 -1.1577 -1.6581 -0.0023
 9396SOL    HW239825   4.247   1.941   7.847 -1.4675  3.4616 -1.6746
 9397SOL     OW39826   0.673   0.417  13.249 -0.0822  0.1369 -0.1474
 9397SOL    HW139827   0.768   0.413  13.236 -0.0039 -3.0559  1.2700
 9397SOL    HW239828   0.642   0.467  13.174 -0.6601 -1.5897 -1.0555
 9398SOL     OW39829   1.158   0.266  17.425  0.2137 -0.0567 -0.1350
 9398SOL    HW139830   1.102   0.328  17.472  2.0771  0.5279  1.2945
 9398SOL    HW239831   1.124   0.180  17.451 -0.4287  0.3063  0.2443
 9399SOL     OW39832   1.551   3.300   5.444 -0.0456  0.1659  0.0446
 9399SOL    HW139833   1.470   3.253   5.465 -0.1682  0.1817 -0.4048
 9399SOL    HW239834   1.581   3.239   5.377 -3.4776 -0.4424 -0.9338
 9400SOL     OW39835   1.156   4.513  12.450  0.0894  0.0905  0.4725
 9400SOL    HW139836   1.087   4.576  12.431  2.1221  2.1314 -0.1799
 9400SOL    HW239837   1.227   4.535  12.390 -1.6895 -2.2199 -2.4187
 9401SOL     OW39838   0.509   2.510   6.366  0.1691  0.2501 -0.1701
 9401SOL    HW139839   0.477   2.566   6.436  0.1694  1.2911 -0.9958
 9401SOL    HW239840   0.428   2.465   6.344 -0.3083  1.3566 -0.6798
 9402SOL     OW39841   1.574   0.784   2.685  0.1207 -0.1211 -0.1345
 9402SOL    HW139842   1.497   0.816   2.637 -0.5249  0.8370  1.5585
 9402SOL    HW239843   1.601   0.701   2.645 -2.5296 -0.7739 -0.6112
 9403SOL     OW39844   3.612   3.208   5.430  0.3919  0.2785  0.1592
 9403SOL    HW139845   3.588   3.156   5.354 -0.4705  0.5528  0.2497
 9403SOL    HW239846   3.692   3.163   5.457 -0.4140 -1.6615 -0.7065
 9404SOL     OW39847   3.873   0.567   7.431 -0.1656  0.5225  0.0298
 9404SOL    HW139848   3.935   0.631   7.397 -0.6207  0.8297 -0.2102
 9404SOL    HW239849   3.935   0.498   7.406 -0.1277  0.2046  1.0031
 9405SOL     OW39850   0.891   2.170   2.625 -0.5975 -0.4188 -0.0118
 9405SOL    HW139851   0.973   2.129   2.653  0.9881  1.3971 -2.0700
 9405SOL    HW239852   0.868   2.223   2.702 -0.1752 -0.1471 -0.0716
 9406SOL     OW39853   3.893   0.606   3.362  0.1448  0.0136  0.0164
 9406SOL    HW139854   3.839   0.550   3.306  1.8298  0.7721 -2.3908
 9406SOL    HW239855   3.974   0.589   3.313  1.1079  0.8244  1.3220
 9407SOL     OW39856   3.531   1.490   6.377 -0.3752 -0.6213  0.4649
 9407SOL    HW139857   3.486   1.562   6.422 -0.4775 -0.6716  0.4438
 9407SOL    HW239858   3.457   1.430   6.366 -0.1006 -0.8417 -0.1952
 9408SOL     OW39859   4.566   2.804   4.323  0.0274 -0.3011  0.0736
 9408SOL    HW139860   4.512   2.844   4.392  0.0517  0.3176 -0.2611
 9408SOL    HW239861   4.581   2.877   4.263 -1.7277 -1.1217 -1.3743
 9409SOL     OW39862   3.368   1.430  12.611 -0.4910  0.2119 -0.2719
 9409SOL    HW139863   3.326   1.511  12.582  1.0519  1.0586 -0.1390
 9409SOL    HW239864   3.409   1.400  12.530 -1.2266  2.9044 -1.6605
 9410SOL     OW39865   2.469   1.290   2.739 -0.1797 -0.4052 -0.4832
 9410SOL    HW139866   2.469   1.374   2.692  1.1955  0.6925  1.4734
 9410SOL    HW239867   2.560   1.267   2.719  0.0232  1.4735 -1.7730
 9411SOL     OW39868   0.903   4.047   8.609 -0.1475  0.4737  0.3620
 9411SOL    HW139869   0.842   4.056   8.682 -0.6467 -1.4464  0.1812
 9411SOL    HW239870   0.969   4.112   8.632 -1.5081  1.5485  1.2457
 9412SOL     OW39871   1.570   0.901   8.367  0.1664  0.1001 -0.1012
 9412SOL    HW139872   1.647   0.958   8.367 -1.7939  2.7884  0.7597
 9412SOL    HW239873   1.558   0.865   8.455 -0.8939 -0.9598 -0.6833
 9413SOL     OW39874   4.031   2.309   9.762 -0.6314 -0.1199 -0.1983
 9413SOL    HW139875   4.120   2.340   9.773  0.5844 -1.9706 -4.6145
 9413SOL    HW239876   3.987   2.313   9.847  0.2146 -0.1291  0.2346
 9414SOL     OW39877   0.506   2.171   5.028  0.2606  0.2828  0.0365
 9414SOL    HW139878   0.495   2.105   5.096  0.1043  0.0379 -0.2216
 9414SOL    HW239879   0.419   2.156   4.991  0.8379 -0.3553 -1.0796
 9415SOL     OW39880   2.106   1.591   4.602  0.1968  0.0843  0.2770
 9415SOL    HW139881   2.141   1.585   4.513  0.6350  0.0551  0.4515
 9415SOL    HW239882   2.184   1.559   4.647  0.8060  1.5878  0.2915
 9416SOL     OW39883   2.353   1.132   4.401  0.4163 -0.1127  0.0841
 9416SOL    HW139884   2.379   1.074   4.330  2.2628  1.7698 -0.7920
 9416SOL    HW239885   2.439   1.144   4.441  0.9815 -3.9560  0.0168
 9417SOL     OW39886   0.085   4.040   5.030  0.1557  0.2898 -0.2554
 9417SOL    HW139887   0.072   4.054   4.937  2.0358 -1.7385 -0.8042
 9417SOL    HW239888   0.124   4.124   5.056 -0.1248  0.7717 -1.4171
 9418SOL     OW39889   3.097   4.199   7.795  0.2596  0.0920 -0.3871
 9418SOL    HW139890   3.053   4.116   7.816  1.0258 -0.2561 -0.1366
 9418SOL    HW239891   3.038   4.272   7.812 -0.7400 -0.6647 -0.6577
 9419SOL     OW39892   1.823   0.073   4.950  0.5093  0.2396 -0.1222
 9419SOL    HW139893   1.774   0.017   5.010  2.6434 -1.9943 -0.4623
 9419SOL    HW239894   1.754   0.139   4.940 -1.6511 -1.8162  1.3655
 9420SOL     OW39895   3.568   3.432   2.668 -0.0607 -0.1917 -0.0529
 9420SOL    HW139896   3.557   3.455   2.760 -0.0256  0.2409 -0.1567
 9420SOL    HW239897   3.636   3.498   2.652  0.7009 -1.4218 -2.0318
 9421SOL     OW39898   4.208   4.219   1.421 -0.1382  0.4570  0.3022
 9421SOL    HW139899   4.165   4.149   1.372 -4.5678  1.8118  2.2696
 9421SOL    HW239900   4.296   4.182   1.427 -1.4081 -2.4928  0.7279
 9422SOL     OW39901   0.475   3.880  10.742 -0.3463 -0.3883 -0.0035
 9422SOL    HW139902   0.402   3.819  10.738  0.3276 -1.1332 -1.0005
 9422SOL    HW239903   0.546   3.834  10.787 -1.4983 -1.4320  0.7625
 9423SOL     OW39904   1.850   1.245   2.493  0.9283 -0.0099 -0.4094
 9423SOL    HW139905   1.796   1.323   2.513 -0.2153 -1.6414  2.8893
 9423SOL    HW239906   1.898   1.237   2.575 -0.3419 -0.2973  0.3103
 9424SOL     OW39907   1.951   4.050  13.053  0.3096 -0.2502 -0.4438
 9424SOL    HW139908   2.019   4.118  13.045  0.7601 -0.6499 -0.0346
 9424SOL    HW239909   1.869   4.094  13.075  0.4332  0.0206 -0.5098
 9425SOL     OW39910   0.787   3.061   8.418 -0.2790 -0.1292 -0.3610
 9425SOL    HW139911   0.789   3.059   8.513 -0.1267 -0.1410 -0.3648
 9425SOL    HW239912   0.822   3.147   8.398 -0.4702 -0.6408 -2.9991
 9426SOL     OW39913   0.913   4.204   8.322  0.0783  0.5127 -0.1284
 9426SOL    HW139914   0.929   4.254   8.242  1.4622 -2.4571 -1.6762
 9426SOL    HW239915   0.898   4.117   8.285 -1.8586  0.9848 -0.4781
 9427SOL     OW39916   0.312   4.240   2.939  0.0346 -0.2418  0.3249
 9427SOL    HW139917   0.274   4.161   2.979 -0.1917 -0.1135  0.3623
 9427SOL    HW239918   0.314   4.218   2.845  1.1712 -1.6470  0.6750
 9428SOL     OW39919   1.708   3.286   1.726  0.0817 -0.2267 -0.3304
 9428SOL    HW139920   1.706   3.251   1.815  1.5682  1.9361  0.5502
 9428SOL    HW239921   1.780   3.234   1.690 -0.0155 -0.6797  0.1347
 9429SOL     OW39922   0.541   1.491   8.483  0.1522 -0.5423  0.3717
 9429SOL    HW139923   0.454   1.529   8.495 -0.2205 -0.9626 -1.0145
 9429SOL    HW239924   0.534   1.427   8.413  1.1047  1.7746 -1.8134
 9430SOL     OW39925   4.066   2.472   7.148 -0.1081  0.3253 -0.0956
 9430SOL    HW139926   4.128   2.450   7.078 -1.6887 -2.0000 -0.7314
 9430SOL    HW239927   4.106   2.558   7.164 -0.6115  1.0214 -2.5423
 9431SOL     OW39928   4.559   2.811   5.988 -0.3267  0.2707 -0.3472
 9431SOL    HW139929   4.606   2.871   5.929 -0.9014  1.0040 -0.0529
 9431SOL    HW239930   4.524   2.878   6.046 -0.7226 -0.0842 -0.1791
 9432SOL     OW39931   3.272   1.903   0.771 -0.2388  0.2856 -0.2602
 9432SOL    HW139932   3.199   1.936   0.720 -0.1820 -0.2772 -0.7034
 9432SOL    HW239933   3.241   1.936   0.855  0.1981  0.6728 -0.2488
 9433SOL     OW39934   0.701   1.816  16.258  0.2033  0.0424 -0.0337
 9433SOL    HW139935   0.678   1.723  16.264 -0.9731  0.2859 -0.7418
 9433SOL    HW239936   0.612   1.850  16.255  0.0281 -0.3810  0.4497
 9434SOL     OW39937   2.327   1.613   7.367  0.4817  0.1178  0.6527
 9434SOL    HW139938   2.330   1.521   7.340  1.4491  0.0840  0.9016
 9434SOL    HW239939   2.410   1.620   7.415  0.7334  1.2234  0.0345
 9435SOL     OW39940   1.139   0.221   7.332 -0.1413  0.0601  0.3250
 9435SOL    HW139941   1.224   0.263   7.345  0.1954 -0.1901 -1.0848
 9435SOL    HW239942   1.129   0.213   7.237  1.3243 -0.6397  0.2324
 9436SOL     OW39943   2.854   1.059   4.815  0.5168 -0.1753  0.6971
 9436SOL    HW139944   2.858   0.987   4.752  2.0223 -0.1297  0.7451
 9436SOL    HW239945   2.897   1.027   4.895  0.5293  1.5252  1.3750
 9437SOL     OW39946   1.849   3.656   8.609 -0.1142 -0.2485 -0.0703
 9437SOL    HW139947   1.824   3.701   8.689 -1.6408 -2.1763  0.5286
 9437SOL    HW239948   1.762   3.638   8.573 -0.7362  0.4058  1.1063
 9438SOL     OW39949   2.121   2.462   5.122  0.4158  0.4175 -0.0068
 9438SOL    HW139950   2.147   2.453   5.030 -0.2256  0.2941 -0.1761
 9438SOL    HW239951   2.131   2.557   5.131  0.3004  0.3473  0.8674
 9439SOL     OW39952   0.120   3.923   7.952  0.6686  0.4202 -0.1388
 9439SOL    HW139953   0.163   4.001   7.987  1.2874 -0.8071  1.8887
 9439SOL    HW239954   0.134   3.866   8.028  0.0193  0.5820  0.1011
 9440SOL     OW39955   0.034   1.811  14.592  0.1819  0.4575 -0.0275
 9440SOL    HW139956   0.052   1.872  14.521  1.0174  0.8653  0.5316
 9440SOL    HW239957   0.072   1.731  14.554 -0.8075  1.0188 -2.1450
 9441SOL     OW39958   1.578   3.409   9.061 -0.3109 -0.1928  0.0212
 9441SOL    HW139959   1.595   3.379   9.150 -2.5102  0.5666  0.7100
 9441SOL    HW239960   1.639   3.356   9.009 -0.9645 -1.6160  0.7358
 9442SOL     OW39961   1.662   0.295   7.815 -0.2768  0.8895 -0.1043
 9442SOL    HW139962   1.699   0.210   7.793  2.4833  2.6650 -2.2227
 9442SOL    HW239963   1.659   0.307   7.910 -0.7008 -4.1943  0.5207
 9443SOL     OW39964   1.373   0.034  13.496  0.0254 -0.0592 -0.1254
 9443SOL    HW139965   1.387   0.113  13.549  2.9799  0.2723 -1.3751
 9443SOL    HW239966   1.283   0.047  13.469  0.3278  1.3498 -0.4230
 9444SOL     OW39967   1.386   2.831   3.633  0.6215  0.3049  0.3031
 9444SOL    HW139968   1.449   2.765   3.603 -1.0583 -0.8683 -0.6935
 9444SOL    HW239969   1.426   2.845   3.719  0.5873  0.8215  0.2346
 9445SOL     OW39970   3.764   1.507   6.559  0.1459 -0.3103  0.6530
 9445SOL    HW139971   3.857   1.487   6.572  0.5292  0.4018 -1.0715
 9445SOL    HW239972   3.753   1.478   6.469  0.8272  1.2134  0.0770
 9446SOL     OW39973   2.930   3.445  10.251 -0.0951 -0.3756 -0.1960
 9446SOL    HW139974   2.992   3.517  10.238 -0.9577  0.4482  0.2465
 9446SOL    HW239975   2.921   3.442  10.346 -2.0611 -2.4748 -0.4296
 9447SOL     OW39976   0.540   0.759   7.264  0.2444 -0.2958 -0.0539
 9447SOL    HW139977   0.472   0.703   7.301 -0.0611  0.7659  0.9700
 9447SOL    HW239978   0.519   0.848   7.293  0.0022 -0.0952 -0.8218
 9448SOL     OW39979   4.444   0.885   5.000 -0.1965 -0.2337  0.0530
 9448SOL    HW139980   4.446   0.791   4.980 -0.2201 -0.5824  1.7081
 9448SOL    HW239981   4.386   0.911   4.928 -0.5399 -3.7158 -0.9410
 9449SOL     OW39982   3.789   2.681  10.376  0.2907 -0.1733 -0.3059
 9449SOL    HW139983   3.701   2.644  10.366 -0.2895  1.2307 -0.4645
 9449SOL    HW239984   3.779   2.736  10.454  0.3131 -0.0089 -0.4202
 9450SOL     OW39985   4.153   0.551  16.183 -0.4684  0.7951 -0.2419
 9450SOL    HW139986   4.107   0.629  16.152  1.6530  1.2705 -2.1818
 9450SOL    HW239987   4.166   0.522  16.093 -0.9682 -1.6580  0.4519
 9451SOL     OW39988   1.071   4.210  17.522 -0.0400 -0.5280  0.7618
 9451SOL    HW139989   0.988   4.179  17.485 -0.3991 -0.2360  1.3169
 9451SOL    HW239990   1.057   4.187  17.614  2.8032 -1.6439  0.9296
 9452SOL     OW39991   2.646   3.947  14.358 -0.6794  0.0066  0.0216
 9452SOL    HW139992   2.655   4.032  14.317  0.9339 -0.5421 -0.7448
 9452SOL    HW239993   2.642   3.974  14.450 -0.4888 -1.2049  0.3924
 9453SOL     OW39994   2.212   0.737   7.166 -0.0533  0.4398  0.0863
 9453SOL    HW139995   2.183   0.823   7.136 -0.5439  0.6474  1.1745
 9453SOL    HW239996   2.150   0.686   7.113  1.5118 -1.0565 -0.3419
 9454SOL     OW39997   4.375   4.055  10.660  0.3481 -0.1470 -0.2097
 9454SOL    HW139998   4.280   4.047  10.665  0.4664 -0.3113  1.6720
 9454SOL    HW239999   4.395   4.014  10.744 -0.3722  1.4281  0.7181
 9455SOL     OW40000   3.404   3.933   8.295 -0.3684 -0.2140 -0.1033
 9455SOL    HW140001   3.373   3.843   8.303 -0.4496 -0.2634 -0.9402
 9455SOL    HW240002   3.406   3.952   8.389 -1.4447 -0.5898 -0.0028
 9456SOL     OW40003   1.775   4.214   0.435  0.0499  0.7485  0.3454
 9456SOL    HW140004   1.705   4.272   0.466 -2.7079 -2.1071 -0.4922
 9456SOL    HW240005   1.772   4.148   0.505 -1.7207  0.3727 -0.0731
 9457SOL     OW40006   1.443   1.159  14.678  0.3922 -0.1420  0.3594
 9457SOL    HW140007   1.414   1.220  14.745 -3.3336 -0.2737 -1.1476
 9457SOL    HW240008   1.365   1.105  14.675  0.1012  0.4149 -2.5957
 9458SOL     OW40009   2.609   3.754   8.195  0.3325 -0.2973 -0.5314
 9458SOL    HW140010   2.635   3.845   8.181  0.1217  0.5722  4.4487
 9458SOL    HW240011   2.614   3.741   8.290  4.0442 -0.4878 -0.7742
 9459SOL     OW40012   1.066   1.423  14.934 -0.3003 -0.0435 -0.4304
 9459SOL    HW140013   0.993   1.366  14.955 -1.4986  0.8995 -2.0770
 9459SOL    HW240014   1.034   1.485  14.869 -1.0008  0.4415  0.3746
 9460SOL     OW40015   2.664   1.188   8.114 -0.0411 -0.2722 -0.6107
 9460SOL    HW140016   2.733   1.224   8.058 -0.8940  1.0648 -0.8010
 9460SOL    HW240017   2.616   1.123   8.063 -2.0229  1.0750 -0.4573
 9461SOL     OW40018   1.691   3.030   8.313 -0.2296  0.4377  0.1977
 9461SOL    HW140019   1.623   2.994   8.256 -1.8372  2.4979  0.8379
 9461SOL    HW240020   1.748   2.953   8.306  1.4627  1.6789  0.2012
 9462SOL     OW40021   1.141   1.423   2.947  0.1537 -0.1902 -0.9502
 9462SOL    HW140022   1.123   1.472   2.866 -2.4338 -0.1984 -0.3750
 9462SOL    HW240023   1.215   1.369   2.921  0.1443 -0.8074  0.3441
 9463SOL     OW40024   2.426   4.048   3.742 -0.4393  0.0992 -0.0490
 9463SOL    HW140025   2.472   3.977   3.787 -1.9567  0.3628  1.9317
 9463SOL    HW240026   2.480   4.121   3.770 -2.8151  1.1881  1.7175
 9464SOL     OW40027   2.221   0.275  11.591  0.1674 -0.5381  0.2530
 9464SOL    HW140028   2.217   0.223  11.671 -2.1210  0.8294  1.0328
 9464SOL    HW240029   2.215   0.363  11.629 -0.3772  0.0883 -1.2806
 9465SOL     OW40030   0.957   4.317   2.606  0.4616  0.4316  0.0629
 9465SOL    HW140031   0.950   4.404   2.646  1.0482  0.5168 -0.0223
 9465SOL    HW240032   0.898   4.341   2.535  0.1907 -0.5460 -0.0363
 9466SOL     OW40033   0.706   1.596   7.286 -0.4540  0.1495  0.4306
 9466SOL    HW140034   0.736   1.655   7.356 -1.7573  1.0680  0.2230
 9466SOL    HW240035   0.779   1.620   7.229  0.1523 -2.4348  0.1293
 9467SOL     OW40036   2.275   2.025  17.342  0.2366 -0.2612 -0.5174
 9467SOL    HW140037   2.266   2.120  17.346 -0.7158 -0.3363 -0.8643
 9467SOL    HW240038   2.193   2.005  17.387  1.3874  1.3321  2.3063
 9468SOL     OW40039   4.372   3.109   7.779  0.6124 -0.6966 -0.1108
 9468SOL    HW140040   4.420   3.153   7.709 -0.0222  1.9249  1.1076
 9468SOL    HW240041   4.416   3.025   7.786  0.5316 -0.8435 -1.3641
 9469SOL     OW40042   2.194   2.115   2.023  0.2292  0.0534 -0.0064
 9469SOL    HW140043   2.176   2.167   1.944 -2.6901 -0.7593  0.1598
 9469SOL    HW240044   2.281   2.078   2.005  1.1247  1.3320  1.7336
 9470SOL     OW40045   4.402   2.239   5.890  0.4156 -0.2981  0.7899
 9470SOL    HW140046   4.468   2.291   5.936 -1.0824  2.3175  0.0125
 9470SOL    HW240047   4.434   2.237   5.799 -0.4470  0.6901  0.4674
 9471SOL     OW40048   3.002   4.672   2.026  0.0339 -0.3714 -0.4373
 9471SOL    HW140049   3.062   0.005   2.000  1.5212 -1.8281 -0.8733
 9471SOL    HW240050   2.959   4.702   2.106 -1.5126 -4.0067  0.1116
 9472SOL     OW40051   0.372   1.498   4.891  0.0240 -0.2866 -0.1624
 9472SOL    HW140052   0.420   1.419   4.915 -0.2194 -0.1650  0.7181
 9472SOL    HW240053   0.391   1.497   4.797  0.6380 -2.2923 -0.0039
 9473SOL     OW40054   3.779   1.238   6.917  0.0775 -0.2939  0.4773
 9473SOL    HW140055   3.853   1.255   6.859  0.5317 -4.7367 -0.2147
 9473SOL    HW240056   3.712   1.294   6.878 -1.0213 -0.4848  2.0684
 9474SOL     OW40057   4.479   4.318   3.770 -0.2385  0.7335  0.5076
 9474SOL    HW140058   4.429   4.369   3.833 -0.8042  1.2204 -0.3444
 9474SOL    HW240059   4.423   4.246   3.743 -0.5483  1.5530 -1.0380
 9475SOL     OW40060   4.701   3.929   7.169 -0.0345  0.3786  0.4149
 9475SOL    HW140061   0.025   3.980   7.223  2.8349 -0.5892 -1.8797
 9475SOL    HW240062   0.029   3.907   7.102 -0.9173 -0.1814 -0.2423
 9476SOL     OW40063   2.496   4.046   2.901 -0.5818  0.6786  0.2206
 9476SOL    HW140064   2.561   4.047   2.971 -2.4705 -0.9332  2.0451
 9476SOL    HW240065   2.443   3.967   2.915  1.3757 -0.7025 -0.1641
 9477SOL     OW40066   1.013   3.621   2.505 -0.6357 -0.1688  0.1548
 9477SOL    HW140067   1.097   3.650   2.539  0.2068 -0.4747 -1.6702
 9477SOL    HW240068   1.042   3.588   2.420 -0.3907  0.7267 -0.1006
 9478SOL     OW40069   1.719   1.677   7.599  1.0386  0.0183  0.4025
 9478SOL    HW140070   1.720   1.688   7.504  0.4207  0.7213  0.4724
 9478SOL    HW240071   1.763   1.593   7.607 -0.3019 -0.7726 -0.6606
 9479SOL     OW40072   0.380   3.919  16.229  0.1356  0.3442  0.2903
 9479SOL    HW140073   0.392   3.892  16.138  0.9504  1.9334 -0.0771
 9479SOL    HW240074   0.300   3.875  16.256  0.9572 -0.0195  2.1344
 9480SOL     OW40075   2.103   0.988   3.338 -0.8060  0.3262  0.3395
 9480SOL    HW140076   2.096   0.892   3.344 -3.3267  0.6762  2.9584
 9480SOL    HW240077   2.162   1.004   3.412  1.6122 -1.3593 -1.2421
 9481SOL     OW40078   0.843   0.085  12.452  0.3305 -0.1571 -0.5531
 9481SOL    HW140079   0.835   0.021  12.522  0.4988 -0.2188 -0.5900
 9481SOL    HW240080   0.780   0.151  12.480  0.3509  0.4014 -1.8417
 9482SOL     OW40081   0.064   3.919   5.937  0.1909  0.1195 -0.0607
 9482SOL    HW140082   0.111   3.925   6.021 -0.5693 -1.0471  0.4473
 9482SOL    HW240083   0.079   3.834   5.896 -1.0544  0.7688 -1.8539
 9483SOL     OW40084   1.381   0.498   7.028 -0.4150  0.1490 -0.2424
 9483SOL    HW140085   1.439   0.466   6.959 -0.9909 -1.1715 -0.1117
 9483SOL    HW240086   1.348   0.412   7.055 -0.8939  0.1173 -0.9347
 9484SOL     OW40087   0.276   0.746   0.614  0.3742  0.4088  0.0502
 9484SOL    HW140088   0.304   0.782   0.698  1.6623  0.2883 -0.3337
 9484SOL    HW240089   0.192   0.787   0.592  0.0444 -0.6813 -0.7452
 9485SOL     OW40090   0.602   4.278   8.661  0.3837 -0.3739  0.3655
 9485SOL    HW140091   0.523   4.284   8.715  2.0362  2.3350  2.4510
 9485SOL    HW240092   0.645   4.205   8.703  1.6816  1.7045  2.6176
 9486SOL     OW40093   0.101   4.402  13.436  0.4811  0.2628  0.5065
 9486SOL    HW140094   0.048   4.353  13.499 -2.0076 -1.2577 -2.7529
 9486SOL    HW240095   0.074   4.490  13.463  0.7258  0.3354  0.5147
 9487SOL     OW40096   0.467   0.888   6.934 -0.4397 -0.3753  0.1620
 9487SOL    HW140097   0.435   0.799   6.946  1.4130 -1.0930 -0.2130
 9487SOL    HW240098   0.426   0.912   6.851 -0.4463 -0.5796  0.1063
 9488SOL     OW40099   3.342   3.784   5.648 -0.1752  0.0422 -0.4519
 9488SOL    HW140100   3.340   3.805   5.741 -0.1581  1.9214 -0.8831
 9488SOL    HW240101   3.270   3.837   5.616 -1.6249 -0.9966  1.1098
 9489SOL     OW40102   0.164   2.265  16.448  0.1992 -0.1177 -0.2299
 9489SOL    HW140103   0.116   2.321  16.509  1.7393 -0.0849  0.9610
 9489SOL    HW240104   0.201   2.207  16.515 -1.1369 -3.1327 -2.1127
 9490SOL     OW40105   3.952   0.148   9.550 -0.4021 -0.2764  0.4245
 9490SOL    HW140106   3.903   0.217   9.505 -0.6431 -0.3877  0.5121
 9490SOL    HW240107   4.040   0.185   9.541 -0.6492  0.1083 -0.3673
 9491SOL     OW40108   1.361   0.447  10.856 -0.0348  0.2705 -0.4402
 9491SOL    HW140109   1.438   0.481  10.812  0.5039 -0.5791 -0.1545
 9491SOL    HW240110   1.394   0.363  10.888  2.3962  1.1823 -0.5569
 9492SOL     OW40111   4.489   3.966  17.486  0.5524  0.0244 -0.1224
 9492SOL    HW140112   4.491   3.985  17.580  3.1379  2.4110 -0.6481
 9492SOL    HW240113   4.468   4.051  17.447  0.9599  0.8036  1.3512
 9493SOL     OW40114   2.847   4.180   5.734  0.1648  0.1467  0.0196
 9493SOL    HW140115   2.913   4.249   5.728  2.5207 -1.9018  1.8306
 9493SOL    HW240116   2.836   4.152   5.643 -0.4746 -1.9734  0.7539
 9494SOL     OW40117   1.023   0.141   3.088 -0.0752  0.2372 -0.3913
 9494SOL    HW140118   0.994   0.229   3.111  2.2456  0.5571  1.2870
 9494SOL    HW240119   0.935   0.106   3.078  0.1442 -0.4690  0.1766
 9495SOL     OW40120   1.823   0.752  12.979  0.0778 -0.4287  0.3009
 9495SOL    HW140121   1.812   0.766  12.885  0.6251  1.8078  0.5734
 9495SOL    HW240122   1.760   0.815  13.014  0.5171  0.1975 -0.0439
 9496SOL     OW40123   1.928   1.304   8.055  0.1529  0.3962  0.3813
 9496SOL    HW140124   1.984   1.253   7.996  1.0534  1.2016  0.5329
 9496SOL    HW240125   1.840   1.295   8.020 -0.2738  1.8333  1.0789
 9497SOL     OW40126   0.334   2.782   0.347 -0.5489 -0.0232 -0.1903
 9497SOL    HW140127   0.242   2.787   0.374 -0.8916  0.4308 -1.4649
 9497SOL    HW240128   0.332   2.712   0.282 -0.2865  1.4174 -1.7432
 9498SOL     OW40129   2.371   1.925  16.230  0.0051  0.1869 -0.2578
 9498SOL    HW140130   2.361   1.995  16.165 -1.0886  1.1090  0.9047
 9498SOL    HW240131   2.338   1.861  16.167  1.9187  0.8091 -1.8836
 9499SOL     OW40132   2.882   4.483   7.145 -0.1702  0.1555  0.1720
 9499SOL    HW140133   2.833   4.413   7.102  1.5454 -1.0159  0.1164
 9499SOL    HW240134   2.904   4.547   7.077  1.8565 -0.0767  0.6005
 9500SOL     OW40135   2.548   0.194   6.088 -0.2869  0.7948 -0.6491
 9500SOL    HW140136   2.545   0.104   6.119 -1.1223  0.9264 -0.3660
 9500SOL    HW240137   2.457   0.195   6.058 -1.0468 -2.0221  1.6320
 9501SOL     OW40138   2.945   1.537   4.514 -0.6424 -0.5437 -0.1220
 9501SOL    HW140139   2.998   1.492   4.448 -3.7140 -0.8362 -2.3908
 9501SOL    HW240140   2.980   1.626   4.507  0.2008 -0.8593  0.0701
 9502SOL     OW40141   3.101   3.494  16.493 -0.1356  0.1177  0.5566
 9502SOL    HW140142   3.024   3.540  16.458  0.2847 -1.2535 -2.0983
 9502SOL    HW240143   3.164   3.567  16.495  0.6141 -0.4996 -1.0885
 9503SOL     OW40144   2.579   1.962   8.214 -0.5320  0.0858 -0.0814
 9503SOL    HW140145   2.510   1.973   8.148  0.0333 -0.5938 -0.7852
 9503SOL    HW240146   2.515   1.943   8.283  0.8381 -0.9345  0.9032
 9504SOL     OW40147   0.227   2.378   5.011  0.8400  0.0697 -0.6353
 9504SOL    HW140148   0.243   2.287   4.986 -0.2217 -0.6876  1.4033
 9504SOL    HW240149   0.197   2.423   4.931  1.2352  2.2621  0.4604
 9505SOL     OW40150   0.950   0.085   3.473 -0.1736  0.4031  0.9109
 9505SOL    HW140151   0.880   0.060   3.413  0.2909 -0.4628  0.7300
 9505SOL    HW240152   1.030   0.049   3.435  0.1430  0.6410  1.3435
 9506SOL     OW40153   3.401   2.027   8.124 -0.0217 -0.1501 -0.3805
 9506SOL    HW140154   3.445   1.993   8.202  1.3785 -3.9882 -2.8366
 9506SOL    HW240155   3.349   1.952   8.097 -0.0509  0.6867 -2.6574
 9507SOL     OW40156   3.347   1.722  14.301  0.3575  0.4761  0.1552
 9507SOL    HW140157   3.264   1.699  14.342  0.9918 -2.2772 -0.0670
 9507SOL    HW240158   3.354   1.651  14.237  1.6019  1.0412 -0.3408
 9508SOL     OW40159   4.533   3.210  11.749  0.1632  0.3950 -0.2383
 9508SOL    HW140160   4.453   3.195  11.698  0.0376 -0.7382  0.2839
 9508SOL    HW240161   4.511   3.147  11.818 -0.3917 -0.0721 -0.8372
 9509SOL     OW40162   0.932   2.440   7.543  0.5198  0.1776 -0.3576
 9509SOL    HW140163   0.966   2.471   7.627  0.6836  0.4271 -0.5158
 9509SOL    HW240164   0.849   2.397   7.562  0.3604  1.7552  2.6053
 9510SOL     OW40165   1.735   4.417   5.110  0.0622  0.1673 -0.0460
 9510SOL    HW140166   1.744   4.466   5.028  0.6094  0.3797  0.1366
 9510SOL    HW240167   1.656   4.369   5.089 -0.7367  1.7890 -0.7512
 9511SOL     OW40168   4.249   3.817   5.557  0.4015 -0.2058 -0.3247
 9511SOL    HW140169   4.192   3.893   5.566  0.2726 -0.5255  1.6665
 9511SOL    HW240170   4.235   3.799   5.464  0.7095  0.1614 -0.4408
 9512SOL     OW40171   1.389   2.524  14.585  0.4418  1.0628 -0.5298
 9512SOL    HW140172   1.312   2.543  14.638  1.0164  1.3284  0.2158
 9512SOL    HW240173   1.427   2.458  14.644 -2.6364  0.5271  0.8622
 9513SOL     OW40174   0.407   3.034  17.181 -0.3244 -0.2782  0.1368
 9513SOL    HW140175   0.331   3.043  17.238 -0.0983  0.6993  0.2881
 9513SOL    HW240176   0.428   2.942  17.197 -1.5448 -0.4225  0.9156
 9514SOL     OW40177   2.989   0.545   5.366  0.6288  0.1109  0.7319
 9514SOL    HW140178   2.964   0.492   5.441 -0.0924  0.4234  0.7161
 9514SOL    HW240179   2.959   0.499   5.287  1.8457 -1.2449  1.0691
 9515SOL     OW40180   1.283   2.846  16.923  0.2570 -0.8003  0.0725
 9515SOL    HW140181   1.353   2.831  16.859 -1.2785 -0.2855 -1.7142
 9515SOL    HW240182   1.216   2.785  16.892 -0.3608 -0.7957  1.3967
 9516SOL     OW40183   0.625   1.506   1.253  0.1338 -0.2476 -0.4862
 9516SOL    HW140184   0.617   1.466   1.340 -1.3742 -0.5568 -0.7570
 9516SOL    HW240185   0.653   1.596   1.273  1.6049 -0.7851 -0.1821
 9517SOL     OW40186   1.055   0.107  11.223 -0.2408 -0.7010 -0.1388
 9517SOL    HW140187   1.033   0.064  11.305 -1.1687  1.0934  0.5256
 9517SOL    HW240188   1.102   0.187  11.246  1.4510 -1.7579  0.1722
 9518SOL     OW40189   2.292   0.942   6.604  0.3103 -0.3799 -0.1329
 9518SOL    HW140190   2.242   1.020   6.627  0.7847 -0.2212  0.3752
 9518SOL    HW240191   2.215   0.887   6.591 -0.6534  1.5224 -2.4021
 9519SOL     OW40192   4.607   3.958   7.760  0.1712  0.6332 -0.9199
 9519SOL    HW140193   4.690   3.911   7.771  1.0482  2.8488  1.8156
 9519SOL    HW240194   4.579   3.973   7.850  2.4531  1.7211 -0.3915
 9520SOL     OW40195   2.017   0.250  10.685 -0.2380 -0.5764  0.1779
 9520SOL    HW140196   2.025   0.222  10.776  0.7012 -1.6109 -0.2170
 9520SOL    HW240197   2.081   0.321  10.685  0.1022 -0.8856  1.6488
 9521SOL     OW40198   4.539   1.429  10.609 -0.2718 -0.1150 -0.5064
 9521SOL    HW140199   4.610   1.490  10.587  0.2840 -0.8195 -0.6580
 9521SOL    HW240200   4.532   1.387  10.523  1.2011  1.5259 -1.4479
 9522SOL     OW40201   0.655   4.504  13.413  0.4924  0.5830  0.0066
 9522SOL    HW140202   0.745   4.481  13.437  0.3862 -0.7916 -0.8786
 9522SOL    HW240203   0.627   4.416  13.386  0.5927  1.0367 -1.5810
 9523SOL     OW40204   3.296   1.238   8.742  0.1742 -0.5333  0.4625
 9523SOL    HW140205   3.289   1.333   8.745  0.2705 -0.4981 -0.3755
 9523SOL    HW240206   3.341   1.223   8.659  0.6788  1.1604  0.4240
 9524SOL     OW40207   0.338   3.585   8.275  0.0926  0.2728  0.0282
 9524SOL    HW140208   0.404   3.516   8.280 -0.9923 -0.7929 -0.4822
 9524SOL    HW240209   0.314   3.586   8.368 -1.0654 -0.3444 -0.2715
 9525SOL     OW40210   3.065   1.047   2.799 -0.6925  0.2156  0.0943
 9525SOL    HW140211   3.021   1.062   2.716  0.8416 -1.0172 -0.9446
 9525SOL    HW240212   3.097   1.134   2.823  0.1089  0.4026 -1.6512
 9526SOL     OW40213   2.257   2.040   4.086 -0.1196 -0.1627  0.4634
 9526SOL    HW140214   2.186   2.092   4.123 -0.7487 -0.6607 -0.0467
 9526SOL    HW240215   2.250   2.046   3.990  0.2378 -0.3214  0.4249
 9527SOL     OW40216   2.786   4.728   8.208 -0.1143 -0.2828 -0.3649
 9527SOL    HW140217   2.717   0.021   8.268 -1.7848 -2.0861 -1.3808
 9527SOL    HW240218   2.747   0.016   8.124 -0.1234 -3.4924 -1.2937
 9528SOL     OW40219   4.256   2.522   4.448 -0.2020  0.1896 -0.3770
 9528SOL    HW140220   4.268   2.611   4.483 -1.2227  0.8060 -1.5798
 9528SOL    HW240221   4.325   2.529   4.381  0.4071  1.5505  0.3748
 9529SOL     OW40222   0.670   2.969  10.152 -0.8590  0.1523  0.3672
 9529SOL    HW140223   0.702   2.980  10.062 -1.9471  0.2765 -0.0024
 9529SOL    HW240224   0.748   3.001  10.198  0.2796 -0.2733 -1.2488
 9530SOL     OW40225   4.724   2.837   5.432  0.0603 -0.3896  0.3476
 9530SOL    HW140226   4.679   2.920   5.444  0.3496 -0.1486 -0.2363
 9530SOL    HW240227   4.725   2.833   5.337 -1.5356  1.9172  0.2419
 9531SOL     OW40228   0.617   2.605   7.549 -0.0934  0.2406 -0.6454
 9531SOL    HW140229   0.609   2.632   7.458 -0.6477  1.5069 -0.2241
 9531SOL    HW240230   0.641   2.687   7.592  0.3560 -0.7503  0.9983
 9532SOL     OW40231   4.672   2.744   7.484 -0.0321 -0.4679 -0.1577
 9532SOL    HW140232   0.030   2.757   7.480 -0.3579  0.8413 -4.0094
 9532SOL    HW240233   4.656   2.756   7.578 -0.1662  1.2554 -0.4060
 9533SOL     OW40234   1.075   0.302   5.335 -0.6851 -0.4525  0.3385
 9533SOL    HW140235   1.150   0.303   5.276 -0.7506  0.4192  0.2796
 9533SOL    HW240236   1.099   0.370   5.398  4.8863 -0.7676 -1.4982
 9534SOL     OW40237   3.567   0.890   1.814 -0.1765  0.1265 -0.1244
 9534SOL    HW140238   3.602   0.975   1.788  0.1025 -1.0408 -3.4638
 9534SOL    HW240239   3.532   0.924   1.897 -0.0827  1.7814 -0.7530
 9535SOL     OW40240   0.103   3.262  17.186 -0.0267 -0.3624  0.1759
 9535SOL    HW140241   0.062   3.341  17.221 -1.9979 -0.2970 -2.2961
 9535SOL    HW240242   0.100   3.270  17.091  1.0922 -0.0039  0.1684
 9536SOL     OW40243   2.015   1.815  15.182 -0.3099 -0.6355 -0.1975
 9536SOL    HW140244   2.064   1.733  15.187  1.6342  0.6081  1.1883
 9536SOL    HW240245   2.010   1.830  15.088 -0.3249 -0.3855 -0.1559
 9537SOL     OW40246   3.252   0.336   2.325  0.5773  0.2836  0.7190
 9537SOL    HW140247   3.268   0.392   2.401 -1.7051 -0.5544  1.8348
 9537SOL    HW240248   3.177   0.372   2.278  1.1170  2.1600  1.2790
 9538SOL     OW40249   0.996   0.060   4.006  0.2146 -0.8991 -0.3771
 9538SOL    HW140250   0.960   0.134   4.055  3.0213  1.7919 -2.4068
 9538SOL    HW240251   0.972   0.074   3.914  0.3496  0.7285 -0.1611
 9539SOL     OW40252   2.669   1.834   8.787  0.6855  0.5983 -0.3977
 9539SOL    HW140253   2.713   1.756   8.821 -1.4443  0.0551  1.0770
 9539SOL    HW240254   2.599   1.800   8.730 -0.2088  2.2359 -0.2824
 9540SOL     OW40255   3.266   3.842  12.091 -0.0107  0.3274 -0.0365
 9540SOL    HW140256   3.334   3.782  12.123 -1.5961 -1.7443 -0.5840
 9540SOL    HW240257   3.197   3.836  12.157 -1.0260  0.2037 -1.1108
 9541SOL     OW40258   0.110   3.939  16.903  0.0088 -0.4143 -0.0639
 9541SOL    HW140259   0.194   3.901  16.878  1.0361  0.9609  1.3124
 9541SOL    HW240260   0.117   4.032  16.884 -0.0773 -0.1495  1.1939
 9542SOL     OW40261   1.452   4.400   4.007  0.0869  0.0908  0.3112
 9542SOL    HW140262   1.479   4.372   4.094 -0.6447  1.2317  0.9237
 9542SOL    HW240263   1.401   4.329   3.967 -0.2704  1.8386 -2.3523
 9543SOL     OW40264   2.724   3.561   3.580 -0.0196  0.5073  0.0330
 9543SOL    HW140265   2.738   3.645   3.624 -2.6489  1.1041 -0.2929
 9543SOL    HW240266   2.810   3.522   3.600 -0.2032 -0.7275 -1.5736
 9544SOL     OW40267   3.341   2.164   6.400 -0.7290 -0.5145  0.0379
 9544SOL    HW140268   3.385   2.081   6.382  0.4285 -0.2440  1.6200
 9544SOL    HW240269   3.413   2.226   6.390 -0.2969 -1.1133 -0.6002
 9545SOL     OW40270   3.847   3.003   3.407 -0.2171  0.2188  0.3928
 9545SOL    HW140271   3.823   2.919   3.368  0.5139 -0.9453  2.4715
 9545SOL    HW240272   3.766   3.037   3.444 -1.4391 -2.0383 -0.2057
 9546SOL     OW40273   3.422   0.277   4.139 -0.6380  0.3039  0.5552
 9546SOL    HW140274   3.482   0.342   4.174 -0.4174  1.0245 -1.1478
 9546SOL    HW240275   3.468   0.231   4.068  0.7392  1.8119  0.4862
 9547SOL     OW40276   3.229   0.539   3.256 -0.0756 -0.1586 -0.1477
 9547SOL    HW140277   3.316   0.525   3.293 -0.4568 -1.1166  0.3991
 9547SOL    HW240278   3.185   0.473   3.308  2.0674 -1.8741 -0.5058
 9548SOL     OW40279   3.933   4.451   8.907 -0.3609  0.3170 -0.6056
 9548SOL    HW140280   3.857   4.417   8.953  1.4151 -2.0991  0.4986
 9548SOL    HW240281   3.959   4.520   8.968  1.2477  0.2686 -1.2390
 9549SOL     OW40282   2.663   1.415   4.157 -0.5120 -0.0902  0.0554
 9549SOL    HW140283   2.678   1.321   4.144  0.4700  0.0161  0.4485
 9549SOL    HW240284   2.672   1.425   4.252 -0.5348  1.0316 -0.0679
 9550SOL     OW40285   0.353   0.579  17.503 -0.5201  0.1256 -0.7065
 9550SOL    HW140286   0.360   0.513  17.434  1.0597  1.0473 -1.4231
 9550SOL    HW240287   0.432   0.560  17.553 -0.3726  0.8346 -0.6736
 9551SOL     OW40288   1.809   0.797  15.028  0.5052  0.3983 -0.1361
 9551SOL    HW140289   1.771   0.818  15.113  1.8690  1.0755  0.3207
 9551SOL    HW240290   1.884   0.740  15.048  0.8607  1.3077  1.1162
 9552SOL     OW40291   3.615   1.161   7.936  1.0198  0.0437  0.6545
 9552SOL    HW140292   3.665   1.079   7.935  0.4248 -0.3216  1.2406
 9552SOL    HW240293   3.528   1.132   7.963  0.4309  1.0797 -0.1105
 9553SOL     OW40294   2.045   2.122   8.170 -0.3835 -0.4926 -0.3975
 9553SOL    HW140295   2.117   2.063   8.196 -0.0199 -0.5563 -1.5461
 9553SOL    HW240296   2.081   2.141   8.084 -1.2776 -2.2269 -1.1678
 9554SOL     OW40297   0.463   1.538   7.179 -0.4436 -0.0398  0.2059
 9554SOL    HW140298   0.502   1.521   7.094  0.6995  1.5144  0.4154
 9554SOL    HW240299   0.542   1.569   7.223  0.9532 -0.1265 -2.2381
 9555SOL     OW40300   4.048   3.996   5.569  0.3356 -0.3385  0.4184
 9555SOL    HW140301   4.070   4.069   5.512 -1.3024  0.5799  0.9834
 9555SOL    HW240302   3.956   3.988   5.546  0.6527 -1.4478 -0.5015
 9556SOL     OW40303   3.269   4.000  13.326  0.1018 -0.1265 -0.2348
 9556SOL    HW140304   3.251   4.076  13.381  2.7965  0.8546 -0.7106
 9556SOL    HW240305   3.279   4.043  13.241  1.3327  1.1051  0.5429
 9557SOL     OW40306   2.893   1.039   0.205 -0.1292  0.2359 -0.0229
 9557SOL    HW140307   2.923   1.073   0.289  2.6243 -1.5497 -0.2740
 9557SOL    HW240308   2.967   1.069   0.151 -0.0656  1.0295  0.5071
 9558SOL     OW40309   4.679   3.154   8.963 -0.6014  0.2333 -0.2800
 9558SOL    HW140310   4.736   3.172   9.038 -1.8188  0.7198  0.5370
 9558SOL    HW240311   4.719   3.087   8.908 -0.4096 -0.1073  0.2700
 9559SOL     OW40312   0.055   1.253   6.010  0.2494  0.0670  0.1374
 9559SOL    HW140313   0.039   1.344   5.983 -0.7637 -0.8413 -2.2309
 9559SOL    HW240314   4.709   1.213   5.985  0.3888  0.5319 -1.0778
 9560SOL     OW40315   4.482   3.746   2.100  0.4685  0.0677 -0.0805
 9560SOL    HW140316   4.402   3.697   2.122  0.7327 -0.6513 -0.7433
 9560SOL    HW240317   4.476   3.804   2.176  0.0366 -0.9715  0.6890
 9561SOL     OW40318   1.499   2.046  11.379 -0.3141  0.1085 -0.2510
 9561SOL    HW140319   1.490   1.952  11.399  0.8453  0.6116  2.6402
 9561SOL    HW240320   1.429   2.075  11.437  0.3904 -0.4037  0.8552
 9562SOL     OW40321   2.516   1.654   2.032  0.2373  0.5209 -0.1030
 9562SOL    HW140322   2.539   1.562   2.025  1.3733  0.7772  0.3437
 9562SOL    HW240323   2.595   1.676   2.081  0.9853 -0.1190 -1.0379
 9563SOL     OW40324   1.547   0.307   6.867 -0.2901 -0.2892  0.6928
 9563SOL    HW140325   1.507   0.246   6.929 -2.5374 -0.6272 -1.0681
 9563SOL    HW240326   1.486   0.307   6.794  0.3755 -1.1253  0.1458
 9564SOL     OW40327   0.591   2.643   0.686 -0.6427 -0.2710 -0.1109
 9564SOL    HW140328   0.555   2.724   0.722 -0.4045 -0.6764  1.0702
 9564SOL    HW240329   0.580   2.668   0.595 -0.2942  0.5010  0.0520
 9565SOL     OW40330   1.848   3.239   2.459  0.3764  0.5058  0.2188
 9565SOL    HW140331   1.846   3.185   2.539 -2.6019 -1.3597 -1.0990
 9565SOL    HW240332   1.801   3.178   2.402 -0.7797  1.7325 -0.1287
 9566SOL     OW40333   4.424   1.119   5.284 -0.5519  0.2314  0.8224
 9566SOL    HW140334   4.348   1.112   5.227 -0.1044 -0.6538  0.3432
 9566SOL    HW240335   4.439   1.214   5.280 -0.5772  0.1061 -1.8301
 9567SOL     OW40336   4.244   0.779   3.607  0.6077 -0.3615  0.1425
 9567SOL    HW140337   4.271   0.728   3.683 -2.7519  1.0000  2.2928
 9567SOL    HW240338   4.189   0.716   3.561  0.5776 -0.5331  0.4124
 9568SOL     OW40339   2.572   3.066  15.229 -0.0813  0.0606 -0.2472
 9568SOL    HW140340   2.542   3.138  15.284 -0.3074  0.2922 -0.6708
 9568SOL    HW240341   2.494   3.015  15.210 -2.3975  2.9493  1.5837
 9569SOL     OW40342   4.113   0.434  16.726  0.1188  0.5434  0.2250
 9569SOL    HW140343   4.113   0.504  16.660 -1.4086  0.4621  0.1452
 9569SOL    HW240344   4.161   0.364  16.682 -0.2473  1.8923 -2.3123
   4.73650   4.73650  17.74449
