Membrane in water
40344
    1TMC1    C1    1   1.438   3.501  11.577 -0.3597 -0.0063 -0.0666
    1TMC1    C2    2   1.472   3.404  11.494 -0.2539  0.1683  0.1424
    1TMC1    C3    3   1.524   3.442  11.376 -0.3381 -0.2925 -0.2046
    1TMC1    C4    4   1.455   3.636  11.548 -0.5526 -0.4178 -0.0545
    1TMC1    C5    5   1.510   3.666  11.430  0.5406 -1.0821 -0.0270
    1TMC1    C6    6   1.547   3.569  11.340  0.3681  0.6590 -0.0026
    1TMC1     C    7   1.353   3.478  11.693  0.0822  0.2279  0.3927
    1TMC1     O    8   1.299   3.575  11.739  0.5613 -0.2039  0.1134
    1TMC1     H    9   1.466   3.298  11.515  1.1499  0.1666  0.5493
    1TMC1    H1   10   1.428   3.709  11.624 -0.3129  0.1453 -0.5124
    1TMC1    H2   11   1.601   3.591  11.248  0.0027  0.4543 -0.2671
    1TMC1    C7   12   1.562   3.789  11.396 -0.7138 -0.1022  0.4934
    1TMC1    C8   13   1.549   3.335  11.287 -0.5593  0.8116 -0.6259
    1TMC1    O1   14   1.649   3.808  11.311  0.1692 -0.1676  0.2298
    1TMC1    O2   15   1.591   3.227  11.324 -0.0232  0.0528 -0.8556
    1TMC1    O3   16   1.479   3.881  11.448 -0.1472 -0.3982  0.2592
    1TMC1    H3   17   1.392   3.846  11.477 -0.1883  0.5216  1.2844
    1TMC1    O5   18   1.550   3.376  11.163 -0.5774  0.3508  0.1268
    1TMC1    H5   19   1.504   3.462  11.149  2.1254  1.7784 -0.0631
    2MPD2     C   20   1.075   3.207  12.016 -0.7446 -0.9336  0.2375
    2MPD2    C1   21   1.106   3.335  12.004 -0.0981 -0.2487 -0.5234
    2MPD2    C2   22   1.186   3.387  11.911 -1.0567 -0.5161 -0.1519
    2MPD2    C3   23   1.261   3.306  11.831 -0.0008  1.0527 -0.0526
    2MPD2    C4   24   1.235   3.166  11.846  0.5828 -0.3559 -0.5772
    2MPD2    C5   25   1.139   3.119  11.934  0.3435 -0.2073 -0.9590
    2MPD2     H   26   1.199   3.495  11.911 -0.3641 -0.6004  0.8334
    2MPD2    H1   27   1.286   3.088  11.790  0.7355 -0.9157  0.3478
    2MPD2    H2   28   1.009   3.165  12.091 -1.4171  0.0974  0.2228
    2MPD2    H3   29   1.111   3.015  11.925  1.2704 -0.6192  1.0350
    2MPD2     N   30   1.338   3.349  11.727 -0.3583  0.2471 -0.0018
    2MPD2    H5   31   1.381   3.279  11.668  2.0304  0.8930  0.9334
    2MPD2    N1   32   1.049   3.436  12.083 -0.5681  0.2680 -0.6915
    2MPD2    H7   33   1.078   3.531  12.064 -2.2857  0.9027 -0.1401
    3TMC1    C1   34   4.252   4.064  11.355  0.1271 -0.3302 -0.3641
    3TMC1    C2   35   4.270   4.090  11.215 -0.2675 -0.0532  0.2932
    3TMC1    C3   36   4.297   3.990  11.126 -0.2162 -0.3269  0.2452
    3TMC1    C4   37   4.260   3.937  11.387 -0.7945 -0.3045  0.0176
    3TMC1    C5   38   4.286   3.840  11.296  0.6255 -0.4948  0.5908
    3TMC1    C6   39   4.310   3.860  11.162 -0.0379 -0.4673 -0.4335
    3TMC1     C   40   4.172   4.145  11.452 -0.0314  0.2983  0.0887
    3TMC1     O   41   4.112   4.079  11.535  0.0295  0.1427  0.3003
    3TMC1     H   42   4.239   4.186  11.175 -0.7515 -0.6136 -0.6608
    3TMC1    H1   43   4.231   3.905  11.486  0.4549 -2.3477 -0.2674
    3TMC1    H2   44   4.318   3.776  11.094 -0.5899 -0.7415 -0.1586
    3TMC1    C7   45   4.275   3.701  11.341  0.0144  0.1835  0.1368
    3TMC1    C8   46   4.369   4.029  11.008  0.2134  0.0212  0.7606
    3TMC1    O1   47   4.201   3.664  11.430  0.2571 -0.1089  0.3019
    3TMC1    O2   48   4.380   3.963  10.907  0.3734 -0.0844 -0.0597
    3TMC1    O3   49   4.394   3.651  11.306 -0.2019 -0.5496  0.2020
    3TMC1    H3   50   4.448   3.717  11.258 -0.4792 -1.8869 -1.9371
    3TMC1    O5   51   4.433   4.145  11.055 -0.2997  0.3525  0.0949
    3TMC1    H5   52   4.420   4.183  11.144 -1.4227 -1.4587  0.7146
    4MPD2     C   53   3.977   4.569  11.643 -0.0911  0.4933 -1.0787
    4MPD2    C1   54   4.074   4.609  11.551 -0.3427 -0.5169 -0.2385
    4MPD2    C2   55   4.137   4.510  11.477 -0.5341 -0.6363 -0.3718
    4MPD2    C3   56   4.107   4.377  11.496 -0.0746 -0.1005 -0.0363
    4MPD2    C4   57   4.016   4.337  11.590  0.3771 -0.0574 -0.0941
    4MPD2    C5   58   3.951   4.434  11.660  0.2605  0.0656  0.2083
    4MPD2     H   59   4.209   4.546  11.404  0.3417 -1.2429  0.2099
    4MPD2    H1   60   3.979   4.236  11.604 -0.8979  0.1503 -2.0601
    4MPD2    H2   61   3.915   4.640  11.695 -0.2766 -1.3462  1.2122
    4MPD2    H3   62   3.890   4.405  11.745  1.0237  2.3179  1.5324
    4MPD2     N   63   4.172   4.275  11.418  0.1600  0.0715 -0.0270
    4MPD2    H5   64   4.236   4.296  11.343 -1.5381 -1.4956 -1.9212
    4MPD2    N1   65   4.086   0.009  11.517  0.4286  0.0732 -0.2553
    4MPD2    H7   66   4.137   0.027  11.432  2.7736 -1.0097  0.9278
    5TCq1    O1   67   0.643   1.548  12.711 -0.4670 -0.4438 -0.1721
    5TCq1    C1   68   0.668   1.439  12.636 -0.1917 -0.2067 -0.5022
    5TCq1    O2   69   0.716   1.331  12.672  0.0510  0.3524  0.0856
    5TCq1    C2   70   0.570   1.436  12.530  0.1071  0.6469 -0.3066
    5TCq1    C3   71   0.458   1.512  12.531  0.3306  0.3965  0.4655
    5TCq1    C4   72   0.390   1.524  12.416 -0.9431 -0.0453 -0.2748
    5TCq1    C5   73   0.430   1.455  12.305  0.6722 -0.1359  0.1967
    5TCq1    C6   74   0.537   1.372  12.306 -0.7023  0.0165 -0.3320
    5TCq1    C7   75   0.609   1.361  12.419 -0.1193  0.2596 -0.3143
    5TCq1    C8   76   0.576   1.309  12.180 -0.4377 -0.1808  0.4265
    5TCq1    O4   77   0.684   1.250  12.184  0.6525 -0.2406  0.5857
    5TCq1    C9   78   0.257   1.573  12.420  0.3118  0.3645 -0.4184
    5TCq1    O5   79   0.214   1.606  12.529  0.0221  0.1494  0.6360
    5TCq1    O6   80   0.184   1.549  12.320  0.1849 -0.1897  0.1009
    5TCq1    H1   81   0.606   1.621  12.657  1.8696  1.2751  0.5470
    5TCq1    H2   82   0.417   1.547  12.626 -2.9128  0.3387 -0.9352
    5TCq1    H3   83   0.381   1.487  12.214 -0.8911  0.6663  1.3189
    5TCq1    H4   84   0.690   1.288  12.415  0.0957  0.4974 -0.2844
    6MPD2     C   85   0.364   1.215  11.889  0.7189  0.4463 -0.3399
    6MPD2    C1   86   0.481   1.227  11.958  0.4765 -0.7567  0.2791
    6MPD2    C2   87   0.604   1.182  11.905  0.0311  0.0616 -0.1596
    6MPD2    C3   88   0.607   1.128  11.778 -0.4095  0.0173  0.1948
    6MPD2    C4   89   0.488   1.108  11.715  0.1846 -0.4322  0.2722
    6MPD2    C5   90   0.367   1.151  11.768  0.0796  0.0591 -0.7416
    6MPD2     H   91   0.699   1.199  11.955 -0.2652 -3.3967  1.5690
    6MPD2    H1   92   0.480   1.053  11.621 -1.4393  0.2584  0.0076
    6MPD2    H2   93   0.271   1.251  11.932  0.5460 -1.2593  0.7103
    6MPD2    H3   94   0.283   1.136  11.702  0.4086 -3.7986 -0.2762
    6MPD2     N   95   0.731   1.081  11.723 -0.3996 -0.1526  0.2054
    6MPD2    H5   96   0.817   1.091  11.776 -0.8620 -1.0203  1.1251
    6MPD2    N1   97   0.471   1.296  12.088  0.2189  0.3882 -0.1082
    6MPD2    H7   98   0.377   1.326  12.112  1.1259  1.7885  1.7141
    7TCq1    O1   99   2.383   1.262  12.592 -0.1841 -0.1648 -0.5612
    7TCq1    C1  100   2.495   1.242  12.663  0.4268  0.3019 -0.6270
    7TCq1    O2  101   2.583   1.166  12.624  0.5149  0.4962 -0.2249
    7TCq1    C2  102   2.463   1.271  12.802 -0.5977  0.7602 -0.1396
    7TCq1    C3  103   2.398   1.390  12.823 -0.4896 -0.3948 -0.3077
    7TCq1    C4  104   2.384   1.433  12.949 -0.7839 -0.2855  0.5928
    7TCq1    C5  105   2.411   1.351  13.052  0.8616  0.2771  0.0805
    7TCq1    C6  106   2.470   1.231  13.029  0.1736  0.6220  0.6276
    7TCq1    C7  107   2.501   1.191  12.904  0.5536  0.3193  0.2133
    7TCq1    C8  108   2.513   1.148  13.134 -0.0777 -0.8129 -0.1387
    7TCq1    O4  109   2.615   1.082  13.108  0.6730 -0.8064  0.6753
    7TCq1    C9  110   2.334   1.564  12.968 -0.4477 -0.1014 -0.0132
    7TCq1    O5  111   2.269   1.624  12.878 -0.0760  0.6015 -0.1219
    7TCq1    O6  112   2.349   1.605  13.084  0.0884  0.2001  0.2625
    7TCq1    H1  113   2.323   1.325  12.636 -0.0825 -1.3828  1.3181
    7TCq1    H2  114   2.381   1.461  12.743 -0.1191 -1.0979 -1.0069
    7TCq1    H3  115   2.396   1.381  13.155  1.0335 -0.5293  0.3415
    7TCq1    H4  116   2.558   1.102  12.882 -0.7231 -0.4518  0.0303
    8MPD2     C  117   2.532   0.985  13.634  0.3659 -0.5533  0.1575
    8MPD2    C1  118   2.559   0.914  13.512  0.1733 -0.2533  0.1419
    8MPD2    C2  119   2.545   0.983  13.388 -0.1286  0.3047 -0.8273
    8MPD2    C3  120   2.476   1.101  13.376 -0.3065 -0.5263 -0.5708
    8MPD2    C4  121   2.429   1.154  13.493 -0.3505  0.2025 -0.8348
    8MPD2    C5  122   2.473   1.111  13.615  0.2209  0.2633 -0.1711
    8MPD2     H  123   2.562   0.939  13.291  1.7215  0.6367 -0.6549
    8MPD2    H1  124   2.371   1.246  13.491  1.1660  1.2323  1.7406
    8MPD2    H2  125   2.551   0.946  13.733  0.2469 -0.8599  0.0593
    8MPD2    H3  126   2.464   1.178  13.700 -2.5540  0.6156 -0.7368
    8MPD2     N  127   2.456   1.164  13.253  0.0733 -0.1615 -0.5989
    8MPD2    H5  128   2.383   1.235  13.253 -0.2671 -0.5126  0.7893
    8MPD2    N1  129   2.629   0.791  13.522  0.1197  0.0466 -0.4581
    8MPD2    H7  130   2.645   0.763  13.618  0.9229  0.0669 -0.5886
    9TMC1    C1  131   1.573   0.404  11.178  0.3316  0.3002 -0.1015
    9TMC1    C2  132   1.704   0.420  11.150 -0.3358  0.4177  0.4632
    9TMC1    C3  133   1.762   0.545  11.163  0.6083  0.2939 -0.2566
    9TMC1    C4  134   1.496   0.508  11.212 -0.0970  0.2746 -0.5884
    9TMC1    C5  135   1.563   0.631  11.218 -0.2431  0.1203  0.4192
    9TMC1    C6  136   1.688   0.655  11.208 -0.1592 -0.1913  0.4203
    9TMC1     C  137   1.509   0.279  11.144  0.1158 -0.8258  0.1697
    9TMC1     O  138   1.575   0.196  11.081 -0.1618 -0.1303  0.2968
    9TMC1     H  139   1.770   0.336  11.131 -0.7936  0.4466 -1.2487
    9TMC1    H1  140   1.388   0.503  11.205 -0.0976  0.1580 -0.4786
    9TMC1    H2  141   1.718   0.759  11.207 -1.4603  0.1864 -0.6705
    9TMC1    C7  142   1.473   0.745  11.241 -0.0275 -0.6045 -0.4983
    9TMC1    C8  143   1.908   0.546  11.155  0.4199  0.9477 -0.3551
    9TMC1    O1  144   1.499   0.863  11.228 -0.4575  0.2183 -0.0858
    9TMC1    O2  145   1.976   0.447  11.171 -0.0478  0.2317 -0.6692
    9TMC1    O3  146   1.376   0.705  11.326  0.1221  0.2047 -0.2658
    9TMC1    H3  147   1.375   0.610  11.351  2.1657  0.5814  1.3098
    9TMC1    O5  148   1.937   0.659  11.089  0.0106 -0.1442 -0.2539
    9TMC1    H5  149   1.857   0.711  11.068 -0.8068  0.8813  5.2699
   10MPD2     C  150   1.331   0.052  11.088 -0.5140 -0.0743 -0.9783
   10MPD2    C1  151   1.304   0.140  11.190 -0.2968 -0.2073 -0.3361
   10MPD2    C2  152   1.222   0.103  11.295 -0.2197  0.3527  0.3495
   10MPD2    C3  153   1.161   4.717  11.298 -0.7669 -0.1379 -0.5641
   10MPD2    C4  154   1.182   4.636  11.195 -0.5773  0.2113 -0.1856
   10MPD2    C5  155   1.270   4.667  11.094 -0.3512 -0.3576  0.3291
   10MPD2     H  156   1.212   0.169  11.381  0.0118  0.4564  0.2976
   10MPD2    H1  157   1.135   4.538  11.196 -0.0304 -0.0469  0.1648
   10MPD2    H2  158   1.402   0.076  11.010  4.0157 -1.5639  2.7056
   10MPD2    H3  159   1.288   4.591  11.019 -0.4434  1.0852 -1.1672
   10MPD2     N  160   1.101   4.651  11.410 -0.1044  0.0389  0.4101
   10MPD2    H5  161   1.072   4.555  11.396 -0.9236  0.3796 -0.2129
   10MPD2    N1  162   1.383   0.262  11.198 -0.1862 -0.3631 -0.2734
   10MPD2    H7  163   1.361   0.329  11.271 -1.7074 -1.9239  0.6824
   11TCq1    O1  164   1.191   0.163  13.955 -0.4907  0.4643  0.1318
   11TCq1    C1  165   1.062   0.127  13.941  0.1473 -0.0177  0.2901
   11TCq1    O2  166   0.976   0.213  13.937 -0.0871 -0.6344 -0.0080
   11TCq1    C2  167   1.039   4.738  14.007 -0.8355  0.4437 -0.3914
   11TCq1    C3  168   1.144   4.654  14.027 -0.3810 -0.2290 -0.1431
   11TCq1    C4  169   1.119   4.543  14.099  1.0068 -0.2368  0.1384
   11TCq1    C5  170   0.993   4.502  14.128  0.1645 -0.4150 -0.2625
   11TCq1    C6  171   0.885   4.582  14.092  0.6816  0.7091 -0.5963
   11TCq1    C7  172   0.912   4.703  14.040 -0.0554 -0.3114 -0.0578
   11TCq1    C8  173   0.755   4.524  14.062 -0.3427  0.0793  0.2507
   11TCq1    O4  174   0.656   4.600  14.062 -0.1252 -0.6398 -0.3871
   11TCq1    C9  175   1.229   4.461  14.146  0.0047  0.5551 -0.0063
   11TCq1    O5  176   1.194   4.370  14.227 -0.5521 -0.1872 -0.3937
   11TCq1    O6  177   1.342   4.514  14.131 -0.4499  0.8299  0.4478
   11TCq1    H1  178   1.262   0.097  13.938 -0.5576  0.7256 -1.1502
   11TCq1    H2  179   1.244   4.671  13.988 -0.4941 -1.0385 -0.7750
   11TCq1    H3  180   0.971   4.406  14.174 -1.9194 -0.5485 -1.5565
   11TCq1    H4  181   0.825   0.021  14.012 -0.4677 -2.2210 -2.6877
   12MPD2     C  182   0.542   4.332  14.019 -0.1752  0.7732  0.1040
   12MPD2    C1  183   0.674   4.291  14.020 -0.7178 -0.0739 -0.3424
   12MPD2    C2  184   0.705   4.158  14.008  0.5005  0.4613 -0.6408
   12MPD2    C3  185   0.605   4.063  14.003 -0.1934  0.1752  0.3401
   12MPD2    C4  186   0.472   4.099  14.006 -0.5176  0.7172  0.3749
   12MPD2    C5  187   0.442   4.237  14.007  0.2839 -0.5751 -0.1745
   12MPD2     H  188   0.810   4.133  14.013 -0.4743 -3.8943 -2.2620
   12MPD2    H1  189   0.396   4.022  14.012  0.7874 -0.7134 -1.2041
   12MPD2    H2  190   0.506   4.434  14.030  0.1978  0.4983  3.6748
   12MPD2    H3  191   0.340   4.272  14.018  1.4311  3.6181 -2.9361
   12MPD2     N  192   0.637   3.924  14.006  0.0417 -0.2531 -0.2870
   12MPD2    H5  193   0.564   3.854  14.009  0.8973 -1.2231 -2.1458
   12MPD2    N1  194   0.772   4.390  14.045 -0.3346  0.1095  0.0477
   12MPD2    H7  195   0.867   4.357  14.052  0.6374  3.1152  0.9758
   13TCq1    O1  196   0.886   3.482  11.532 -0.2658  0.7771  0.4547
   13TCq1    C1  197   0.972   3.533  11.446  0.1077 -0.6081 -0.8182
   13TCq1    O2  198   1.081   3.577  11.475  0.0229 -0.2120 -0.2623
   13TCq1    C2  199   0.901   3.583  11.326  0.2312 -0.6793 -0.1265
   13TCq1    C3  200   0.980   3.619  11.218 -0.4559  0.3533 -0.1054
   13TCq1    C4  201   0.927   3.706  11.123  0.3690  0.1052 -0.6187
   13TCq1    C5  202   0.804   3.757  11.136 -0.0674 -0.6322  0.0461
   13TCq1    C6  203   0.728   3.717  11.241 -0.1260 -0.4205 -0.5586
   13TCq1    C7  204   0.776   3.631  11.338 -0.4810 -0.2655 -0.5405
   13TCq1    C8  205   0.597   3.772  11.257 -0.2461 -0.3890  0.7314
   13TCq1    O4  206   0.544   3.756  11.368  0.1099  0.3921  0.2223
   13TCq1    C9  207   1.004   3.738  11.002  0.6708 -0.1907 -0.3672
   13TCq1    O5  208   1.122   3.699  11.003  0.2016 -0.0145  0.0829
   13TCq1    O6  209   0.957   3.817  10.921 -0.1972  0.3145 -0.0270
   13TCq1    H1  210   0.796   3.466  11.497  0.2731  1.7054 -1.3358
   13TCq1    H2  211   1.086   3.603  11.205 -0.7521  0.6037 -2.8863
   13TCq1    H3  212   0.763   3.817  11.056  2.4534 -2.6759 -2.7862
   13TCq1    H4  213   0.702   3.597  11.410 -0.3004 -0.2647 -0.3542
   14MPD2     C  214   0.403   3.994  11.060 -0.1080  0.4278 -0.2297
   14MPD2    C1  215   0.444   3.936  11.180  0.1814  0.3492  0.2553
   14MPD2    C2  216   0.364   3.956  11.290 -0.3135  0.2068 -0.0456
   14MPD2    C3  217   0.261   4.051  11.288 -0.8914  0.3052  0.7037
   14MPD2    C4  218   0.228   4.118  11.169  0.3451  0.6310  0.7617
   14MPD2    C5  219   0.297   4.085  11.055 -0.1410 -0.1171  0.3890
   14MPD2     H  220   0.394   3.910  11.383  0.0789  1.3153  0.3779
   14MPD2    H1  221   0.143   4.186  11.175  0.2254  0.5990 -0.7072
   14MPD2    H2  222   0.454   3.975  10.967 -0.8950 -1.4784 -0.2782
   14MPD2    H3  223   0.277   4.146  10.969 -0.9018  1.0999  1.4317
   14MPD2     N  224   0.196   4.092  11.402 -0.0530  0.8936 -0.2756
   14MPD2    H5  225   0.132   4.171  11.396 -2.4448 -1.0691 -0.4352
   14MPD2    N1  226   0.557   3.857  11.164  0.2675 -0.7411 -0.7690
   14MPD2    H7  227   0.612   3.843  11.080  0.6169  2.7306 -1.1354
   15TCq1    O1  228   2.702   4.375   1.873 -0.5846 -0.3119  0.1287
   15TCq1    C1  229   2.683   4.320   1.750 -0.2422  0.1650  0.1667
   15TCq1    O2  230   2.750   4.340   1.650 -0.2775 -0.0276  0.2159
   15TCq1    C2  231   2.555   4.252   1.750  0.4358  0.2614  0.0208
   15TCq1    C3  232   2.446   4.289   1.829  0.4980 -0.2110 -0.4268
   15TCq1    C4  233   2.327   4.219   1.826 -0.9595  0.3320 -1.2482
   15TCq1    C5  234   2.323   4.109   1.749  0.4077 -0.0272  1.3308
   15TCq1    C6  235   2.426   4.070   1.671  0.1903 -0.3295 -1.1094
   15TCq1    C7  236   2.539   4.144   1.667  0.1621  0.5601 -0.2482
   15TCq1    C8  237   2.414   3.947   1.586 -0.6428 -0.6589 -0.6836
   15TCq1    O4  238   2.517   3.887   1.548 -0.3301 -0.4605 -0.2480
   15TCq1    C9  239   2.210   4.264   1.896  0.3553  0.0284 -0.4186
   15TCq1    O5  240   2.112   4.183   1.894  0.3991  0.8022 -0.4698
   15TCq1    O6  241   2.230   4.342   1.991 -0.5982  0.9685 -0.1491
   15TCq1    H1  242   2.637   4.340   1.938 -1.2336 -1.8730 -1.3685
   15TCq1    H2  243   2.450   4.384   1.880  0.6770  0.8635 -2.4227
   15TCq1    H3  244   2.237   4.042   1.753 -0.1514  0.6797  1.1773
   15TCq1    H4  245   2.628   4.110   1.614 -1.1201 -1.6590 -0.9600
   16MPD2     C  246   2.094   3.788   1.481 -0.2428 -0.2933  0.5370
   16MPD2    C1  247   2.231   3.803   1.493  0.4627 -0.5008  0.1233
   16MPD2    C2  248   2.315   3.703   1.438 -0.3433  0.3189 -0.3404
   16MPD2    C3  249   2.259   3.596   1.364  0.2580 -0.1799 -0.2473
   16MPD2    C4  250   2.117   3.584   1.356  1.1878 -0.6732 -0.1553
   16MPD2    C5  251   2.042   3.678   1.426 -0.1552  0.7425  0.5736
   16MPD2     H  252   2.423   3.709   1.442 -0.1073 -3.5367 -0.8781
   16MPD2    H1  253   2.066   3.509   1.296 -1.1091  0.8617 -0.1170
   16MPD2    H2  254   2.016   3.855   1.515  0.2274 -0.5677  2.1589
   16MPD2    H3  255   1.934   3.675   1.422 -0.0504  0.9431 -2.7347
   16MPD2     N  256   2.347   3.507   1.294  0.2775 -0.3241 -0.4970
   16MPD2    H5  257   2.446   3.525   1.309  0.4512 -0.2129 -1.7829
   16MPD2    N1  258   2.282   3.924   1.541 -0.2077 -0.7316  0.2353
   16MPD2    H7  259   2.210   3.992   1.565  0.0481  0.7818 -3.2089
   17TMC1    C1  260   4.658   3.350  10.686  0.3475 -0.8881 -0.0952
   17TMC1    C2  261   4.660   3.408  10.809 -0.2092 -0.0920 -0.1172
   17TMC1    C3  262   4.542   3.415  10.875  0.0161 -0.6067  0.2237
   17TMC1    C4  263   4.543   3.291  10.635 -0.4894  0.8493 -0.5799
   17TMC1    C5  264   4.433   3.291  10.715  0.1269 -0.8789 -0.1700
   17TMC1    C6  265   4.428   3.356  10.836  0.2665  0.3653  1.0078
   17TMC1     C  266   0.019   3.383  10.584  0.0268 -0.3200  0.3131
   17TMC1     O  267   4.714   3.377  10.469 -0.0349  0.6560 -0.5079
   17TMC1     H  268   0.004   3.468  10.844  0.1850 -0.8336  0.2145
   17TMC1    H1  269   4.545   3.249  10.535 -2.6666 -0.2376 -0.1720
   17TMC1    H2  270   4.341   3.347  10.900  0.4938  0.0200  1.2732
   17TMC1    C7  271   4.318   3.212  10.697  0.0464 -0.0715 -0.6077
   17TMC1    C8  272   4.544   3.517  10.981 -0.2128  0.2477  0.2592
   17TMC1    O1  273   4.249   3.181  10.791  0.5980  0.3208  0.0195
   17TMC1    O2  274   4.649   3.574  11.008 -0.5311  0.0036 -0.2856
   17TMC1    O3  275   4.360   3.118  10.609 -0.2134  0.6150  0.0124
   17TMC1    H3  276   4.388   3.162  10.526  3.1500 -0.6803  0.4570
   17TMC1    O5  277   4.419   3.573  10.995  0.1051 -0.1548 -0.2086
   17TMC1    H5  278   4.345   3.517  10.964 -0.0038 -0.9251  1.4569
   18MPD2     C  279   0.274   3.425  10.424 -0.7721 -0.3519 -1.0244
   18MPD2    C1  280   0.268   3.411  10.561  0.4221 -0.1078 -0.4921
   18MPD2    C2  281   0.385   3.411  10.629  0.0914 -0.3212  0.3560
   18MPD2    C3  282   0.510   3.430  10.566  0.6044  0.2569 -0.2912
   18MPD2    C4  283   0.513   3.446  10.430  0.7497  0.6983  0.0544
   18MPD2    C5  284   0.394   3.442  10.364 -0.1392  0.0380 -0.1771
   18MPD2     H  285   0.376   3.391  10.735 -1.5740 -1.6841 -0.0564
   18MPD2    H1  286   0.600   3.454  10.367  2.0687  1.8830  2.0431
   18MPD2    H2  287   0.183   3.420  10.365 -1.5639  0.5507  0.1187
   18MPD2    H3  288   0.397   3.451  10.256  1.5392  1.5193  0.0056
   18MPD2     N  289   0.636   3.433  10.630  0.0987 -0.2265 -0.1147
   18MPD2    H5  290   0.711   3.443  10.562 -0.1768 -1.1109 -0.5459
   18MPD2    N1  291   0.147   3.399  10.630 -0.0631 -0.5818  0.9457
   18MPD2    H7  292   0.158   3.390  10.731 -0.1534  0.5531  1.0490
   19TMC2    C1  293   2.180   4.272  14.151  0.0875  0.0943 -0.7758
   19TMC2    C2  294   2.145   4.371  14.063 -0.0615 -0.1600 -0.3851
   19TMC2    C3  295   2.016   4.397  14.049 -0.4554 -0.0711  0.7259
   19TMC2    C4  296   2.089   4.209  14.228 -0.1500  0.1716 -0.6684
   19TMC2    C5  297   1.958   4.245  14.209  0.1169 -0.1046 -0.9595
   19TMC2    C6  298   1.918   4.329  14.115 -1.0452 -0.0919  0.3200
   19TMC2     C  299   2.324   4.251  14.169  0.5704  0.5250 -0.1899
   19TMC2     O  300   2.398   4.313  14.098  1.0371 -0.5188  0.1153
   19TMC2     H  301   2.223   4.430  14.018  1.0330 -0.8474  0.5819
   19TMC2    H1  302   2.114   4.151  14.316 -1.2434  0.4448 -0.1867
   19TMC2    H2  303   1.813   4.350  14.102 -1.5863 -2.1610  1.4056
   19TMC2    C7  304   1.870   4.145  14.264 -0.3891 -1.1019  0.2169
   19TMC2    C8  305   1.985   4.470  13.926  0.0998  0.4525  0.4303
   19TMC2    O1  306   1.911   4.063  14.347  0.1540  0.2296 -0.4188
   19TMC2    O2  307   2.063   4.495  13.836  0.6815 -0.0320 -0.1382
   19TMC2    O5  308   1.867   4.524  13.919  0.2510 -0.9201  0.7774
   19TMC2    H5  309   1.830   4.554  14.005 -0.4955 -0.0665  0.1636
   20MPD2     C  310   2.595   4.170  14.264  0.0181 -0.1568  0.0791
   20MPD2    C1  311   2.478   4.112  14.310  0.0714 -0.2173 -0.0816
   20MPD2    C2  312   2.487   4.019  14.411  0.1423 -0.3795  0.0513
   20MPD2    C3  313   2.609   3.984  14.466  0.0990 -0.2870 -1.1482
   20MPD2    C4  314   2.722   4.046  14.419 -0.1543 -0.1995 -0.3802
   20MPD2    C5  315   2.712   4.137  14.322 -0.0109  0.3128  0.1382
   20MPD2     H  316   2.393   3.973  14.441 -0.2808  2.0990  2.5722
   20MPD2    H1  317   2.813   4.035  14.477 -0.5724 -0.5954  0.2106
   20MPD2    H2  318   2.592   4.261  14.204 -2.2628 -0.5615 -0.4065
   20MPD2    H3  319   2.796   4.203  14.303 -0.0890  1.2073  2.8463
   20MPD2     N  320   2.624   3.890  14.563  0.2777 -0.2286  0.1355
   20MPD2    H5  321   2.722   3.865  14.569  0.3408  0.2982  1.2002
   20MPD2    N1  322   2.353   4.153  14.262  0.0800 -0.3842 -0.3667
   20MPD2    H7  323   2.276   4.103  14.307 -1.4111  0.8528 -1.5225
   21TMC2    C1  324   3.962   4.405  14.994  0.3309 -0.3596  0.1509
   21TMC2    C2  325   3.966   4.306  15.080 -0.2844 -0.7087  0.3160
   21TMC2    C3  326   3.901   4.318  15.194 -0.0507 -0.1471  0.5432
   21TMC2    C4  327   3.899   4.524  15.018 -0.0328 -0.4390 -0.6256
   21TMC2    C5  328   3.846   4.542  15.143  0.7523  0.4042  0.7508
   21TMC2    C6  329   3.839   4.436  15.233 -0.0722  0.6411  0.7222
   21TMC2     C  330   4.033   4.387  14.870 -0.1332  0.0461  0.0144
   21TMC2     O  331   4.132   4.315  14.875 -0.3860  0.6267  0.1084
   21TMC2     H  332   4.022   4.216  15.057  0.4276 -0.2106  0.1215
   21TMC2    H1  333   3.928   4.604  14.950  0.2097 -0.0360 -0.0501
   21TMC2    H2  334   3.787   4.449  15.327 -1.6388 -1.9591  0.1977
   21TMC2    C7  335   3.769   4.669  15.164  0.1475 -0.1970  0.1697
   21TMC2    C8  336   3.925   4.213  15.289 -0.3206 -0.6787  0.1484
   21TMC2    O1  337   3.734   4.707  15.279  0.4208  0.6746 -0.3159
   21TMC2    O2  338   3.925   4.230  15.410  0.3663  0.1189 -0.4420
   21TMC2    O5  339   3.911   4.096  15.233 -0.3234 -0.3327 -0.1049
   21TMC2    H5  340   3.882   4.095  15.140  0.2393 -0.4736 -0.2825
   22MPD2     C  341   4.095   4.481  14.376 -0.2692  0.5368  0.0063
   22MPD2    C1  342   4.182   4.434  14.475 -0.5267  0.2417 -0.1033
   22MPD2    C2  343   4.134   4.418  14.601 -0.0975  0.5881 -0.4820
   22MPD2    C3  344   4.006   4.436  14.637  0.3502  0.2445 -0.5306
   22MPD2    C4  345   3.919   4.480  14.536  0.0483  0.3781  0.1928
   22MPD2    C5  346   3.961   4.488  14.409 -0.3253 -0.0010  0.2122
   22MPD2     H  347   4.206   4.393  14.678  0.0925  1.7287 -0.2954
   22MPD2    H1  348   3.821   4.513  14.568  0.2641 -1.3309  2.6654
   22MPD2    H2  349   4.117   4.506  14.273 -1.8312  0.7822 -0.2759
   22MPD2    H3  350   3.887   4.510  14.333 -0.2369  0.8726  0.3789
   22MPD2     N  351   3.963   4.445  14.768 -0.6500  0.4172 -0.3605
   22MPD2    H5  352   3.869   4.481  14.779 -0.9136 -0.1742 -0.6833
   22MPD2    N1  353   4.319   4.427  14.456  0.3769 -0.7026 -0.3220
   22MPD2    H7  354   4.382   4.432  14.536 -1.4562  1.2462  0.9877
   23TMC2    C1  355   0.620   1.168  14.925 -0.0960 -0.1847 -0.6300
   23TMC2    C2  356   0.608   1.293  14.880  0.4685 -0.3399 -0.2075
   23TMC2    C3  357   0.486   1.320  14.818  0.4150  0.2858 -0.3075
   23TMC2    C4  358   0.523   1.077  14.917 -0.3300 -0.7406  0.5544
   23TMC2    C5  359   0.403   1.107  14.861  1.2397 -0.2083 -0.3137
   23TMC2    C6  360   0.385   1.231  14.814 -0.1073 -0.3131 -0.5107
   23TMC2     C  361   0.721   1.137  15.025 -0.4834 -0.9001  0.3217
   23TMC2     O  362   0.689   1.052  15.105 -0.1543  0.1932 -0.4623
   23TMC2     H  363   0.685   1.368  14.889 -1.1096  1.2500  0.1567
   23TMC2    H1  364   0.534   0.973  14.943  0.8558 -0.9356 -0.7498
   23TMC2    H2  365   0.299   1.258  14.753 -0.2125 -0.2863 -0.3516
   23TMC2    C7  366   0.314   0.995  14.823 -0.2754  0.2795  0.2743
   23TMC2    C8  367   0.479   1.430  14.728  0.1251 -0.0964 -0.3037
   23TMC2    O1  368   0.365   0.884  14.833 -0.3386 -0.6372  0.2902
   23TMC2    O2  369   0.373   1.463  14.685  0.0124 -0.0356 -0.3861
   23TMC2    O5  370   0.594   1.438  14.659  0.0377  0.5001  0.1938
   23TMC2    H5  371   0.649   1.360  14.681  0.9312  1.5942  1.8583
   24MPD2     C  372   1.177   1.214  15.242  0.6286  0.1483 -1.0167
   24MPD2    C1  373   1.076   1.139  15.295  0.4086 -0.2260 -0.9007
   24MPD2    C2  374   0.960   1.137  15.222 -0.2410 -0.0051 -0.5008
   24MPD2    C3  375   0.945   1.217  15.104 -0.2507  0.0359  0.1144
   24MPD2    C4  376   1.047   1.300  15.067  0.2789  0.5794  0.3764
   24MPD2    C5  377   1.168   1.295  15.136 -0.7609  0.2606 -0.7543
   24MPD2     H  378   0.881   1.068  15.249  0.2264  0.2574  1.5359
   24MPD2    H1  379   1.039   1.373  14.987 -2.3756 -1.0446 -0.8265
   24MPD2    H2  380   1.274   1.212  15.290 -0.6211  0.9118  1.5284
   24MPD2    H3  381   1.255   1.349  15.097 -1.9806  1.2710 -2.0828
   24MPD2     N  382   0.828   1.228  15.022  0.0390 -0.1947  0.0699
   24MPD2    H5  383   0.831   1.298  14.949  1.6196 -0.4154 -0.0725
   24MPD2    N1  384   1.097   1.052  15.400 -0.5311 -0.3052  0.8628
   24MPD2    H7  385   1.024   0.983  15.416 -1.7343  0.7847  0.1045
   25TMC2    C1  386   4.727   3.010  11.514  0.0222  0.1245  0.1395
   25TMC2    C2  387   0.058   3.129  11.525  0.8340  0.1521 -0.6586
   25TMC2    C3  388   0.072   3.181  11.649  0.2235  0.1897  0.3798
   25TMC2    C4  389   4.671   2.940  11.624 -0.6315  0.6158  0.2597
   25TMC2    C5  390   4.701   2.999  11.746  0.4749 -0.3156 -0.3484
   25TMC2    C6  391   0.041   3.110  11.761 -0.2035 -0.8767  0.7794
   25TMC2     C  392   4.727   2.952  11.382  0.3558 -0.0132 -0.0910
   25TMC2     O  393   0.047   3.015  11.298  0.4103  0.1205 -0.1073
   25TMC2     H  394   0.085   3.186  11.436 -1.1352  2.4397  0.2132
   25TMC2    H1  395   4.622   2.846  11.605 -1.0443  0.9252 -0.2234
   25TMC2    H2  396   0.045   3.170  11.851 -1.2830  0.4522 -0.0538
   25TMC2    C7  397   4.662   2.937  11.874 -0.0975  0.1198  0.2905
   25TMC2    C8  398   0.065   3.327  11.666  0.1711  0.3883 -0.0820
   25TMC2    O1  399   4.723   2.973  11.977  0.0227 -0.1994  0.2754
   25TMC2    O2  400   4.729   3.380  11.744 -0.1556  0.3067 -0.2262
   25TMC2    O5  401   0.135   3.380  11.570  0.3917 -0.2812 -0.2212
   25TMC2    H5  402   0.210   3.321  11.548  0.5657 -0.3400  0.5616
   26MPD2     C  403   4.707   2.576  11.028 -0.4966  0.2640 -0.1886
   26MPD2    C1  404   4.669   2.519  11.150 -0.1244 -0.2101 -0.2595
   26MPD2    C2  405   4.657   2.606  11.261 -0.9722  0.4904 -0.3629
   26MPD2    C3  406   4.690   2.742  11.254 -0.0137  0.3844  0.3211
   26MPD2    C4  407   4.729   2.790  11.133  0.0056 -0.2231 -0.0684
   26MPD2    C5  408   4.728   2.707  11.020 -0.4777  0.2200 -0.6448
   26MPD2     H  409   4.622   2.560  11.353 -0.5847  1.2106  0.1379
   26MPD2    H1  410   0.015   2.894  11.118 -0.8258 -0.0334 -0.1980
   26MPD2    H2  411   4.714   2.512  10.941 -0.6752 -0.1210  0.0814
   26MPD2    H3  412   0.009   2.743  10.920  0.3722  4.0816  0.9583
   26MPD2     N  413   4.686   2.819  11.371 -0.0472  0.5981 -0.3857
   26MPD2    H5  414   4.639   2.773  11.448  1.3849 -0.7388 -0.3115
   26MPD2    N1  415   4.650   2.381  11.137  0.7504 -0.1965 -0.3026
   26MPD2    H7  416   4.682   2.337  11.051 -1.5649  0.9695 -1.7633
   27TMC2    C1  417   3.893   0.466  12.394  1.2169  0.3685 -0.2673
   27TMC2    C2  418   3.833   0.547  12.307  0.0925  0.2359  0.5386
   27TMC2    C3  419   3.897   0.670  12.287 -0.7003  0.3538  0.1686
   27TMC2    C4  420   4.012   0.501  12.457  0.3230  0.5900 -0.2598
   27TMC2    C5  421   4.056   0.628  12.439  0.4566  0.4215  0.3228
   27TMC2    C6  422   3.997   0.716  12.357 -0.0128 -0.0110  0.3159
   27TMC2     C  423   3.815   0.354  12.445 -0.0564 -0.0870  0.6397
   27TMC2     O  424   3.882   0.275  12.510  0.1517  0.3241  0.0618
   27TMC2     H  425   3.751   0.509  12.246  0.7731 -1.4714  0.6846
   27TMC2    H1  426   4.069   0.428  12.514  0.1326  0.4207 -0.2883
   27TMC2    H2  427   4.024   0.822  12.358 -2.1249  0.5217 -0.0256
   27TMC2    C7  428   4.120   0.694  12.550  0.0794 -0.3648  0.0853
   27TMC2    C8  429   3.847   0.762  12.182 -0.3440  0.5010  0.5312
   27TMC2    O1  430   4.156   0.810  12.533 -0.2218  0.1657 -0.5151
   27TMC2    O2  431   3.772   0.714  12.096  0.1727 -0.2589 -0.0691
   27TMC2    O5  432   3.813   0.876  12.243  0.4864 -0.2155  0.0257
   27TMC2    H5  433   3.832   0.882  12.339  2.5015 -2.9512 -0.2019
   28MPD2     C  434   3.404   0.066  12.495 -0.6875  0.5215  0.1673
   28MPD2    C1  435   3.360   0.195  12.479 -0.4120 -0.1183 -0.9179
   28MPD2    C2  436   3.454   0.293  12.451 -0.3843 -0.3996  0.6878
   28MPD2    C3  437   3.590   0.267  12.440 -0.5236  0.1269  1.1783
   28MPD2    C4  438   3.628   0.137  12.436 -0.1550  0.2242  0.0171
   28MPD2    C5  439   3.538   0.039  12.468  0.3543 -0.4748 -1.0249
   28MPD2     H  440   3.434   0.400  12.452  0.2458 -0.2812  0.9567
   28MPD2    H1  441   3.729   0.100  12.425 -0.4590 -0.3686 -0.7837
   28MPD2    H2  442   3.355   4.717  12.533 -0.2642 -0.4787 -1.6232
   28MPD2    H3  443   3.573   4.676  12.474 -1.9143 -1.0965  1.7781
   28MPD2     N  444   3.680   0.370  12.427  0.0386  0.2475  0.7249
   28MPD2    H5  445   3.655   0.467  12.412  0.7240  0.8240  3.1701
   28MPD2    N1  446   3.227   0.214  12.514 -1.1195 -0.5058  0.4589
   28MPD2    H7  447   3.178   0.126  12.531 -1.5815 -1.0322 -3.6361
   29TMC2    C1  448   3.214   2.768  14.400 -0.3276  0.5209  0.8602
   29TMC2    C2  449   3.098   2.818  14.444 -0.0235 -0.2433  0.3705
   29TMC2    C3  450   3.084   2.953  14.448 -0.2202  0.4424  0.3304
   29TMC2    C4  451   3.318   2.841  14.354 -0.2886 -0.0534  0.4283
   29TMC2    C5  452   3.300   2.973  14.348  0.3946 -0.1527  0.6884
   29TMC2    C6  453   3.182   3.037  14.394  0.2771  0.0412 -0.1342
   29TMC2     C  454   3.190   2.636  14.346  0.6254  0.3829  0.3907
   29TMC2     O  455   3.249   2.548  14.409 -0.1317 -0.3167 -0.0802
   29TMC2     H  456   3.018   2.755  14.480 -0.0051  0.5830  1.8459
   29TMC2    H1  457   3.412   2.789  14.338  0.1075  0.2948  1.6101
   29TMC2    H2  458   3.169   3.143  14.381  0.8967 -0.0459 -1.4856
   29TMC2    C7  459   3.422   3.051  14.339  0.6454 -0.1321 -0.3520
   29TMC2    C8  460   2.962   3.016  14.489  0.4639 -0.6133 -0.0753
   29TMC2    O1  461   3.500   3.018  14.250  0.3696  0.0546  0.0925
   29TMC2    O2  462   2.865   2.945  14.506 -1.0671 -0.1333  0.2641
   29TMC2    O5  463   2.965   3.152  14.504 -0.2526  0.6215 -0.2357
   29TMC2    H5  464   3.052   3.194  14.518 -0.9033  1.2247  2.0472
   30MPD2     C  465   2.913   2.282  14.116  0.1669 -0.4939  0.2257
   30MPD2    C1  466   2.984   2.275  14.233  0.4332 -0.2956  0.0146
   30MPD2    C2  467   3.039   2.391  14.282 -0.2842 -0.2318  0.0121
   30MPD2    C3  468   3.034   2.506  14.201 -0.1723 -0.1447 -0.6765
   30MPD2    C4  469   2.958   2.506  14.092  0.2603  0.4070 -0.1439
   30MPD2    C5  470   2.904   2.392  14.040 -0.2122 -0.1399  0.8497
   30MPD2     H  471   3.081   2.379  14.381 -0.5144  1.1226  0.2714
   30MPD2    H1  472   2.961   2.601  14.039 -1.3768  0.4642 -0.1219
   30MPD2    H2  473   2.855   2.196  14.083 -1.8290  2.4065 -3.7488
   30MPD2    H3  474   2.852   2.398  13.945 -1.6192 -2.8122  1.4439
   30MPD2     N  475   3.092   2.630  14.254 -0.0744 -0.1118 -0.4152
   30MPD2    H5  476   3.051   2.718  14.223 -0.2953 -0.0228  0.1397
   30MPD2    N1  477   3.005   2.161  14.318  0.5265 -0.7091  0.1196
   30MPD2    H7  478   3.052   2.180  14.406 -0.5081  3.6792 -0.2924
   31TMC2    C1  479   0.818   1.370  15.513 -0.8322  0.1246  0.5978
   31TMC2    C2  480   0.678   1.377  15.506  0.1464 -0.1465 -0.3181
   31TMC2    C3  481   0.605   1.318  15.605  0.1369  0.2579  0.1918
   31TMC2    C4  482   0.885   1.279  15.587  0.7919 -0.3456 -0.9817
   31TMC2    C5  483   0.799   1.213  15.676 -0.5961  0.1032 -0.6047
   31TMC2    C6  484   0.658   1.230  15.689  0.6351  0.3896  0.1397
   31TMC2     C  485   0.874   1.444  15.399 -0.1360 -0.2336 -0.6398
   31TMC2     O  486   0.804   1.454  15.300  0.3191 -0.0820  0.4112
   31TMC2     H  487   0.637   1.461  15.451 -1.6132 -1.8548 -1.6042
   31TMC2    H1  488   0.990   1.253  15.590  0.8174 -0.2510 -1.0706
   31TMC2    H2  489   0.588   1.179  15.753  1.7781 -3.7607 -1.8958
   31TMC2    C7  490   0.865   1.144  15.790 -0.1064  0.2863 -0.5901
   31TMC2    C8  491   0.463   1.314  15.591  0.1114  0.2569 -0.1282
   31TMC2    O1  492   0.990   1.133  15.805 -0.0927  0.1284  0.5285
   31TMC2    O2  493   0.403   1.333  15.699  0.5299 -0.3025  0.1540
   31TMC2    O5  494   0.439   1.206  15.515  0.2978 -0.4036  0.3974
   31TMC2    H5  495   0.506   1.175  15.450 -1.1051  2.3673 -2.3808
   32MPD2     C  496   1.162   1.837  15.223  0.6227 -0.3149 -0.4490
   32MPD2    C1  497   1.070   1.760  15.155 -0.4278 -0.3305  0.3551
   32MPD2    C2  498   1.014   1.643  15.216  0.2775  0.0024  0.3480
   32MPD2    C3  499   1.026   1.628  15.352 -0.2654  0.3963 -1.0625
   32MPD2    C4  500   1.130   1.707  15.412 -0.5911  0.1724  0.0735
   32MPD2    C5  501   1.193   1.810  15.351  0.8208 -0.3971  0.6102
   32MPD2     H  502   0.949   1.582  15.155 -3.0349  4.7292 -0.7616
   32MPD2    H1  503   1.156   1.701  15.517  1.1179 -2.6102 -0.5238
   32MPD2    H2  504   1.206   1.917  15.165  0.4104 -1.1469 -1.7532
   32MPD2    H3  505   1.273   1.859  15.404 -0.5767  1.9170  0.5595
   32MPD2     N  506   0.978   1.523  15.442  0.0035  0.6951 -0.0333
   32MPD2    H5  507   1.019   1.513  15.534 -0.6838 -0.8488  0.1032
   32MPD2    N1  508   1.051   1.792  15.015 -0.6635 -0.0546  0.2877
   32MPD2    H7  509   1.115   1.862  14.979  0.4103 -0.0634  2.1666
   33TMC2    C1  510   1.659   4.023  10.940 -0.0777 -0.1377 -0.4705
   33TMC2    C2  511   1.686   4.045  11.073  0.7531 -0.2972  0.1655
   33TMC2    C3  512   1.797   4.111  11.108 -0.0997 -0.3130 -0.0729
   33TMC2    C4  513   1.748   4.075  10.846 -0.8434  0.1447 -0.4196
   33TMC2    C5  514   1.850   4.160  10.891 -0.2017 -0.2843 -0.1773
   33TMC2    C6  515   1.886   4.171  11.021  0.1508  0.3166  0.0618
   33TMC2     C  516   1.568   3.916  10.899  0.1508 -0.3174  0.5605
   33TMC2     O  517   1.514   3.862  10.992 -0.4626  0.4532  0.4558
   33TMC2     H  518   1.620   3.997  11.143  1.0777  0.5582  1.0581
   33TMC2    H1  519   1.739   4.057  10.740 -3.3930  0.9320 -0.3404
   33TMC2    H2  520   1.961   4.241  11.057  0.2790 -0.9059  2.1438
   33TMC2    C7  521   1.938   4.226  10.794  0.7440  0.1796  0.3339
   33TMC2    C8  522   1.801   4.157  11.247 -0.5076 -0.3085  0.2785
   33TMC2    O1  523   2.057   4.233  10.824  0.3746  0.4989 -0.2373
   33TMC2    O2  524   1.871   4.254  11.275  0.1868 -0.5788  0.3155
   33TMC2    O5  525   1.793   4.050  11.332 -0.3400 -0.2102  0.0945
   33TMC2    H5  526   1.724   3.986  11.304 -0.0155  0.0765 -1.3445
   34MPD2     C  527   1.348   3.585  10.565 -0.4244  0.1090  0.2090
   34MPD2    C1  528   1.320   3.613  10.697 -0.8407 -0.5522  0.9980
   34MPD2    C2  529   1.383   3.711  10.765 -0.4861 -0.7093 -0.4231
   34MPD2    C3  530   1.478   3.789  10.704 -0.0640  0.5658 -0.4521
   34MPD2    C4  531   1.505   3.758  10.568  0.1427 -0.5099  0.0112
   34MPD2    C5  532   1.450   3.651  10.503  0.1332 -0.7618  0.4066
   34MPD2     H  533   1.355   3.733  10.868  0.4952  0.5821 -0.4404
   34MPD2    H1  534   1.583   3.815  10.520 -0.5317 -1.2632 -1.9596
   34MPD2    H2  535   1.297   3.518  10.496  1.3560  0.5467 -1.5340
   34MPD2    H3  536   1.476   3.631  10.400 -0.0195 -0.1507  0.2445
   34MPD2     N  537   1.568   3.882  10.767  0.0717 -0.4622  0.0923
   34MPD2    H5  538   1.630   3.932  10.704 -0.3737  1.4096  1.1185
   34MPD2    N1  539   1.209   3.556  10.765 -0.8480 -0.0843  0.2111
   34MPD2    H7  540   1.177   3.599  10.851 -0.7526  0.7155 -0.1591
   35TMC2    C1  541   1.541   0.069  11.489  0.8190  0.4418  0.2606
   35TMC2    C2  542   1.608   0.010  11.382 -0.4392 -0.2125 -0.2171
   35TMC2    C3  543   1.589   4.609  11.354  0.5261  0.3717  0.6343
   35TMC2    C4  544   1.458   4.740  11.570 -0.5235  0.0738 -0.2259
   35TMC2    C5  545   1.427   4.614  11.531  0.2120 -0.0319  0.6162
   35TMC2    C6  546   1.499   4.544  11.433 -0.3007  0.0385 -0.3091
   35TMC2     C  547   1.574   0.203  11.522  0.5703  0.2973 -0.4455
   35TMC2     O  548   1.484   0.276  11.549  0.5180  0.4014 -0.3276
   35TMC2     H  549   1.654   0.075  11.310  0.0836 -0.3861 -0.0433
   35TMC2    H1  550   1.402   0.063  11.639 -1.5853  0.3590 -1.3427
   35TMC2    H2  551   1.481   4.437  11.426  0.6403 -0.1182 -0.2647
   35TMC2    C7  552   1.373   4.532  11.648 -0.3130  0.1566  0.8115
   35TMC2    C8  553   1.614   4.546  11.227  0.2541 -0.4642 -0.0539
   35TMC2    O1  554   1.373   4.588  11.757 -0.1269  0.1266  0.0046
   35TMC2    O2  555   1.535   4.464  11.176 -0.2065 -0.2220  0.0280
   35TMC2    O5  556   1.712   4.609  11.161  0.1478  0.3867 -0.1291
   35TMC2    H5  557   1.772   4.652  11.226 -1.2683  0.2740  1.2626
   36MPD2     C  558   1.887   0.618  11.539  0.2379 -0.0911  0.3244
   36MPD2    C1  559   1.971   0.500  11.540  0.4735  0.0890 -0.0636
   36MPD2    C2  560   1.911   0.372  11.520  0.3962 -0.0247  0.0332
   36MPD2    C3  561   1.771   0.363  11.507 -0.2157  0.0635  0.6220
   36MPD2    C4  562   1.704   0.476  11.539  0.4505  0.0319  0.2600
   36MPD2    C5  563   1.756   0.601  11.546 -0.1045 -0.0032  0.4039
   36MPD2     H  564   1.966   0.279  11.508  2.1843  1.0282  0.1305
   36MPD2    H1  565   1.596   0.470  11.552  0.2930 -0.3906 -1.2163
   36MPD2    H2  566   1.926   0.717  11.558 -1.4463  0.5825  0.2837
   36MPD2    H3  567   1.688   0.684  11.549 -1.2138 -0.8393 -1.4777
   36MPD2     N  568   1.708   0.237  11.496 -0.1334  0.4379  0.4486
   36MPD2    H5  569   1.763   0.157  11.468  0.6717  1.1831 -0.1259
   36MPD2    N1  570   2.107   0.519  11.574  0.3730 -0.6088  0.2337
   36MPD2    H7  571   2.148   0.611  11.587 -0.6449  0.0947 -1.4777
   37TMC2    C1  572   4.652   0.172  12.185  0.1850 -0.0883  0.5423
   37TMC2    C2  573   4.567   0.062  12.168 -0.0457 -0.1773 -0.4418
   37TMC2    C3  574   4.614   4.696  12.105 -0.1684 -0.3188  0.0210
   37TMC2    C4  575   0.043   0.165  12.156  0.5820 -0.1400 -0.1345
   37TMC2    C5  576   0.087   0.053  12.090  0.2685 -0.1365 -0.0188
   37TMC2    C6  577   0.004   4.688  12.055 -0.1521  0.0264  0.0259
   37TMC2     C  578   4.603   0.266  12.283 -0.6382 -0.2109 -0.1137
   37TMC2     O  579   4.482   0.289  12.278 -0.1321 -1.2057 -0.7169
   37TMC2     H  580   4.465   0.076  12.201  0.3074 -0.7887  0.8952
   37TMC2    H1  581   0.100   0.255  12.179 -0.3636  0.7488 -1.2436
   37TMC2    H2  582   0.041   4.589  12.029  0.9150  0.3571  0.3225
   37TMC2    C7  583   0.227   0.058  12.046 -0.3078  0.0245  0.2693
   37TMC2    C8  584   4.539   4.574  12.098  0.6111  0.9018 -0.4492
   37TMC2    O1  585   0.281   0.169  12.053 -0.1092  0.4945 -0.2041
   37TMC2    O2  586   4.571   4.481  12.026  0.2885  0.4130  0.5168
   37TMC2    O5  587   4.492   4.558  12.221 -0.3013 -0.0639  0.1431
   37TMC2    H5  588   4.527   4.626  12.283  1.8841  0.4109 -1.5901
   38MPD2     C  589   4.668   0.593  12.675  0.0647 -0.3086  0.2525
   38MPD2    C1  590   0.026   0.491  12.685  0.4450  0.4756 -0.7121
   38MPD2    C2  591   0.035   0.402  12.583  0.2960  0.6439  0.7892
   38MPD2    C3  592   4.679   0.394  12.480  0.5887 -0.2664 -0.1056
   38MPD2    C4  593   4.569   0.481  12.479  1.1194 -0.2852 -0.5296
   38MPD2    C5  594   4.573   0.582  12.575 -0.8138  0.0960  0.5849
   38MPD2     H  595   0.107   0.322  12.593 -0.6879 -0.3226  0.2739
   38MPD2    H1  596   4.486   0.485  12.409  2.4788 -0.0544 -2.1430
   38MPD2    H2  597   4.657   0.669  12.751  2.2780  0.2712  0.0087
   38MPD2    H3  598   4.499   0.661  12.567 -0.4799  0.1724 -1.6196
   38MPD2     N  599   4.694   0.295  12.381  0.0795 -0.4001  0.1521
   38MPD2    H5  600   0.031   0.230  12.388  0.0779 -0.5683 -1.3898
   38MPD2    N1  601   0.132   0.483  12.775 -0.9386  0.4914 -0.0059
   38MPD2    H7  602   0.208   0.420  12.751  0.6160  2.7582 -0.9601
   39TMC2    C1  603   2.962   2.204   1.269 -0.3923  0.1068 -0.8078
   39TMC2    C2  604   2.920   2.100   1.353 -0.1368 -1.0136  0.7933
   39TMC2    C3  605   3.023   2.032   1.411  0.4059  0.2302 -0.2729
   39TMC2    C4  606   3.097   2.234   1.242 -0.5403  0.8969  0.4717
   39TMC2    C5  607   3.191   2.149   1.299  0.2262  0.1790 -0.1576
   39TMC2    C6  608   3.154   2.052   1.389  0.6078  0.1752  0.1257
   39TMC2     C  609   2.861   2.299   1.231 -0.2435  0.2350 -0.3834
   39TMC2     O  610   2.749   2.249   1.233 -0.4235  0.5584  0.0728
   39TMC2     H  611   2.816   2.096   1.383  0.0745 -1.9148  1.3996
   39TMC2    H1  612   3.118   2.309   1.166  0.6896 -0.2985 -0.3727
   39TMC2    H2  613   3.231   1.993   1.438 -0.2444 -1.0574 -0.0271
   39TMC2    C7  614   3.332   2.167   1.280  0.8981 -0.1640  0.1335
   39TMC2    C8  615   2.995   1.973   1.545  0.5275  0.6876 -0.0761
   39TMC2    O1  616   3.406   2.073   1.307  0.0228 -0.2459 -0.2722
   39TMC2    O2  617   3.067   1.973   1.648 -0.0063 -0.6691  0.6015
   39TMC2    O5  618   2.871   1.921   1.539  0.3143 -0.2188  0.5741
   39TMC2    H5  619   2.832   1.921   1.449 -0.6001  0.2999  0.9741
   40MPD2     C  620   2.877   2.616   1.057  0.3188  0.6809 -0.3826
   40MPD2    C1  621   2.823   2.517   1.134  0.2038 -0.4205  0.2450
   40MPD2    C2  622   2.683   2.518   1.144 -0.2113 -0.2496 -0.4034
   40MPD2    C3  623   2.606   2.615   1.076 -0.0508  0.2055  0.0576
   40MPD2    C4  624   2.669   2.714   0.997 -0.7334  0.5097 -0.1275
   40MPD2    C5  625   2.803   2.717   1.006 -0.3059 -0.2096  0.4914
   40MPD2     H  626   2.630   2.439   1.196 -0.0124 -0.0221  0.1465
   40MPD2    H1  627   2.622   2.795   0.942 -1.4838 -0.9267 -1.6053
   40MPD2    H2  628   2.985   2.609   1.047  0.3087  1.2993 -0.8737
   40MPD2    H3  629   2.860   2.794   0.956 -0.3990  0.3157  1.1881
   40MPD2     N  630   2.465   2.624   1.088 -0.7308  0.7140 -0.1557
   40MPD2    H5  631   2.413   2.701   1.047  0.7713  0.8844 -1.7390
   40MPD2    N1  632   2.905   2.422   1.186 -0.7197 -0.7622  0.1728
   40MPD2    H7  633   3.001   2.453   1.193 -0.8520 -0.4776  0.7119
   41TMC2    C1  634   1.295   1.143  13.706  0.2082  0.5503 -0.7202
   41TMC2    C2  635   1.194   1.137  13.791  0.2540  0.1411 -0.0034
   41TMC2    C3  636   1.070   1.162  13.741 -0.0423  0.1428  0.3017
   41TMC2    C4  637   1.278   1.182  13.574  0.2502 -0.7386 -0.0270
   41TMC2    C5  638   1.157   1.211  13.532 -0.0528 -0.5360 -0.1703
   41TMC2    C6  639   1.043   1.189  13.610  0.0541  0.0422 -0.2172
   41TMC2     C  640   1.434   1.113  13.748 -0.0641  0.0024 -0.1612
   41TMC2     O  641   1.527   1.136  13.673  0.3031  0.7232 -0.6735
   41TMC2     H  642   1.214   1.130  13.897 -0.8722  1.7556  0.3136
   41TMC2    H1  643   1.372   1.196  13.521 -0.4915  2.5863 -0.4630
   41TMC2    H2  644   0.949   1.180  13.556 -0.5241 -1.2396  0.9870
   41TMC2    C7  645   1.137   1.267  13.399 -0.5922 -0.4343 -1.2257
   41TMC2    C8  646   0.957   1.146  13.828 -0.4919  0.7255  0.3233
   41TMC2    O1  647   1.040   1.334  13.372  0.1355 -0.4622 -0.1112
   41TMC2    O2  648   0.962   1.087  13.937 -0.0091 -0.5412 -0.6778
   41TMC2    O5  649   0.854   1.208  13.776  0.0710  0.0445 -0.3725
   41TMC2    H5  650   0.875   1.245  13.687  0.2227 -0.0944 -0.3939
   42MPD2     C  651   1.684   1.054  13.907 -0.9095 -0.0864 -0.0903
   42MPD2    C1  652   1.558   1.034  13.951 -0.6946  0.2337  0.6793
   42MPD2    C2  653   1.536   0.986  14.077 -0.0217 -0.2807 -0.1073
   42MPD2    C3  654   1.643   0.969  14.161 -0.1878 -0.1229 -0.2667
   42MPD2    C4  655   1.770   0.994  14.121  0.7492  0.1407 -0.0345
   42MPD2    C5  656   1.791   1.037  13.994  0.2932 -0.5989  0.2391
   42MPD2     H  657   1.434   0.965  14.111  0.3841  0.7903  1.7842
   42MPD2    H1  658   1.853   0.992  14.191 -0.8662  2.4847  1.9640
   42MPD2    H2  659   1.709   1.069  13.802  0.2371 -0.0755  0.1870
   42MPD2    H3  660   1.887   1.051  13.945  1.5098 -2.0420  2.2442
   42MPD2     N  661   1.630   0.926  14.297 -0.1830 -0.1237  0.4238
   42MPD2    H5  662   1.717   0.928  14.349  0.7195 -0.3330 -1.0991
   42MPD2    N1  663   1.438   1.063  13.877 -0.1555  0.2989  0.5497
   42MPD2    H7  664   1.350   1.032  13.918 -0.4775  1.6762  0.8915
   43TMC2    C1  665   2.790   3.982   0.616 -1.0752 -0.1015  0.0412
   43TMC2    C2  666   2.664   3.950   0.648 -0.1281  0.3727  0.2217
   43TMC2    C3  667   2.601   4.029   0.739 -0.1278  0.2678  0.5211
   43TMC2    C4  668   2.861   4.085   0.666 -0.5007  0.2310 -0.6168
   43TMC2    C5  669   2.796   4.167   0.758  0.2070  0.2017 -0.4085
   43TMC2    C6  670   2.669   4.136   0.793  0.2574 -0.7443 -0.2478
   43TMC2     C  671   2.863   3.905   0.516  0.0882  0.1200 -0.2325
   43TMC2     O  672   2.980   3.877   0.538 -0.1942 -0.6903 -0.4483
   43TMC2     H  673   2.611   3.867   0.603  0.5498  0.0490  0.0302
   43TMC2    H1  674   2.965   4.101   0.639 -0.7319 -0.9288 -2.2225
   43TMC2    H2  675   2.612   4.194   0.865 -0.3091  0.4514 -1.6706
   43TMC2    C7  676   2.877   4.278   0.809 -0.0701  0.0043  0.0524
   43TMC2    C8  677   2.449   4.018   0.748  0.3160 -0.4590 -0.4375
   43TMC2    O1  678   2.980   4.306   0.752 -0.5833 -0.5876 -0.5021
   43TMC2    O2  679   2.388   3.969   0.658 -0.0592 -0.0866  0.2274
   43TMC2    O5  680   2.412   4.025   0.874 -0.5893  0.0683  0.2688
   43TMC2    H5  681   2.489   4.036   0.934  0.0708  1.2946 -0.8141
   44MPD2     C  682   2.922   3.643   0.078 -0.5681  0.3909 -1.0990
   44MPD2    C1  683   3.013   3.674   0.184 -0.0236 -0.2214 -0.8505
   44MPD2    C2  684   2.966   3.744   0.292 -0.3854 -0.8221 -0.4833
   44MPD2    C3  685   2.834   3.789   0.303 -0.2766 -0.0726 -0.7019
   44MPD2    C4  686   2.741   3.748   0.206  0.1704 -0.0041 -0.1960
   44MPD2    C5  687   2.790   3.686   0.095  0.3462  0.6631 -0.1586
   44MPD2     H  688   3.042   3.759   0.367  0.7393 -2.2985 -1.3149
   44MPD2    H1  689   2.635   3.767   0.197  0.1991 -0.0356 -0.5945
   44MPD2    H2  690   2.956   3.596  17.744 -0.3780 -1.7359  0.0596
   44MPD2    H3  691   2.714   3.648   0.028  1.1754  1.6200 -1.6324
   44MPD2     N  692   2.784   3.866   0.414 -0.0897 -0.2903 -0.5522
   44MPD2    H5  693   2.684   3.870   0.428  0.2814  0.5043  1.9333
   44MPD2    N1  694   3.148   3.631   0.182  0.3874  0.8004 -0.0444
   44MPD2    H7  695   3.208   3.667   0.256  1.2916  0.7994 -0.7839
   45TMC2    C1  696   0.212   0.279  10.150  0.2563  0.1513 -0.5092
   45TMC2    C2  697   0.264   0.229  10.028  0.7891 -0.1460  0.3663
   45TMC2    C3  698   0.278   0.315   9.926  0.3947  0.3175 -0.5463
   45TMC2    C4  699   0.185   0.410  10.176  0.3565 -0.5624  0.7375
   45TMC2    C5  700   0.201   0.489  10.065  0.7387 -0.9512  0.2357
   45TMC2    C6  701   0.262   0.444   9.952  0.1358  0.0743  0.0468
   45TMC2     C  702   0.178   0.185  10.252  0.8730  0.2616 -0.3221
   45TMC2     O  703   0.183   0.212  10.373  0.9738  0.2838 -0.4914
   45TMC2     H  704   0.285   0.124  10.011  0.2674 -0.4590  1.6873
   45TMC2    H1  705   0.145   0.450  10.269 -2.8256 -1.9021 -0.0742
   45TMC2    H2  706   0.289   0.514   9.873 -1.5123  0.6717  0.0088
   45TMC2    C7  707   0.191   0.631  10.086 -0.4600  0.4317 -0.3302
   45TMC2    C8  708   0.384   0.278   9.830 -0.2047 -0.5076 -1.2204
   45TMC2    O1  709   0.164   0.677  10.198 -0.4136  0.2614 -0.3106
   45TMC2    O2  710   0.439   0.167   9.843 -0.6196 -0.3045 -0.1506
   45TMC2    O5  711   0.351   0.337   9.717  0.3209  0.3850 -0.6208
   45TMC2    H5  712   0.277   0.402   9.726 -0.0363 -0.1659  0.3514
   46MPD2     C  713   4.733   4.723  10.396 -0.6230  0.8258  0.1413
   46MPD2    C1  714   0.025   4.722  10.261  0.2540  0.7497 -0.2269
   46MPD2    C2  715   4.702   4.627  10.184 -0.5934 -0.0553  0.2751
   46MPD2    C3  716   4.607   4.540  10.234  0.3875  0.4456 -0.0686
   46MPD2    C4  717   4.577   4.549  10.368  0.1248 -0.7328 -0.1168
   46MPD2    C5  718   4.650   4.633  10.451 -0.2342  0.2731 -0.4801
   46MPD2     H  719   4.721   4.626  10.077 -0.3002  2.1384  0.3215
   46MPD2    H1  720   4.495   4.495  10.414 -0.8297 -0.8847 -2.0041
   46MPD2    H2  721   0.035   0.051  10.469  1.9748 -0.0327 -0.5510
   46MPD2    H3  722   4.626   4.640  10.556  1.4659  0.5687 -0.0997
   46MPD2     N  723   4.530   4.463  10.150 -0.2302  0.6932  1.0958
   46MPD2    H5  724   4.548   4.468  10.050 -1.1024 -3.3586  0.7099
   46MPD2    N1  725   0.101   0.089  10.191 -0.0537  0.1201 -1.1334
   46MPD2    H7  726   0.102   0.092  10.090 -2.9013  0.6137 -1.1292
   47TMC2    C1  727   1.837   1.040   9.305  0.0022 -0.0447 -0.4125
   47TMC2    C2  728   1.787   0.990   9.187  0.3196 -0.7547 -0.2167
   47TMC2    C3  729   1.683   1.054   9.124  1.5817  0.2901 -0.0689
   47TMC2    C4  730   1.779   1.148   9.370  0.3986 -0.5512 -0.7676
   47TMC2    C5  731   1.673   1.205   9.305  0.0554 -0.0223 -0.5496
   47TMC2    C6  732   1.623   1.158   9.185 -0.2307  0.1893 -0.2675
   47TMC2     C  733   1.970   0.995   9.346 -0.3606 -0.3393 -0.2974
   47TMC2     O  734   2.020   0.898   9.292 -0.4065 -0.1456 -0.5799
   47TMC2     H  735   1.853   0.929   9.125  0.9163 -1.3230  0.9895
   47TMC2    H1  736   1.827   1.182   9.461  2.2261 -0.3342 -1.8018
   47TMC2    H2  737   1.534   1.205   9.146 -1.5110 -1.7569  0.3198
   47TMC2    C7  738   1.598   1.304   9.383 -0.6142 -1.0585  0.4382
   47TMC2    C8  739   1.631   0.998   8.994  0.0418  0.5334 -0.4170
   47TMC2    O1  740   1.596   1.283   9.504  0.7099 -0.0134 -0.0741
   47TMC2    O2  741   1.539   1.050   8.931  0.0097  0.2974  0.3983
   47TMC2    O5  742   1.652   0.867   9.016  0.7412  0.5533 -0.1380
   47TMC2    H5  743   1.708   0.834   9.091 -2.1441 -2.4537  0.7148
   48MPD2     C  744   2.235   1.145   9.563 -0.7350  0.0857  0.4010
   48MPD2    C1  745   2.169   1.043   9.496  0.0599  0.2839  0.5262
   48MPD2    C2  746   2.232   0.920   9.491  0.1681  0.4901 -0.8690
   48MPD2    C3  747   2.366   0.903   9.540 -0.0841  0.2026  0.1674
   48MPD2    C4  748   2.425   1.009   9.598  0.1680 -0.2748  0.1873
   48MPD2    C5  749   2.355   1.124   9.614  0.1123  0.0751  0.0172
   48MPD2     H  750   2.180   0.840   9.440  0.5467 -0.1840 -0.2011
   48MPD2    H1  751   2.525   0.999   9.637  1.0866 -2.9165 -2.9357
   48MPD2    H2  752   2.189   1.242   9.580 -1.3315 -0.3009  0.9967
   48MPD2    H3  753   2.412   1.198   9.670 -1.6105 -0.7137  2.8340
   48MPD2     N  754   2.413   0.773   9.546 -0.1249  0.2568  0.0650
   48MPD2    H5  755   2.348   0.706   9.507 -0.2481  1.2079 -1.3605
   48MPD2    N1  756   2.035   1.072   9.449 -0.4032 -0.6840 -0.6843
   48MPD2    H7  757   1.992   1.159   9.480 -2.0944 -1.5233 -0.6569
   49TMC2    C1  758   4.423   2.888  10.959 -0.0809 -0.0246 -0.0418
   49TMC2    C2  759   4.385   2.863  10.830 -0.5688  0.2397  0.5813
   49TMC2    C3  760   4.302   2.758  10.805 -0.4762  0.2521  0.4348
   49TMC2    C4  761   4.384   2.814  11.064 -0.1856 -0.0725 -0.4108
   49TMC2    C5  762   4.309   2.702  11.028  0.3012 -0.7220 -0.2684
   49TMC2    C6  763   4.271   2.665  10.900 -0.0364 -0.0973  0.5156
   49TMC2     C  764   4.504   3.009  10.991  0.1352  0.5520  0.2133
   49TMC2     O  765   4.585   3.039  10.904  0.0793 -0.3493 -0.0784
   49TMC2     H  766   4.404   2.943  10.759  1.9033  1.7233  2.9131
   49TMC2    H1  767   4.411   2.839  11.166 -0.8811  1.6996 -0.6584
   49TMC2    H2  768   4.208   2.582  10.869 -1.1833  0.2177  1.9875
   49TMC2    C7  769   4.277   2.613  11.135 -0.4041 -0.0470 -0.3016
   49TMC2    C8  770   4.257   2.743  10.664  0.3461 -0.1237 -0.0974
   49TMC2    O1  771   4.272   2.646  11.251  0.4982 -0.6045  0.0307
   49TMC2    O2  772   4.150   2.696  10.630  0.1773  0.2147  0.1895
   49TMC2    O5  773   4.372   2.735  10.596  0.2127 -0.1398  0.1328
   49TMC2    H5  774   4.452   2.778  10.634 -0.6122  1.2788  0.2188
   50MPD2     C  775   4.651   3.230  11.125  0.6308  0.4699 -0.0318
   50MPD2    C1  776   4.543   3.171  11.180  0.6231  0.6940 -0.6813
   50MPD2    C2  777   4.501   3.222  11.299 -0.0142 -0.4036  0.7984
   50MPD2    C3  778   4.565   3.324  11.366 -0.4732  0.7292  0.9445
   50MPD2    C4  779   4.667   3.387  11.304 -0.0170  0.0784  0.0536
   50MPD2    C5  780   4.711   3.338  11.187  0.2980  0.3627  0.5755
   50MPD2     H  781   4.417   3.177  11.351  0.1910 -0.1925  1.3070
   50MPD2    H1  782   4.715   3.476  11.345  1.1088 -0.9217  0.8971
   50MPD2    H2  783   4.689   3.194  11.030 -3.4920 -0.3881 -1.3423
   50MPD2    H3  784   0.061   3.387  11.152 -0.8301  0.8344 -1.6648
   50MPD2     N  785   4.523   3.386  11.492 -0.1753  0.1419  0.1210
   50MPD2    H5  786   4.567   3.474  11.514 -0.3878  0.6450 -1.4267
   50MPD2    N1  787   4.480   3.058  11.119 -0.6263 -0.1954  0.0674
   50MPD2    H7  788   4.403   3.020  11.171  0.4598 -0.0161  1.7962
   51TMC2    C1  789   0.081   2.030   2.182  0.9161  0.1970  0.3496
   51TMC2    C2  790   4.691   2.058   2.212 -0.4294 -0.5418 -0.4039
   51TMC2    C3  791   4.653   2.185   2.181  0.0075 -0.3878 -0.1674
   51TMC2    C4  792   0.170   2.121   2.146  0.2720  0.3775 -0.1643
   51TMC2    C5  793   0.126   2.250   2.122 -0.2199 -0.0504  0.8212
   51TMC2    C6  794   4.736   2.285   2.145  0.4917 -0.0376  0.8353
   51TMC2     C  795   0.104   1.907   2.108 -0.0869  0.0859  0.4100
   51TMC2     O  796   0.199   1.904   2.032  0.1049 -0.0760  0.1041
   51TMC2     H  797   4.617   1.980   2.223 -0.3219 -0.2443  2.2585
   51TMC2    H1  798   0.275   2.095   2.132  0.1909 -0.0136 -0.0483
   51TMC2    H2  799   4.706   2.381   2.105  0.8786  0.4891  1.8310
   51TMC2    C7  800   0.217   2.340   2.057  1.2494  0.5115  0.0227
   51TMC2    C8  801   4.524   2.215   2.234  0.3983  0.0189 -0.3700
   51TMC2    O1  802   0.314   2.297   2.004 -0.1146  0.3982  0.1324
   51TMC2    O2  803   4.431   2.133   2.250 -0.7256 -0.1411 -0.0483
   51TMC2    O5  804   4.522   2.351   2.250 -0.4951  0.4629 -0.3915
   51TMC2    H5  805   4.614   2.386   2.261  0.4303 -1.1410 -3.0360
   52MPD2     C  806   0.039   1.413   2.022 -0.0264 -0.0084  0.1819
   52MPD2    C1  807   0.114   1.505   1.959  0.6738 -0.6883  0.2587
   52MPD2    C2  808   0.112   1.638   2.000  0.0786  0.5088  1.2220
   52MPD2    C3  809   0.040   1.677   2.108 -0.1939 -0.4765 -0.4701
   52MPD2    C4  810   4.717   1.578   2.182 -0.3011  0.0917 -0.4132
   52MPD2    C5  811   4.718   1.445   2.132 -0.2492 -0.0505 -0.1389
   52MPD2     H  812   0.186   1.695   1.947  0.9752 -0.7375  1.1452
   52MPD2    H1  813   4.660   1.605   2.270 -1.0546  3.7448 -2.0229
   52MPD2    H2  814   0.048   1.306   2.011  0.6728 -0.0627  1.1734
   52MPD2    H3  815   4.663   1.373   2.192 -1.6219  0.6745 -0.5258
   52MPD2     N  816   0.036   1.803   2.163 -0.7816 -0.5163  0.3444
   52MPD2    H5  817   4.724   1.824   2.247 -0.9052  0.0521  0.1263
   52MPD2    N1  818   0.197   1.460   1.854  0.0290 -0.2525 -0.0957
   52MPD2    H7  819   0.247   1.535   1.807  1.9865 -0.6876  1.3129
   53TMC2    C1  820   0.793   0.318  11.705  0.1428 -0.0011 -0.8027
   53TMC2    C2  821   0.771   0.398  11.602 -1.2565  0.5433  0.0156
   53TMC2    C3  822   0.729   0.521  11.618  0.3952 -0.2126  0.6350
   53TMC2    C4  823   0.788   0.368  11.836 -0.4979 -0.8754  0.6390
   53TMC2    C5  824   0.733   0.494  11.847 -0.9783  0.5428  0.0033
   53TMC2    C6  825   0.717   0.579  11.739 -0.4211 -0.7484  0.0595
   53TMC2     C  826   0.750   0.182  11.692 -0.3538  0.2976 -0.0544
   53TMC2     O  827   0.799   0.113  11.606  0.3842 -0.2013  0.2903
   53TMC2     H  828   0.772   0.352  11.503  1.0582 -4.3875  2.3540
   53TMC2    H1  829   0.813   0.297  11.913 -2.3638 -1.5769  0.6038
   53TMC2    H2  830   0.689   0.684  11.744 -1.8411 -1.1043 -0.4078
   53TMC2    C7  831   0.689   0.551  11.974  0.1308 -0.6278 -0.3127
   53TMC2    C8  832   0.739   0.614  11.515  0.0563  0.0067 -0.1348
   53TMC2    O1  833   0.654   0.670  11.974  1.1001 -0.6545 -0.5818
   53TMC2    O2  834   0.705   0.729  11.513  0.1174 -0.0829  0.5677
   53TMC2    O5  835   0.839   0.563  11.444  0.4061 -0.0770  0.4003
   53TMC2    H5  836   0.868   0.475  11.474  2.0070  0.3297  0.0599
   54MPD2     C  837   0.631   4.647  11.751 -0.9081 -0.3640  0.1188
   54MPD2    C1  838   0.593   0.030  11.805  0.1258 -0.3730 -0.0961
   54MPD2    C2  839   0.481   0.047  11.884  0.3030 -0.1081 -0.0574
   54MPD2    C3  840   0.394   4.679  11.914  0.2833  0.3532 -0.4320
   54MPD2    C4  841   0.430   4.555  11.868 -0.3740  0.7413  0.4105
   54MPD2    C5  842   0.543   4.544  11.787  0.3698 -0.3747  0.4781
   54MPD2     H  843   0.470   0.142  11.934  1.4848 -0.0205  0.0353
   54MPD2    H1  844   0.364   4.470  11.881  2.0157 -0.9504  1.5840
   54MPD2    H2  845   0.717   4.639  11.685 -0.5175  0.4006  0.5453
   54MPD2    H3  846   0.563   4.442  11.756  1.6126  0.7087 -2.2807
   54MPD2     N  847   0.272   4.686  11.986  0.5516 -0.7362 -0.0842
   54MPD2    H5  848   0.224   4.597  11.996 -0.9192 -0.0291 -0.8302
   54MPD2    N1  849   0.650   0.156  11.778 -0.6468  0.4651  0.2319
   54MPD2    H7  850   0.607   0.240  11.817 -2.2836 -1.0149  1.5764
   55TMC2    C1  851   0.996   3.616   0.207 -0.0161 -0.1700 -0.8304
   55TMC2    C2  852   1.121   3.598   0.155 -0.1090 -0.4533  0.1963
   55TMC2    C3  853   1.171   3.473   0.182  0.1890 -0.2168 -0.9800
   55TMC2    C4  854   0.929   3.530   0.291  0.1901  0.3472 -0.0538
   55TMC2    C5  855   0.994   3.413   0.321 -0.5675 -0.5725  0.2176
   55TMC2    C6  856   1.102   3.377   0.255  0.1458  0.3136  0.0120
   55TMC2     C  857   0.952   3.750   0.205 -0.1486 -0.1250  0.4128
   55TMC2     O  858   0.885   3.773   0.305 -0.0128  0.3631  0.3819
   55TMC2     H  859   1.167   3.677   0.097 -0.5715 -0.7789 -0.6250
   55TMC2    H1  860   0.825   3.536   0.318  0.5221  1.4191  0.9861
   55TMC2    H2  861   1.140   3.275   0.255  0.2690  0.3591 -0.1656
   55TMC2    C7  862   0.920   3.311   0.395  0.2011 -0.7785 -0.0093
   55TMC2    C8  863   1.300   3.437   0.133 -0.5030 -0.7253 -0.3223
   55TMC2    O1  864   0.944   3.196   0.360 -0.5454  0.2754 -0.5644
   55TMC2    O2  865   1.365   3.508   0.057 -0.1403  0.0319 -0.2869
   55TMC2    O5  866   1.346   3.352   0.228  0.7455  0.2387 -0.0839
   55TMC2    H5  867   1.297   3.353   0.313  3.0874  1.8062  1.2385
   56MPD2     C  868   0.919   4.012  17.704  0.2833 -0.0241 -0.0578
   56MPD2    C1  869   0.925   3.957   0.076  0.2563 -0.1461  0.0397
   56MPD2    C2  870   0.898   4.039   0.186 -0.3688 -0.4959  0.1397
   56MPD2    C3  871   0.861   4.166   0.167 -0.4256  0.0653 -0.1857
   56MPD2    C4  872   0.862   4.222   0.043 -0.3693 -0.0938  0.1019
   56MPD2    C5  873   0.896   4.147  17.688 -0.2802  0.0586 -0.4174
   56MPD2     H  874   0.899   3.996   0.286  1.1197 -0.8845 -0.0416
   56MPD2    H1  875   0.822   4.321   0.023  2.0735  0.8477 -0.0845
   56MPD2    H2  876   0.951   3.949  17.622  0.9077 -0.7975  0.7819
   56MPD2    H3  877   0.896   4.205  17.596 -1.7606  2.8000  1.2968
   56MPD2     N  878   0.811   4.232   0.283  0.0672 -0.3128 -0.0062
   56MPD2    H5  879   0.824   4.195   0.377 -2.9156 -0.5133  0.3331
   56MPD2    N1  880   0.963   3.819   0.087 -0.0571  0.4080  0.0196
   56MPD2    H7  881   0.999   3.779   0.001 -1.4434  0.3442 -0.5405
   57TMC2    C1  882   0.580   4.308  13.627 -0.5606 -0.4767 -0.5706
   57TMC2    C2  883   0.619   4.182  13.655  0.1979  0.1086 -0.9224
   57TMC2    C3  884   0.741   4.140  13.609 -0.8671 -0.4797 -0.1584
   57TMC2    C4  885   0.645   4.390  13.540 -0.0027  0.0334 -0.2799
   57TMC2    C5  886   0.773   4.356  13.504  0.6381 -0.3891  0.3370
   57TMC2    C6  887   0.815   4.229  13.533 -0.5687 -0.1045 -0.4317
   57TMC2     C  888   0.447   4.343  13.656 -1.1793  0.2431 -0.5776
   57TMC2     O  889   0.419   4.457  13.691  0.5973 -0.5004 -0.3169
   57TMC2     H  890   0.553   4.113  13.707  0.9761  0.1027  0.0705
   57TMC2    H1  891   0.606   4.490  13.525  0.7201  0.7026  2.2980
   57TMC2    H2  892   0.912   4.189  13.504 -1.4196 -2.0240 -0.6417
   57TMC2    C7  893   0.860   4.441  13.421 -0.3049  0.3290  0.0505
   57TMC2    C8  894   0.809   4.037  13.693 -0.1113 -0.4451  0.5918
   57TMC2    O1  895   0.851   4.562  13.430  0.0281 -0.4609 -0.1548
   57TMC2    O2  896   0.930   4.039  13.712 -0.0960  0.5928  0.0863
   57TMC2    O5  897   0.736   3.922  13.674  0.5017 -0.3391 -0.1577
   57TMC2    H5  898   0.644   3.931  13.641  0.4117 -0.2190  0.1249
   58MPD2     C  899   4.696   4.223  13.737  0.0409  1.0587 -0.4044
   58MPD2    C1  900   0.034   4.324  13.799 -0.1829  0.1871  0.4548
   58MPD2    C2  901   0.168   4.338  13.755  0.3240  0.4496 -0.6816
   58MPD2    C3  902   0.223   4.240  13.680 -0.6061  0.3316  0.0268
   58MPD2    C4  903   0.147   4.137  13.628  0.2545  0.6292 -0.2275
   58MPD2    C5  904   0.014   4.125  13.656  0.2115  0.6415 -0.1225
   58MPD2     H  905   0.222   4.421  13.802 -0.0063 -0.9250  2.1034
   58MPD2    H1  906   0.187   4.063  13.560 -1.1943 -0.5532  0.1952
   58MPD2    H2  907   4.588   4.219  13.742  0.0157 -0.9537 -2.4677
   58MPD2    H3  908   4.696   4.051  13.603  2.6255 -0.5823 -1.0233
   58MPD2     N  909   0.364   4.235  13.651  0.2213  0.3827  0.1454
   58MPD2    H5  910   0.398   4.148  13.613  0.1593  0.9686 -1.2338
   58MPD2    N1  911   4.700   4.413  13.882 -0.0361  0.1823 -0.0623
   58MPD2    H7  912   4.600   4.420  13.869 -0.0861  1.3991  0.9978
   59TMC2    C1  913   2.812   4.536  12.666  0.0633  0.4866 -0.2431
   59TMC2    C2  914   2.674   4.549  12.701 -0.1859 -0.7403  0.1317
   59TMC2    C3  915   2.610   4.652  12.640 -0.1420 -0.1064  0.1632
   59TMC2    C4  916   2.873   4.610  12.572 -0.3045 -0.1211  0.2679
   59TMC2    C5  917   2.790   4.688  12.494 -0.4146  0.0841  0.1499
   59TMC2    C6  918   2.659   4.721  12.535  0.2674  0.3886  0.2552
   59TMC2     C  919   2.900   4.443  12.732  0.1108  0.5973 -0.1322
   59TMC2     O  920   2.906   4.331  12.688 -0.1535  0.1485  0.7448
   59TMC2     H  921   2.627   4.492  12.780 -3.4784 -1.5297 -2.4049
   59TMC2    H1  922   2.971   4.582  12.535  0.0888  2.0412 -0.3588
   59TMC2    H2  923   2.584   0.041  12.484 -0.1158 -0.4701 -0.1912
   59TMC2    C7  924   2.868   0.031  12.408  0.5869  0.7265 -0.0923
   59TMC2    C8  925   2.467   4.685  12.663  0.4055  0.2615 -0.6735
   59TMC2    O1  926   2.989   0.039  12.430  0.2829 -0.6878 -0.0745
   59TMC2    O2  927   2.398   4.606  12.729 -0.0964  0.2115 -0.0879
   59TMC2    O5  928   2.453   0.077  12.670  0.4263  0.0790  0.1172
   59TMC2    H5  929   2.532   0.128  12.642 -0.2056  0.7483 -0.4448
   60MPD2     C  930   3.107   4.322  12.893 -0.0022  0.2397 -0.1269
   60MPD2    C1  931   3.068   4.457  12.903 -0.4379 -0.5048  0.0630
   60MPD2    C2  932   3.130   4.539  13.004  0.4191  0.1937  0.1273
   60MPD2    C3  933   3.225   4.489  13.086  0.0008 -0.3363 -0.1375
   60MPD2    C4  934   3.275   4.364  13.061  0.1487  0.1910 -0.9473
   60MPD2    C5  935   3.219   4.281  12.967  0.1213  0.0104 -0.0439
   60MPD2     H  936   3.099   4.642  13.019  1.4716  0.6147 -0.5246
   60MPD2    H1  937   3.360   4.322  13.113  0.7926 -0.1397 -2.2519
   60MPD2    H2  938   3.054   4.253  12.827  3.7175 -2.0669 -0.7207
   60MPD2    H3  939   3.250   4.178  12.954  1.9815  0.3212  1.9516
   60MPD2     N  940   3.284   4.560  13.194  0.2556  0.2408  0.4387
   60MPD2    H5  941   3.361   4.507  13.234  0.5209  2.3099  2.6592
   60MPD2    N1  942   2.966   4.508  12.827 -0.5149 -0.3261 -0.2213
   60MPD2    H7  943   2.955   4.608  12.841  0.4706 -0.1033 -1.1208
   61TMC2    C1  944   1.485   1.707  15.801 -0.2067  0.1948 -0.2496
   61TMC2    C2  945   1.384   1.683  15.893 -0.0570 -0.2610 -0.6764
   61TMC2    C3  946   1.311   1.785  15.945  0.3344  0.0868  0.5425
   61TMC2    C4  947   1.511   1.836  15.769  0.2095 -0.5032 -0.5262
   61TMC2    C5  948   1.436   1.932  15.824 -0.7593 -0.5637 -0.9257
   61TMC2    C6  949   1.328   1.914  15.902 -0.0442 -0.2438  0.1316
   61TMC2     C  950   1.579   1.603  15.775 -0.1942 -0.3110 -0.0956
   61TMC2     O  951   1.564   1.496  15.829 -0.4030  0.0734 -0.1859
   61TMC2     H  952   1.377   1.583  15.935 -0.4221 -1.1773 -2.9254
   61TMC2    H1  953   1.602   1.860  15.716 -0.5425 -1.8641 -2.4694
   61TMC2    H2  954   1.267   1.991  15.947 -1.8428 -0.6396 -1.6302
   61TMC2    C7  955   1.480   2.063  15.801 -0.1021 -0.0932  0.4886
   61TMC2    C8  956   1.214   1.757  16.049  0.0098  0.4860  0.1640
   61TMC2    O1  957   1.533   2.080  15.692 -0.8009  0.2338  0.0367
   61TMC2    O2  958   1.216   1.666  16.127  0.0766  0.5106 -0.2134
   61TMC2    O5  959   1.101   1.833  16.017 -0.0051  0.4926 -0.3554
   61TMC2    H5  960   1.103   1.883  15.933 -1.5059  1.3685  0.1225
   62MPD2     C  961   1.793   1.417  15.670  0.0714  0.0404  0.0506
   62MPD2    C1  962   1.768   1.546  15.618  0.1290  0.6557 -0.0536
   62MPD2    C2  963   1.848   1.586  15.513  0.2729 -0.4778  0.0263
   62MPD2    C3  964   1.926   1.497  15.445 -0.6098  0.4048 -0.3358
   62MPD2    C4  965   1.946   1.369  15.497 -0.0270 -0.1899 -0.2174
   62MPD2    C5  966   1.885   1.333  15.610 -0.0384  0.0924 -0.6278
   62MPD2     H  967   1.841   1.687  15.473  0.6200 -0.2810  0.4601
   62MPD2    H1  968   2.019   1.306  15.449 -0.1275 -0.9393  0.6051
   62MPD2    H2  969   1.743   1.374  15.757 -0.8143 -1.3423 -1.1431
   62MPD2    H3  970   1.911   1.238  15.654  0.0531  0.7793  0.8261
   62MPD2     N  971   1.987   1.531  15.325 -0.6486  0.1236  0.6124
   62MPD2    H5  972   2.019   1.458  15.263  0.4180 -0.8657  2.3358
   62MPD2    N1  973   1.677   1.638  15.680  0.6379  0.4967 -0.1967
   62MPD2    H7  974   1.667   1.732  15.642 -0.0222 -0.0388 -1.3542
   63TMC2    C1  975   2.099   0.935  10.286  0.6258 -0.4079 -0.7902
   63TMC2    C2  976   2.206   0.858  10.329 -0.1460  0.8735  0.1636
   63TMC2    C3  977   2.333   0.905  10.309 -0.0742 -0.6244  0.5322
   63TMC2    C4  978   2.127   1.048  10.230 -0.9645  0.4979 -0.0468
   63TMC2    C5  979   2.244   1.091  10.198  0.9072  0.7350  0.0526
   63TMC2    C6  980   2.350   1.023  10.242 -0.2571 -0.7864  0.3645
   63TMC2     C  981   1.966   0.910  10.336 -0.1272  0.0150 -0.6150
   63TMC2     O  982   1.880   0.998  10.336 -0.2041 -0.0764 -0.1262
   63TMC2     H  983   2.193   0.771  10.392  0.3354 -0.1364 -1.1155
   63TMC2    H1  984   2.045   1.097  10.177 -0.4601  0.0151 -1.2674
   63TMC2    H2  985   2.457   1.046  10.244 -0.3068 -0.5452  0.3334
   63TMC2    C7  986   2.256   1.206  10.105 -0.2507  0.2185 -0.2011
   63TMC2    C8  987   2.442   0.812  10.325 -0.3183 -0.0944  0.2541
   63TMC2    O1  988   2.162   1.286  10.087 -0.3598 -0.4398 -0.4135
   63TMC2    O2  989   2.549   0.817  10.262 -0.1138 -0.1722 -0.8409
   63TMC2    O5  990   2.419   0.724  10.422 -0.3897  0.0146 -1.0127
   63TMC2    H5  991   2.341   0.744  10.478 -0.1560  0.2853 -0.7796
   64MPD2     C  992   1.600   0.571  10.416  0.6286  0.1730 -0.5117
   64MPD2    C1  993   1.719   0.505  10.398 -0.0940 -0.6917 -0.8932
   64MPD2    C2  994   1.834   0.580  10.378 -0.0309 -0.1530 -0.3864
   64MPD2    C3  995   1.826   0.715  10.385  0.3807  0.8577 -0.0642
   64MPD2    C4  996   1.706   0.784  10.409 -0.3464  0.4663  0.4581
   64MPD2    C5  997   1.592   0.707  10.418 -0.3317  0.8885  0.4273
   64MPD2     H  998   1.933   0.537  10.380 -0.4992 -1.2740 -0.9936
   64MPD2    H1  999   1.693   0.891  10.413  1.8015  0.7246  0.4346
   64MPD2    H2 1000   1.510   0.510  10.424  1.8151 -1.3376  1.2340
   64MPD2    H3 1001   1.507   0.764  10.455 -0.4935  0.3684  0.8583
   64MPD2     N 1002   1.946   0.780  10.366 -0.0240 -0.1623  0.7269
   64MPD2    H5 1003   2.021   0.716  10.341 -0.0072  0.5299 -0.9945
   64MPD2    N1 1004   1.733   0.361  10.386  0.8127 -0.0193 -0.1091
   64MPD2    H7 1005   1.828   0.326  10.390  0.9268  0.6368  3.0008
   65TMC2    C1 1006   2.573   1.153  15.871  0.0381 -0.5101  0.3597
   65TMC2    C2 1007   2.614   1.067  15.770 -0.8166 -0.4066  0.4299
   65TMC2    C3 1008   2.641   1.131  15.653 -0.2303 -0.2170  0.3693
   65TMC2    C4 1009   2.580   1.289  15.865 -0.2395  0.2449 -0.1737
   65TMC2    C5 1010   2.616   1.342  15.750  0.7968  0.2369  0.0171
   65TMC2    C6 1011   2.648   1.266  15.644  1.2984  0.1271 -0.6614
   65TMC2     C 1012   2.570   1.093  16.004  0.0387  0.7754 -0.5530
   65TMC2     O 1013   2.502   1.145  16.093 -0.1179 -0.6531  0.2665
   65TMC2     H 1014   2.596   0.960  15.768  0.9646 -0.6577 -1.6319
   65TMC2    H1 1015   2.595   1.348  15.954 -0.7046 -1.2115  0.8787
   65TMC2    H2 1016   2.676   1.318  15.553 -0.3519  2.3118  0.0935
   65TMC2    C7 1017   2.589   1.487  15.735 -0.3412  0.2420  0.3997
   65TMC2    C8 1018   2.689   1.044  15.549 -0.5068  0.0460 -0.1250
   65TMC2    O1 1019   2.642   1.539  15.640  0.1835  0.0754  0.5100
   65TMC2    O2 1020   2.721   0.929  15.578 -0.7325  0.5690  0.1101
   65TMC2    O5 1021   2.729   1.100  15.430 -0.7523 -0.4081  0.8164
   65TMC2    H5 1022   2.686   1.188  15.418 -0.5459 -0.4007  0.1200
   66MPD2     C 1023   2.610   0.884  16.230  0.1056 -1.1894  0.0366
   66MPD2    C1 1024   2.651   0.871  16.094 -0.8051 -0.3643 -0.4820
   66MPD2    C2 1025   2.684   0.749  16.046 -0.4418 -0.6296 -0.7394
   66MPD2    C3 1026   2.689   0.641  16.130  0.3043  0.3092  0.2834
   66MPD2    C4 1027   2.655   0.653  16.268  0.0227 -0.6712 -0.3382
   66MPD2    C5 1028   2.616   0.771  16.312  0.0170  0.2175  0.0137
   66MPD2     H 1029   2.719   0.744  15.944 -1.4012  0.4697 -1.1255
   66MPD2    H1 1030   2.665   0.570  16.337 -0.0164  0.2348  0.7542
   66MPD2    H2 1031   2.581   0.982  16.266 -0.0181 -1.0418 -0.4708
   66MPD2    H3 1032   2.582   0.773  16.415  1.4640  1.4088  0.4762
   66MPD2     N 1033   2.706   0.509  16.087 -0.6130  0.3629  0.3462
   66MPD2    H5 1034   2.696   0.446  16.167  2.0088 -0.3791  0.0922
   66MPD2    N1 1035   2.646   0.977  15.999 -0.9312 -0.2983 -0.1606
   66MPD2    H7 1036   2.700   0.959  15.915  0.2589 -2.1228  1.0078
   67TMC2    C1 1037   2.750   0.264  14.814  0.0840 -0.1952 -0.2026
   67TMC2    C2 1038   2.635   0.312  14.864 -0.0467 -0.7366  0.3140
   67TMC2    C3 1039   2.655   0.361  14.988  0.0076  0.5047  0.3234
   67TMC2    C4 1040   2.869   0.256  14.883 -0.3173 -0.8630  0.1507
   67TMC2    C5 1041   2.877   0.320  15.004 -0.1801 -0.6129  0.1648
   67TMC2    C6 1042   2.772   0.381  15.063 -0.0611 -0.3085  0.4961
   67TMC2     C 1043   2.745   0.212  14.687 -0.0212  0.7193  0.7107
   67TMC2     O 1044   2.842   0.150  14.653 -0.0223  0.4910 -0.0236
   67TMC2     H 1045   2.537   0.319  14.819  1.0433  0.3723 -1.8824
   67TMC2    H1 1046   2.942   0.185  14.843 -0.8484  0.0194 -2.3752
   67TMC2    H2 1047   2.791   0.460  15.135  0.0150 -0.2697  0.4333
   67TMC2    C7 1048   3.008   0.306  15.069  0.1889  0.1110 -0.7519
   67TMC2    C8 1049   2.528   0.388  15.061  0.3203  0.6878  1.1533
   67TMC2    O1 1050   3.084   0.231  15.005  0.4198 -0.5961 -0.2110
   67TMC2    O2 1051   2.421   0.380  15.007  0.3304 -0.0165 -0.2019
   67TMC2    O5 1052   2.547   0.373  15.195 -0.3302 -0.5341 -0.5361
   67TMC2    H5 1053   2.642   0.373  15.220 -0.2843  1.7745 -0.7484
   68MPD2     C 1054   2.642   0.153  14.417  0.2262 -0.0709  0.2314
   68MPD2    C1 1055   2.613   0.269  14.484  0.0843 -0.1386  0.7689
   68MPD2    C2 1056   2.543   0.369  14.416 -0.2254 -0.0445 -0.0285
   68MPD2    C3 1057   2.502   0.342  14.289  0.1462  0.3705 -0.1093
   68MPD2    C4 1058   2.519   0.225  14.223 -0.8745  0.1272 -0.1595
   68MPD2    C5 1059   2.587   0.129  14.294  0.1420  0.5289  0.5494
   68MPD2     H 1060   2.517   0.457  14.474 -1.1568  1.0334 -2.0723
   68MPD2    H1 1061   2.478   0.201  14.125 -1.0155 -0.7730  0.1172
   68MPD2    H2 1062   2.704   0.077  14.461 -0.1808 -0.4014  0.2397
   68MPD2    H3 1063   2.597   0.027  14.258 -2.0369  0.7604 -0.6822
   68MPD2     N 1064   2.429   0.443  14.213  0.3500  0.3832  0.6876
   68MPD2    H5 1065   2.398   0.420  14.119 -1.1005  1.8751  0.7980
   68MPD2    N1 1066   2.666   0.300  14.611 -0.9927  0.2645 -0.4816
   68MPD2    H7 1067   2.621   0.373  14.665 -0.5521  1.7199 -2.1094
   69TMC2    C1 1068   0.227   1.457  13.016  0.8546  0.0930 -0.2181
   69TMC2    C2 1069   0.158   1.559  12.964  0.1101  0.0678  0.2256
   69TMC2    C3 1070   0.121   1.536  12.830 -0.7526  0.1088  0.7576
   69TMC2    C4 1071   0.271   1.350  12.939  0.7285 -0.4215  0.3476
   69TMC2    C5 1072   0.238   1.325  12.807  0.1271 -0.1792 -0.0127
   69TMC2    C6 1073   0.151   1.418  12.761  0.2204 -0.6203 -0.1716
   69TMC2     C 1074   0.249   1.434  13.160  0.6647  0.1019  0.2994
   69TMC2     O 1075   0.331   1.352  13.194 -0.5607 -1.2632 -0.2988
   69TMC2     H 1076   0.127   1.648  13.017 -0.0443 -0.0627  0.3533
   69TMC2    H1 1077   0.338   1.280  12.987  0.6273 -1.1385 -0.5806
   69TMC2    H2 1078   0.094   1.382  12.676 -1.1206 -0.8016  0.8140
   69TMC2    C7 1079   0.328   1.253  12.722 -0.3008 -0.4014 -0.2796
   69TMC2    C8 1080   4.728   1.582  12.801 -0.2555 -0.0813 -0.1242
   69TMC2    O1 1081   0.441   1.246  12.769 -0.3203  0.2373  0.6037
   69TMC2    O2 1082   4.668   1.659  12.873  0.4480 -0.1710 -0.0549
   69TMC2    O5 1083   4.738   1.604  12.669  0.3642  0.6343 -0.8281
   69TMC2    H5 1084   0.086   1.593  12.626  1.3448 -1.0446  1.5676
   70MPD2     C 1085   4.731   1.503  13.426 -0.4526  0.2936  0.6628
   70MPD2    C1 1086   0.105   1.450  13.365  0.4734  0.1779  0.6622
   70MPD2    C2 1087   0.181   1.362  13.437  0.1862  0.1598  0.3791
   70MPD2    C3 1088   0.133   1.314  13.561  0.4571 -0.2922 -0.6202
   70MPD2    C4 1089   0.015   1.358  13.618  0.2904 -0.2502  0.1051
   70MPD2    C5 1090   4.689   1.460  13.555  0.4083  0.3141 -0.0028
   70MPD2     H 1091   0.273   1.319  13.401 -0.0621 -1.2086  1.4107
   70MPD2    H1 1092   4.712   1.310  13.706  1.5044  0.3525  1.0163
   70MPD2    H2 1093   4.670   1.571  13.368  0.2753  0.8206  0.5157
   70MPD2    H3 1094   4.601   1.505  13.598  0.6383  0.4433  0.3310
   70MPD2     N 1095   0.210   1.203  13.602 -0.3584 -0.7797 -0.0847
   70MPD2    H5 1096   0.300   1.190  13.556 -0.8406 -0.7661 -1.0494
   70MPD2    N1 1097   0.142   1.486  13.231  0.0435  0.1439 -0.5643
   70MPD2    H7 1098   0.068   1.538  13.184  0.0836  0.7786  0.0638
   71TMC2    C1 1099   1.981   1.287   1.063 -0.3642 -0.3263  0.2296
   71TMC2    C2 1100   2.075   1.251   0.961  0.8123  0.1935  0.2596
   71TMC2    C3 1101   2.110   1.119   0.945  0.6142  0.8484  0.6184
   71TMC2    C4 1102   1.922   1.189   1.140 -0.7697 -0.6179  0.0093
   71TMC2    C5 1103   1.961   1.062   1.122  0.4330 -0.5216  0.8676
   71TMC2    C6 1104   2.042   1.022   1.019 -0.1995  0.1731 -0.0217
   71TMC2     C 1105   1.995   1.410   1.128 -0.1075  0.8260 -0.0951
   71TMC2     O 1106   1.980   1.417   1.252 -0.1902 -0.4358  0.4310
   71TMC2     H 1107   2.120   1.324   0.896 -0.7789 -1.8667 -3.1733
   71TMC2    H1 1108   1.868   1.210   1.232 -1.0902 -0.4348 -0.2240
   71TMC2    H2 1109   2.068   0.918   1.002  0.7675  0.9670 -3.5229
   71TMC2    C7 1110   1.879   0.959   1.175 -0.1389  0.1359 -0.0959
   71TMC2    C8 1111   2.226   1.082   0.869 -0.2624 -0.3928  0.0722
   71TMC2    O1 1112   1.930   0.849   1.162 -0.2106 -0.2671 -0.2431
   71TMC2    O2 1113   2.285   1.164   0.803 -0.3475 -0.0500 -0.3681
   71TMC2    O5 1114   2.291   0.988   0.946 -0.2173 -0.2026 -0.0071
   71TMC2    H5 1115   2.233   0.944   1.012 -1.0372 -0.0717 -0.6475
   72MPD2     C 1116   2.201   1.873   1.128  0.5094  0.5499 -0.1329
   72MPD2    C1 1117   2.146   1.847   1.005  0.1067 -0.1046 -0.2543
   72MPD2    C2 1118   2.096   1.721   0.975 -0.0068  0.6764  0.5158
   72MPD2    C3 1119   2.086   1.631   1.077  0.3735 -0.1983  0.3997
   72MPD2    C4 1120   2.146   1.647   1.196  0.2315  0.1126  0.0108
   72MPD2    C5 1121   2.203   1.773   1.221 -0.0079 -0.8539 -1.0922
   72MPD2     H 1122   2.069   1.708   0.871 -0.3897 -3.3120  1.1237
   72MPD2    H1 1123   2.152   1.560   1.262  0.6429 -0.6123 -0.9775
   72MPD2    H2 1124   2.251   1.966   1.149  2.8492 -0.8820  0.6002
   72MPD2    H3 1125   2.264   1.798   1.307  0.7868 -3.1561 -0.9840
   72MPD2     N 1126   2.028   1.511   1.044 -0.3229  0.3183  0.5512
   72MPD2    H5 1127   2.012   1.483   0.948  1.4322  2.9966 -0.5196
   72MPD2    N1 1128   2.127   1.947   0.897 -0.0822 -0.2562  0.3110
   72MPD2    H7 1129   2.078   1.920   0.813 -0.8396 -0.3096  0.7773
   73TMC2    C1 1130   2.047   3.604  14.331 -0.7130 -0.3311  0.5509
   73TMC2    C2 1131   2.002   3.687  14.434  0.5506  0.5556  0.0121
   73TMC2    C3 1132   2.027   3.662  14.565  0.3771  0.9189 -0.6579
   73TMC2    C4 1133   2.117   3.493  14.368  0.0992 -0.7470 -0.3784
   73TMC2    C5 1134   2.141   3.463  14.500 -0.2562 -0.7332 -0.1534
   73TMC2    C6 1135   2.097   3.549  14.596 -0.0804  0.7928 -0.2818
   73TMC2     C 1136   2.137   3.670  14.234  0.1605 -0.3337 -0.2758
   73TMC2     O 1137   2.253   3.634  14.233  0.3865  0.3907  0.4379
   73TMC2     H 1138   1.954   3.778  14.400 -1.1332  0.3744  1.9180
   73TMC2    H1 1139   2.158   3.428  14.293  0.0641 -1.1983 -0.0047
   73TMC2    H2 1140   2.133   3.536  14.698  2.5266 -2.3506 -1.5935
   73TMC2    C7 1141   2.275   3.410  14.522  0.8252 -0.2959 -0.2836
   73TMC2    C8 1142   2.038   3.779  14.643  0.1411 -0.5779 -0.0091
   73TMC2    O1 1143   2.302   3.353  14.630  0.1715 -0.1946 -0.1912
   73TMC2    O2 1144   2.129   3.782  14.731 -0.3778 -0.2071  0.5389
   73TMC2    O5 1145   1.937   3.864  14.625  0.5904  0.3487  0.6965
   73TMC2    H5 1146   1.856   3.821  14.589  1.5509  1.1188 -2.4263
   74MPD2     C 1147   2.250   4.042  13.892  0.5367 -0.2198  0.1628
   74MPD2    C1 1148   2.338   3.967  13.973  0.6282 -0.4004 -0.1487
   74MPD2    C2 1149   2.279   3.894  14.078  0.4031  0.2648 -0.5647
   74MPD2    C3 1150   2.140   3.884  14.100  0.3461 -0.7889 -0.4862
   74MPD2    C4 1151   2.058   3.957  14.017 -0.2747 -0.3148  0.1034
   74MPD2    C5 1152   2.114   4.042  13.927 -0.1437 -0.1191 -0.1930
   74MPD2     H 1153   2.341   3.837  14.145 -2.1647  0.8263  2.2686
   74MPD2    H1 1154   1.950   3.966  14.028 -0.4756  0.2517 -2.5651
   74MPD2    H2 1155   2.280   4.101  13.806  1.6117 -0.3432  0.4581
   74MPD2    H3 1156   2.049   4.108  13.870  1.6714  0.6689 -1.3475
   74MPD2     N 1157   2.077   3.780  14.178  0.8755  0.5754  0.1982
   74MPD2    H5 1158   1.976   3.788  14.176  0.9474  1.6041  1.1558
   74MPD2    N1 1159   2.478   3.968  13.953 -0.2987  0.7401  0.1586
   74MPD2    H7 1160   2.520   4.010  13.871 -0.4376 -0.6277 -0.6249
   75TMC2    C1 1161   2.342   0.651  14.169  0.3662 -0.2582  0.2489
   75TMC2    C2 1162   2.285   0.761  14.216 -0.0609 -0.7730 -0.2708
   75TMC2    C3 1163   2.259   0.860  14.126 -0.1856 -0.1876  0.5185
   75TMC2    C4 1164   2.375   0.630  14.040  0.1820 -0.0329  0.4634
   75TMC2    C5 1165   2.339   0.725  13.948 -0.5547 -0.6263  0.3816
   75TMC2    C6 1166   2.278   0.843  13.990  0.4515 -0.0678  0.2244
   75TMC2     C 1167   2.405   0.564  14.265  0.3034 -0.4004 -0.5420
   75TMC2     O 1168   2.412   0.615  14.377  0.0315 -0.5455  0.2067
   75TMC2     H 1169   2.259   0.768  14.321  1.8363 -0.2426  0.1559
   75TMC2    H1 1170   2.416   0.535  14.007  1.1444  0.2347  0.8844
   75TMC2    H2 1171   2.240   0.925  13.930  0.5365  0.3130  0.6927
   75TMC2    C7 1172   2.315   0.676  13.813 -0.1701 -0.3336 -0.2428
   75TMC2    C8 1173   2.234   0.991  14.184  0.3885 -0.1216  0.3708
   75TMC2    O1 1174   2.343   0.559  13.787  0.0632  0.1851 -0.1024
   75TMC2    O2 1175   2.283   1.092  14.126 -0.6841 -0.1441  0.8725
   75TMC2    O5 1176   2.110   0.990  14.242 -0.0783  0.0376 -0.1876
   75TMC2    H5 1177   2.064   0.904  14.254  1.0633 -0.4356  0.7702
   76TMC2    C1 1178   1.916   0.497  12.524 -0.2238 -0.1404 -0.7805
   76TMC2    C2 1179   1.947   0.371  12.472  0.0480 -0.1685  0.6356
   76TMC2    C3 1180   2.066   0.312  12.504 -0.2437  0.4650 -0.3672
   76TMC2    C4 1181   2.002   0.573  12.596  0.3918  0.2647  0.3700
   76TMC2    C5 1182   2.127   0.517  12.613  0.2714 -0.4786  0.1563
   76TMC2    C6 1183   2.156   0.389  12.569  0.8116 -0.9342  0.2680
   76TMC2     C 1184   1.787   0.554  12.487 -0.2881 -0.3607 -0.6457
   76TMC2     O 1185   1.698   0.498  12.422  0.3005 -0.1744  0.1651
   76TMC2     H 1186   1.867   0.329  12.412 -0.2678  1.8064 -0.2944
   76TMC2    H1 1187   1.954   0.640  12.665 -0.2302  0.9201 -0.6943
   76TMC2    H2 1188   2.249   0.338  12.592  2.4926  1.0620 -2.0026
   76TMC2    C7 1189   2.210   0.573  12.720 -0.1914  0.3039  0.2761
   76TMC2    C8 1190   2.120   0.194  12.443  0.3983  0.4059 -0.1686
   76TMC2    O1 1191   2.297   0.501  12.776  0.7206  0.3412  0.2253
   76TMC2    O2 1192   2.240   0.176  12.418  0.2946  0.0662 -0.2130
   76TMC2    O5 1193   2.023   0.134  12.373  1.0339  0.3283 -0.2308
   76TMC2    H5 1194   1.930   0.162  12.389  0.0032 -2.6402 -0.9692
   77MPD2     C 1195   1.493   0.970  12.475  0.1848 -0.5384 -0.3997
   77MPD2    C1 1196   1.462   0.833  12.506  0.0940 -0.0170  0.2476
   77MPD2    C2 1197   1.567   0.740  12.510 -0.0463 -0.6358 -0.1824
   77MPD2    C3 1198   1.692   0.781  12.488 -0.0918  0.3056  0.1579
   77MPD2    C4 1199   1.723   0.907  12.458 -0.2749 -0.2245 -0.2580
   77MPD2    C5 1200   1.626   1.002  12.449  0.2440 -0.2865 -0.3023
   77MPD2     H 1201   1.548   0.636  12.533  0.8585 -0.5540  0.9676
   77MPD2    H1 1202   1.821   0.929  12.418 -0.6298  0.6330 -0.6485
   77MPD2    H2 1203   1.413   1.043  12.470 -1.9350 -2.8780 -0.9141
   77MPD2    H3 1204   1.658   1.105  12.436  0.7909 -0.3957  0.1568
   77MPD2     N 1205   1.798   0.688  12.503  0.6063 -0.5391  0.2357
   77MPD2    H5 1206   1.888   0.733  12.508 -0.1039  0.6225  2.5013
   77MPD2    N1 1207   1.336   0.800  12.551  0.3496 -0.6735  0.7293
   77MPD2    H7 1208   1.308   0.704  12.566 -2.2720 -0.0286 -0.1452
   78TMC2    C1 1209   2.921   0.855   0.046 -0.3017 -0.2571  0.0648
   78TMC2    C2 1210   2.908   0.812  17.677 -0.4968 -0.1043 -0.0307
   78TMC2    C3 1211   2.873   0.899  17.577  0.0527 -0.3863 -0.4154
   78TMC2    C4 1212   2.909   0.990   0.073  0.1869  0.2437  0.6351
   78TMC2    C5 1213   2.867   1.070  17.730  0.2703 -0.0919  0.4363
   78TMC2    C6 1214   2.837   1.028  17.607  0.2218  0.1665 -0.0575
   78TMC2     C 1215   2.955   0.774   0.154  0.5558 -0.2803  0.1585
   78TMC2     O 1216   2.966   0.832   0.263  0.3500 -0.1794 -0.5442
   78TMC2     H 1217   2.957   0.725  17.634 -1.3433 -0.6573  0.1209
   78TMC2    H1 1218   2.916   1.023   0.176 -2.4106  2.4689  0.1117
   78TMC2    H2 1219   2.828   1.106  17.532 -2.6425 -0.0185  0.0863
   78TMC2    C7 1220   2.831   1.202   0.020 -0.1880 -1.0524 -0.0913
   78TMC2    C8 1221   2.945   0.874  17.449  0.7758 -0.0247  0.0234
   78TMC2    O1 1222   2.887   1.239   0.123  0.0249 -0.0660  0.3451
   78TMC2    O2 1223   3.065   0.870  17.460 -0.9538 -0.4720 -0.3891
   78TMC2    O5 1224   2.881   0.954  17.361  0.3520 -0.3095 -0.1152
   78TMC2    H5 1225   2.785   0.942  17.379  0.5730 -0.8688  0.6510
   79MPD1     C 1226   3.007   0.325   0.405 -0.6374  0.7727  0.4267
   79MPD1    C1 1227   2.966   0.446   0.456  0.4349 -0.1928 -0.2776
   79MPD1    C2 1228   2.961   0.549   0.363  0.4365  0.6058  0.3452
   79MPD1    C3 1229   2.969   0.534   0.223 -0.5061 -0.5392 -0.2010
   79MPD1    C4 1230   3.006   0.408   0.183  0.0708 -0.1424 -0.0201
   79MPD1    C5 1231   3.023   0.299   0.270 -0.0872  0.2184  0.4278
   79MPD1     H 1232   2.928   0.643   0.405  1.5994  0.9080  0.5701
   79MPD1    H1 1233   3.030   0.388   0.079  1.0290  3.0008 -0.3749
   79MPD1    H2 1234   3.044   0.248   0.472 -1.0945  0.4882  0.3492
   79MPD1    H3 1235   3.075   0.210   0.240 -0.4635  0.0973  0.1308
   79MPD1     N 1236   2.954   0.636   0.131  0.2656 -0.3026  0.3256
   79MPD1    H5 1237   2.940   0.597   0.039  0.7386  0.8496 -0.2422
   79MPD1    N1 1238   2.973   0.459   0.595 -0.0437  0.2742  0.2007
   79MPD1    H6 1239   2.946   0.375   0.646 -1.6466  1.6077  1.5638
   79MPD1    H7 1240   2.945   0.547   0.638  0.4321 -0.2868  1.6921
   80TMC2    C1 1241   0.647   4.523  12.339 -0.1892  0.1435 -0.7892
   80TMC2    C2 1242   0.712   4.433  12.260  0.3196 -0.1696 -0.4226
   80TMC2    C3 1243   0.631   4.370  12.167 -0.2364 -0.0049 -0.3286
   80TMC2    C4 1244   0.518   4.552  12.322 -0.5531 -0.0755  0.3381
   80TMC2    C5 1245   0.443   4.494  12.227 -0.5824  0.3025  0.0044
   80TMC2    C6 1246   0.499   4.397  12.145  0.0132 -0.4691  1.3033
   80TMC2     C 1247   0.726   4.632  12.389 -0.3831 -0.4738 -0.1259
   80TMC2     O 1248   0.822   4.672  12.327  0.1874  0.0146  0.4915
   80TMC2     H 1249   0.818   4.413  12.270  0.5927  1.4738 -0.1379
   80TMC2    H1 1250   0.477   4.642  12.368  1.9133  0.3351  1.7476
   80TMC2    H2 1251   0.430   4.346  12.078  1.2339  0.7031 -0.8247
   80TMC2    C7 1252   0.300   4.489  12.256  0.1848 -0.3225 -0.5578
   80TMC2    C8 1253   0.685   4.276  12.069 -0.5711  0.2221  1.0106
   80TMC2    O1 1254   0.231   4.462  12.156  0.1662  0.2749  0.0308
   80TMC2    O2 1255   0.653   4.297  11.955 -0.1223 -0.1218 -0.3566
   80TMC2    O5 1256   0.807   4.246  12.119 -0.0997  0.1177  0.0743
   80TMC2    H5 1257   0.809   4.217  12.213 -2.2247  1.5175  0.5703
   81MPD2     C 1258   0.843   0.104  12.565  0.7662 -0.9734  0.0236
   81MPD2    C1 1259   0.714   0.054  12.577 -0.3659 -0.0137 -0.4729
   81MPD2    C2 1260   0.625   0.109  12.670 -0.2396  0.4452 -0.0445
   81MPD2    C3 1261   0.676   0.213  12.745  0.2190  0.1827  0.6659
   81MPD2    C4 1262   0.799   0.258  12.733 -0.5090  0.3511 -0.6781
   81MPD2    C5 1263   0.890   0.203  12.650 -0.1499 -0.1022 -0.0881
   81MPD2     H 1264   0.521   0.082  12.679 -0.0637  0.3296  1.6376
   81MPD2    H1 1265   0.842   0.325  12.807  0.3771 -0.3655 -0.5436
   81MPD2    H2 1266   0.909   0.064  12.490  0.5384 -0.8906 -0.2199
   81MPD2    H3 1267   0.981   0.255  12.623  0.8557 -1.8347  0.0331
   81MPD2     N 1268   0.584   0.278  12.826  0.5604 -0.1857  0.6501
   81MPD2    H5 1269   0.603   0.377  12.837  1.1363 -0.0031 -1.8600
   81MPD2    N1 1270   0.664   4.685  12.496 -0.1944 -0.6599  0.0014
   81MPD2    H7 1271   0.575   4.644  12.526  0.0133 -1.0783  0.0511
   82TMC2    C1 1272   3.350   4.082  11.343  0.3168  1.1291 -0.7482
   82TMC2    C2 1273   3.416   4.168  11.426 -0.2247  0.2853 -0.2702
   82TMC2    C3 1274   3.455   4.113  11.541  0.4414  0.4154  0.2979
   82TMC2    C4 1275   3.330   3.950  11.375  0.2488 -0.1697 -0.3264
   82TMC2    C5 1276   3.361   3.905  11.499 -0.1991 -0.0201  0.1058
   82TMC2    C6 1277   3.429   3.985  11.583 -0.7319  1.1481  0.0164
   82TMC2     C 1278   3.338   4.118  11.204 -0.0503  0.3864 -0.0756
   82TMC2     O 1279   3.343   4.236  11.185  0.0867  0.0116  0.1552
   82TMC2     H 1280   3.435   4.272  11.404  0.2608 -0.3484 -2.8583
   82TMC2    H1 1281   3.250   3.898  11.324  1.4549 -1.4495 -0.9178
   82TMC2    H2 1282   3.464   3.948  11.678  1.7317  2.4537 -0.3707
   82TMC2    C7 1283   3.295   3.783  11.559  0.3609  0.9503 -0.2493
   82TMC2    C8 1284   3.535   4.196  11.635 -0.4078 -0.4189 -0.0183
   82TMC2    O1 1285   3.304   3.780  11.681 -0.0795  0.5067  0.7169
   82TMC2    O2 1286   3.598   4.297  11.603  0.1841  0.4389  0.2630
   82TMC2    O5 1287   3.489   4.175  11.763  0.0595  0.0583  0.1194
   82TMC2    H5 1288   3.420   4.106  11.775  0.7951 -0.3039  2.2184
   83MPD2     C 1289   3.387   4.040  10.706 -0.3135 -0.6403  0.3630
   83MPD2    C1 1290   3.339   4.149  10.774 -0.2040  0.3539  0.6552
   83MPD2    C2 1291   3.322   4.139  10.912  0.3335  0.1901 -0.3511
   83MPD2    C3 1292   3.355   4.023  10.978 -0.4813  0.4203 -0.2734
   83MPD2    C4 1293   3.402   3.919  10.911  0.0633 -0.3404 -0.4806
   83MPD2    C5 1294   3.425   3.926  10.779  0.1790  0.4084 -0.1154
   83MPD2     H 1295   3.274   4.222  10.961 -1.2758 -2.5103  2.6041
   83MPD2    H1 1296   3.424   3.826  10.962  2.6221  1.4052  1.5760
   83MPD2    H2 1297   3.413   4.036  10.601 -1.1509  0.4488  0.1222
   83MPD2    H3 1298   3.455   3.840  10.720  1.3936  0.9783 -0.3181
   83MPD2     N 1299   3.345   4.009  11.117  0.2834 -0.1729  0.2308
   83MPD2    H5 1300   3.350   3.918  11.162  0.4980 -0.4921 -0.4361
   83MPD2    N1 1301   3.300   4.259  10.697 -0.4306 -0.0928 -0.5010
   83MPD2    H7 1302   3.288   4.252  10.597 -2.0715 -1.6420 -0.1873
   84TMC2    C1 1303   4.387   3.644  11.767  0.2751  0.5127  0.4706
   84TMC2    C2 1304   4.333   3.599  11.891 -0.4173  0.2495 -0.0262
   84TMC2    C3 1305   4.295   3.467  11.898  1.0701 -0.3871  0.1562
   84TMC2    C4 1306   4.426   3.562  11.661  0.2012 -0.2322 -0.1909
   84TMC2    C5 1307   4.389   3.430  11.677 -0.3664 -0.9583  0.0670
   84TMC2    C6 1308   4.318   3.388  11.792  0.1060  0.0225 -0.4303
   84TMC2     C 1309   4.409   3.790  11.754  0.7161 -0.2858 -0.2451
   84TMC2     O 1310   4.327   3.862  11.806  0.1719 -0.2176 -0.2465
   84TMC2     H 1311   4.297   3.665  11.969  0.6327  0.2533  0.4590
   84TMC2    H1 1312   4.430   3.598  11.559 -3.1424 -0.2872 -0.3185
   84TMC2    H2 1313   4.294   3.283  11.784  0.3027 -0.1775  1.4195
   84TMC2    C7 1314   4.423   3.336  11.570 -0.3585  0.0071 -0.0859
   84TMC2    C8 1315   4.202   3.435  12.009 -0.4008  0.6072  0.0079
   84TMC2    O1 1316   4.373   3.226  11.574 -0.4400 -0.3681  0.0741
   84TMC2    O2 1317   4.188   3.490  12.120 -0.2785  0.1973  0.5374
   84TMC2    O5 1318   4.107   3.363  11.947 -0.2221 -0.5130 -0.1138
   84TMC2    H5 1319   4.103   3.367  11.849 -0.5168 -0.6995 -0.1110
   85TMC2    C1 1320   4.717   2.052  16.347  0.8347 -0.6449 -0.3205
   85TMC2    C2 1321   0.028   1.942  16.408 -0.4656  0.6217  0.0468
   85TMC2    C3 1322   0.161   1.913  16.385  0.2026 -0.4139  0.0884
   85TMC2    C4 1323   0.056   2.143  16.275 -0.6408 -0.1913  0.5759
   85TMC2    C5 1324   0.189   2.114  16.260  0.1314  0.0142  0.0046
   85TMC2    C6 1325   0.240   2.000  16.316 -0.2225  0.1439  0.0647
   85TMC2     C 1326   4.574   2.064  16.335 -0.8851 -0.1305  0.4875
   85TMC2     O 1327   4.521   2.174  16.332  0.0505 -0.1426  0.1318
   85TMC2     H 1328   4.713   1.869  16.467  2.2058 -1.2383  0.1881
   85TMC2    H1 1329   4.738   2.216  16.219  1.3921  0.0314 -1.2352
   85TMC2    H2 1330   0.346   1.985  16.306 -0.1601  0.1268  0.7819
   85TMC2    C7 1331   0.273   2.200  16.181  0.3783 -0.1530  0.7060
   85TMC2    C8 1332   0.215   1.801  16.460 -0.6697 -0.1501 -0.7614
   85TMC2    O1 1333   0.393   2.177  16.186 -0.4243  0.3393 -0.4006
   85TMC2    O2 1334   0.159   1.751  16.558 -0.1857 -0.3973  0.2963
   85TMC2    O5 1335   0.322   1.759  16.389  0.1836 -0.2745 -0.5030
   85TMC2    H5 1336   0.331   1.802  16.301  2.5054  0.6157  0.1895
   86MPD2     C 1337   4.135   1.866  16.511  0.3034 -0.5474  0.2050
   86MPD2    C1 1338   4.192   1.783  16.420 -0.4456  0.7129  0.0826
   86MPD2    C2 1339   4.321   1.809  16.376 -0.0175  0.0178 -0.2040
   86MPD2    C3 1340   4.386   1.924  16.405  0.3123  0.4455 -0.0655
   86MPD2    C4 1341   4.316   2.016  16.477 -0.4526 -0.4397  0.3612
   86MPD2    C5 1342   4.200   1.978  16.544  0.4613 -0.2313  0.5959
   86MPD2     H 1343   4.363   1.745  16.300 -1.9168 -2.8267  1.1439
   86MPD2    H1 1344   4.367   2.105  16.512  1.9322 -1.4489 -0.4737
   86MPD2    H2 1345   4.032   1.848  16.539  0.6148 -0.9078  1.1050
   86MPD2    H3 1346   4.153   2.053  16.606  0.8991  0.3451  0.2258
   86MPD2     N 1347   4.516   1.943  16.357 -0.8436  0.3242 -0.2777
   86MPD2    H5 1348   4.570   1.863  16.325 -1.0440  0.1079 -0.0746
   86MPD2    N1 1349   4.143   1.659  16.379  0.8243  0.1066  0.2256
   86MPD2    H7 1350   4.201   1.614  16.309  0.8844  0.8237 -0.1788
   87TMC2    C1 1351   1.758   4.497   0.657 -0.1964  0.4083  0.8381
   87TMC2    C2 1352   1.631   4.444   0.650  0.2012  0.0370  0.1846
   87TMC2    C3 1353   1.522   4.518   0.692 -0.2257  0.0979  0.0219
   87TMC2    C4 1354   1.789   4.626   0.703  0.1160  0.4165  0.0700
   87TMC2    C5 1355   1.672   4.694   0.735 -0.3670  0.3712 -0.6900
   87TMC2    C6 1356   1.541   4.645   0.744 -0.1113 -0.7652  0.0234
   87TMC2     C 1357   1.866   4.424   0.589 -0.5849  0.3894  0.5488
   87TMC2     O 1358   1.979   4.474   0.600  0.4106 -0.2002 -0.7235
   87TMC2     H 1359   1.604   4.345   0.616 -0.8915  0.1552  0.7065
   87TMC2    H1 1360   1.890   4.663   0.702  0.4476 -0.4743  2.1356
   87TMC2    H2 1361   1.462   4.716   0.765  1.2022  1.0016 -0.9345
   87TMC2    C7 1362   1.690   0.095   0.716 -0.2719 -0.2906  0.4046
   87TMC2    C8 1363   1.389   4.476   0.646  0.7878  0.0835  0.0650
   87TMC2    O1 1364   1.592   0.164   0.745 -0.3123 -0.4606  0.4630
   87TMC2    O2 1365   1.381   4.388   0.563  0.1282 -0.2933 -0.9142
   87TMC2    O5 1366   1.305   4.583   0.643 -0.2850 -1.4637  0.0538
   87TMC2    H5 1367   1.283   4.631   0.726 -0.1006 -1.7696  0.2805
   88MPD2     C 1368   1.970   0.278   0.553 -0.4647  0.5093  0.3688
   88MPD2    C1 1369   1.860   0.263   0.640  0.5082 -0.0829 -0.4824
   88MPD2    C2 1370   1.818   0.369   0.716 -0.2600 -0.6890 -0.4027
   88MPD2    C3 1371   1.888   0.491   0.708  0.5285  0.0889 -0.5718
   88MPD2    C4 1372   1.994   0.511   0.614  0.0822  0.1022 -0.7261
   88MPD2    C5 1373   2.028   0.401   0.543 -0.5390  0.2917 -0.2368
   88MPD2     H 1374   1.724   0.355   0.768 -0.0274 -1.8693 -0.2981
   88MPD2    H1 1375   2.040   0.608   0.601  0.3819 -0.0343 -0.6624
   88MPD2    H2 1376   2.011   0.195   0.497  1.1267  0.5871  1.3951
   88MPD2    H3 1377   2.114   0.412   0.478 -1.6008 -0.5196 -1.8026
   88MPD2     N 1378   1.843   0.607   0.767 -0.6228 -0.3769 -0.1698
   88MPD2    H5 1379   1.893   0.690   0.737 -1.1927 -0.3312 -0.9934
   88MPD2    N1 1380   1.804   0.129   0.646 -0.4696  0.0001 -0.1000
   88MPD2    H7 1381   1.843   0.056   0.587  1.4838 -0.0751  1.3034
   89TMC2    C1 1382   3.675   2.934   1.157 -0.1247 -0.2691  0.2030
   89TMC2    C2 1383   3.551   2.981   1.209 -0.3457  0.2672 -0.0809
   89TMC2    C3 1384   3.519   3.110   1.182  0.1218  0.6807  0.4007
   89TMC2    C4 1385   3.754   3.007   1.069  0.1384  0.2896  0.3141
   89TMC2    C5 1386   3.707   3.140   1.048 -0.1780  0.9000 -0.4480
   89TMC2    C6 1387   3.602   3.194   1.106 -0.4474 -0.1798 -0.3014
   89TMC2     C 1388   3.703   2.787   1.170  0.4953 -0.2388 -0.0192
   89TMC2     O 1389   3.806   2.744   1.116  0.4118 -0.2484  0.0525
   89TMC2     H 1390   3.483   2.924   1.271  1.2499  0.4584  1.8234
   89TMC2    H1 1391   3.833   2.957   1.014  0.2869  0.3633  0.4613
   89TMC2    H2 1392   3.570   3.297   1.112 -0.8155 -0.2748 -0.6208
   89TMC2    C7 1393   3.762   3.195   0.928 -0.3910  0.5878  0.1345
   89TMC2    C8 1394   3.451   3.179   1.291  0.4728 -0.6620 -0.8809
   89TMC2    O1 1395   3.843   3.137   0.856  0.7445  0.1024 -0.7919
   89TMC2    O2 1396   3.430   3.132   1.403  0.2718  0.4728  0.5521
   89TMC2    O5 1397   3.343   3.235   1.221  0.2057 -0.0212  0.0526
   89TMC2    H5 1398   3.342   3.238   1.123  0.0176 -0.6062  0.0374
   90MPD2     C 1399   3.602   2.289   1.234  0.6463  0.3792 -0.5356
   90MPD2    C1 1400   3.484   2.362   1.241  0.5685  0.2111  0.6653
   90MPD2    C2 1401   3.484   2.497   1.234 -0.0539  0.5113  0.8559
   90MPD2    C3 1402   3.606   2.566   1.226  0.2925 -0.5844 -0.9372
   90MPD2    C4 1403   3.718   2.495   1.238  0.2991 -0.3983 -0.2083
   90MPD2    C5 1404   3.720   2.354   1.236  0.4518  0.2924  1.1298
   90MPD2     H 1405   3.387   2.545   1.228  0.2853  1.1402  0.4291
   90MPD2    H1 1406   3.808   2.549   1.265 -1.0501  1.6953  0.0737
   90MPD2    H2 1407   3.608   2.180   1.233  1.0411  0.3955  0.6285
   90MPD2    H3 1408   3.807   2.290   1.234  1.1615  1.3492 -1.6946
   90MPD2     N 1409   3.599   2.708   1.215  0.7261  0.2327 -0.5050
   90MPD2    H5 1410   3.509   2.749   1.237  1.4729  1.3098  0.5429
   90MPD2    N1 1411   3.357   2.300   1.257 -0.0075  0.3643  0.2939
   90MPD2    H7 1412   3.274   2.359   1.256  1.2638  2.1853  4.4054
   91TMC2    C1 1413   0.379   3.190  16.607  0.1355  0.4590 -0.0027
   91TMC2    C2 1414   0.427   3.252  16.715 -0.2525  0.2688 -0.2674
   91TMC2    C3 1415   0.346   3.252  16.824  0.3744 -0.1226 -0.3580
   91TMC2    C4 1416   0.257   3.129  16.605 -0.1571  0.3408 -0.0460
   91TMC2    C5 1417   0.184   3.121  16.718  0.2610 -0.0118 -0.1313
   91TMC2    C6 1418   0.224   3.191  16.825 -0.4080 -0.1658 -0.6892
   91TMC2     C 1419   0.469   3.144  16.500 -0.3878 -0.2563 -1.0814
   91TMC2     O 1420   0.425   3.100  16.389  0.5511  0.2330  0.0604
   91TMC2     H 1421   0.523   3.302  16.721 -0.9811  1.2642  2.9043
   91TMC2    H1 1422   0.244   3.061  16.522  3.7856  1.6091 -1.6832
   91TMC2    H2 1423   0.175   3.173  16.920 -0.2205 -1.8304 -0.9094
   91TMC2    C7 1424   0.066   3.038  16.732 -0.2394  0.3588  0.8729
   91TMC2    C8 1425   0.394   3.301  16.950  0.5229 -0.2107  0.0756
   91TMC2    O1 1426   0.027   3.011  16.848 -0.0399  0.0189  0.1986
   91TMC2    O2 1427   0.505   3.277  16.989  0.5602  0.0677  0.4000
   91TMC2    O5 1428   0.294   3.371  17.007 -0.5834 -0.4708 -0.0886
   91TMC2    H5 1429   0.214   3.394  16.955 -0.8760  1.2855  1.1196
   92MPD2     C 1430   0.721   3.041  16.361 -0.4325  0.1776 -0.1766
   92MPD2    C1 1431   0.713   3.118  16.472  0.0749  0.0644  0.2083
   92MPD2    C2 1432   0.827   3.160  16.540 -0.6885 -0.3577  0.8994
   92MPD2    C3 1433   0.949   3.119  16.495 -0.4415 -0.4742 -0.8180
   92MPD2    C4 1434   0.959   3.045  16.378 -0.2028 -0.3232  0.1885
   92MPD2    C5 1435   0.847   3.014  16.307 -0.0562 -0.6625 -0.1918
   92MPD2     H 1436   0.827   3.225  16.627  0.4498 -0.5782  1.0718
   92MPD2    H1 1437   1.053   3.022  16.331  0.0545  0.8093  0.1558
   92MPD2    H2 1438   0.635   3.017  16.300  0.5114 -0.4176 -1.2633
   92MPD2    H3 1439   0.847   2.959  16.214 -0.1365 -0.2752 -0.4222
   92MPD2     N 1440   1.056   3.158  16.583  0.1356  0.4293  0.4211
   92MPD2    H5 1441   1.023   3.215  16.660 -1.0726 -0.4675  0.5771
   92MPD2    N1 1442   0.597   3.149  16.542 -0.4360 -0.2690 -0.4246
   92MPD2    H7 1443   0.620   3.182  16.635 -2.4946  2.0813 -0.7628
   93TMC2    C1 1444   2.527   2.959  14.090 -0.1510 -0.0747  0.4094
   93TMC2    C2 1445   2.503   2.832  14.034  0.3755  0.2185 -0.1928
   93TMC2    C3 1446   2.608   2.753  14.007 -0.0450  0.0862  0.3698
   93TMC2    C4 1447   2.653   3.000  14.121 -0.1643 -0.5103 -0.2143
   93TMC2    C5 1448   2.751   2.908  14.087  0.7323 -0.3014  0.0303
   93TMC2    C6 1449   2.735   2.782  14.042 -0.7591  0.1979  0.3790
   93TMC2     C 1450   2.415   3.024  14.154 -0.3379  0.1256 -0.7049
   93TMC2     O 1451   2.443   3.105  14.243 -0.4681  0.3048 -0.0619
   93TMC2     H 1452   2.408   2.790  14.005  0.2227  1.7071 -1.9257
   93TMC2    H1 1453   2.669   3.094  14.171  0.9236 -0.7938 -0.0190
   93TMC2    H2 1454   2.817   2.733  13.990 -0.8279  0.5514 -0.0631
   93TMC2    C7 1455   2.891   2.939  14.105  0.0019  0.6672 -0.3490
   93TMC2    C8 1456   2.598   2.679  13.888 -0.8953 -1.1107  0.2119
   93TMC2    O1 1457   2.969   2.849  14.136  0.1155 -0.1974  0.6087
   93TMC2    O2 1458   2.671   2.584  13.855  0.2032  0.2385 -0.4803
   93TMC2    O5 1459   2.541   2.758  13.794  0.1009  0.2777  0.3995
   93TMC2    H5 1460   2.524   2.852  13.817 -2.6414 -0.9083  3.0709
   94MPD2     C 1461   2.129   3.113  14.233 -0.1208 -0.2237  0.3767
   94MPD2    C1 1462   2.159   3.021  14.136  0.1492  0.5373 -0.6341
   94MPD2    C2 1463   2.058   2.942  14.079  0.2792 -0.1674  0.1580
   94MPD2    C3 1464   1.929   2.974  14.107  0.1789 -0.4763  0.8581
   94MPD2    C4 1465   1.900   3.070  14.194 -0.6722  0.6951 -0.0863
   94MPD2    C5 1466   2.000   3.141  14.252  0.4036 -0.4889 -0.8165
   94MPD2     H 1467   2.085   2.850  14.029  2.2415  0.9060 -0.7961
   94MPD2    H1 1468   1.806   3.102  14.235 -1.2196 -0.1898 -0.6376
   94MPD2    H2 1469   2.212   3.167  14.276 -0.4765  0.8109 -0.2275
   94MPD2    H3 1470   1.972   3.212  14.329 -1.2244 -1.0143 -0.9289
   94MPD2     N 1471   1.826   2.903  14.048 -0.2489 -0.3982 -0.0474
   94MPD2    H5 1472   1.733   2.944  14.048 -0.0102  0.1124  1.6694
   94MPD2    N1 1473   2.295   2.977  14.105 -0.7787  0.0248 -0.6897
   94MPD2    H7 1474   2.301   2.915  14.025  0.1876 -3.0937  1.7992
   95TMC2    C1 1475   2.011   4.503  16.318 -0.2736  1.1935  0.3000
   95TMC2    C2 1476   1.986   4.374  16.281  0.0793 -0.1004  0.3973
   95TMC2    C3 1477   1.946   4.286  16.380 -0.3593  0.3410 -0.1703
   95TMC2    C4 1478   1.996   4.553  16.446  0.0214 -0.1000 -0.5595
   95TMC2    C5 1479   1.941   4.473  16.538  0.1030 -0.5361 -0.0046
   95TMC2    C6 1480   1.911   4.340  16.507 -0.2428 -0.3914  0.5609
   95TMC2     C 1481   2.075   4.590  16.219 -0.5272  0.2541 -0.0866
   95TMC2     O 1482   2.151   4.677  16.268  0.0212 -0.3113  0.3979
   95TMC2     H 1483   2.002   4.330  16.183  0.2963 -1.5169  1.0686
   95TMC2    H1 1484   2.049   4.643  16.472 -0.5143  0.6781 -2.1227
   95TMC2    H2 1485   1.879   4.282  16.593  1.8325 -1.3385  0.7042
   95TMC2    C7 1486   1.949   4.517  16.673  0.2775 -0.6148  0.4367
   95TMC2    C8 1487   1.919   4.145  16.336  0.4151 -0.4956 -0.7848
   95TMC2    O1 1488   2.029   4.611  16.683 -0.4569 -0.2327  0.1285
   95TMC2    O2 1489   1.940   4.100  16.224 -0.0122 -0.2731 -0.4124
   95TMC2    O5 1490   1.820   4.092  16.419 -0.2126  0.1281 -0.0178
   95TMC2    H5 1491   1.798   4.151  16.495 -0.6803 -0.3629  0.2299
   96MPD2     C 1492   2.208   4.707  15.750 -0.5949  0.5889 -0.4476
   96MPD2    C1 1493   2.269   4.726  15.868  0.0877 -0.2599  0.7411
   96MPD2    C2 1494   2.222   4.664  15.979  0.0273  0.4572 -0.0344
   96MPD2    C3 1495   2.095   4.618  15.980  0.8578 -0.6591 -0.1304
   96MPD2    C4 1496   2.029   4.598  15.861 -0.1541 -0.3486 -0.1777
   96MPD2    C5 1497   2.081   4.652  15.743  0.1091  0.3735 -0.3444
   96MPD2     H 1498   2.274   4.681  16.072 -0.0537  0.7142 -0.0377
   96MPD2    H1 1499   1.934   4.546  15.862 -0.4324  0.1665  0.3137
   96MPD2    H2 1500   2.252   4.737  15.655 -1.0829  3.1990  0.1433
   96MPD2    H3 1501   2.028   4.642  15.649 -1.6011  0.5053  0.6083
   96MPD2     N 1502   2.034   4.564  16.093  0.1660  0.7573 -0.2808
   96MPD2    H5 1503   1.956   4.499  16.083 -0.5634  1.7715 -1.2041
   96MPD2    N1 1504   2.398   0.051  15.867 -0.2151 -0.4179 -0.4210
   96MPD2    H7 1505   2.440   0.067  15.776 -0.6932  0.5983 -0.4645
   97TMC2    C1 1506   4.327   2.657  17.650  0.0169 -0.1391  0.2963
   97TMC2    C2 1507   4.234   2.630  17.552  0.9488  0.6257  0.6572
   97TMC2    C3 1508   4.218   2.721  17.450 -0.2069 -0.6253  0.0002
   97TMC2    C4 1509   4.380   2.781  17.665 -0.5036  0.7807 -0.1013
   97TMC2    C5 1510   4.352   2.875  17.574 -0.3127  0.7660  0.5352
   97TMC2    C6 1511   4.280   2.845  17.462 -0.4727  0.1401  0.5381
   97TMC2     C 1512   4.345   2.562  17.755 -0.3212  0.5900  0.2422
   97TMC2     O 1513   4.264   2.469  17.755  0.2239  0.0533  0.1279
   97TMC2     H 1514   4.179   2.537  17.547  1.0545  0.6677 -1.2106
   97TMC2    H1 1515   4.449   2.808  17.745 -0.2531 -1.3784  0.3957
   97TMC2    H2 1516   4.271   2.911  17.376 -2.5050 -0.5925  0.2006
   97TMC2    C7 1517   4.416   3.010  17.604  0.4777 -0.8171 -0.1632
   97TMC2    C8 1518   4.157   2.684  17.322  0.5773  0.1663 -0.5012
   97TMC2    O1 1519   4.460   3.040  17.713  0.3570  0.3700  0.1555
   97TMC2    O2 1520   4.173   2.751  17.220 -0.0612 -0.1115  0.5370
   97TMC2    O5 1521   4.058   2.599  17.342  0.3604 -0.3615  0.0889
   97TMC2    H5 1522   4.053   2.580  17.438 -0.4577  0.7690  0.2794
   98MPD2     C 1523   4.564   2.363   0.415  0.1660 -0.0510 -0.6611
   98MPD2    C1 1524   4.440   2.334   0.358  0.1790  0.0293  0.3057
   98MPD2    C2 1525   4.405   2.410   0.251 -0.0752 -0.7939 -0.8913
   98MPD2    C3 1526   4.487   2.506   0.200 -0.1813 -0.2252  0.1184
   98MPD2    C4 1527   4.609   2.540   0.263  1.0024  0.6573 -0.5325
   98MPD2    C5 1528   4.647   2.460   0.365  0.3402  0.2762  0.2261
   98MPD2     H 1529   4.305   2.395   0.213 -0.6852  0.3069  0.2827
   98MPD2    H1 1530   4.682   2.613   0.230  1.5139  0.2128 -0.3847
   98MPD2    H2 1531   4.610   2.307   0.495  3.4339  1.5803 -1.4086
   98MPD2    H3 1532   4.739   2.480   0.419  0.3792  2.3378 -0.6144
   98MPD2     N 1533   4.453   2.583   0.078 -0.2873 -0.1526  0.0884
   98MPD2    H5 1534   4.512   2.660   0.051  0.6570 -0.4037  1.4148
   98MPD2    N1 1535   4.355   2.235   0.411 -0.1128  0.7370 -0.2849
   98MPD2    H7 1536   4.370   2.203   0.507  1.8529  0.9291 -0.5280
   99TMC2    C1 1537   2.814   4.656   1.526  0.4078  0.2425  0.2367
   99TMC2    C2 1538   2.883   4.689   1.641 -0.3924 -0.1547  0.2836
   99TMC2    C3 1539   2.810   4.693   1.754 -0.3771 -0.3387 -0.3343
   99TMC2    C4 1540   2.678   4.641   1.517  0.4926  0.0901  0.0597
   99TMC2    C5 1541   2.604   4.668   1.635 -0.6516 -0.0532  0.7754
   99TMC2    C6 1542   2.670   4.692   1.756  0.2200 -0.1283  0.5749
   99TMC2     C 1543   2.887   4.675   1.405  0.6401 -0.1756  0.8271
   99TMC2     O 1544   2.985   0.005   1.409  0.0006 -0.4621  0.2576
   99TMC2     H 1545   2.990   4.707   1.643 -0.3921 -0.0581 -0.5523
   99TMC2    H1 1546   2.627   4.631   1.422  1.0186  2.9168 -0.5187
   99TMC2    H2 1547   2.604   4.726   1.835 -0.0822 -1.3789  0.8685
   99TMC2    C7 1548   2.469   4.635   1.634  0.2244 -0.5669  0.3638
   99TMC2    C8 1549   2.874   0.006   1.875 -0.0758 -0.0933 -0.3845
   99TMC2    O1 1550   2.404   4.671   1.733  0.4502  0.4527 -0.4432
   99TMC2    O2 1551   2.814   0.068   1.966 -0.0377 -0.0013 -0.4709
   99TMC2    O5 1552   2.991   4.681   1.888 -0.0738 -0.5557 -0.7702
   99TMC2    H5 1553   3.001   4.612   1.819 -0.9905 -0.4760 -0.9708
  100MPD2     C 1554   2.994   4.646   1.134  0.3113  0.3381  0.7060
  100MPD2    C1 1555   2.894   4.572   1.182 -0.5255  0.0260 -0.1221
  100MPD2    C2 1556   2.835   4.478   1.108  0.3123  0.6209  0.8501
  100MPD2    C3 1557   2.882   4.440   0.990 -0.4464  0.0119  0.6285
  100MPD2    C4 1558   2.981   4.523   0.933 -0.3847  0.0238 -0.0604
  100MPD2    C5 1559   3.035   4.625   1.006 -0.2788 -0.2284  0.1977
  100MPD2     H 1560   2.746   4.425   1.141  1.2800 -0.5546  1.5862
  100MPD2    H1 1561   3.017   4.522   0.830  0.7363 -1.1317  0.3350
  100MPD2    H2 1562   3.041   4.722   1.197  0.8196  1.8251 -1.4506
  100MPD2    H3 1563   3.114   4.690   0.973 -0.0320  0.3845  2.0406
  100MPD2     N 1564   2.821   4.339   0.919 -0.1418  0.3847  0.0838
  100MPD2    H5 1565   2.731   4.304   0.949 -0.6991  0.4907 -1.5005
  100MPD2    N1 1566   2.837   4.598   1.308  0.0229 -0.2410  0.0757
  100MPD2    H7 1567   2.778   4.524   1.344 -3.6665  1.9077 -1.5168
  101TMC2    C1 1568   4.116   0.664  13.413 -0.0136 -0.3170 -0.3600
  101TMC2    C2 1569   4.047   0.777  13.457 -0.2684 -0.2890 -0.1630
  101TMC2    C3 1570   4.097   0.902  13.435 -0.0568  1.2803  0.1316
  101TMC2    C4 1571   4.239   0.682  13.352  0.1877 -0.4406 -0.5588
  101TMC2    C5 1572   4.282   0.806  13.332 -0.0780  0.0257 -0.4550
  101TMC2    C6 1573   4.221   0.921  13.377  0.2785 -0.4041 -0.5070
  101TMC2     C 1574   4.055   0.531  13.425  0.3519  0.1851  0.3815
  101TMC2     O 1575   3.964   0.524  13.505  0.3307  0.0455  0.4762
  101TMC2     H 1576   3.949   0.767  13.502  0.1166 -1.9290  0.2961
  101TMC2    H1 1577   4.304   0.604  13.316 -1.1899 -0.3943 -3.0914
  101TMC2    H2 1578   4.247   1.014  13.328  0.4195  0.3213  0.9379
  101TMC2    C7 1579   4.405   0.811  13.259  0.3849 -0.1395  0.0151
  101TMC2    C8 1580   3.995   1.007  13.434 -0.2113 -0.1914  0.0217
  101TMC2    O1 1581   4.431   0.730  13.168 -0.1602  0.1135  0.0310
  101TMC2    O2 1582   4.018   1.127  13.442  0.0493  0.5170 -0.4927
  101TMC2    O5 1583   3.891   0.952  13.366  0.6705  0.5079 -0.0672
  101TMC2    H5 1584   3.895   0.857  13.341 -0.4985  0.3218  0.4691
  102MPD2     C 1585   4.049   0.246  13.176 -0.1548  0.1306 -0.3279
  102MPD2    C1 1586   4.024   0.309  13.297 -0.1688 -0.0698  0.0361
  102MPD2    C2 1587   3.925   0.253  13.387 -0.0258 -0.2768  0.3420
  102MPD2    C3 1588   3.844   0.151  13.342 -0.3840 -0.9191  0.2014
  102MPD2    C4 1589   3.865   0.105  13.214 -0.4623  0.9437 -0.0861
  102MPD2    C5 1590   3.970   0.139  13.135  0.5280  0.4712 -0.8965
  102MPD2     H 1591   3.896   0.299  13.481  0.1936  2.0445 -0.7118
  102MPD2    H1 1592   3.804   0.022  13.180 -1.2618  1.1042  0.9833
  102MPD2    H2 1593   4.124   0.281  13.106 -1.6507 -0.2979 -2.1390
  102MPD2    H3 1594   3.983   0.093  13.038 -2.3328  0.5103 -1.3051
  102MPD2     N 1595   3.731   0.116  13.416  0.4580  0.0277 -0.0471
  102MPD2    H5 1596   3.705   0.170  13.497  0.3705  1.6761 -1.1663
  102MPD2    N1 1597   4.080   0.441  13.318  0.4360  0.4783  0.1103
  102MPD2    H7 1598   4.143   0.477  13.247 -0.6050  2.3960  0.1548
  103TMC2    C1 1599   2.038   1.329  12.931 -0.0522 -0.0657  0.0292
  103TMC2    C2 1600   2.039   1.440  12.852  0.5656  0.5566  0.0675
  103TMC2    C3 1601   1.928   1.524  12.865 -0.2611  1.0112 -0.0817
  103TMC2    C4 1602   1.920   1.292  12.999  0.1755  0.0203  0.4809
  103TMC2    C5 1603   1.815   1.369  13.008  0.1172  0.3399  0.3457
  103TMC2    C6 1604   1.824   1.494  12.954 -0.6742  0.2095  0.7857
  103TMC2     C 1605   2.093   1.219  12.864 -0.2599 -0.3846 -0.6318
  103TMC2     O 1606   2.100   1.203  12.740  0.4083 -0.3209  0.1464
  103TMC2     H 1607   2.125   1.454  12.787 -0.3896  0.4363 -1.2274
  103TMC2    H1 1608   1.908   1.199  13.053 -2.1220  0.2690  0.3880
  103TMC2    H2 1609   1.737   1.560  12.955 -1.2823 -0.5842 -0.6707
  103TMC2    C7 1610   1.700   1.322  13.062 -0.6033  0.0319  0.6555
  103TMC2    C8 1611   1.919   1.653  12.798  0.1133  1.3193 -0.6651
  103TMC2    O1 1612   1.703   1.250  13.163  0.4207  0.1553  0.2995
  103TMC2    O2 1613   1.819   1.727  12.808 -0.0447  0.2096 -0.0280
  103TMC2    O5 1614   2.043   1.706  12.797  0.2705 -0.4521 -0.0456
  103TMC2    H5 1615   2.110   1.650  12.840 -0.8361 -0.8470  1.1770
  104MPD2     C 1616   2.267   0.951  13.054 -0.1271  0.3481  0.2098
  104MPD2    C1 1617   2.188   1.001  12.950  0.0886 -0.2537  0.3413
  104MPD2    C2 1618   2.172   0.919  12.840 -0.6322  0.3522  0.4803
  104MPD2    C3 1619   2.217   0.790  12.844 -0.3140 -0.4883 -0.3204
  104MPD2    C4 1620   2.294   0.743  12.945 -0.2588 -0.2643 -0.5640
  104MPD2    C5 1621   2.322   0.821  13.048  0.9317  0.4713 -0.0540
  104MPD2     H 1622   2.118   0.961  12.756  0.3024  1.1089  0.2535
  104MPD2    H1 1623   2.335   0.642  12.942 -0.1009 -0.1683 -1.6885
  104MPD2    H2 1624   2.283   1.008  13.144  1.3225 -1.3265  1.0305
  104MPD2    H3 1625   2.393   0.790  13.124  1.0746  0.4861 -0.1810
  104MPD2     N 1626   2.187   0.712  12.732  0.4983 -0.2057 -0.5644
  104MPD2    H5 1627   2.130   0.754  12.659 -1.7815 -0.1403  1.2576
  104MPD2    N1 1628   2.146   1.138  12.964 -0.0760 -0.2853  0.1213
  104MPD2    H7 1629   2.134   1.171  13.059 -3.3326 -0.8427 -0.1046
  105TMC2    C1 1630   2.672   4.232   0.149  0.0371  1.3591  0.2715
  105TMC2    C2 1631   2.709   4.351   0.208  0.2109  0.5218  0.7700
  105TMC2    C3 1632   2.613   4.396   0.298  0.1535 -0.5294  0.0422
  105TMC2    C4 1633   2.563   4.152   0.177 -0.1052 -0.1154 -0.0572
  105TMC2    C5 1634   2.480   4.208   0.270 -0.0890  0.4387  0.0496
  105TMC2    C6 1635   2.497   4.332   0.322 -0.0216 -0.3806  0.0502
  105TMC2     C 1636   2.731   4.203   0.017  0.5891 -0.0074  0.7431
  105TMC2     O 1637   2.691   4.101  17.722 -0.2429  0.0769  0.1751
  105TMC2     H 1638   2.796   4.413   0.185 -0.9857  1.9129  0.0268
  105TMC2    H1 1639   2.551   4.052   0.139  1.0856 -0.5133  0.6332
  105TMC2    H2 1640   2.422   4.377   0.386 -0.4686 -0.5172 -0.3728
  105TMC2    C7 1641   2.366   4.126   0.307  0.4685 -0.9869 -0.3811
  105TMC2    C8 1642   2.644   4.505   0.385 -0.3752  0.5295  0.3139
  105TMC2    O1 1643   2.358   4.021   0.242  0.0289  0.8493  0.9434
  105TMC2    O2 1644   2.570   4.601   0.407 -0.2304 -0.0251 -0.0685
  105TMC2    O5 1645   2.748   4.461   0.463 -0.1698  0.2568  0.5144
  105TMC2    H5 1646   2.782   4.371   0.445  0.9410  1.3675 -2.9596
  106MPD2     C 1647   3.012   4.295  17.353 -0.4122 -0.2534  0.0719
  106MPD2    C1 1648   2.998   4.412  17.426  0.1412  0.2903  0.2081
  106MPD2    C2 1649   2.931   4.410  17.546 -0.2028 -0.2815 -0.7004
  106MPD2    C3 1650   2.873   4.295  17.593  0.6301  0.5033 -0.0824
  106MPD2    C4 1651   2.881   4.181  17.513  0.1810 -0.9191 -0.3905
  106MPD2    C5 1652   2.946   4.183  17.390  0.2850  0.2711  0.3851
  106MPD2     H 1653   2.920   4.499  17.607 -0.7881  1.0186 -2.7129
  106MPD2    H1 1654   2.832   4.089  17.544  1.7909 -1.8053 -0.5084
  106MPD2    H2 1655   3.054   4.287  17.253  0.4369  0.3611  0.3775
  106MPD2    H3 1656   2.966   4.099  17.325  1.1399  0.9689 -0.2426
  106MPD2     N 1657   2.805   4.304  17.720 -0.0695 -0.2761 -0.0735
  106MPD2    H5 1658   2.798   4.394   0.009  2.7056  0.1945 -0.5900
  106MPD2    N1 1659   3.049   4.534  17.386  0.5055 -0.2393  0.3832
  106MPD2    H7 1660   3.025   4.618  17.437  4.0191  1.1475 -0.2122
  107TMC2    C1 1661   4.240   4.569  11.879 -0.5737 -0.0005  0.1816
  107TMC2    C2 1662   4.256   4.705  11.865 -0.2018  0.1263  0.0709
  107TMC2    C3 1663   4.352   0.005  11.774 -0.9801 -0.2037 -0.4176
  107TMC2    C4 1664   4.304   4.476  11.803 -0.0698  0.6338 -0.0275
  107TMC2    C5 1665   4.397   4.530  11.702 -0.2412 -0.1367  0.1676
  107TMC2    C6 1666   4.424   4.665  11.686 -0.5234  0.1128 -0.5610
  107TMC2     C 1667   4.135   4.518  11.970  0.3071 -0.2913  0.4756
  107TMC2     O 1668   4.158   4.407  12.016  0.7167 -0.0280 -0.2870
  107TMC2     H 1669   4.207   0.030  11.937 -0.8139 -0.0361 -0.1990
  107TMC2    H1 1670   4.276   4.372  11.809 -1.5269  0.8182 -3.8113
  107TMC2    H2 1671   4.486   4.713  11.611  0.5762 -3.3328 -1.8487
  107TMC2    C7 1672   4.470   4.433  11.621 -0.9077 -0.3889 -0.1161
  107TMC2    C8 1673   4.385   0.144  11.770  0.4798 -0.4517 -0.1601
  107TMC2    O1 1674   4.529   4.475  11.521 -0.8405  0.1327 -0.1494
  107TMC2    O2 1675   4.460   0.192  11.690  0.2528 -0.6216  0.6728
  107TMC2    O5 1676   4.311   0.217  11.863 -0.4117 -0.1476 -0.4921
  107TMC2    H5 1677   4.330   0.313  11.857  4.3912 -1.1570 -1.3765
  108MPD2     C 1678   3.803   4.681  12.001 -1.0741  0.1022  0.6387
  108MPD2    C1 1679   3.900   4.589  12.032 -0.1190 -0.2747 -0.4279
  108MPD2    C2 1680   3.872   4.486  12.118 -0.6985  0.8447 -0.3390
  108MPD2    C3 1681   3.741   4.467  12.168  0.8500  0.5313 -0.3437
  108MPD2    C4 1682   3.645   4.564  12.144 -0.6516  0.7196  0.8102
  108MPD2    C5 1683   3.679   4.670  12.064 -0.2675 -0.1759  0.5859
  108MPD2     H 1684   3.949   4.410  12.124  1.0355  2.9050  3.4025
  108MPD2    H1 1685   3.544   4.547  12.180 -1.4583  0.9388 -1.3678
  108MPD2    H2 1686   3.825   0.031  11.945 -0.9748  0.7723  1.7473
  108MPD2    H3 1687   3.612   0.012  12.042  1.8030  1.0878 -0.9974
  108MPD2     N 1688   3.697   4.361  12.255 -1.0260 -0.1756 -0.8069
  108MPD2    H5 1689   3.599   4.363  12.282 -1.0976 -0.7044 -1.0205
  108MPD2    N1 1690   4.029   4.605  11.978 -0.4742  0.4013  0.0600
  108MPD2    H7 1691   4.027   4.691  11.923 -1.8029 -0.8854 -1.8863
  109TMC2    C1 1692   3.539   2.480   0.425  1.0275 -0.2737  0.6697
  109TMC2    C2 1693   3.638   2.574   0.415 -0.2477  0.6144 -0.0625
  109TMC2    C3 1694   3.770   2.538   0.408  0.3149 -0.5968 -0.5274
  109TMC2    C4 1695   3.568   2.350   0.416 -0.1183 -0.1369 -0.1257
  109TMC2    C5 1696   3.697   2.318   0.407  0.3219 -0.4194  0.2656
  109TMC2    C6 1697   3.802   2.410   0.398  0.4273 -0.1203  0.4313
  109TMC2     C 1698   3.405   2.532   0.445 -0.0548 -0.6367  0.8693
  109TMC2     O 1699   3.389   2.655   0.454  0.2165 -0.3972  0.4279
  109TMC2     H 1700   3.606   2.676   0.432  0.6917  0.7487  0.9512
  109TMC2    H1 1701   3.487   2.281   0.399  0.6702 -1.0159 -0.3451
  109TMC2    H2 1702   3.903   2.370   0.397  0.4145 -0.1538  0.4740
  109TMC2    C7 1703   3.726   2.182   0.381 -0.6676 -0.7450  0.6440
  109TMC2    C8 1704   3.858   2.643   0.457  0.5227  0.5606 -0.7701
  109TMC2    O1 1705   3.829   2.159   0.319 -0.1713 -1.2422 -0.1316
  109TMC2    O2 1706   3.822   2.718   0.549 -0.5802 -0.0253 -0.1892
  109TMC2    O5 1707   3.980   2.602   0.432 -0.2554 -0.0853  0.0819
  109TMC2    H5 1708   3.983   2.541   0.356  0.0522 -0.4126  0.3627
  110MPD2     C 1709   2.909   2.442   0.549  0.0284  0.5330 -0.0962
  110MPD2    C1 1710   2.958   2.332   0.480 -0.4108 -0.6435  0.0517
  110MPD2    C2 1711   3.096   2.332   0.449 -0.5273 -0.2608 -0.2730
  110MPD2    C3 1712   3.169   2.449   0.465  0.0255  0.1703 -0.4593
  110MPD2    C4 1713   3.114   2.564   0.521 -0.1180 -0.0616  0.1183
  110MPD2    C5 1714   2.985   2.561   0.558 -0.2659 -0.3705  0.2335
  110MPD2     H 1715   3.143   2.247   0.400  0.1479 -0.5760  0.9365
  110MPD2    H1 1716   3.167   2.658   0.519  1.4127 -0.9752 -1.3949
  110MPD2    H2 1717   2.811   2.438   0.594 -0.2074  2.3550 -0.4422
  110MPD2    H3 1718   2.945   2.646   0.612 -0.5311  0.2416 -0.9352
  110MPD2     N 1719   3.305   2.437   0.427  0.2300  0.3694  0.0075
  110MPD2    H5 1720   3.329   2.342   0.401 -1.0082 -0.1787  0.8327
  110MPD2    N1 1721   2.880   2.217   0.460  0.0969 -1.5439 -0.0763
  110MPD2    H7 1722   2.790   2.212   0.506  0.6127 -0.4810  1.0532
  111TMC2    C1 1723   3.944   1.094  11.988  0.3435 -0.0393 -0.2826
  111TMC2    C2 1724   3.862   1.171  12.064  0.0288 -0.0173  0.0652
  111TMC2    C3 1725   3.914   1.204  12.187 -0.3837 -0.4833  0.5323
  111TMC2    C4 1726   4.064   1.046  12.033  0.2704 -0.3928  0.8278
  111TMC2    C5 1727   4.107   1.074  12.163 -0.1913 -0.6525 -0.3356
  111TMC2    C6 1728   4.028   1.150  12.243 -0.1489  0.2244  0.0183
  111TMC2     C 1729   3.911   1.072  11.841 -0.3340 -0.1156 -0.1425
  111TMC2     O 1730   3.995   1.012  11.776 -0.1550 -0.5905  0.2768
  111TMC2     H 1731   3.761   1.199  12.037  0.8057  0.9095 -1.8420
  111TMC2    H1 1732   4.127   0.984  11.970  2.0878  0.2892  1.9870
  111TMC2    H2 1733   4.065   1.180  12.340  0.7725  0.6829 -0.4681
  111TMC2    C7 1734   4.232   1.013  12.212 -0.9979  0.0080  0.2008
  111TMC2    C8 1735   3.840   1.286  12.282 -0.3221 -0.5890 -0.4804
  111TMC2    O1 1736   4.292   1.069  12.299 -0.3524 -0.7128 -0.0329
  111TMC2    O2 1737   3.863   1.280  12.405  0.2667  0.1070 -0.0316
  111TMC2    O5 1738   3.778   1.393  12.220 -0.3302 -0.3372 -0.5408
  111TMC2    H5 1739   3.781   1.389  12.122  1.4036  1.8779 -0.5674
  112MPD2     C 1740   3.635   1.175  11.420 -0.4427  0.3138  0.0324
  112MPD2    C1 1741   3.770   1.141  11.425 -0.0343  0.0078  0.2125
  112MPD2    C2 1742   3.820   1.123  11.558  0.0062  0.1494 -0.6658
  112MPD2    C3 1743   3.749   1.153  11.672  0.9196  0.2899 -0.0110
  112MPD2    C4 1744   3.620   1.208  11.656  0.5550  0.7436  0.9388
  112MPD2    C5 1745   3.563   1.208  11.532  0.2802  0.3474  0.3668
  112MPD2     H 1746   3.924   1.093  11.569 -0.1164  0.5263  1.7016
  112MPD2    H1 1747   3.563   1.229  11.745 -0.3864  0.7590  0.3337
  112MPD2    H2 1748   3.581   1.177  11.326 -0.7177  1.2386  0.2093
  112MPD2    H3 1749   3.466   1.254  11.513  1.1958  1.1845 -2.4476
  112MPD2     N 1750   3.793   1.146  11.805  0.5433  0.2604  0.3477
  112MPD2    H5 1751   3.729   1.179  11.876  3.0815  1.3341  2.1080
  112MPD2    N1 1752   3.854   1.119  11.313  0.1053 -0.3869  0.2859
  112MPD2    H7 1753   3.940   1.068  11.327 -0.6330 -1.8467 -0.4249
  113TMC2    C1 1754   1.602   3.771   0.558 -0.3798 -0.8348 -0.2796
  113TMC2    C2 1755   1.515   3.875   0.514  0.0339  0.6495 -0.0611
  113TMC2    C3 1756   1.389   3.829   0.462  0.1761 -0.0127  0.2545
  113TMC2    C4 1757   1.560   3.642   0.561 -0.7593  0.1121  0.1014
  113TMC2    C5 1758   1.436   3.610   0.517  0.7798  0.0776 -0.5527
  113TMC2    C6 1759   1.350   3.703   0.466  0.5375 -0.0338  0.3251
  113TMC2     C 1760   1.735   3.800   0.600  0.1529  0.7579 -0.0761
  113TMC2     O 1761   1.816   3.708   0.606  0.0531 -0.1118 -0.0936
  113TMC2     H 1762   1.552   3.969   0.473  1.2386  0.3164  0.2543
  113TMC2    H1 1763   1.629   3.565   0.593 -1.7381 -1.7857 -2.3359
  113TMC2    H2 1764   1.268   3.667   0.404 -0.0592  0.7125  0.6766
  113TMC2    C7 1765   1.373   3.501   0.586  0.8190  0.0281  0.2302
  113TMC2    C8 1766   1.307   3.915   0.383 -0.0189  0.3646  0.0808
  113TMC2    O1 1767   1.274   3.459   0.524  0.4727 -0.1512  0.3401
  113TMC2    O2 1768   1.347   4.020   0.340  0.1075  0.5642  0.0258
  113TMC2    O5 1769   1.186   3.909   0.447 -0.3102 -0.1218 -0.0124
  113TMC2    H5 1770   1.192   3.838   0.515  2.7476  1.5101  1.4077
  114MPD2     C 1771   2.045   4.115   0.844 -0.3336  0.5431  0.3482
  114MPD2    C1 1772   1.916   4.173   0.844 -0.2400  0.0727 -0.1024
  114MPD2    C2 1773   1.818   4.106   0.774 -0.2199  0.5118 -0.1297
  114MPD2    C3 1774   1.842   3.980   0.720 -0.4027  0.2992  0.0726
  114MPD2    C4 1775   1.967   3.923   0.723 -0.3491 -0.1167 -0.9854
  114MPD2    C5 1776   2.068   3.992   0.793  0.0283  0.3086  0.6422
  114MPD2     H 1777   1.721   4.149   0.753  0.2551  1.0069 -1.2747
  114MPD2    H1 1778   1.985   3.827   0.676 -1.6363 -0.6681 -0.3374
  114MPD2    H2 1779   2.117   4.159   0.912  2.6461 -2.4099 -0.9051
  114MPD2    H3 1780   2.172   3.962   0.788  0.1481  0.8264 -0.0026
  114MPD2     N 1781   1.728   3.925   0.658  0.3890 -0.2339  0.3859
  114MPD2    H5 1782   1.639   3.974   0.647  0.6973  0.0179 -1.0326
  114MPD2    N1 1783   1.876   4.289   0.922  0.0110 -0.6817 -0.5891
  114MPD2    H7 1784   1.778   4.318   0.923 -0.3960 -2.1208  1.8106
  115TMC2    C1 1785   3.271   2.353  17.524 -0.0171 -0.0349  0.0291
  115TMC2    C2 1786   3.358   2.265  17.573  0.2167 -0.2480 -0.0671
  115TMC2    C3 1787   3.453   2.314  17.662  0.6434 -0.5166  0.7173
  115TMC2    C4 1788   3.277   2.486  17.556 -0.0836 -0.2835 -0.0406
  115TMC2    C5 1789   3.366   2.528  17.648  0.2586 -0.8139  0.0628
  115TMC2    C6 1790   3.442   2.437  17.711 -0.3368 -0.6042  0.2761
  115TMC2     C 1791   3.149   2.285  17.493 -0.5415  0.0283 -0.0857
  115TMC2     O 1792   3.149   2.161  17.491  0.1311  0.3645  0.0384
  115TMC2     H 1793   3.360   2.163  17.535  2.0423 -0.5520  0.8237
  115TMC2    H1 1794   3.204   2.554  17.513 -1.3121 -0.5352  1.6466
  115TMC2    H2 1795   3.511   2.472   0.029  1.5415 -1.5721 -1.0009
  115TMC2    C7 1796   3.376   2.669  17.683  0.3554  0.1122  0.1295
  115TMC2    C8 1797   3.565   2.232  17.703  0.8425 -0.4024 -1.0465
  115TMC2    O1 1798   3.423   2.686   0.037  0.5519 -0.4196 -0.1385
  115TMC2    O2 1799   3.625   2.248   0.049  0.6586 -0.2790 -0.0989
  115TMC2    O5 1800   3.596   2.157  17.599  0.1779 -0.2136  0.1724
  115TMC2    H5 1801   3.546   2.167  17.515 -1.5984 -0.9328  1.1496
  116MPD2     C 1802   2.625   2.299  17.423  0.0150  0.1837  0.1592
  116MPD2    C1 1803   2.711   2.193  17.446  0.2761  0.2037 -0.3490
  116MPD2    C2 1804   2.845   2.217  17.476  0.0807  0.3418 -0.3699
  116MPD2    C3 1805   2.904   2.346  17.484 -0.3905  0.3048 -0.1402
  116MPD2    C4 1806   2.822   2.445  17.455 -0.2809  0.6287  0.2941
  116MPD2    C5 1807   2.693   2.413  17.423  0.0544 -0.2799  0.0659
  116MPD2     H 1808   2.914   2.136  17.498 -0.9999 -0.3039  0.6441
  116MPD2    H1 1809   2.848   2.550  17.450  0.1631  0.4825 -0.4351
  116MPD2    H2 1810   2.519   2.300  17.405 -0.1048 -2.0537  0.7041
  116MPD2    H3 1811   2.629   2.499  17.404 -0.6320 -1.2979 -2.2273
  116MPD2     N 1812   3.042   2.376  17.496  0.1122  0.7401  0.0803
  116MPD2    H5 1813   3.066   2.474  17.497  0.5858  0.6347 -1.4335
  116MPD2    N1 1814   2.657   2.067  17.427  0.0321 -0.5135  0.1366
  116MPD2    H7 1815   2.557   2.058  17.410  0.3362 -0.1196 -1.8568
  117TMC2    C1 1816   1.622   3.314  14.434  0.4297 -0.4491 -0.3120
  117TMC2    C2 1817   1.673   3.262  14.548 -0.0648 -0.7326  0.6333
  117TMC2    C3 1818   1.714   3.355  14.644  0.1352  0.2961 -0.3609
  117TMC2    C4 1819   1.595   3.446  14.419  0.1393  0.2117 -0.1017
  117TMC2    C5 1820   1.645   3.533  14.514 -0.4561  0.2030 -0.1289
  117TMC2    C6 1821   1.713   3.492  14.623  0.7765 -0.1791 -0.2418
  117TMC2     C 1822   1.536   3.215  14.367  0.1147  0.5897  0.0463
  117TMC2     O 1823   1.573   3.099  14.357 -0.1930  0.1182  0.6832
  117TMC2     H 1824   1.655   3.156  14.561  0.3417 -0.9700 -0.8658
  117TMC2    H1 1825   1.552   3.482  14.326  0.1243  1.7002  0.4885
  117TMC2    H2 1826   1.735   3.561  14.703 -0.7890  1.3726 -1.1444
  117TMC2    C7 1827   1.642   3.672  14.479  0.6120  0.1817 -0.5379
  117TMC2    C8 1828   1.748   3.316  14.781  1.0035  0.3987  0.2330
  117TMC2    O1 1829   1.726   3.733  14.547 -0.0060  0.5478  0.2632
  117TMC2    O2 1830   1.730   3.390  14.871 -0.2787  0.8998 -0.2712
  117TMC2    O5 1831   1.823   3.208  14.783  0.7830  0.6793  0.2302
  117TMC2    H5 1832   1.849   3.179  14.693 -0.5688  0.1276  0.0251
  118MPD2     C 1833   1.434   3.863  14.250  0.8269 -0.3369  0.1093
  118MPD2    C1 1834   1.551   3.836  14.322 -0.1555  0.0252 -0.5423
  118MPD2    C2 1835   1.653   3.931  14.308  0.2229 -0.1414  0.6679
  118MPD2    C3 1836   1.646   4.044  14.232  0.0765  0.0490 -0.3226
  118MPD2    C4 1837   1.521   4.066  14.163 -0.6009  0.3954 -0.0789
  118MPD2    C5 1838   1.421   3.981  14.172 -0.0598  0.1203  0.4926
  118MPD2     H 1839   1.744   3.915  14.366  1.0516 -0.6695 -0.7786
  118MPD2    H1 1840   1.513   4.153  14.099 -0.4357  0.6344  0.2227
  118MPD2    H2 1841   1.349   3.796  14.247 -1.0983  2.0566  2.3802
  118MPD2    H3 1842   1.330   3.998  14.116 -0.0141 -0.2472  0.3033
  118MPD2     N 1843   1.747   4.136  14.208 -0.8115  0.1052 -0.6388
  118MPD2    H5 1844   1.729   4.215  14.147 -2.3438  0.5226  0.3459
  118MPD2    N1 1845   1.552   3.711  14.382  0.0000 -0.3786 -0.1328
  118MPD2    H7 1846   1.471   3.651  14.372  0.3844 -0.7194 -1.2208
  119TMC2    C1 1847   4.446   0.008  13.532 -0.0904 -0.3857  0.1797
  119TMC2    C2 1848   4.501   0.029  13.402  0.4973  0.6899  0.6788
  119TMC2    C3 1849   4.441   4.710  13.291  1.2485  0.5355 -0.7070
  119TMC2    C4 1850   4.331   4.675  13.546  0.0005  0.3763 -0.4422
  119TMC2    C5 1851   4.265   4.624  13.432  0.5238  0.5061 -0.1002
  119TMC2    C6 1852   4.322   4.637  13.309  0.2288 -0.1535 -0.6649
  119TMC2     C 1853   4.492   0.074  13.650  0.0587  0.5374 -0.2443
  119TMC2     O 1854   4.430   0.043  13.755  0.5059 -0.1319 -0.4121
  119TMC2     H 1855   4.578   0.104  13.388  1.1512 -0.3590 -1.2142
  119TMC2    H1 1856   4.287   4.657  13.644 -0.8831  0.2938 -0.8586
  119TMC2    H2 1857   4.256   4.604  13.230  1.9147 -2.4905 -1.0955
  119TMC2    C7 1858   4.143   4.547  13.438 -0.0132 -0.0154 -0.2269
  119TMC2    C8 1859   4.462   0.023  13.151 -0.3125 -0.0321  0.3454
  119TMC2    O1 1860   4.070   4.525  13.343 -0.4338  0.6936 -0.2720
  119TMC2    O2 1861   4.535   0.120  13.134 -0.8855  0.2387 -0.2192
  119TMC2    O5 1862   4.417   4.685  13.052  0.6995 -0.0888  0.0909
  119TMC2    H5 1863   4.374   4.600  13.072  0.9884 -0.1900  0.2914
  120MPD2     C 1864   0.086   0.347  13.927  0.2882 -0.2874 -0.0065
  120MPD2    C1 1865   4.715   0.265  13.969 -0.3154  0.4528 -0.4663
  120MPD2    C2 1866   4.637   0.211  13.869  0.2439  0.3271  0.6442
  120MPD2    C3 1867   4.678   0.218  13.736  0.2168  0.3808 -0.4533
  120MPD2    C4 1868   0.050   0.289  13.695 -0.0429  0.6660 -0.4224
  120MPD2    C5 1869   0.121   0.357  13.791  0.5032  0.1318  0.2906
  120MPD2     H 1870   4.548   0.159  13.903  0.3589  0.6289  1.3853
  120MPD2    H1 1871   0.079   0.294  13.591  0.3895  0.7070 -0.3018
  120MPD2    H2 1872   0.149   0.387  14.005 -1.5083 -0.3925  1.5005
  120MPD2    H3 1873   0.201   0.422  13.758 -2.0948  1.9679 -2.2952
  120MPD2     N 1874   4.608   0.149  13.634 -0.6937  0.4206 -0.5919
  120MPD2    H5 1875   4.642   0.166  13.540 -0.9710 -0.4443 -0.8489
  120MPD2    N1 1876   4.686   0.260  14.109  0.2394  0.0128  0.0564
  120MPD2    H7 1877   4.735   0.333  14.160 -0.9464  1.4273 -0.8587
  121TMC2    C1 1878   1.142   1.604  14.424  0.0376 -0.0347 -0.0489
  121TMC2    C2 1879   1.143   1.533  14.542 -0.6537 -0.2910 -0.4841
  121TMC2    C3 1880   1.016   1.495  14.583  0.0596  0.2556  0.4544
  121TMC2    C4 1881   1.031   1.626  14.346 -0.0908  0.1967 -0.7757
  121TMC2    C5 1882   0.901   1.592  14.401  0.3243 -0.3240 -0.1583
  121TMC2    C6 1883   0.896   1.518  14.517  0.9052  0.1922 -0.2434
  121TMC2     C 1884   1.280   1.627  14.372  0.5282 -0.6826 -0.8392
  121TMC2     O 1885   1.368   1.612  14.455 -0.0875 -0.7912  0.2028
  121TMC2     H 1886   1.234   1.511  14.597  0.0915  1.6268 -0.9610
  121TMC2    H1 1887   1.045   1.660  14.244 -2.4252  1.3326 -0.7118
  121TMC2    H2 1888   0.803   1.480  14.558  0.0574  1.7678 -0.7424
  121TMC2    C7 1889   0.795   1.622  14.309  0.4624 -0.4839  0.3598
  121TMC2    C8 1890   0.997   1.422  14.712  0.0798 -0.7754  0.3862
  121TMC2    O1 1891   0.828   1.673  14.204  0.2184  0.0827 -0.4423
  121TMC2    O2 1892   0.901   1.423  14.789 -0.0105 -0.2656  0.1738
  121TMC2    O5 1893   1.070   1.308  14.690  0.3851 -0.5186  0.1055
  121TMC2    H5 1894   1.124   1.313  14.608 -1.5860 -1.0598 -1.2377
  122MPD2     C 1895   1.531   1.681  14.211 -0.5364  0.5814  0.2809
  122MPD2    C1 1896   1.406   1.697  14.169  0.5231  0.4176  0.4929
  122MPD2    C2 1897   1.382   1.750  14.042 -0.9044  0.0056  0.0885
  122MPD2    C3 1898   1.476   1.772  13.950  0.0220  0.3456  0.0998
  122MPD2    C4 1899   1.602   1.745  13.991 -0.8600 -1.0411 -0.7057
  122MPD2    C5 1900   1.634   1.710  14.125 -0.3856  0.7022  0.1970
  122MPD2     H 1901   1.278   1.772  14.018 -0.3533 -0.1651 -2.3770
  122MPD2    H1 1902   1.684   1.786  13.933  0.3816 -1.1555  0.9283
  122MPD2    H2 1903   1.560   1.654  14.312 -1.1568 -1.3919 -0.0850
  122MPD2    H3 1904   1.732   1.709  14.170 -1.3405  1.9438  2.3083
  122MPD2     N 1905   1.447   1.827  13.823 -0.0754 -0.2886 -0.4035
  122MPD2    H5 1906   1.524   1.851  13.762 -1.9115  1.4246 -2.0382
  122MPD2    N1 1907   1.289   1.669  14.245  0.4339 -0.3862  1.2515
  122MPD2    H7 1908   1.202   1.676  14.195  1.6209 -1.4715 -0.9482
  123TMC2    C1 1909   4.499   0.061  11.301  0.1034 -0.0670 -0.5386
  123TMC2    C2 1910   4.494   0.169  11.381  0.3847  0.4923  0.0287
  123TMC2    C3 1911   4.609   0.243  11.405 -0.4184  0.2626  0.4984
  123TMC2    C4 1912   4.619   0.016  11.253  0.6093  0.0820 -0.4884
  123TMC2    C5 1913   4.730   0.079  11.291 -0.1710  0.3076  0.0176
  123TMC2    C6 1914   4.731   0.201  11.353  0.5973 -0.2550 -0.5195
  123TMC2     C 1915   4.379   0.017  11.243 -0.1117  0.2038  0.2970
  123TMC2     O 1916   4.275   0.024  11.310  0.8529  0.2315  0.0633
  123TMC2     H 1917   4.394   0.206  11.397  0.8284  1.8868 -0.3701
  123TMC2    H1 1918   4.635   4.671  11.187 -0.7149 -0.1302 -0.5380
  123TMC2    H2 1919   0.075   0.265  11.377  1.0077 -0.9376 -0.1372
  123TMC2    C7 1920   0.114   0.029  11.225  0.3706  0.7551  0.2911
  123TMC2    C8 1921   4.596   0.376  11.438 -0.5866  0.3004  0.6249
  123TMC2    O1 1922   0.137   4.651  11.218 -0.2772  0.1708  0.0615
  123TMC2    O2 1923   4.649   0.458  11.369  0.2214 -0.1107 -0.8523
  123TMC2    O5 1924   4.494   0.387  11.527 -0.5055 -0.0166 -0.2898
  123TMC2    H5 1925   4.490   0.307  11.583 -1.6627 -0.7004 -1.3673
  124MPD2     C 1926   4.155   4.392  10.956  0.1431 -0.6996 -0.6111
  124MPD2    C1 1927   4.286   4.414  10.915 -0.5561  0.5005 -0.1143
  124MPD2    C2 1928   4.361   4.510  10.978 -0.2902 -0.1166  0.5363
  124MPD2    C3 1929   4.309   4.589  11.079  0.0254 -0.4320 -0.3612
  124MPD2    C4 1930   4.174   4.576  11.108  0.5208 -0.9340 -0.4274
  124MPD2    C5 1931   4.101   4.473  11.055 -0.8325  0.1854 -0.3766
  124MPD2     H 1932   4.458   4.545  10.943  0.0468  0.1255  1.7114
  124MPD2    H1 1933   4.125   4.632  11.186 -0.3177  0.0265 -1.6334
  124MPD2    H2 1934   4.092   4.320  10.904  0.5457 -0.4642 -1.4156
  124MPD2    H3 1935   3.993   4.468  11.059 -0.6570 -1.2748  1.9934
  124MPD2     N 1936   4.399   4.686  11.135  0.0967  0.6998 -0.1637
  124MPD2    H5 1937   4.490   4.690  11.091 -0.7737  2.0361 -1.8131
  124MPD2    N1 1938   4.337   4.348  10.800  0.1928  0.0475 -0.1626
  124MPD2    H7 1939   4.268   4.299  10.745 -0.0159  0.9297 -0.6853
  125TMC2    C1 1940   1.033   1.521   9.953  0.1501 -0.5958 -0.3181
  125TMC2    C2 1941   1.010   1.619  10.046 -0.1693 -0.6289 -0.2316
  125TMC2    C3 1942   1.057   1.748  10.017  0.8237 -0.3483 -0.2213
  125TMC2    C4 1943   1.101   1.547   9.837  0.1432  0.2950  0.3777
  125TMC2    C5 1944   1.136   1.674   9.805  0.7081 -1.1494  0.2466
  125TMC2    C6 1945   1.116   1.775   9.894 -0.2041  0.2089 -0.6599
  125TMC2     C 1946   1.011   1.394  10.006 -0.3384 -0.0350  0.8490
  125TMC2     O 1947   0.947   1.374  10.110 -0.1100  0.3094  0.1894
  125TMC2     H 1948   0.957   1.599  10.139 -0.5657  0.6447 -0.1817
  125TMC2    H1 1949   1.100   1.474   9.758 -1.2717 -1.1069  1.6784
  125TMC2    H2 1950   1.146   1.877   9.873 -0.4419  0.3149 -0.4852
  125TMC2    C7 1951   1.185   1.703   9.675 -0.4606 -0.7010  0.3205
  125TMC2    C8 1952   1.042   1.856  10.109 -0.3491 -0.2418 -0.0558
  125TMC2    O1 1953   1.177   1.820   9.644  0.1098 -0.0515  0.2462
  125TMC2    O2 1954   1.031   1.975  10.080  0.2731 -0.2519  0.7597
  125TMC2    O5 1955   1.061   1.810  10.233  0.0666 -0.1142 -0.4323
  125TMC2    H5 1956   1.096   1.719  10.244 -0.2808  0.0817  2.2481
  126MPD1     C 1957   1.033   0.880   9.970  0.8217  0.2719 -0.1279
  126MPD1    C1 1958   1.113   0.936   9.869 -0.4019  0.4632  0.0361
  126MPD1    C2 1959   1.129   1.068   9.869 -0.6307  0.4062  0.0081
  126MPD1    C3 1960   1.066   1.155   9.960  0.1252 -0.2124  0.4435
  126MPD1    C4 1961   0.991   1.093  10.069  0.0690 -0.5345 -0.3117
  126MPD1    C5 1962   0.965   0.959  10.064 -0.3183 -0.4983 -0.1534
  126MPD1     H 1963   1.184   1.119   9.791 -0.4948 -2.6990 -1.9138
  126MPD1    H1 1964   0.945   1.152  10.147  1.8159  0.4617 -0.0286
  126MPD1    H2 1965   1.037   0.772   9.977  1.0492  0.2591 -0.4474
  126MPD1    H3 1966   0.920   0.914  10.152 -3.0019  0.7286 -0.8938
  126MPD1     N 1967   1.084   1.297   9.943 -0.1976 -0.8381 -0.0922
  126MPD1    H5 1968   1.145   1.318   9.865 -0.1566 -0.1358  0.1330
  126MPD1    N1 1969   1.159   0.861   9.759 -0.6420  0.1042  0.2727
  126MPD1    H6 1970   1.170   0.762   9.781 -0.9414 -0.2437 -1.1143
  126MPD1    H7 1971   1.247   0.893   9.721 -1.1911 -0.0364 -1.1315
  127TMC2    C1 1972   2.670   4.614  10.275  0.3780 -0.2569 -0.4493
  127TMC2    C2 1973   2.725   4.621  10.400  0.4850 -0.2754 -0.3578
  127TMC2    C3 1974   2.642   4.583  10.502  0.3366  0.0366  0.3160
  127TMC2    C4 1975   2.546   4.571  10.246  0.0588 -0.1761 -0.4139
  127TMC2    C5 1976   2.461   4.541  10.352  0.1071  0.3794 -0.3902
  127TMC2    C6 1977   2.514   4.541  10.475 -0.1162 -0.2946  0.1884
  127TMC2     C 1978   2.727   4.675  10.157 -1.1143  0.2703 -0.3544
  127TMC2     O 1979   2.698   4.631  10.045  0.4799  0.2128  0.2938
  127TMC2     H 1980   2.830   4.638  10.423  1.2403 -2.4176 -2.1707
  127TMC2    H1 1981   2.504   4.568  10.146 -1.7129 -0.0228  0.3091
  127TMC2    H2 1982   2.446   4.517  10.557 -2.0414  0.7781 -1.0935
  127TMC2    C7 1983   2.332   4.489  10.315  0.0952  0.5465 -0.0387
  127TMC2    C8 1984   2.702   4.552  10.628 -0.3447 -0.5510 -0.1483
  127TMC2    O1 1985   2.291   4.508  10.205 -0.3300 -0.1931 -0.1432
  127TMC2    O2 1986   2.796   4.610  10.679 -0.0802  0.1043 -0.1101
  127TMC2    O5 1987   2.638   4.455  10.692 -0.4216 -0.2255  0.4443
  127TMC2    H5 1988   2.567   4.403  10.650  0.4631 -0.1136 -1.1667
  128MPD2     C 1989   3.008   0.171  10.124  0.4076  0.1713  0.5691
  128MPD2    C1 1990   2.886   0.112  10.095 -0.6386 -0.4324 -0.0694
  128MPD2    C2 1991   2.823   0.147   9.976 -0.0842 -0.0246  0.4991
  128MPD2    C3 1992   2.872   0.249   9.895 -0.7591  0.3919 -0.6831
  128MPD2    C4 1993   2.989   0.313   9.919 -0.1387 -0.2730 -0.1047
  128MPD2    C5 1994   3.055   0.265  10.028  0.4018  0.1990  0.7675
  128MPD2     H 1995   2.732   0.103   9.937 -0.3551  2.1565 -1.2854
  128MPD2    H1 1996   3.038   0.386   9.855 -1.6618  1.2391  0.4505
  128MPD2    H2 1997   3.068   0.131  10.205  1.6108 -0.7576 -0.7867
  128MPD2    H3 1998   3.149   0.316  10.049  0.3055  0.0013  1.6692
  128MPD2     N 1999   2.787   0.280   9.782  0.6863  0.5533 -0.1956
  128MPD2    H5 2000   2.694   0.240   9.781  0.5009  0.9672  0.4775
  128MPD2    N1 2001   2.832   0.015  10.185  0.1251 -0.0176 -0.2392
  128MPD2    H7 2002   2.879   0.013  10.276 -2.9180 -1.0451  1.3077
  129TMC2    C1 2003   0.147   0.338   1.428 -0.2291 -0.9383  0.1264
  129TMC2    C2 2004   0.141   0.212   1.388 -0.8986 -0.1146 -0.1673
  129TMC2    C3 2005   0.022   0.154   1.391  0.0047  0.7554 -0.4274
  129TMC2    C4 2006   0.038   0.419   1.451 -0.0817 -0.1093 -0.2687
  129TMC2    C5 2007   4.657   0.351   1.458  0.7614 -0.4028 -0.2591
  129TMC2    C6 2008   4.647   0.218   1.423  0.7187 -0.4347 -0.0838
  129TMC2     C 2009   0.284   0.399   1.424  0.4216  0.6871  0.5583
  129TMC2     O 2010   0.376   0.329   1.389 -0.3438  0.5409  0.0117
  129TMC2     H 2011   0.224   0.144   1.372 -0.7734 -0.2104  0.8763
  129TMC2    H1 2012   0.047   0.527   1.451 -0.9412 -0.0384  0.2663
  129TMC2    H2 2013   4.549   0.173   1.432  0.1917  0.2126 -2.5587
  129TMC2    C7 2014   4.541   0.429   1.482 -0.8697  0.3799  0.5785
  129TMC2    C8 2015   0.014   0.004   1.403  1.2183 -0.5898 -0.3762
  129TMC2    O1 2016   4.431   0.380   1.459  0.0561 -0.6561  0.4049
  129TMC2    O2 2017   0.032   4.674   1.305  0.1698  0.0810 -0.0779
  129TMC2    O5 2018   4.641   4.723   1.475 -0.1221 -0.2554 -0.5221
  129TMC2    H5 2019   4.646   0.036   1.557 -1.1785 -2.0838  0.7323
  130MPD2     C 2020   0.509   0.589   1.385 -0.2131  0.0177 -0.2971
  130MPD2    C1 2021   0.393   0.622   1.443 -0.8986 -0.6281  1.2043
  130MPD2    C2 2022   0.365   0.756   1.482  0.0138 -0.3330 -0.3078
  130MPD2    C3 2023   0.453   0.860   1.456  0.1975  0.2426 -0.4657
  130MPD2    C4 2024   0.578   0.823   1.402  0.1818 -0.1437  0.1959
  130MPD2    C5 2025   0.609   0.689   1.379  0.2994 -0.0533 -0.1707
  130MPD2     H 2026   0.272   0.775   1.534  0.4750  0.9572  0.0571
  130MPD2    H1 2027   0.655   0.899   1.388 -0.5400 -0.1037 -3.3986
  130MPD2    H2 2028   0.530   0.490   1.346  0.7405 -0.3277  1.1255
  130MPD2    H3 2029   0.695   0.665   1.318  0.3673  0.4994 -0.2876
  130MPD2     N 2030   0.419   0.990   1.489  0.0602  0.0487  0.4731
  130MPD2    H5 2031   0.327   1.013   1.525 -0.6364 -3.0958  0.6874
  130MPD2    N1 2032   0.284   0.535   1.466 -0.3171 -0.2025 -0.0350
  130MPD2    H7 2033   0.205   0.565   1.523  0.7743  0.8965  0.8979
  131TMC2    C1 2034   0.470   0.121  10.472  0.3393 -0.3187 -0.4645
  131TMC2    C2 2035   0.453   0.201  10.578  0.5652 -0.2805  0.9891
  131TMC2    C3 2036   0.509   0.325  10.561  0.6761 -0.5178  0.5531
  131TMC2    C4 2037   0.547   0.146  10.364 -0.7133 -0.1326  0.2008
  131TMC2    C5 2038   0.595   0.276  10.350 -0.2688 -0.0074 -0.0692
  131TMC2    C6 2039   0.581   0.365  10.452 -0.4133 -0.0516  0.5307
  131TMC2     C 2040   0.405   4.735  10.481  0.3034  0.4164 -0.1706
  131TMC2     O 2041   0.306   0.003  10.549  0.1111 -0.2750  0.1519
  131TMC2     H 2042   0.414   0.169  10.674 -0.5188  1.5177  1.1532
  131TMC2    H1 2043   0.561   0.072  10.286  1.1651 -1.1475  1.4793
  131TMC2    H2 2044   0.631   0.461  10.452  0.1019 -0.3269 -1.5280
  131TMC2    C7 2045   0.577   0.326  10.214  0.7218  0.4920 -0.3477
  131TMC2    C8 2046   0.490   0.422  10.669  0.2904 -0.1366 -0.4251
  131TMC2    O1 2047   0.593   0.245  10.126 -0.5132  0.1832 -0.4626
  131TMC2    O2 2048   0.592   0.487  10.700  0.2739  0.0546 -0.1598
  131TMC2    O5 2049   0.370   0.406  10.732  0.8995 -0.2736 -0.6664
  131TMC2    H5 2050   0.301   0.379  10.667 -0.1613 -2.2619  1.2741
  132MPD2     C 2051   0.467   4.432  10.294 -1.2301  0.6505 -0.3079
  132MPD2    C1 2052   0.393   4.514  10.377 -0.0314  0.1464  0.1899
  132MPD2    C2 2053   0.274   4.463  10.428  0.1863  0.2030  0.4826
  132MPD2    C3 2054   0.217   4.337  10.391 -0.5740 -0.8633  0.3193
  132MPD2    C4 2055   0.281   4.260  10.302  0.7493  0.1173  0.0839
  132MPD2    C5 2056   0.411   4.307  10.268 -0.3214 -0.2547 -1.3152
  132MPD2     H 2057   0.221   4.521  10.502  0.0692 -0.7748  1.1691
  132MPD2    H1 2058   0.263   4.154  10.286  0.2481  0.4365 -1.5331
  132MPD2    H2 2059   0.568   4.456  10.264 -1.1837  1.1859  0.2662
  132MPD2    H3 2060   0.477   4.238  10.217  1.9916  1.7271 -0.9825
  132MPD2     N 2061   0.092   4.296  10.446 -0.1168  0.4350  0.6283
  132MPD2    H5 2062   0.053   4.356  10.519 -1.5395 -0.1907  0.3721
  132MPD2    N1 2063   0.452   4.640  10.395 -0.0775 -0.9357  0.2548
  132MPD2    H7 2064   0.543   4.652  10.353  1.0322 -0.4248  2.7574
  133TMC2    C1 2065   3.548   3.684   9.992 -0.7215  0.1105 -0.3202
  133TMC2    C2 2066   3.452   3.746   9.918 -1.0347 -0.1753  0.2873
  133TMC2    C3 2067   3.381   3.690   9.817  1.2532 -0.3007  0.7762
  133TMC2    C4 2068   3.572   3.552   9.958 -0.6616 -0.6134 -0.5605
  133TMC2    C5 2069   3.503   3.494   9.849 -0.2696  0.2229 -0.1793
  133TMC2    C6 2070   3.418   3.569   9.770  0.1083  0.3258 -0.8074
  133TMC2     C 2071   3.655   3.766  10.038 -0.0351  0.6813 -0.2884
  133TMC2     O 2072   3.659   3.879   9.984  0.5976  0.0136  0.7309
  133TMC2     H 2073   3.421   3.846   9.947 -2.9886 -0.7250  0.1039
  133TMC2    H1 2074   3.656   3.504  10.007 -1.4714 -0.3674  1.0831
  133TMC2    H2 2075   3.366   3.515   9.693 -0.8965 -0.5944  0.5069
  133TMC2    C7 2076   3.560   3.368   9.804  0.0220  0.4869 -0.0337
  133TMC2    C8 2077   3.320   3.784   9.727  0.0086  0.0412 -0.3353
  133TMC2    O1 2078   3.592   3.300   9.899 -0.1293 -0.2318  0.0780
  133TMC2    O2 2079   3.350   3.905   9.708 -0.1958 -0.1719 -0.5229
  133TMC2    O5 2080   3.235   3.722   9.642 -0.1640  0.4873 -0.5263
  133TMC2    H5 2081   3.196   3.641   9.684 -1.1652  0.9473 -0.5647
  134MPD2     C 2082   3.902   3.693  10.297  0.6155  0.1785  0.4982
  134MPD2    C1 2083   3.844   3.759  10.190 -0.5107 -0.1774  0.4556
  134MPD2    C2 2084   3.903   3.871  10.141  0.5905  0.6814  0.0321
  134MPD2    C3 2085   4.019   3.911  10.207  0.3969 -0.6692  0.3772
  134MPD2    C4 2086   4.071   3.849  10.318  0.1724 -0.1428  0.0801
  134MPD2    C5 2087   4.009   3.739  10.368 -0.0689 -0.0342 -0.4094
  134MPD2     H 2088   3.856   3.918  10.056 -0.1320 -0.2415 -0.0718
  134MPD2    H1 2089   4.170   3.867  10.358  0.7750 -1.9956 -0.6018
  134MPD2    H2 2090   3.839   3.619  10.345  0.5304  0.3078  0.5864
  134MPD2    H3 2091   4.029   3.688  10.462 -1.7968 -1.1171 -0.6189
  134MPD2     N 2092   4.106   4.012  10.150  0.1268  0.3787 -0.0910
  134MPD2    H5 2093   4.187   4.035  10.206  1.1376 -0.2914 -1.2903
  134MPD2    N1 2094   3.729   3.706  10.134  0.5428 -0.2742  0.0737
  134MPD2    H7 2095   3.693   3.619  10.172  0.1031  0.1194  0.5552
  135TMC2    C1 2096   1.648   2.203  10.567 -0.3496  0.0496  0.2745
  135TMC2    C2 2097   1.562   2.177  10.460  0.3930  0.0175 -0.4630
  135TMC2    C3 2098   1.443   2.110  10.482  0.1714  0.5570 -0.1306
  135TMC2    C4 2099   1.628   2.133  10.677  0.0590  0.3168 -0.2006
  135TMC2    C5 2100   1.514   2.059  10.693 -0.8301  0.7424  0.4163
  135TMC2    C6 2101   1.417   2.049  10.599 -0.1896  0.0181 -0.2667
  135TMC2     C 2102   1.778   2.259  10.542  0.2731  0.3698 -0.1909
  135TMC2     O 2103   1.847   2.309  10.631  0.3692 -0.0374  0.6098
  135TMC2     H 2104   1.584   2.209  10.359  1.9822 -1.1047 -0.4812
  135TMC2    H1 2105   1.706   2.133  10.752 -1.1705 -1.8041  1.0908
  135TMC2    H2 2106   1.328   1.991  10.621  0.5359 -0.8891  0.2684
  135TMC2    C7 2107   1.492   2.033  10.828 -0.1818 -0.2072 -0.2063
  135TMC2    C8 2108   1.368   2.047  10.377 -0.4276  0.4591  0.5875
  135TMC2    O1 2109   1.533   2.114  10.914  0.6166  0.4573  0.0645
  135TMC2    O2 2110   1.329   1.934  10.388  0.6975 -0.0564  0.4283
  135TMC2    O5 2111   1.308   2.144  10.304 -0.0520 -0.2963  0.4740
  135TMC2    H5 2112   1.349   2.231  10.325 -0.8677  0.9310 -2.9845
  136MPD2     C 2113   2.046   2.345  10.412  0.3084  0.0324 -0.1681
  136MPD2    C1 2114   1.939   2.292  10.345  0.7607  0.2801 -0.0153
  136MPD2    C2 2115   1.940   2.296  10.202 -0.4007  0.2798  0.2125
  136MPD2    C3 2116   2.047   2.354  10.140  0.7614 -0.0201  0.1440
  136MPD2    C4 2117   2.149   2.411  10.209 -0.4833  0.6702  0.1018
  136MPD2    C5 2118   2.150   2.396  10.341  0.0220 -0.1014  0.3686
  136MPD2     H 2119   1.866   2.246  10.142 -0.1762 -2.2937  2.0735
  136MPD2    H1 2120   2.229   2.466  10.159  0.0346 -0.7619 -0.6347
  136MPD2    H2 2121   2.057   2.358  10.519 -1.1171  1.9330 -0.2313
  136MPD2    H3 2122   2.236   2.440  10.390  0.1689  0.5841 -0.5206
  136MPD2     N 2123   2.040   2.387   9.997 -0.1711  0.4926  1.0914
  136MPD2    H5 2124   2.131   2.389   9.953 -0.8722  0.7753 -0.3712
  136MPD2    N1 2125   1.823   2.245  10.409  0.3442  0.1374 -0.5639
  136MPD2    H7 2126   1.768   2.192  10.342  1.1653  0.2426 -1.3307
  137TMC2    C1 2127   1.178   1.264   9.353  0.2872 -0.2497  0.3702
  137TMC2    C2 2128   1.220   1.292   9.229 -0.1195  0.0359 -0.0847
  137TMC2    C3 2129   1.178   1.404   9.157  0.4788  0.1921  0.0352
  137TMC2    C4 2130   1.099   1.363   9.413  0.2928  0.0612  1.1294
  137TMC2    C5 2131   1.071   1.481   9.348  0.3952  0.6554  0.1455
  137TMC2    C6 2132   1.106   1.503   9.217  0.7170 -0.0609 -0.3845
  137TMC2     C 2133   1.262   1.192   9.444 -0.5167  0.1612  0.1216
  137TMC2     O 2134   1.259   1.235   9.558  0.4079  0.3132  0.5443
  137TMC2     H 2135   1.291   1.226   9.180 -0.2191 -0.0532 -0.1101
  137TMC2    H1 2136   1.074   1.346   9.517  1.0696 -3.3283  0.7610
  137TMC2    H2 2137   1.067   1.590   9.165  0.9897 -0.0092 -0.5040
  137TMC2    C7 2138   0.993   1.581   9.415 -0.4688 -0.9083 -0.1553
  137TMC2    C8 2139   1.264   1.433   9.048 -0.2860 -0.2776  0.6047
  137TMC2    O1 2140   1.015   1.696   9.377 -0.8989 -0.1414 -0.3454
  137TMC2    O2 2141   1.377   1.393   9.042 -0.3783 -0.5743 -0.4405
  137TMC2    O5 2142   1.180   1.418   8.940 -0.3046 -0.0051  0.2756
  137TMC2    H5 2143   1.088   1.427   8.973 -0.6703  0.5372 -0.8764
  138MPD2     C 2144   1.444   0.864   9.391 -0.1659  0.6515  0.3264
  138MPD2    C1 2145   1.413   0.988   9.449 -0.1485  0.2029  0.2077
  138MPD2    C2 2146   1.449   1.016   9.579  0.3885 -0.0420 -0.5642
  138MPD2    C3 2147   1.486   0.919   9.664  0.0823 -0.2818 -0.1360
  138MPD2    C4 2148   1.513   0.795   9.615  0.8026  0.2756 -0.2880
  138MPD2    C5 2149   1.496   0.771   9.476 -0.8342 -0.3138  0.0056
  138MPD2     H 2150   1.430   1.113   9.622 -0.4601 -0.4655  0.0152
  138MPD2    H1 2151   1.538   0.715   9.683  0.1120 -0.1084 -0.4811
  138MPD2    H2 2152   1.425   0.839   9.287 -1.5012 -2.2468  1.2579
  138MPD2    H3 2153   1.519   0.677   9.427 -0.1269  0.8612 -1.9543
  138MPD2     N 2154   1.484   0.961   9.806  0.6613  0.7669  0.2253
  138MPD2    H5 2155   1.444   1.052   9.827  0.8222  1.0891 -0.8775
  138MPD2    N1 2156   1.326   1.080   9.385 -0.1182  0.5561 -0.0938
  138MPD2    H7 2157   1.303   1.056   9.290 -0.8930  0.9281 -0.0029
  139TMC2    C1 2158   1.736   4.530  13.598 -0.7011 -0.5786 -0.2722
  139TMC2    C2 2159   1.811   4.639  13.554 -0.3108  0.2112  0.6095
  139TMC2    C3 2160   1.747   0.024  13.540 -0.4653 -0.5197  0.2579
  139TMC2    C4 2161   1.595   4.536  13.612 -0.0515 -0.2199 -0.4915
  139TMC2    C5 2162   1.535   4.662  13.601  0.1378  0.2851  0.3388
  139TMC2    C6 2163   1.606   0.033  13.551 -0.1131 -0.1994 -0.0406
  139TMC2     C 2164   1.807   4.405  13.613  0.8831  0.1434 -0.3781
  139TMC2     O 2165   1.912   4.388  13.549  0.0118  1.0427  0.3525
  139TMC2     H 2166   1.919   4.632  13.549 -0.3677 -0.0819 -0.1221
  139TMC2    H1 2167   1.536   4.450  13.642 -1.3354  1.0728  0.7437
  139TMC2    H2 2168   1.559   0.130  13.556 -0.2689 -0.2050 -1.4593
  139TMC2    C7 2169   1.389   4.678  13.627  0.0410 -0.3691  0.0058
  139TMC2    C8 2170   1.807   0.143  13.506 -0.1137 -0.0736 -0.3010
  139TMC2    O1 2171   1.349   0.054  13.615 -0.0109 -0.3002  0.7240
  139TMC2    O2 2172   1.756   0.215  13.421 -0.0505 -0.2245  0.3661
  139TMC2    O5 2173   1.935   0.121  13.531 -0.6297 -0.5328 -0.0273
  139TMC2    H5 2174   1.960   0.059  13.603 -0.1416 -0.0112  0.2537
  140MPD2     C 2175   1.707   4.130  13.835 -0.2788 -0.3463  0.2082
  140MPD2    C1 2176   1.773   4.190  13.725  0.5382 -0.3391  0.3534
  140MPD2    C2 2177   1.855   4.117  13.646 -0.0830 -0.4542 -0.1416
  140MPD2    C3 2178   1.858   3.980  13.659  0.0867  0.2947 -0.4486
  140MPD2    C4 2179   1.790   3.919  13.767  0.6808  0.4523  0.0908
  140MPD2    C5 2180   1.714   3.996  13.854 -0.3822  0.1063  0.5882
  140MPD2     H 2181   1.894   4.156  13.553 -0.0171 -4.4580 -1.7781
  140MPD2    H1 2182   1.783   3.812  13.782  0.4234  0.5147  0.4138
  140MPD2    H2 2183   1.622   4.178  13.881 -0.2233 -1.8506  1.8393
  140MPD2    H3 2184   1.659   3.930  13.920 -1.0027 -0.5244 -0.5606
  140MPD2     N 2185   1.949   3.907  13.571 -0.3263 -0.4866  0.0020
  140MPD2    H5 2186   1.991   3.960  13.495 -1.3374 -0.8262 -0.7963
  140MPD2    N1 2187   1.739   4.323  13.698  0.5378 -0.6659  0.2978
  140MPD2    H7 2188   1.660   4.365  13.747 -0.4716 -0.7114 -1.2846
  141TMC2    C1 2189   1.518   0.880  14.493  0.7157  0.1367  0.1601
  141TMC2    C2 2190   1.634   0.837  14.550  0.3679  0.0194  0.2312
  141TMC2    C3 2191   1.651   0.843  14.689 -0.2141  1.0387 -0.1114
  141TMC2    C4 2192   1.424   0.949  14.568  0.1891 -0.2852 -0.3002
  141TMC2    C5 2193   1.455   0.964  14.699 -0.3049  0.0127 -0.0572
  141TMC2    C6 2194   1.558   0.903  14.765  0.3808  0.3459 -0.1663
  141TMC2     C 2195   1.502   0.901  14.353 -0.2566 -0.0113  0.2568
  141TMC2     O 2196   1.391   0.892  14.307  0.2106  0.1783 -0.1156
  141TMC2     H 2197   1.710   0.785  14.493  0.5170 -1.1057  1.4664
  141TMC2    H1 2198   1.357   1.010  14.508  0.0875  0.0809  0.1807
  141TMC2    H2 2199   1.568   0.898  14.873  1.6447 -1.1092 -0.3627
  141TMC2    C7 2200   1.424   1.097  14.737  0.0609  0.0026 -0.1888
  141TMC2    C8 2201   1.760   0.775  14.754  0.9027 -0.5088 -0.5091
  141TMC2    O1 2202   1.328   1.151  14.692  0.3113  0.6998  0.1833
  141TMC2    O2 2203   1.867   0.754  14.700  0.3734 -0.2529  0.2474
  141TMC2    O5 2204   1.697   0.686  14.833 -0.0171  0.0256  0.1933
  141TMC2    H5 2205   1.604   0.673  14.807  0.9437 -0.6367 -2.9397
  142TMC2    C1 2206   0.437   4.241  10.650  0.4819 -0.2130 -0.8422
  142TMC2    C2 2207   0.560   4.247  10.589 -0.3542 -0.0979  0.0163
  142TMC2    C3 2208   0.630   4.363  10.615 -0.3782  0.1764 -0.4584
  142TMC2    C4 2209   0.385   4.348  10.718 -0.3099  0.5555  0.3508
  142TMC2    C5 2210   0.463   4.463  10.731 -0.2877  0.0468 -0.2496
  142TMC2    C6 2211   0.586   4.470  10.682  0.4059 -0.6651 -0.3853
  142TMC2     C 2212   0.349   4.122  10.623 -0.0126 -0.1107 -0.7620
  142TMC2     O 2213   0.399   4.039  10.548 -0.1456 -0.3560 -0.5805
  142TMC2     H 2214   0.585   4.158  10.533 -0.6282 -0.5190  0.5695
  142TMC2    H1 2215   0.280   4.355  10.742 -0.7627  2.3406 -2.1208
  142TMC2    H2 2216   0.653   4.551  10.707  0.3042 -0.3366 -1.1769
  142TMC2    C7 2217   0.408   4.564  10.827 -0.2760 -0.0307  0.4695
  142TMC2    C8 2218   0.753   4.385  10.545  0.2579  0.1441 -0.2852
  142TMC2    O1 2219   0.311   4.524  10.886 -1.3952 -0.3886 -0.0094
  142TMC2    O2 2220   0.777   4.499  10.496 -0.0987  0.0474  0.0914
  142TMC2    O5 2221   0.796   4.273  10.489  0.0073  0.0366  0.4194
  142TMC2    H5 2222   0.770   4.195  10.542  0.0401  0.4620  1.0697
  143MPD2     C 2223   4.682   3.815  10.715  0.4795 -0.0897  0.4466
  143MPD2    C1 2224   0.025   3.835  10.611 -0.2416 -0.4941  0.0040
  143MPD2    C2 2225   0.132   3.931  10.611  0.4356  0.0837 -0.0642
  143MPD2    C3 2226   0.150   4.000  10.723 -0.6604 -0.4083  0.2789
  143MPD2    C4 2227   0.064   3.980  10.834 -0.2190  0.0021 -0.4496
  143MPD2    C5 2228   4.704   3.888  10.832 -0.0903 -0.4565 -0.0601
  143MPD2     H 2229   0.187   3.952  10.520 -0.2808  2.5568  0.0815
  143MPD2    H1 2230   0.078   4.036  10.926 -1.5540 -2.0518  0.9992
  143MPD2    H2 2231   4.603   3.740  10.715 -0.3630  0.7914  0.0766
  143MPD2    H3 2232   4.652   3.868  10.925  0.2133 -0.0967  0.1845
  143MPD2     N 2233   0.251   4.100  10.720  0.2044 -0.1297  0.0637
  143MPD2    H5 2234   0.264   4.165  10.797 -1.8579  1.0410 -0.5860
  143MPD2    N1 2235   4.723   3.776  10.489 -0.2491  0.5136 -0.0713
  143MPD2    H7 2236   4.628   3.747  10.472  0.3028 -1.0592 -0.4348
  144TMC2    C1 2237   2.223   3.042   0.608 -0.2972  0.4026 -0.9867
  144TMC2    C2 2238   2.281   2.922   0.577 -0.3134 -0.2207  0.3988
  144TMC2    C3 2239   2.419   2.916   0.587 -0.7963  0.3388  0.9424
  144TMC2    C4 2240   2.298   3.156   0.627  0.2245  0.2243  0.1231
  144TMC2    C5 2241   2.434   3.138   0.647 -0.0060  0.0028  0.4523
  144TMC2    C6 2242   2.487   3.016   0.641 -0.2583 -0.3954  0.4093
  144TMC2     C 2243   2.081   3.050   0.572  0.1215 -0.2821  0.0840
  144TMC2     O 2244   2.053   2.983   0.478  0.1390 -0.2540 -0.3442
  144TMC2     H 2245   2.222   2.835   0.549  0.6028 -0.5064 -0.6644
  144TMC2    H1 2246   2.243   3.249   0.623  3.7495  2.4461  4.8197
  144TMC2    H2 2247   2.594   3.009   0.654 -0.1923  0.8260  0.5088
  144TMC2    C7 2248   2.520   3.252   0.676  0.0528  0.1789 -0.2524
  144TMC2    C8 2249   2.486   2.788   0.587 -1.1276  0.4346  0.0301
  144TMC2    O1 2250   2.645   3.238   0.671 -0.0732  0.1637 -0.1920
  144TMC2    O2 2251   2.588   2.771   0.655 -0.5833  0.1367 -0.1970
  144TMC2    O5 2252   2.408   2.695   0.524  0.0233  0.4745  0.2455
  144TMC2    H5 2253   2.360   2.745   0.454  0.3542 -0.5173 -0.7012
  145MPD2     C 2254   1.609   3.224   0.592  0.2444 -0.4065  0.0225
  145MPD2    C1 2255   1.673   3.150   0.498  0.0338  0.0886  0.2475
  145MPD2    C2 2256   1.810   3.143   0.497 -0.1122  0.1092  0.3024
  145MPD2    C3 2257   1.877   3.182   0.610  0.4920 -0.3424  1.1285
  145MPD2    C4 2258   1.813   3.238   0.718 -0.0693  0.8034 -0.0128
  145MPD2    C5 2259   1.678   3.267   0.699  0.1496  0.1482  0.8338
  145MPD2     H 2260   1.864   3.103   0.412 -0.1917 -1.2885  0.9015
  145MPD2    H1 2261   1.865   3.282   0.802  0.4619  1.5520 -0.7383
  145MPD2    H2 2262   1.503   3.247   0.588  0.3128 -0.4548 -1.9639
  145MPD2    H3 2263   1.625   3.329   0.771 -1.0624 -0.1850  0.2391
  145MPD2     N 2264   2.017   3.156   0.634  0.0434 -0.2821 -0.2984
  145MPD2    H5 2265   2.065   3.197   0.712 -0.9232 -0.3952  0.3533
  145MPD2    N1 2266   1.600   3.101   0.385 -0.0115  0.2341  1.0556
  145MPD2    H7 2267   1.646   3.039   0.320 -2.1105 -1.8852  1.5886
  146TMC2    C1 2268   4.079   1.511  12.471  0.6219  0.4392 -0.2031
  146TMC2    C2 2269   4.097   1.514  12.340 -0.0445  0.3237  0.8662
  146TMC2    C3 2270   4.219   1.490  12.282  0.0121 -0.4793 -0.4293
  146TMC2    C4 2271   4.182   1.478  12.555 -0.3993  0.7839 -0.2041
  146TMC2    C5 2272   4.301   1.443  12.501 -0.0192  0.2780 -0.2756
  146TMC2    C6 2273   4.319   1.436  12.367  0.5676 -1.0554  0.1234
  146TMC2     C 2274   3.972   1.602  12.517  0.3131  0.1109 -0.0856
  146TMC2     O 2275   3.927   1.681  12.437 -0.2048  0.3370 -0.0513
  146TMC2     H 2276   4.014   1.546  12.279  2.1827  3.1438 -0.6560
  146TMC2    H1 2277   4.182   1.499  12.662 -0.6305 -1.6250  0.2606
  146TMC2    H2 2278   4.419   1.409  12.336  0.3292  0.3651 -1.8864
  146TMC2    C7 2279   4.407   1.381  12.580 -0.1177 -0.3769  0.3185
  146TMC2    C8 2280   4.210   1.458  12.136  0.2710  0.2519 -0.3486
  146TMC2    O1 2281   4.490   1.307  12.537 -0.4525 -0.4069  0.0254
  146TMC2    O2 2282   4.113   1.391  12.103  0.0340  0.3368 -0.1977
  146TMC2    O5 2283   4.336   1.431  12.107 -0.1031  0.4374  0.6920
  146TMC2    H5 2284   4.399   1.503  12.129  2.1783 -0.9037 -1.4254
  147MPD2     C 2285   4.558   1.296  13.077 -0.5728  0.2018  0.4709
  147MPD2    C1 2286   4.443   1.372  13.075  0.0981  1.1003 -0.3390
  147MPD2    C2 2287   4.392   1.414  12.949 -0.3545 -0.5625  0.1419
  147MPD2    C3 2288   4.449   1.375  12.834 -0.4641 -0.4490 -0.5328
  147MPD2    C4 2289   4.558   1.291  12.832  0.0531  0.6048  0.4437
  147MPD2    C5 2290   4.607   1.247  12.956 -0.5069  0.3762 -0.3853
  147MPD2     H 2291   4.307   1.481  12.945  0.2805  0.4122  2.7612
  147MPD2    H1 2292   4.604   1.259  12.739 -0.5153 -0.2792  0.4677
  147MPD2    H2 2293   4.603   1.259  13.168 -0.7273  1.9006  1.2368
  147MPD2    H3 2294   4.694   1.183  12.950 -1.1211 -0.6709  1.7766
  147MPD2     N 2295   4.388   1.420  12.719 -0.7244 -0.3163  0.5453
  147MPD2    H5 2296   4.326   1.498  12.733  1.9680  1.7700  0.9318
  147MPD2    N1 2297   4.395   1.423  13.191  0.0047  0.6413 -1.4757
  147MPD2    H7 2298   4.328   1.499  13.185 -0.1917  0.4375 -1.8497
  148TMC2    C1 2299   3.817   4.735  11.228 -0.0614 -0.1349  0.0770
  148TMC2    C2 2300   3.800   0.041  11.357  0.5885 -0.0295  0.0269
  148TMC2    C3 2301   3.753   4.693  11.450 -0.8589  0.3366 -0.1673
  148TMC2    C4 2302   3.789   4.608  11.204 -0.0287  0.6904  0.6984
  148TMC2    C5 2303   3.742   4.525  11.296 -0.2430  0.1991 -0.0091
  148TMC2    C6 2304   3.724   4.562  11.427 -0.0683 -0.2069 -0.0635
  148TMC2     C 2305   3.888   0.080  11.133 -0.0762 -0.0422  0.1541
  148TMC2     O 2306   3.960   0.166  11.180 -0.2314  0.2297 -0.2722
  148TMC2     H 2307   3.818   0.143  11.390  0.1631  0.2070 -0.4703
  148TMC2    H1 2308   3.803   4.574  11.102 -3.0909 -1.5828  1.0365
  148TMC2    H2 2309   3.684   4.496  11.504 -0.1024  0.2571  0.3136
  148TMC2    C7 2310   3.719   4.391  11.251 -0.5212 -0.4114  0.6323
  148TMC2    C8 2311   3.684   0.010  11.561  0.1968 -0.1907  0.0009
  148TMC2    O1 2312   3.696   4.364  11.133 -0.3782 -0.1298  0.2135
  148TMC2    O2 2313   3.681   4.696  11.668  0.6328 -0.2588  0.0605
  148TMC2    O5 2314   3.584   0.091  11.517 -0.0465  0.2511  0.3006
  148TMC2    H5 2315   3.578   0.101  11.419 -0.7756  0.9362  0.4189
  149MPD2     C 2316   4.042   0.173  10.897 -0.0274 -0.5458 -0.5705
  149MPD2    C1 2317   3.935   0.082  10.893  0.0026 -0.3753  0.8487
  149MPD2    C2 2318   3.903   0.033  10.771  0.2304  0.5977  0.0396
  149MPD2    C3 2319   3.972   0.069  10.653 -0.0532 -0.2025  0.2605
  149MPD2    C4 2320   4.060   0.167  10.664  0.2369 -0.4574  0.1215
  149MPD2    C5 2321   4.107   0.211  10.785 -0.8109 -0.0643 -0.2629
  149MPD2     H 2322   3.822   4.701  10.769 -0.4262  1.3678 -1.6586
  149MPD2    H1 2323   4.111   0.203  10.575 -0.6455  2.0725  0.6182
  149MPD2    H2 2324   4.081   0.211  10.991 -1.3038 -0.5673 -0.0260
  149MPD2    H3 2325   4.186   0.286  10.780  0.1593 -0.9678  1.2724
  149MPD2     N 2326   3.939   0.033  10.518 -0.1769  0.9301 -0.0369
  149MPD2    H5 2327   3.980   0.085  10.442  0.6190 -0.3080 -0.4581
  149MPD2    N1 2328   3.870   0.027  11.006  0.0665 -0.5186 -0.3258
  149MPD2    H7 2329   3.796   4.701  10.986  1.0752 -0.6591 -3.5529
  150TMC2    C1 2330   1.356   0.071  12.611  0.4241 -0.2544 -0.4174
  150TMC2    C2 2331   1.274   0.176  12.570  0.4624 -0.0431 -0.4568
  150TMC2    C3 2332   1.320   0.299  12.592  0.4718 -1.3537  0.1218
  150TMC2    C4 2333   1.481   0.086  12.662 -0.0496 -0.9281 -0.0577
  150TMC2    C5 2334   1.528   0.217  12.666  0.1187 -0.0753  0.1780
  150TMC2    C6 2335   1.451   0.319  12.620  0.6948  0.4053 -0.0867
  150TMC2     C 2336   1.327   4.678  12.553  0.4058 -0.2473 -0.4455
  150TMC2     O 2337   1.397   4.586  12.591  0.3966  0.1376 -0.1110
  150TMC2     H 2338   1.182   0.150  12.519  0.7593  1.4439 -1.7577
  150TMC2    H1 2339   1.531   4.734  12.688 -1.2990 -1.8416 -0.8833
  150TMC2    H2 2340   1.502   0.415  12.614  0.0470  0.7019 -0.8326
  150TMC2    C7 2341   1.665   0.234  12.702  0.8337  0.5473 -0.0077
  150TMC2    C8 2342   1.242   0.412  12.555  0.7998  0.3811 -0.2409
  150TMC2    O1 2343   1.710   0.345  12.727 -0.0352  0.2271  0.2516
  150TMC2    O2 2344   1.145   0.404  12.489  0.2777 -0.3735  0.9827
  150TMC2    O5 2345   1.293   0.524  12.607  0.0786 -0.6377 -0.0308
  150TMC2    H5 2346   1.355   0.517  12.683  1.9809 -0.4409 -1.5692
  151MPD2     C 2347   1.095   4.323  12.254 -0.2807 -0.7362 -0.5594
  151MPD2    C1 2348   1.078   4.448  12.193  0.3257  0.1952 -0.3763
  151MPD2    C2 2349   1.124   4.558  12.268 -0.1163 -0.3847  0.5607
  151MPD2    C3 2350   1.187   4.548  12.387  0.5452  0.0104  0.2151
  151MPD2    C4 2351   1.216   4.423  12.440  0.1335 -0.4607 -0.1561
  151MPD2    C5 2352   1.165   4.316  12.376  0.1484 -0.3465  0.4811
  151MPD2     H 2353   1.118   4.657  12.225 -0.4054 -0.0832  1.2981
  151MPD2    H1 2354   1.283   4.398  12.521 -0.5242  0.9519  0.8280
  151MPD2    H2 2355   1.066   4.235  12.198 -0.4665 -1.9495  1.4396
  151MPD2    H3 2356   1.185   4.215  12.412 -0.9766 -1.3082 -1.5833
  151MPD2     N 2357   1.237   4.672  12.450 -0.1394  0.2889 -0.3024
  151MPD2    H5 2358   1.215   0.020  12.405  0.4931 -0.4008 -1.9804
  151MPD2    N1 2359   1.041   4.458  12.057 -0.1817 -0.3729 -1.4783
  151MPD2    H7 2360   1.030   4.369  12.010 -0.2813 -0.5627 -1.1005
  152TMC2    C1 2361   1.062   4.267  12.958  0.2768 -0.3904  0.2981
  152TMC2    C2 2362   1.130   4.178  12.880  0.1451 -0.9886 -0.5888
  152TMC2    C3 2363   1.227   4.233  12.801  0.1837 -0.1894 -0.6041
  152TMC2    C4 2364   1.087   4.402  12.960 -0.5100  0.0290 -0.0424
  152TMC2    C5 2365   1.200   4.446  12.898  0.1973 -0.0706 -0.0584
  152TMC2    C6 2366   1.266   4.367  12.807 -0.2595  0.9061 -0.3945
  152TMC2     C 2367   0.937   4.226  13.015  0.0561  0.0005  0.1623
  152TMC2     O 2368   0.854   4.318  13.022  0.1966 -0.2101  0.2531
  152TMC2     H 2369   1.108   4.072  12.888  2.4293 -1.4108 -0.1415
  152TMC2    H1 2370   1.025   4.455  13.032 -1.6319 -1.1284 -0.1591
  152TMC2    H2 2371   1.329   4.406  12.728  0.7031  2.1959  1.0161
  152TMC2    C7 2372   1.221   4.589  12.908 -0.0457 -0.3438  0.1464
  152TMC2    C8 2373   1.273   4.158  12.691  0.4910  0.6951  0.3563
  152TMC2    O1 2374   1.116   4.650  12.918 -0.4301  0.0959  0.2443
  152TMC2    O2 2375   1.203   4.068  12.645  0.0027  0.4746 -0.0751
  152TMC2    O5 2376   1.407   4.179  12.664  0.2517 -0.0138 -0.1227
  152TMC2    H5 2377   1.450   4.254  12.711  0.6988 -0.1177 -0.3732
  153MPD2     C 2378   0.853   3.925  13.226 -0.1729 -0.2833 -0.3081
  153MPD2    C1 2379   0.829   4.032  13.139 -0.1364  0.4541  0.3323
  153MPD2    C2 2380   0.702   4.082  13.125  0.0427  0.3942 -0.2260
  153MPD2    C3 2381   0.600   4.022  13.196 -0.1768 -0.3200 -0.3392
  153MPD2    C4 2382   0.627   3.923  13.288 -0.5782  0.6633  0.0003
  153MPD2    C5 2383   0.758   3.878  13.303 -0.1728  0.2023 -0.3027
  153MPD2     H 2384   0.674   4.160  13.054 -1.2489  0.8724  0.8131
  153MPD2    H1 2385   0.547   3.872  13.340  0.3084 -0.7363 -0.0076
  153MPD2    H2 2386   0.954   3.889  13.235 -0.3132 -1.2995 -2.6650
  153MPD2    H3 2387   0.773   3.809  13.385  0.4228  0.6018 -0.0768
  153MPD2     N 2388   0.461   4.055  13.158  0.1348 -0.3457  0.0851
  153MPD2    H5 2389   0.449   4.121  13.082  1.1551  1.3552  1.3633
  153MPD2    N1 2390   0.935   4.103  13.080 -0.3835 -0.4022 -0.5221
  153MPD2    H7 2391   1.031   4.070  13.089  0.0064  0.3023 -1.9153
  154TMC2    C1 2392   1.381   4.306   0.076  0.7649  0.0641 -0.3410
  154TMC2    C2 2393   1.301   4.207   0.028 -0.4131  0.1325  0.4339
  154TMC2    C3 2394   1.362   4.080   0.010 -0.1600  0.6232 -1.1043
  154TMC2    C4 2395   1.516   4.291   0.100  0.4899  0.4271 -0.2146
  154TMC2    C5 2396   1.565   4.171   0.073  0.5890  0.5112 -0.2243
  154TMC2    C6 2397   1.498   4.059   0.030  0.6840  0.7811  0.7382
  154TMC2     C 2398   1.313   4.419   0.137 -0.1061  0.2114 -0.1409
  154TMC2     O 2399   1.202   4.401   0.187  0.2126 -0.9120  0.6041
  154TMC2     H 2400   1.196   4.219   0.007 -0.4624  1.8828  1.6214
  154TMC2    H1 2401   1.573   4.369   0.149 -0.8425  0.7245  0.8592
  154TMC2    H2 2402   1.547   3.965   0.008  1.2522  1.3933 -0.6155
  154TMC2    C7 2403   1.702   4.142   0.105  0.2649 -0.0421  0.4722
  154TMC2    C8 2404   1.290   3.990  17.679  0.4592 -0.5703 -0.2145
  154TMC2    O1 2405   1.736   4.026   0.119 -0.1228  0.0498  0.5444
  154TMC2    O2 2406   1.207   4.030  17.602  0.0225  0.0047 -0.1136
  154TMC2    O5 2407   1.308   3.861  17.718 -0.4997  0.0816  0.4379
  154TMC2    H5 2408   1.371   3.849   0.034  3.0337 -0.4116 -2.6639
  155MPD2     C 2409   1.404   0.030   0.084 -0.1155 -0.0491  0.3849
  155MPD2    C1 2410   1.338   4.665   0.145  0.0326  0.6321 -0.3084
  155MPD2    C2 2411   1.243   4.694   0.240  0.2892 -0.5460 -0.5108
  155MPD2    C3 2412   1.217   0.079   0.274  0.0152  0.5453 -0.1295
  155MPD2    C4 2413   1.271   0.185   0.206  0.3599  0.2513  0.3389
  155MPD2    C5 2414   1.372   0.157   0.117 -0.8453  0.2924 -0.0616
  155MPD2     H 2415   1.178   4.624   0.293  0.8758  0.3146  1.3396
  155MPD2    H1 2416   1.271   0.284   0.250  1.9764  1.2829 -1.9765
  155MPD2    H2 2417   1.486   0.017   0.013 -0.4866  2.5582 -0.5048
  155MPD2    H3 2418   1.436   0.232   0.070  2.1367 -1.7436  0.7133
  155MPD2     N 2419   1.122   0.100   0.377 -0.2311  0.1439 -0.3935
  155MPD2    H5 2420   1.088   0.021   0.432  0.5644  0.5248  0.6567
  155MPD2    N1 2421   1.381   4.537   0.105  0.4570 -0.9246 -0.3352
  155MPD2    H7 2422   1.462   4.539   0.045  1.3686 -2.2854  0.8458
  156TMC2    C1 2423   1.109   1.513  11.820  0.3097  0.1712  0.7311
  156TMC2    C2 2424   1.007   1.447  11.766 -0.0952  0.0872  0.1186
  156TMC2    C3 2425   0.991   1.470  11.630 -0.3193 -1.3452 -0.1560
  156TMC2    C4 2426   1.203   1.576  11.745  0.7903 -0.3408 -0.6973
  156TMC2    C5 2427   1.193   1.596  11.611  0.6156  0.3620 -0.2239
  156TMC2    C6 2428   1.075   1.540  11.552 -0.3743  0.1774 -0.5193
  156TMC2     C 2429   1.070   1.595  11.935 -0.3020  0.8887  0.6396
  156TMC2     O 2430   1.128   1.701  11.950 -0.1166  0.2621 -0.5411
  156TMC2     H 2431   0.926   1.403  11.823  0.4623 -1.5869 -0.3912
  156TMC2    H1 2432   1.274   1.632  11.805  0.0062 -0.0495 -0.0446
  156TMC2    H2 2433   1.058   1.576  11.451  1.1750  0.8573 -0.5371
  156TMC2    C7 2434   1.222   1.734  11.579  0.3676  0.4407  0.3190
  156TMC2    C8 2435   0.857   1.418  11.577 -0.5437  0.0361 -0.2661
  156TMC2    O1 2436   1.332   1.781  11.592 -0.0412  0.1179  0.4517
  156TMC2    O2 2437   0.756   1.416  11.648  0.0860 -0.0927 -0.0908
  156TMC2    O5 2438   0.864   1.398  11.444 -0.1168 -0.6176 -0.0165
  156TMC2    H5 2439   0.958   1.382  11.420 -0.1115  2.0604 -1.8021
  157MPD2     C 2440   0.889   1.505  12.230 -0.0530 -0.4815 -0.2034
  157MPD2    C1 2441   0.939   1.589  12.140 -0.2358 -0.5753  0.0481
  157MPD2    C2 2442   0.951   1.720  12.169  0.3739 -0.2920  0.7485
  157MPD2    C3 2443   0.922   1.765  12.297  0.0232  0.2323  0.5614
  157MPD2    C4 2444   0.880   1.676  12.396 -0.9352  0.1719  0.1632
  157MPD2    C5 2445   0.871   1.547  12.358 -0.2776 -0.2889  0.4630
  157MPD2     H 2446   0.978   1.798  12.098  2.0082 -2.3608 -0.8882
  157MPD2    H1 2447   0.863   1.692  12.502  0.3844 -0.3453  0.4625
  157MPD2    H2 2448   0.875   1.400  12.205 -1.0363 -0.2057 -0.7813
  157MPD2    H3 2449   0.850   1.466  12.426 -0.0411 -2.0806 -1.6244
  157MPD2     N 2450   0.936   1.908  12.325 -0.4218  0.1743  0.1056
  157MPD2    H5 2451   0.974   1.967  12.252 -0.1245  0.2797  0.3438
  157MPD2    N1 2452   0.986   1.526  12.020  0.2449  0.2043  0.2235
  157MPD2    H7 2453   0.955   1.431  12.001 -0.2850 -0.0960  2.6756
  158TMC2    C1 2454   1.741   0.861  13.552 -0.4252  0.0928 -0.5260
  158TMC2    C2 2455   1.830   0.915  13.464  0.2538 -0.2023  0.7138
  158TMC2    C3 2456   1.786   0.950  13.342 -0.1424  0.7499  0.1478
  158TMC2    C4 2457   1.605   0.861  13.533 -0.6513  0.4357 -0.0232
  158TMC2    C5 2458   1.561   0.901  13.408  0.0441  0.1733  0.1673
  158TMC2    C6 2459   1.647   0.956  13.311 -0.3579 -0.0395  0.4053
  158TMC2     C 2460   1.801   0.824  13.680 -0.3057 -0.0760  0.0427
  158TMC2     O 2461   1.903   0.885  13.701  0.0209 -0.2090 -0.5248
  158TMC2     H 2462   1.937   0.899  13.470 -0.4239 -4.9513  0.0935
  158TMC2    H1 2463   1.535   0.822  13.606 -1.0408  0.0235 -0.6149
  158TMC2    H2 2464   1.608   1.001  13.220 -1.5616  0.6555  1.2647
  158TMC2    C7 2465   1.419   0.908  13.379  0.6295  0.8164 -0.0732
  158TMC2    C8 2466   1.885   0.970  13.233 -0.2692  0.9029 -0.8642
  158TMC2    O1 2467   1.397   0.985  13.289  0.0709 -0.2280 -0.1668
  158TMC2    O2 2468   1.981   1.047  13.245 -0.3236 -0.7630  0.0388
  158TMC2    O5 2469   1.881   0.854  13.162 -0.3337 -0.1925 -0.5908
  158TMC2    H5 2470   1.804   0.796  13.178  1.7633 -2.7120  0.3193
  159MPD2     C 2471   1.820   0.578  14.124 -0.9511 -0.5557 -0.2780
  159MPD2    C1 2472   1.686   0.577  14.087  0.4378 -0.2570 -0.1468
  159MPD2    C2 2473   1.658   0.630  13.963 -0.4055  1.4660 -0.4199
  159MPD2    C3 2474   1.758   0.684  13.883  0.3072 -0.1427  0.7089
  159MPD2    C4 2475   1.887   0.691  13.929  0.0769 -0.1287  0.3434
  159MPD2    C5 2476   1.922   0.638  14.050  0.2737  0.6710 -0.3612
  159MPD2     H 2477   1.557   0.649  13.931 -0.5509 -0.0341 -0.8441
  159MPD2    H1 2478   1.966   0.735  13.870 -1.1666  0.3128 -0.9855
  159MPD2    H2 2479   1.854   0.526  14.213 -0.0709 -0.5592 -0.6141
  159MPD2    H3 2480   2.025   0.626  14.081  0.1715  0.2926 -0.1736
  159MPD2     N 2481   1.716   0.747  13.758  0.4569 -0.6509 -0.1806
  159MPD2    H5 2482   1.624   0.722  13.724 -0.3646  2.4770 -0.2289
  159MPD2    N1 2483   1.582   0.533  14.173 -0.5203 -0.5448 -0.6457
  159MPD2    H7 2484   1.487   0.519  14.139 -1.4885  1.3076  1.2563
  160TMC2    C1 2485   0.436   3.944   1.692 -0.5373 -0.3340  0.8374
  160TMC2    C2 2486   0.382   3.866   1.792  1.0230  0.1308 -0.4450
  160TMC2    C3 2487   0.400   3.732   1.793 -0.3351 -0.0741  0.8466
  160TMC2    C4 2488   0.510   3.883   1.595  0.1892 -0.3990 -0.1077
  160TMC2    C5 2489   0.525   3.744   1.599  0.8831 -0.7101  0.1721
  160TMC2    C6 2490   0.474   3.669   1.699 -0.0384  0.5474  0.1214
  160TMC2     C 2491   0.422   4.083   1.694 -0.1585  0.7430  0.5584
  160TMC2     O 2492   0.461   4.149   1.785  0.0911  0.0473  0.5497
  160TMC2     H 2493   0.329   3.915   1.873  0.9664 -2.4923  1.1188
  160TMC2    H1 2494   0.554   3.948   1.520  0.5950 -0.2860  0.2235
  160TMC2    H2 2495   0.495   3.563   1.712 -0.8494  0.4537  0.6715
  160TMC2    C7 2496   0.598   3.668   1.499 -0.3360 -0.3292  0.0932
  160TMC2    C8 2497   0.404   3.661   1.923  0.1664 -0.6593  0.3738
  160TMC2    O1 2498   0.591   3.548   1.514 -0.1234 -0.1095 -0.3654
  160TMC2    O2 2499   0.476   3.564   1.939  0.1107  0.5010  0.1982
  160TMC2    O5 2500   0.309   3.719   2.015  0.0040 -0.0834 -0.4044
  160TMC2    H5 2501   0.247   3.777   1.966  0.5752  0.0774 -0.9382
  161MPD2     C 2502   0.415   4.359   1.591 -0.1718 -0.4698 -0.5401
  161MPD2    C1 2503   0.357   4.252   1.522  0.5170 -0.2541  0.2472
  161MPD2    C2 2504   0.281   4.287   1.408  0.2097 -0.2805 -0.7275
  161MPD2    C3 2505   0.267   4.413   1.359  0.0659  0.2484  0.5932
  161MPD2    C4 2506   0.333   4.510   1.428 -0.2939  0.2715  0.1281
  161MPD2    C5 2507   0.394   4.482   1.546  0.0570  0.3663 -0.4532
  161MPD2     H 2508   0.231   4.207   1.354 -1.2847 -0.5246  1.0041
  161MPD2    H1 2509   0.333   4.610   1.386  1.2380  0.6806  1.0767
  161MPD2    H2 2510   0.479   4.353   1.679  1.1093  1.6795 -1.3117
  161MPD2    H3 2511   0.453   4.558   1.597  1.1638 -0.9537  0.2325
  161MPD2     N 2512   0.194   4.443   1.242  0.5144 -0.6667  0.4280
  161MPD2    H5 2513   0.182   4.543   1.224  0.5477 -0.8667 -0.6818
  161MPD2    N1 2514   0.367   4.113   1.571 -0.1822 -0.5985  0.1273
  161MPD2    H7 2515   0.323   4.035   1.524 -1.3616  0.1465  0.0033
  162TMC2    C1 2516   2.915   1.199   1.170 -0.2622 -0.0546  0.3852
  162TMC2    C2 2517   2.799   1.263   1.186 -0.4419 -0.5036  0.3329
  162TMC2    C3 2518   2.763   1.305   1.313  0.0557  0.0254  0.0155
  162TMC2    C4 2519   2.998   1.182   1.279  0.2326 -0.3292  0.3012
  162TMC2    C5 2520   2.962   1.230   1.399 -0.8018 -0.1832 -0.6449
  162TMC2    C6 2521   2.842   1.293   1.419 -0.2005 -0.5926  0.5769
  162TMC2     C 2522   2.963   1.186   1.031 -0.1560 -0.4994  0.0157
  162TMC2     O 2523   3.066   1.118   1.029  0.5467 -0.4682 -0.3191
  162TMC2     H 2524   2.723   1.263   1.108  0.9306 -0.5017 -0.9948
  162TMC2    H1 2525   3.095   1.141   1.258  1.0104  1.9139 -0.4585
  162TMC2    H2 2526   2.820   1.325   1.520 -0.1420  2.1240 -0.2763
  162TMC2    C7 2527   3.067   1.281   1.491  0.4951  0.3541  0.5612
  162TMC2    C8 2528   2.649   1.395   1.333  0.1922 -0.7608 -0.7507
  162TMC2    O1 2529   3.035   1.355   1.581  0.2032  0.5517 -0.6403
  162TMC2    O2 2530   2.619   1.477   1.251 -0.0788 -0.1792 -0.6034
  162TMC2    O5 2531   2.606   1.385   1.463 -0.2722  0.0599 -0.1357
  162TMC2    H5 2532   2.640   1.302   1.503 -1.2807 -0.5846 -0.6199
  163MPD2     C 2533   2.964   1.261   0.526  0.0976 -0.1395  0.1897
  163MPD2    C1 2534   3.043   1.174   0.597 -0.6739 -0.7263 -0.0918
  163MPD2    C2 2535   3.026   1.172   0.736 -0.0325 -0.0569 -1.2812
  163MPD2    C3 2536   2.928   1.249   0.794 -0.5941 -0.7608  1.0407
  163MPD2    C4 2537   2.857   1.334   0.715 -0.6097 -0.1101 -0.1708
  163MPD2    C5 2538   2.880   1.346   0.583  0.2327  0.5226 -0.6241
  163MPD2     H 2539   3.068   1.095   0.800 -0.0824  3.2553  2.7325
  163MPD2    H1 2540   2.781   1.398   0.760 -0.4732 -0.7780  0.9983
  163MPD2    H2 2541   2.971   1.276   0.419 -2.1488 -0.2624  0.0321
  163MPD2    H3 2542   2.821   1.412   0.521 -0.7071  0.1182 -0.1796
  163MPD2     N 2543   2.896   1.259   0.933  0.1612  0.1280  0.0500
  163MPD2    H5 2544   2.818   1.317   0.961  0.6637  1.4082 -1.1933
  163MPD2    N1 2545   3.130   1.090   0.529  0.2230 -0.1025  0.6753
  163MPD2    H7 2546   3.145   1.116   0.432  0.9466 -1.7072  0.3498
  164TMC2    C1 2547   4.093   0.245  11.551  0.1721  0.5567 -0.1111
  164TMC2    C2 2548   4.113   0.262  11.418 -0.8134 -0.7868 -0.3171
  164TMC2    C3 2549   4.150   0.390  11.393 -0.2921  0.1638  0.3440
  164TMC2    C4 2550   4.081   0.343  11.642 -0.0006  0.7759  0.2542
  164TMC2    C5 2551   4.092   0.474  11.605  0.0783  0.3608  0.4232
  164TMC2    C6 2552   4.130   0.495  11.478  0.4219  0.0353  0.9368
  164TMC2     C 2553   4.050   0.115  11.600 -0.3279 -0.6506 -0.2366
  164TMC2     O 2554   4.000   0.116  11.712  0.0780 -0.0487 -0.3157
  164TMC2     H 2555   4.120   0.176  11.352  0.5171  0.0008 -1.2011
  164TMC2    H1 2556   4.048   0.327  11.744  1.4183  1.8519  0.8893
  164TMC2    H2 2557   4.151   0.598  11.452  1.9625 -0.7583 -0.9416
  164TMC2    C7 2558   3.999   0.574  11.668 -0.0132  0.0876 -0.3407
  164TMC2    C8 2559   4.225   0.417  11.278  0.1659  0.1893  0.2884
  164TMC2    O1 2560   3.949   0.538  11.773  0.2270  0.9696  0.1718
  164TMC2    O2 2561   4.300   0.512  11.275 -0.7906  0.1324 -0.6756
  164TMC2    O5 2562   4.167   0.351  11.174  0.2217 -0.0285 -0.0457
  164TMC2    H5 2563   4.088   0.295  11.187  1.1223 -1.0305  1.1268
  165TMC2    C1 2564   0.646   2.627   1.615 -0.7974  0.5196  0.7608
  165TMC2    C2 2565   0.641   2.549   1.502  0.6962  0.2052 -0.1005
  165TMC2    C3 2566   0.693   2.605   1.388 -0.0965 -0.2887 -0.2173
  165TMC2    C4 2567   0.715   2.746   1.616  0.0783  0.2132 -0.3997
  165TMC2    C5 2568   0.773   2.788   1.502  0.0250 -0.2474  0.0259
  165TMC2    C6 2569   0.754   2.722   1.381 -0.5968 -0.0353 -0.3388
  165TMC2     C 2570   0.557   2.591   1.722  0.0506  0.3636  0.2402
  165TMC2     O 2571   0.508   2.480   1.710 -0.4182  0.0551 -0.1817
  165TMC2     H 2572   0.618   2.444   1.516 -0.5631  0.7393  2.0321
  165TMC2    H1 2573   0.730   2.789   1.714  1.1012  1.5936 -1.1496
  165TMC2    H2 2574   0.806   2.743   1.288  0.0581 -0.4947 -0.0736
  165TMC2    C7 2575   0.878   2.887   1.512  0.1555  0.1393  0.0472
  165TMC2    C8 2576   0.695   2.520   1.268  0.2424 -0.0048  0.1240
  165TMC2    O1 2577   0.965   2.891   1.428  0.2769  0.2623 -0.7867
  165TMC2    O2 2578   0.782   2.535   1.182  0.1821 -0.2093  0.1064
  165TMC2    O5 2579   0.568   2.503   1.243 -0.8303 -0.0446 -0.0243
  165TMC2    H5 2580   0.520   2.529   1.324 -0.3868 -1.7424  0.7889
  166MPD2     C 2581   0.249   2.708   2.119 -0.1390 -0.7878 -0.6290
  166MPD2    C1 2582   0.280   2.584   2.059  0.4121 -0.7892 -0.8827
  166MPD2    C2 2583   0.379   2.577   1.958  0.2813  0.2184 -0.0911
  166MPD2    C3 2584   0.436   2.696   1.908 -0.4439  0.3333 -0.9109
  166MPD2    C4 2585   0.398   2.815   1.964  0.2121 -0.6069  0.6872
  166MPD2    C5 2586   0.304   2.822   2.067 -0.1886  0.3050 -0.0072
  166MPD2     H 2587   0.399   2.478   1.919 -0.2463  0.7131 -1.5961
  166MPD2    H1 2588   0.432   2.907   1.918 -0.9220  1.0656  3.2167
  166MPD2    H2 2589   0.179   2.719   2.201  0.8652 -1.8879  0.3733
  166MPD2    H3 2590   0.259   2.914   2.102  0.2924 -0.2476  2.0708
  166MPD2     N 2591   0.521   2.700   1.796 -0.0220  0.2414 -0.4704
  166MPD2    H5 2592   0.564   2.791   1.784 -0.7808  0.7221  0.4043
  166MPD2    N1 2593   0.205   2.470   2.097  0.3255  0.0478 -0.0142
  166MPD2    H7 2594   0.135   2.481   2.170  0.5905 -0.0424  0.2527
  167TMC2    C1 2595   3.705   0.525  13.226 -0.0291  0.2318  0.5875
  167TMC2    C2 2596   3.602   0.589  13.293 -0.2286  0.6156 -0.7075
  167TMC2    C3 2597   3.476   0.541  13.278 -0.1720  0.0439  0.4084
  167TMC2    C4 2598   3.686   0.412  13.159 -0.6487  0.4553 -0.8338
  167TMC2    C5 2599   3.559   0.361  13.152  0.0747 -0.1516 -0.0877
  167TMC2    C6 2600   3.448   0.423  13.210 -0.7212 -0.2450 -0.8617
  167TMC2     C 2601   3.811   0.615  13.197  0.3408 -0.6051 -0.5648
  167TMC2     O 2602   3.827   0.716  13.263 -0.0516  0.3780 -0.3090
  167TMC2     H 2603   3.622   0.673  13.358 -1.3754 -0.4073  0.9544
  167TMC2    H1 2604   3.764   0.351  13.117  1.4362  0.4482  2.9939
  167TMC2    H2 2605   3.350   0.380  13.193 -0.6511 -1.2788  1.3777
  167TMC2    C7 2606   3.531   0.235  13.096 -0.5487  0.1645  0.1041
  167TMC2    C8 2607   3.361   0.639  13.282  0.6064  0.0550 -0.0523
  167TMC2    O1 2608   3.458   0.162  13.155  0.3457  0.9003  0.3441
  167TMC2    O2 2609   3.362   0.739  13.209 -0.0717  0.1945 -0.1771
  167TMC2    O5 2610   3.247   0.582  13.319  0.0760  0.3477  0.2189
  167TMC2    H5 2611   3.263   0.495  13.362 -0.9557  0.4599  0.8173
  168MPD2     C 2612   4.027   0.778  13.054  0.1715 -0.4064  0.2634
  168MPD2    C1 2613   3.975   0.658  13.007  0.5007  0.3152 -0.6978
  168MPD2    C2 2614   4.013   0.607  12.884  0.3840 -0.1975 -0.3390
  168MPD2    C3 2615   4.083   0.678  12.795  0.6341 -0.2985 -0.6694
  168MPD2    C4 2616   4.121   0.806  12.827 -0.3289  0.2915  0.2611
  168MPD2    C5 2617   4.094   0.850  12.956 -0.0291 -0.2021  0.0033
  168MPD2     H 2618   3.977   0.510  12.853  0.8617  0.1937 -2.1536
  168MPD2    H1 2619   4.176   0.879  12.769 -1.1781  0.7211 -0.0040
  168MPD2    H2 2620   4.013   0.826  13.150 -2.4314 -0.0528 -0.3053
  168MPD2    H3 2621   4.134   0.949  12.977 -0.8254 -0.2821  1.8253
  168MPD2     N 2622   4.089   0.626  12.665  0.8753  0.0898 -0.6219
  168MPD2    H5 2623   4.057   0.530  12.655  0.2144  0.3122 -0.6324
  168MPD2    N1 2624   3.875   0.582  13.076 -0.1439 -0.2736  0.4572
  168MPD2    H7 2625   3.838   0.499  13.031  1.8009  0.2249 -2.0217
  169MPD1     C 2626   1.390   0.617   9.065 -0.5364  0.5244  0.6456
  169MPD1    C1 2627   1.311   0.612   9.176  0.3544 -0.4350  0.0578
  169MPD1    C2 2628   1.342   0.508   9.260 -0.5851  0.3747  0.2050
  169MPD1    C3 2629   1.431   0.401   9.234 -0.4351 -0.2624  0.4965
  169MPD1    C4 2630   1.516   0.421   9.123 -0.3212  0.1325  0.6182
  169MPD1    C5 2631   1.492   0.526   9.033  0.5616 -0.7412  0.2694
  169MPD1     H 2632   1.282   0.494   9.349  0.5590  1.1744  1.1005
  169MPD1    H1 2633   1.596   0.354   9.094 -2.0592 -1.3709 -0.7230
  169MPD1    H2 2634   1.383   0.704   9.000  1.7518  0.5298  0.3790
  169MPD1    H3 2635   1.548   0.525   8.941  1.0178 -1.4677  0.5529
  169MPD1     N 2636   1.425   0.295   9.320 -0.2973 -0.5068 -0.3218
  169MPD1    H5 2637   1.358   0.293   9.396  0.0777  0.1860  0.0184
  169MPD1    N1 2638   1.223   0.711   9.211  0.4349  0.3772 -0.0463
  169MPD1    H6 2639   1.154   0.680   9.279 -0.1890  1.2169 -0.3073
  169MPD1    H7 2640   1.164   0.733   9.131 -0.2738  3.0687  1.2260
  170MPD1     C 2641   4.392   2.602  13.147  0.5206 -0.5748  0.8855
  170MPD1    C1 2642   4.394   2.735  13.126  0.1559  0.7392  0.3314
  170MPD1    C2 2643   4.418   2.816  13.233  0.0977 -0.2459  0.2000
  170MPD1    C3 2644   4.447   2.763  13.359  0.1103  0.6068 -0.5594
  170MPD1    C4 2645   4.449   2.628  13.385  0.0474  0.0360  0.3176
  170MPD1    C5 2646   4.420   2.551  13.275  0.1438 -0.0155  0.4350
  170MPD1     H 2647   4.415   2.924  13.239  0.0890 -0.1990 -0.6405
  170MPD1    H1 2648   4.475   2.584  13.481  1.8543  3.2007  1.2497
  170MPD1    H2 2649   4.350   2.525  13.083  1.0891 -0.3791  0.2789
  170MPD1    H3 2650   4.410   2.444  13.287  1.1661 -0.1029  0.5095
  170MPD1     N 2651   4.457   2.862  13.455  0.2810  0.0614 -0.3911
  170MPD1    H5 2652   4.471   2.956  13.421  2.6377  0.5092  1.7946
  170MPD1    N1 2653   4.345   2.784  13.010  0.6066 -0.4236  0.1156
  170MPD1    H6 2654   4.389   2.873  12.989  0.4898 -0.3682  0.1105
  170MPD1    H7 2655   4.361   2.718  12.934 -0.2567  0.3067 -0.6962
  171MPD1     C 2656   2.854   4.506  15.595  0.3291 -0.6577 -0.9678
  171MPD1    C1 2657   2.753   4.431  15.536 -0.1740  0.3557 -0.0237
  171MPD1    C2 2658   2.764   4.289  15.550  0.0618 -0.2308  0.1207
  171MPD1    C3 2659   2.869   4.225  15.615  0.1568  0.1480  0.7453
  171MPD1    C4 2660   2.960   4.307  15.676  0.0217 -0.5804 -0.7494
  171MPD1    C5 2661   2.956   4.445  15.664  0.6096 -0.8355 -0.4280
  171MPD1     H 2662   2.680   4.235  15.507  0.3179 -1.1955  0.8370
  171MPD1    H1 2663   3.041   4.266  15.735  0.4986 -0.4835 -1.3283
  171MPD1    H2 2664   2.859   4.614  15.596 -1.4009 -0.5826 -0.7373
  171MPD1    H3 2665   3.028   4.510  15.712 -3.1777  2.5889  0.6425
  171MPD1     N 2666   2.885   4.082  15.618  0.6165 -0.2702 -0.0940
  171MPD1    H5 2667   2.958   4.037  15.673  2.0703  1.6929 -0.4345
  171MPD1    N1 2668   2.636   4.489  15.482 -0.5638 -0.8877 -0.6373
  171MPD1    H6 2669   2.654   4.577  15.434  1.3618 -1.8210 -1.6405
  171MPD1    H7 2670   2.595   4.425  15.414  0.5499 -1.6292 -0.6076
  172MPD1     C 2671   1.730   2.578   0.305  0.1167 -0.1214 -0.7926
  172MPD1    C1 2672   1.721   2.642   0.181 -0.6759  0.2173  0.0534
  172MPD1    C2 2673   1.785   2.761   0.168  1.0597 -0.2171  0.2078
  172MPD1    C3 2674   1.875   2.811   0.258  0.5344 -0.2572  0.5035
  172MPD1    C4 2675   1.893   2.748   0.381  0.1855 -0.2171 -0.1399
  172MPD1    C5 2676   1.816   2.628   0.400 -0.5667  0.5820  0.1135
  172MPD1     H 2677   1.770   2.817   0.076 -0.9629 -0.8756  0.1403
  172MPD1    H1 2678   1.961   2.785   0.456 -0.9205  0.4122  0.5656
  172MPD1    H2 2679   1.660   2.499   0.333 -1.4796  0.8157 -2.1644
  172MPD1    H3 2680   1.822   2.595   0.504 -1.4801  2.3690  0.7315
  172MPD1     N 2681   1.949   2.929   0.244  0.5128 -0.0662 -0.2080
  172MPD1    H5 2682   1.999   2.966   0.325  0.1833 -1.5193  0.6593
  172MPD1    N1 2683   1.627   2.598   0.087 -0.2071  0.2773 -0.6018
  172MPD1    H6 2684   1.611   2.498   0.082  3.2722 -0.3030  0.1887
  172MPD1    H7 2685   1.654   2.615  17.748 -1.7224 -1.6676 -1.3586
  173MPD1     C 2686   4.016   3.248  13.936  0.4354  0.1738  0.2652
  173MPD1    C1 2687   3.882   3.223  13.952 -0.0867  0.3714 -0.4812
  173MPD1    C2 2688   3.838   3.128  14.044  0.0191 -0.1880 -0.1366
  173MPD1    C3 2689   3.929   3.060  14.120  0.6192 -0.9242  0.0858
  173MPD1    C4 2690   4.059   3.066  14.086  0.4265 -0.0232  0.0228
  173MPD1    C5 2691   4.100   3.172  14.001  0.3659  0.6040  0.3316
  173MPD1     H 2692   3.731   3.126  14.064 -0.1998  2.8738 -0.9494
  173MPD1    H1 2693   4.136   3.005  14.131  0.6728  1.4493  1.5903
  173MPD1    H2 2694   4.055   3.315  13.860 -2.7830  0.0589 -1.4787
  173MPD1    H3 2695   4.204   3.200  13.996  0.4985  0.1451  0.5014
  173MPD1     N 2696   3.879   2.978  14.223 -0.3799  0.4170  0.7998
  173MPD1    H5 2697   3.784   2.990  14.257 -0.6407 -0.9366  0.5638
  173MPD1    N1 2698   3.790   3.313  13.895  0.7510 -0.4758  0.6521
  173MPD1    H6 2699   3.709   3.262  13.858  0.0766  0.2940  1.0592
  173MPD1    H7 2700   3.830   3.348  13.809  0.7253 -0.5587  0.6059
  174MPD1     C 2701   4.084   2.452  15.175 -0.0441 -0.1695 -0.5083
  174MPD1    C1 2702   4.175   2.508  15.085 -0.1027 -0.3145  0.3758
  174MPD1    C2 2703   4.122   2.552  14.967 -0.4000 -0.4485  0.4635
  174MPD1    C3 2704   3.989   2.542  14.933 -0.5841 -0.4196 -0.1292
  174MPD1    C4 2705   3.908   2.492  15.025 -0.5182 -0.1642 -0.3521
  174MPD1    C5 2706   3.952   2.444  15.143 -0.6630  0.0384 -0.9475
  174MPD1     H 2707   4.192   2.602  14.902  0.0397  2.2909  3.0282
  174MPD1    H1 2708   3.800   2.487  15.014 -0.7385  1.6744  0.8138
  174MPD1    H2 2709   4.120   2.421  15.273 -0.7412 -2.1116 -0.8800
  174MPD1    H3 2710   3.882   2.393  15.208 -0.3428  0.1484 -0.5131
  174MPD1     N 2711   3.940   2.591  14.815 -0.4678  0.0850  0.2354
  174MPD1    H5 2712   3.852   2.552  14.783 -0.4392  0.6781 -0.5465
  174MPD1    N1 2713   4.312   2.513  15.112  0.0875  0.1006  0.3708
  174MPD1    H6 2714   4.325   2.548  15.207 -0.8598  2.4072 -0.3516
  174MPD1    H7 2715   4.358   2.577  15.047  2.1694 -0.3232  1.4341
  175MPD1     C 2716   2.130   4.325  15.766 -0.0940 -0.5738  1.2711
  175MPD1    C1 2717   2.056   4.247  15.681  0.7356 -0.3690 -0.3619
  175MPD1    C2 2718   1.980   4.145  15.738 -0.0078  0.3320  0.2218
  175MPD1    C3 2719   1.993   4.118  15.867 -0.1486 -0.0825 -0.3421
  175MPD1    C4 2720   2.071   4.197  15.951  0.5146  0.0567  0.2245
  175MPD1    C5 2721   2.140   4.297  15.895  0.1088  0.5540  0.5458
  175MPD1     H 2722   1.929   4.076  15.673 -1.4721  1.1956  0.4564
  175MPD1    H1 2723   2.098   4.173  16.053  2.9142  3.9261  0.4860
  175MPD1    H2 2724   2.192   4.406  15.729 -1.0350 -1.2695 -1.8516
  175MPD1    H3 2725   2.199   4.360  15.960 -0.0150  0.5911  0.6233
  175MPD1     N 2726   1.916   4.016  15.928 -0.0334 -0.3166  0.1236
  175MPD1    H5 2727   1.929   4.014  16.029 -2.1936  2.1907  0.4646
  175MPD1    N1 2728   2.045   4.276  15.544  0.0584 -0.1163  0.5009
  175MPD1    H6 2729   2.122   4.316  15.490 -2.1244 -0.1356 -2.6462
  175MPD1    H7 2730   2.006   4.201  15.486 -0.5826  0.1472  0.5956
  176MPD1     C 2731   2.728   1.925  16.963  0.2149 -0.7824  0.0135
  176MPD1    C1 2732   2.792   1.984  17.075 -0.4240  0.2081 -0.0367
  176MPD1    C2 2733   2.901   1.919  17.136 -0.0951 -0.0937  0.2346
  176MPD1    C3 2734   2.951   1.806  17.084 -0.1388 -0.2046 -0.0546
  176MPD1    C4 2735   2.892   1.754  16.977  0.3657  0.0876  0.2118
  176MPD1    C5 2736   2.784   1.808  16.919 -0.5150 -0.6509 -0.3526
  176MPD1     H 2737   2.952   1.964  17.220  1.8193 -1.6998 -0.0741
  176MPD1    H1 2738   2.923   1.659  16.936  1.3838 -0.4899  2.3278
  176MPD1    H2 2739   2.635   1.952  16.915  0.7839  1.6590  0.2855
  176MPD1    H3 2740   2.736   1.753  16.838 -4.7911  1.3705  0.8060
  176MPD1     N 2741   3.069   1.749  17.149 -0.0203  0.1613  0.0175
  176MPD1    H5 2742   3.104   1.803  17.228  1.3327 -0.0434 -0.4409
  176MPD1    N1 2743   2.734   2.096  17.136 -0.1956 -0.0451 -0.2779
  176MPD1    H6 2744   2.700   2.168  17.072 -0.1691 -0.2074 -0.4764
  176MPD1    H7 2745   2.781   2.126  17.221 -0.3076 -0.2470 -0.1467
  177MPD1     C 2746   2.112   4.575   9.610 -0.0622 -0.0251 -1.1995
  177MPD1    C1 2747   2.198   4.590   9.715  0.5789 -0.5314 -0.1422
  177MPD1    C2 2748   2.278   4.707   9.727 -0.7987 -0.0579  0.1743
  177MPD1    C3 2749   2.263   0.068   9.631 -0.0171 -1.0056  0.2601
  177MPD1    C4 2750   2.166   0.055   9.532  0.3156 -0.5940  0.2634
  177MPD1    C5 2751   2.088   4.680   9.525  1.0385 -0.4849 -0.0187
  177MPD1     H 2752   2.347   4.713   9.810 -0.6379 -0.4672  0.0742
  177MPD1    H1 2753   2.138   0.129   9.458  0.6874 -0.6082  0.1086
  177MPD1    H2 2754   2.050   4.487   9.610 -0.5820  0.3400  0.9404
  177MPD1    H3 2755   2.005   4.663   9.458 -1.3708  1.1528  2.5387
  177MPD1     N 2756   2.348   0.178   9.645  0.3495  0.2488  0.5380
  177MPD1    H5 2757   2.422   0.178   9.714  0.0411 -2.2412  0.8498
  177MPD1    N1 2758   2.192   4.499   9.824  0.2174  0.2856  0.0118
  177MPD1    H6 2759   2.169   4.403   9.797  1.0200 -0.1499  0.8766
  177MPD1    H7 2760   2.282   4.496   9.871  0.4100  0.4960 -0.3451
  178MPD1     C 2761   4.116   2.208  17.601  0.4107 -0.3416 -0.1135
  178MPD1    C1 2762   4.011   2.177  17.524 -0.3402  0.1368  0.0026
  178MPD1    C2 2763   4.011   2.188  17.386  0.7422 -0.2344 -0.4315
  178MPD1    C3 2764   4.129   2.220  17.327 -0.2990 -0.1539 -0.3568
  178MPD1    C4 2765   4.240   2.247  17.403 -0.6189  0.0532  0.5177
  178MPD1    C5 2766   4.231   2.234  17.536  0.5343  0.4586 -0.6714
  178MPD1     H 2767   3.917   2.178  17.333  0.9681  0.2622 -0.9393
  178MPD1    H1 2768   4.336   2.273  17.359  0.0106  0.7604  2.2866
  178MPD1    H2 2769   4.111   2.215  17.709  0.1373 -1.6166 -0.0393
  178MPD1    H3 2770   4.302   2.265  17.611  1.3255 -1.3022 -0.6778
  178MPD1     N 2771   4.146   2.220  17.185 -0.3838  0.3347 -0.3609
  178MPD1    H5 2772   4.238   2.243  17.151 -0.6898  0.3276 -1.1838
  178MPD1    N1 2773   3.887   2.169  17.580 -0.1091  0.3261  0.9251
  178MPD1    H6 2774   3.907   2.124  17.669 -0.0030 -2.1254 -0.3241
  178MPD1    H7 2775   3.824   2.108  17.527 -0.1290 -0.6298  2.0565
  179MPD1     C 2776   3.859   0.714  16.150  0.7712 -0.0138  0.0015
  179MPD1    C1 2777   3.879   0.680  16.015  0.3972 -1.0230 -0.2611
  179MPD1    C2 2778   3.866   0.549  15.981  0.1209  0.3491 -0.3377
  179MPD1    C3 2779   3.842   0.453  16.077 -0.6264 -0.6151  0.7149
  179MPD1    C4 2780   3.827   0.488  16.207 -0.4731  0.2004  0.1432
  179MPD1    C5 2781   3.837   0.618  16.241 -0.2043 -0.6254 -0.2195
  179MPD1     H 2782   3.894   0.525  15.879 -0.0893  0.2698 -0.3770
  179MPD1    H1 2783   3.814   0.412  16.284  4.0696  0.8977  1.5581
  179MPD1    H2 2784   3.869   0.817  16.180 -4.9180  0.4759  0.1329
  179MPD1    H3 2785   3.832   0.648  16.345  0.3571 -0.7366 -0.1613
  179MPD1     N 2786   3.849   0.311  16.058  0.5391  0.2361 -0.6116
  179MPD1    H5 2787   3.840   0.259  16.145 -2.4577 -1.4630 -1.9362
  179MPD1    N1 2788   3.926   0.770  15.923  0.0530  0.5867  0.7039
  179MPD1    H6 2789   3.920   0.869  15.944 -2.3890  0.8660 -1.3093
  179MPD1    H7 2790   3.897   0.747  15.828  2.4050 -3.0035  0.8432
  180MPD1     C 2791   2.733   1.479  15.333  0.0144  0.9719 -0.4288
  180MPD1    C1 2792   2.704   1.376  15.243 -0.1801  0.2021 -0.5075
  180MPD1    C2 2793   2.800   1.351  15.148  0.3921  0.1684 -0.2215
  180MPD1    C3 2794   2.895   1.445  15.108 -0.6334  0.0960 -0.1819
  180MPD1    C4 2795   2.921   1.544  15.194  0.6484 -0.0459  0.1419
  180MPD1    C5 2796   2.836   1.560  15.297 -0.6139  0.3996  0.7022
  180MPD1     H 2797   2.796   1.260  15.090 -2.6243 -0.4012  0.8816
  180MPD1    H1 2798   2.991   1.624  15.169  4.6225 -2.8141  2.5880
  180MPD1    H2 2799   2.670   1.507  15.417 -0.8597 -2.4169  0.0369
  180MPD1    H3 2800   2.845   1.649  15.360  1.2678  0.1427  0.7958
  180MPD1     N 2801   2.966   1.420  14.988 -0.0677 -0.1750 -0.2521
  180MPD1    H5 2802   2.937   1.342  14.929  0.1187  2.1670 -3.4658
  180MPD1    N1 2803   2.603   1.285  15.273  0.2030  0.4864 -0.5726
  180MPD1    H6 2804   2.528   1.336  15.320 -1.4388 -2.5020  0.0459
  180MPD1    H7 2805   2.559   1.246  15.190 -0.6960  1.3103 -0.4789
  181MPD1     C 2806   1.586   2.704  10.141  0.5807 -0.2618 -0.8531
  181MPD1    C1 2807   1.612   2.800  10.236  0.1990  1.1559 -0.3269
  181MPD1    C2 2808   1.726   2.798  10.311 -0.6635 -0.4030 -0.1224
  181MPD1    C3 2809   1.827   2.704  10.285  0.5747 -0.3585 -0.1600
  181MPD1    C4 2810   1.801   2.609  10.185 -0.1452 -0.4962  0.3898
  181MPD1    C5 2811   1.683   2.617  10.105 -0.1859  0.4695  0.1793
  181MPD1     H 2812   1.727   2.869  10.393 -0.5783 -2.2574  1.4879
  181MPD1    H1 2813   1.866   2.528  10.154  0.5601 -0.7591  2.5420
  181MPD1    H2 2814   1.490   2.712  10.091 -0.4187  1.3302  1.3385
  181MPD1    H3 2815   1.665   2.541  10.030 -1.1915 -0.0075  0.8943
  181MPD1     N 2816   1.958   2.693  10.351  0.2816 -1.1745 -0.5789
  181MPD1    H5 2817   2.025   2.624  10.320  3.6777  1.1459  1.5006
  181MPD1    N1 2818   1.507   2.869  10.286 -0.3437  0.2241 -0.4058
  181MPD1    H6 2819   1.536   2.948  10.343  0.5059  1.4036 -2.4747
  181MPD1    H7 2820   1.431   2.887  10.221  0.2684 -3.1302 -2.0630
  182MPD1     C 2821   1.731   1.732   1.144 -0.7161  0.2495  0.4130
  182MPD1    C1 2822   1.756   1.854   1.202  0.2655 -0.2308 -0.5363
  182MPD1    C2 2823   1.654   1.951   1.205  0.2324 -0.1815  0.4488
  182MPD1    C3 2824   1.525   1.917   1.164 -0.0598 -0.5645  0.4863
  182MPD1    C4 2825   1.506   1.789   1.120  0.1372 -0.1725 -0.6426
  182MPD1    C5 2826   1.604   1.699   1.110  0.4426 -0.0339 -0.4517
  182MPD1     H 2827   1.675   2.055   1.225  1.7684  0.0115 -2.1600
  182MPD1    H1 2828   1.406   1.750   1.101  0.3098 -0.1280 -1.6151
  182MPD1    H2 2829   1.805   1.653   1.141 -1.3173 -0.2558 -1.0732
  182MPD1    H3 2830   1.582   1.600   1.070 -0.6878 -0.1343  0.4076
  182MPD1     N 2831   1.423   2.007   1.145  0.8144  0.1310  0.3299
  182MPD1    H5 2832   1.338   1.960   1.115 -0.4735  3.5549 -1.2912
  182MPD1    N1 2833   1.888   1.897   1.224  0.0217 -0.0501  0.1762
  182MPD1    H6 2834   1.912   1.984   1.271  0.0328  1.0525 -1.8561
  182MPD1    H7 2835   1.948   1.823   1.259 -0.5476 -0.6973 -0.2076
  183MPD1     C 2836   4.018   2.214   9.700 -0.5100 -0.2138 -0.0453
  183MPD1    C1 2837   3.906   2.146   9.667  0.7587  0.5524 -0.0579
  183MPD1    C2 2838   3.789   2.181   9.731 -0.4248 -0.2524  0.4140
  183MPD1    C3 2839   3.788   2.294   9.811  0.0235  0.2782  0.4562
  183MPD1    C4 2840   3.901   2.370   9.829 -0.7879 -0.5397  0.4179
  183MPD1    C5 2841   4.020   2.332   9.765  0.4855 -0.2414 -0.4287
  183MPD1     H 2842   3.702   2.116   9.729 -1.9596  1.8107  0.3704
  183MPD1    H1 2843   3.902   2.463   9.884  0.2861  0.2913 -0.9943
  183MPD1    H2 2844   4.116   2.184   9.665  0.2183  1.8299  0.2471
  183MPD1    H3 2845   4.110   2.388   9.788 -0.1253  1.1354 -1.3800
  183MPD1     N 2846   3.669   2.311   9.879  0.1695 -0.6940 -0.2656
  183MPD1    H5 2847   3.591   2.248   9.863 -0.0055 -0.5788  0.1285
  183MPD1    N1 2848   3.914   2.025   9.596  0.5755  0.2288 -0.0726
  183MPD1    H6 2849   3.989   2.043   9.530 -0.4882  2.2314 -0.7513
  183MPD1    H7 2850   3.829   2.003   9.544 -1.0406  0.9958  2.2117
  184MPD1     C 2851   1.809   4.687   9.979  0.5691 -0.3163 -0.1069
  184MPD1    C1 2852   1.731   0.052  10.024 -0.4050  0.0541  0.4402
  184MPD1    C2 2853   1.708   0.159   9.935 -0.1825  0.0040 -1.1872
  184MPD1    C3 2854   1.756   0.151   9.804 -0.1898 -0.2641 -0.8634
  184MPD1    C4 2855   1.824   0.039   9.761 -0.1394  0.2161  0.1634
  184MPD1    C5 2856   1.855   4.677   9.850 -0.2840 -0.2157  0.0675
  184MPD1     H 2857   1.651   0.242   9.976  1.3589 -0.1031  1.1757
  184MPD1    H1 2858   1.871   0.045   9.663  1.8200 -1.4831  1.0146
  184MPD1    H2 2859   1.828   4.598  10.038 -0.5344 -0.9358 -0.6833
  184MPD1    H3 2860   1.922   4.595   9.826 -2.1370 -0.9317 -2.6427
  184MPD1     N 2861   1.730   0.269   9.725 -0.7237 -0.2116 -0.2047
  184MPD1    H5 2862   1.700   0.356   9.769 -1.6594  0.3287 -1.9168
  184MPD1    N1 2863   1.689   0.050  10.155  0.4853  0.2233  0.4385
  184MPD1    H6 2864   1.675   4.696  10.190 -1.2080 -0.3841 -1.8156
  184MPD1    H7 2865   1.595   0.090  10.157  0.4737  0.3242 -2.2469
  185MPD1     C 2866   1.907   0.407   8.718 -0.4047  0.2589 -0.2386
  185MPD1    C1 2867   1.930   0.304   8.815  0.2088  0.1937  0.2535
  185MPD1    C2 2868   1.906   0.326   8.953 -0.3440  0.3819  0.0457
  185MPD1    C3 2869   1.873   0.451   9.000  0.2039  0.2823  0.2426
  185MPD1    C4 2870   1.846   0.550   8.905  0.3287  0.1279  0.3996
  185MPD1    C5 2871   1.872   0.532   8.774  0.3299 -0.5363  0.2354
  185MPD1     H 2872   1.927   0.251   9.028 -2.4806 -0.5552 -0.2760
  185MPD1    H1 2873   1.829   0.652   8.938  0.8801  0.9958 -2.0054
  185MPD1    H2 2874   1.920   0.392   8.612 -1.6648  2.3186 -0.6738
  185MPD1    H3 2875   1.866   0.618   8.708 -2.4379 -1.0301 -0.1831
  185MPD1     N 2876   1.853   0.461   9.142 -0.5195 -0.3702 -0.2107
  185MPD1    H5 2877   1.869   0.378   9.199 -1.6153 -0.5923 -0.2344
  185MPD1    N1 2878   1.956   0.176   8.776  0.3467 -0.3257  0.2807
  185MPD1    H6 2879   1.993   0.172   8.681 -2.0836 -1.0445 -0.6361
  185MPD1    H7 2880   1.996   0.122   8.852 -0.1777  3.1661  3.0517
  186MPD1     C 2881   4.247   0.082  15.651 -0.0890  0.1275  0.2424
  186MPD1    C1 2882   4.244   0.023  15.773  0.2952  0.4370 -0.1086
  186MPD1    C2 2883   4.224   0.107  15.880  0.0117  0.6544  0.1790
  186MPD1    C3 2884   4.194   0.240  15.865 -0.6802 -0.0976  0.1348
  186MPD1    C4 2885   4.200   0.290  15.734 -0.0949 -0.4017  0.6051
  186MPD1    C5 2886   4.217   0.209  15.624  0.0116  0.3271 -0.8411
  186MPD1     H 2887   4.232   0.053  15.974  0.9247  0.4641 -0.0126
  186MPD1    H1 2888   4.176   0.395  15.721 -3.1038 -1.2860 -1.0653
  186MPD1    H2 2889   4.269   0.013  15.570  0.5757 -1.3116  1.6449
  186MPD1    H3 2890   4.229   0.262  15.530  1.3006  1.0209 -0.2848
  186MPD1     N 2891   4.179   0.331  15.973  0.2195  0.5383 -0.0825
  186MPD1    H5 2892   4.149   0.426  15.953 -0.9279  0.2104  0.0804
  186MPD1    N1 2893   4.306   4.639  15.797  0.4195  0.1287 -0.4597
  186MPD1    H6 2894   4.268   4.599  15.883 -1.0427  1.9614 -0.2665
  186MPD1    H7 2895   4.299   4.581  15.713 -0.3943  2.7298 -2.1864
  187MPD1     C 2896   4.100   3.012   0.009  0.3929 -0.4608 -0.3678
  187MPD1    C1 2897   4.050   2.887   0.029  0.0929 -0.1008  0.0200
  187MPD1    C2 2898   3.973   2.831  17.681  0.1302  0.3472 -0.1343
  187MPD1    C3 2899   3.951   2.900  17.561  0.1534  0.1704 -0.3413
  187MPD1    C4 2900   4.010   3.025  17.547 -0.4977  0.0476  0.1932
  187MPD1    C5 2901   4.088   3.078  17.648 -0.3912 -0.3164 -0.1260
  187MPD1     H 2902   3.931   2.732  17.689  1.8637 -0.2106  2.2128
  187MPD1    H1 2903   3.994   3.086  17.458  3.4949 -0.0641 -0.6089
  187MPD1    H2 2904   4.184   3.053   0.064 -1.7095 -0.0666  2.5057
  187MPD1    H3 2905   4.147   3.166  17.622  0.1238 -1.1377 -1.7056
  187MPD1     N 2906   3.875   2.850  17.455 -0.1062 -0.1328  0.0990
  187MPD1    H5 2907   3.858   2.909  17.373 -1.1333  0.3334  0.6477
  187MPD1    N1 2908   4.056   2.825   0.152 -0.1691  0.1363 -0.1243
  187MPD1    H6 2909   4.041   2.726   0.133  0.4290  0.0762 -0.2749
  187MPD1    H7 2910   4.145   2.836   0.200 -0.5061  0.8456  0.3336
  188MPD1     C 2911   3.839   1.636  10.344 -0.3268 -0.4499 -1.0664
  188MPD1    C1 2912   3.919   1.629  10.228  0.5837 -0.2032 -0.1870
  188MPD1    C2 2913   4.002   1.517  10.210 -0.2995 -0.2399 -1.4369
  188MPD1    C3 2914   4.032   1.438  10.327  0.4323 -0.2700 -0.0688
  188MPD1    C4 2915   3.969   1.465  10.451  0.4743  0.0489  0.2153
  188MPD1    C5 2916   3.862   1.551  10.457  0.3520  0.0029 -0.5748
  188MPD1     H 2917   4.054   1.495  10.118 -0.9740 -0.5408 -1.7516
  188MPD1    H1 2918   3.981   1.405  10.541 -1.1435  0.7033  0.8748
  188MPD1    H2 2919   3.761   1.709  10.359 -0.9059 -0.8782 -2.0312
  188MPD1    H3 2920   3.813   1.566  10.552 -0.1509 -2.8391 -0.4163
  188MPD1     N 2921   4.137   1.341  10.337 -0.3900 -0.5613 -0.6391
  188MPD1    H5 2922   4.162   1.297  10.425  0.0463 -1.6870 -1.3222
  188MPD1    N1 2923   3.897   1.721  10.129  0.3458  0.4142  0.0424
  188MPD1    H6 2924   3.844   1.802  10.160 -0.0143  0.4650 -0.6991
  188MPD1    H7 2925   3.970   1.747  10.062 -0.7030  2.1474 -0.4310
  189MPD1     C 2926   0.349   3.202   0.802 -0.5601  0.0303  0.5304
  189MPD1    C1 2927   0.298   3.138   0.690 -0.5934 -0.2691  0.0250
  189MPD1    C2 2928   0.226   3.217   0.598 -0.5507  0.3388 -0.0492
  189MPD1    C3 2929   0.216   3.352   0.608  0.1257 -0.3104 -0.1280
  189MPD1    C4 2930   0.272   3.415   0.716  0.3309  0.7178  0.2423
  189MPD1    C5 2931   0.330   3.335   0.812  0.5894 -0.1963 -0.0549
  189MPD1     H 2932   0.178   3.175   0.510 -0.4615 -0.8245  0.4640
  189MPD1    H1 2933   0.264   3.521   0.736 -0.3379  0.8939 -0.9682
  189MPD1    H2 2934   0.403   3.139   0.872 -0.4739 -0.5675 -0.0798
  189MPD1    H3 2935   0.359   3.386   0.904  1.0444  1.7360 -1.2611
  189MPD1     N 2936   0.143   3.421   0.504  0.2194 -0.2279 -0.2715
  189MPD1    H5 2937   0.090   3.353   0.450  2.1906 -0.2751 -2.1464
  189MPD1    N1 2938   0.282   3.000   0.691  0.7790  0.1009  0.0136
  189MPD1    H6 2939   0.360   2.946   0.729  0.2798 -1.0419 -0.5871
  189MPD1    H7 2940   0.279   2.961   0.597 -0.6231  2.6349 -0.9982
  190MPD1     C 2941   3.328   1.042  15.778 -0.2070 -0.0557 -0.0404
  190MPD1    C1 2942   3.346   1.061  15.643  1.0659  0.8790  0.7313
  190MPD1    C2 2943   3.403   1.182  15.600 -0.1268 -0.1682 -0.0747
  190MPD1    C3 2944   3.461   1.271  15.694  0.2410  0.5306 -0.4950
  190MPD1    C4 2945   3.446   1.238  15.831 -0.9765  0.2520 -0.0083
  190MPD1    C5 2946   3.375   1.133  15.865 -0.2725 -0.4068 -0.4620
  190MPD1     H 2947   3.403   1.210  15.495 -3.0903 -0.6042 -0.1867
  190MPD1    H1 2948   3.495   1.292  15.911 -0.4431 -0.1913 -0.0362
  190MPD1    H2 2949   3.265   0.961  15.811  2.7188 -2.2390  0.1680
  190MPD1    H3 2950   3.372   1.104  15.969 -0.1653 -0.6018 -0.5116
  190MPD1     N 2951   3.545   1.377  15.645  0.1930  0.1542 -1.0096
  190MPD1    H5 2952   3.558   1.385  15.545 -2.4829  1.2905 -1.2623
  190MPD1    N1 2953   3.274   0.977  15.557  0.1509  0.3493 -0.3989
  190MPD1    H6 2954   3.268   0.878  15.581 -1.6592  0.4472 -0.4078
  190MPD1    H7 2955   3.307   0.973  15.461  2.0477 -1.2419  0.3315
  191MPD1     C 2956   3.930   2.421  12.517  0.2206 -0.0181 -0.4677
  191MPD1    C1 2957   3.997   2.397  12.403 -0.0415  0.9311  0.3740
  191MPD1    C2 2958   4.011   2.495  12.306 -0.7534 -0.0010 -0.4229
  191MPD1    C3 2959   3.935   2.612  12.321 -0.1896 -0.1324 -0.2316
  191MPD1    C4 2960   3.865   2.634  12.435  0.0827  0.2595 -0.1728
  191MPD1    C5 2961   3.878   2.542  12.531 -0.5708 -0.3109  0.4385
  191MPD1     H 2962   4.068   2.487  12.215 -1.2759  0.2390 -0.7705
  191MPD1    H1 2963   3.803   2.720  12.460 -0.7714 -0.0774 -1.1195
  191MPD1    H2 2964   3.921   2.345  12.594  0.8687  2.3619  1.9590
  191MPD1    H3 2965   3.829   2.560  12.626 -1.1873 -0.6193  0.1802
  191MPD1     N 2966   3.944   2.703  12.221  0.1394  0.1151  0.0406
  191MPD1    H5 2967   3.992   2.683  12.133 -1.2122  0.4324 -0.7662
  191MPD1    N1 2968   4.074   2.281  12.398  0.5172  0.4687 -0.0182
  191MPD1    H6 2969   4.018   2.197  12.412  0.1042  0.6827 -0.4009
  191MPD1    H7 2970   4.116   2.260  12.308 -0.9869 -1.3110 -0.3080
  192MPD1     C 2971   3.392   3.454  11.790  0.3845 -0.2515  0.4123
  192MPD1    C1 2972   3.508   3.442  11.718 -0.2389  0.3275  0.1694
  192MPD1    C2 2973   3.609   3.358  11.762  0.6736  0.1002  0.6987
  192MPD1    C3 2974   3.596   3.281  11.875  0.2821 -0.5575  0.6694
  192MPD1    C4 2975   3.474   3.294  11.941 -0.5935 -0.1434  0.3356
  192MPD1    C5 2976   3.373   3.377  11.900  0.0471  0.1160  0.6296
  192MPD1     H 2977   3.706   3.363  11.714  0.1964  0.5503 -0.2384
  192MPD1    H1 2978   3.461   3.231  12.029 -0.0863  0.2195  0.6732
  192MPD1    H2 2979   3.323   3.533  11.762 -1.2984 -1.6758  0.4680
  192MPD1    H3 2980   3.283   3.388  11.958  0.6328  0.5888  1.4458
  192MPD1     N 2981   3.703   3.197  11.928 -0.0084 -0.1303 -0.2730
  192MPD1    H5 2982   3.683   3.163  12.022 -2.7522 -1.0983 -1.1883
  192MPD1    N1 2983   3.533   3.532  11.616 -0.4569 -0.3007 -0.1617
  192MPD1    H6 2984   3.446   3.569  11.577  0.7435  2.1110 -0.5203
  192MPD1    H7 2985   3.591   3.495  11.542  0.6249  0.0201  0.5359
  193MPD1     C 2986   2.611   3.442  16.176 -0.3570  0.7215  0.3977
  193MPD1    C1 2987   2.567   3.542  16.260 -0.7309  0.3880 -0.2783
  193MPD1    C2 2988   2.653   3.628  16.321 -0.3595  0.4484 -0.5130
  193MPD1    C3 2989   2.788   3.618  16.305  0.2589 -0.1602 -0.0412
  193MPD1    C4 2990   2.841   3.520  16.225  0.5012 -0.4236 -0.3834
  193MPD1    C5 2991   2.750   3.435  16.165  0.7929  0.0336  0.2257
  193MPD1     H 2992   2.618   3.721  16.363  0.0860  0.4017 -0.0341
  193MPD1    H1 2993   2.946   3.494  16.226  0.5294 -0.2614  1.3322
  193MPD1    H2 2994   2.549   3.367  16.129 -0.6507 -0.3291  2.4587
  193MPD1    H3 2995   2.788   3.356  16.101  1.5017 -0.0231  0.7190
  193MPD1     N 2996   2.878   3.702  16.371  0.2241  0.1554  0.1441
  193MPD1    H5 2997   2.973   3.686  16.338  0.1124  0.9490 -0.5579
  193MPD1    N1 2998   2.430   3.574  16.258 -0.0252 -0.2655 -0.2155
  193MPD1    H6 2999   2.398   3.625  16.339 -0.2719  0.9230 -1.0633
  193MPD1    H7 3000   2.363   3.497  16.255  1.2485 -1.3602 -0.6553
  194MPD1     C 3001   0.356   0.862  16.182  0.4202 -0.2242  0.5690
  194MPD1    C1 3002   0.312   0.925  16.298 -0.7980 -0.1390 -0.4963
  194MPD1    C2 3003   0.348   0.873  16.423  0.1874  0.2735  0.0668
  194MPD1    C3 3004   0.440   0.773  16.438  0.2936 -0.3499 -0.8604
  194MPD1    C4 3005   0.491   0.720  16.321 -0.0873  0.4583  0.0941
  194MPD1    C5 3006   0.455   0.767  16.194 -0.0475 -0.0449  0.2176
  194MPD1     H 3007   0.301   0.914  16.512  2.6081  0.0170  1.4626
  194MPD1    H1 3008   0.560   0.637  16.323  1.3974  1.6903  0.0862
  194MPD1    H2 3009   0.330   0.895  16.082 -0.0549 -1.1179  0.3963
  194MPD1    H3 3010   0.500   0.717  16.108 -0.8788 -1.2470  0.4795
  194MPD1     N 3011   0.475   0.711  16.559 -0.3281 -0.3497 -0.0535
  194MPD1    H5 3012   0.537   0.631  16.552  0.0206  0.0622 -1.5488
  194MPD1    N1 3013   0.202   1.011  16.283 -0.3557 -0.3147  0.7150
  194MPD1    H6 3014   0.205   1.084  16.354  1.8327 -1.5184  1.8913
  194MPD1    H7 3015   0.198   1.056  16.192 -1.2439 -1.5623  0.1372
  195MPD1     C 3016   3.323   3.125   0.328  0.6246 -0.4185 -0.0268
  195MPD1    C1 3017   3.188   3.100   0.324 -0.1700 -0.2536  0.4993
  195MPD1    C2 3018   3.147   2.978   0.280  0.4220 -0.7737 -0.2033
  195MPD1    C3 3019   3.239   2.876   0.256 -0.2223  0.1994 -0.0637
  195MPD1    C4 3020   3.366   2.890   0.288  0.0185  0.1764  0.5374
  195MPD1    C5 3021   3.406   3.019   0.310  0.1283 -0.5539  0.0413
  195MPD1     H 3022   3.039   2.973   0.271  0.2921  1.3544 -0.0055
  195MPD1    H1 3023   3.440   2.811   0.282  0.9926  1.1231  0.1765
  195MPD1    H2 3024   3.364   3.224   0.346 -0.3340 -0.1933  0.9602
  195MPD1    H3 3025   3.514   3.030   0.317  0.2381 -2.1330  0.7564
  195MPD1     N 3026   3.191   2.745   0.212 -0.1642 -0.6666  1.1394
  195MPD1    H5 3027   3.267   2.681   0.195 -0.6386 -0.4618 -1.6551
  195MPD1    N1 3028   3.101   3.210   0.329  0.4446  0.1007  0.6712
  195MPD1    H6 3029   3.141   3.285   0.385 -0.8984  0.5997  0.9613
  195MPD1    H7 3030   3.011   3.179   0.364  0.0868 -0.5632 -0.8325
  196MPD1     C 3031   1.404   2.244   0.358 -0.3603 -0.2560  0.1889
  196MPD1    C1 3032   1.503   2.160   0.321 -0.5607  0.2816 -0.4590
  196MPD1    C2 3033   1.631   2.176   0.383 -0.3168  0.4381 -0.2810
  196MPD1    C3 3034   1.651   2.264   0.485  0.4649 -0.4088  0.4752
  196MPD1    C4 3035   1.547   2.350   0.515  0.0635 -0.2383 -0.0629
  196MPD1    C5 3036   1.427   2.339   0.449 -0.3406  0.3522 -0.1491
  196MPD1     H 3037   1.710   2.120   0.333  0.4523  1.2488  0.0302
  196MPD1    H1 3038   1.559   2.434   0.583 -0.8399 -1.9507  2.1933
  196MPD1    H2 3039   1.316   2.252   0.295  0.6463  0.8925 -1.0454
  196MPD1    H3 3040   1.356   2.415   0.480 -0.9388 -0.4517  0.4683
  196MPD1     N 3041   1.777   2.287   0.548 -0.0498  0.5889 -0.7831
  196MPD1    H5 3042   1.788   2.376   0.596 -0.7470  0.1685  0.1568
  196MPD1    N1 3043   1.488   2.087   0.205 -0.4193  0.4698 -1.2431
  196MPD1    H6 3044   1.393   2.059   0.186  0.3603 -0.8447 -3.1377
  196MPD1    H7 3045   1.564   2.020   0.190 -0.8198 -0.5900  1.3885
  197MPD1     C 3046   1.239   4.452  17.441 -0.3924 -0.0043 -0.3583
  197MPD1    C1 3047   1.362   4.515  17.455 -0.7735  0.9609 -0.2240
  197MPD1    C2 3048   1.481   4.444  17.442  0.5531  0.5137  0.2930
  197MPD1    C3 3049   1.477   4.306  17.434  0.9952 -0.5402 -0.1639
  197MPD1    C4 3050   1.352   4.242  17.424  0.1129 -0.5040 -0.4029
  197MPD1    C5 3051   1.235   4.309  17.424 -0.2921 -0.4130 -0.4410
  197MPD1     H 3052   1.578   4.489  17.424  0.8505  0.3220  1.3974
  197MPD1    H1 3053   1.359   4.134  17.414  1.9422 -0.3565 -0.6984
  197MPD1    H2 3054   1.145   4.505  17.428 -0.6797 -0.6304 -0.8777
  197MPD1    H3 3055   1.141   4.260  17.406  1.0311 -3.2993  0.6057
  197MPD1     N 3056   1.594   4.233  17.424 -0.9734  0.2707 -0.3170
  197MPD1    H5 3057   1.585   4.135  17.400 -0.1892 -0.4643  2.4265
  197MPD1    N1 3058   1.364   4.657  17.452  0.2163  0.6567 -0.8866
  197MPD1    H6 3059   1.294   4.706  17.507 -1.3431  1.7614 -3.8331
  197MPD1    H7 3060   1.455   4.688  17.486  1.3766 -1.3903 -2.0800
  198MPD1     C 3061   3.669   2.571  15.540 -0.3405  0.7454 -0.1364
  198MPD1    C1 3062   3.773   2.632  15.479  0.1206  0.1601  0.9462
  198MPD1    C2 3063   3.870   2.687  15.556 -0.3622 -0.1227 -0.2632
  198MPD1    C3 3064   3.879   2.671  15.692  0.6713 -0.0895  0.2847
  198MPD1    C4 3065   3.773   2.607  15.755  0.1801  0.5449  0.3791
  198MPD1    C5 3066   3.673   2.558  15.678  0.4098  0.6542  0.0619
  198MPD1     H 3067   3.948   2.740  15.502  0.5072  0.7792  1.8632
  198MPD1    H1 3068   3.757   2.608  15.862 -0.9437  0.5745  0.2091
  198MPD1    H2 3069   3.584   2.539  15.480  0.0687 -1.3265  0.3821
  198MPD1    H3 3070   3.592   2.514  15.734  0.4777 -1.0090 -1.1467
  198MPD1     N 3071   3.980   2.736  15.772  0.1510  0.3165 -0.2240
  198MPD1    H5 3072   4.064   2.757  15.720  0.1975  0.1215 -0.2274
  198MPD1    N1 3073   3.786   2.666  15.341 -0.2427 -0.0871  0.0849
  198MPD1    H6 3074   3.883   2.658  15.314 -0.6980 -1.1422 -1.2035
  198MPD1    H7 3075   3.728   2.605  15.284 -0.4097 -0.3130  0.5005
  199MPD1     C 3076   0.472   4.245   9.905  0.8767  0.2304  0.4214
  199MPD1    C1 3077   0.509   4.124   9.962  0.0104 -0.4592 -0.3303
  199MPD1    C2 3078   0.629   4.124  10.033 -0.6262 -0.1129 -0.1083
  199MPD1    C3 3079   0.708   4.239  10.047 -0.1501 -0.1043 -0.8756
  199MPD1    C4 3080   0.667   4.360   9.997  1.2398 -0.4372  0.2437
  199MPD1    C5 3081   0.548   4.359   9.924 -0.5173 -0.2074 -0.5568
  199MPD1     H 3082   0.666   4.029  10.071 -2.1418  0.2111  2.1913
  199MPD1    H1 3083   0.719   4.454  10.010 -0.4852  0.7985 -1.8737
  199MPD1    H2 3084   0.384   4.260   9.844  1.2093 -2.1967 -0.6457
  199MPD1    H3 3085   0.527   4.458   9.883  0.0994  0.5608  0.9774
  199MPD1     N 3086   0.827   4.244  10.124 -0.7658  0.3973  0.1240
  199MPD1    H5 3087   0.884   4.328  10.115 -1.1435  0.6981  0.5757
  199MPD1    N1 3088   0.434   4.011   9.927  0.4318  0.1931 -0.3864
  199MPD1    H6 3089   0.340   4.013   9.887 -0.1295 -0.3524  0.8958
  199MPD1    H7 3090   0.430   3.945  10.004 -0.7529  0.6668 -0.0507
  200MPD1     C 3091   0.998   3.803  14.999 -0.2075  0.4120 -0.3500
  200MPD1    C1 3092   1.108   3.855  14.926 -0.4554 -0.0437 -0.1365
  200MPD1    C2 3093   1.095   3.975  14.856  0.5890 -0.3498  0.9204
  200MPD1    C3 3094   0.985   4.047  14.855  0.2906  0.7698 -0.6395
  200MPD1    C4 3095   0.880   3.989  14.912 -0.6622  0.2282 -0.1553
  200MPD1    C5 3096   0.889   3.869  14.979 -0.5932  0.3874 -0.7101
  200MPD1     H 3097   1.183   4.027  14.822 -0.1852  0.8000  0.6574
  200MPD1    H1 3098   0.783   4.038  14.908  1.0053  3.3617 -1.7091
  200MPD1    H2 3099   0.994   3.710  15.055 -1.7387  0.7289  0.0615
  200MPD1    H3 3100   0.798   3.841  15.032  0.0492 -2.7057 -1.2211
  200MPD1     N 3101   0.976   4.175  14.793 -0.0847  0.3261 -0.2963
  200MPD1    H5 3102   1.061   4.195  14.742 -0.5360  2.7177 -0.0961
  200MPD1    N1 3103   1.239   3.800  14.951  0.1000  0.4036 -0.5879
  200MPD1    H6 3104   1.229   3.700  14.965 -0.5520  0.3037 -1.8093
  200MPD1    H7 3105   1.298   3.815  14.869  2.3446  3.1130  1.5100
  201MPD1     C 3106   2.873   2.155  13.207 -0.6516 -0.1794  0.0697
  201MPD1    C1 3107   2.904   2.019  13.228  0.3605  0.8630 -0.4098
  201MPD1    C2 3108   2.964   1.975  13.343  0.6357  0.1925  0.8088
  201MPD1    C3 3109   2.969   2.061  13.456 -0.6594 -0.1542  0.7972
  201MPD1    C4 3110   2.933   2.193  13.430  0.0463 -0.1953 -0.4377
  201MPD1    C5 3111   2.883   2.238  13.308 -0.0824 -0.2367 -0.2742
  201MPD1     H 3112   2.988   1.870  13.359  0.7646 -0.1279 -1.5987
  201MPD1    H1 3113   2.923   2.258  13.516 -1.2361 -0.4393 -0.4013
  201MPD1    H2 3114   2.823   2.186  13.116 -0.2024 -0.9251 -0.4341
  201MPD1    H3 3115   2.849   2.340  13.301  0.1372  0.0296  2.5870
  201MPD1     N 3116   3.029   2.014  13.571  0.5941 -0.0729 -0.0394
  201MPD1    H5 3117   3.052   1.915  13.574 -0.8273 -0.4008  0.1023
  201MPD1    N1 3118   2.917   1.938  13.108  0.0499 -0.3709 -0.0119
  201MPD1    H6 3119   2.854   1.963  13.033  3.0015  1.8705 -1.7220
  201MPD1    H7 3120   2.905   1.840  13.134  2.2263 -0.3398  1.0632
  202MPD1     C 3121   3.644   1.732   8.965  0.2183 -0.6693  0.4548
  202MPD1    C1 3122   3.645   1.812   9.075 -0.5773 -0.1897 -0.0152
  202MPD1    C2 3123   3.603   1.751   9.189 -0.4190 -0.1995 -0.0270
  202MPD1    C3 3124   3.620   1.616   9.211 -0.9429 -0.7191 -0.8751
  202MPD1    C4 3125   3.645   1.534   9.100 -0.4313  0.1935 -0.4324
  202MPD1    C5 3126   3.647   1.590   8.975  0.0686  0.3234 -0.6154
  202MPD1     H 3127   3.575   1.825   9.264  0.1713 -0.3099  0.2993
  202MPD1    H1 3128   3.643   1.426   9.105  2.0333  0.2314  1.1705
  202MPD1    H2 3129   3.646   1.769   8.864 -1.5692 -0.2860  0.5573
  202MPD1    H3 3130   3.652   1.523   8.890 -0.9827  0.8678 -1.0915
  202MPD1     N 3131   3.604   1.554   9.341  0.0854  0.0447  0.2138
  202MPD1    H5 3132   3.597   1.453   9.341  0.5945  0.0037 -0.8480
  202MPD1    N1 3133   3.624   1.949   9.049  0.1838  0.3713  0.1686
  202MPD1    H6 3134   3.662   1.999   9.129  2.9526 -0.2493 -0.7596
  202MPD1    H7 3135   3.692   1.971   8.976  1.2614  0.6584  1.2475
  203MPD1     C 3136   1.686   3.316  12.415  0.2871  0.3500 -0.1870
  203MPD1    C1 3137   1.667   3.220  12.319 -0.3859 -0.0918 -0.6559
  203MPD1    C2 3138   1.626   3.098  12.357  0.6158  0.5793  0.2184
  203MPD1    C3 3139   1.597   3.076  12.494  0.2138  0.1344 -0.8271
  203MPD1    C4 3140   1.621   3.173  12.588  0.3561  0.0364  0.1567
  203MPD1    C5 3141   1.667   3.295  12.545  0.3688 -0.0614 -0.5585
  203MPD1     H 3142   1.623   3.016  12.286 -3.1131  0.2859  0.7112
  203MPD1    H1 3143   1.598   3.167  12.693 -0.6564  1.0574 -0.0075
  203MPD1    H2 3144   1.709   3.415  12.377 -0.8344 -0.5015 -3.0220
  203MPD1    H3 3145   1.683   3.372  12.620  0.3841 -0.6671  0.0589
  203MPD1     N 3146   1.541   2.951  12.538  0.1892  0.0511 -0.6886
  203MPD1    H5 3147   1.550   2.876  12.470  0.1081  0.7816 -1.5033
  203MPD1    N1 3148   1.711   3.247  12.193  0.6172 -0.3670 -0.0842
  203MPD1    H6 3149   1.660   3.202  12.117 -0.0232 -1.5296  1.0533
  203MPD1    H7 3150   1.700   3.347  12.177  0.6100 -0.2622  0.5920
  204MPD1     C 3151   0.228   4.625  17.755  0.0585  0.1095 -0.4296
  204MPD1    C1 3152   0.301   4.610  17.648 -0.3775 -0.0172 -0.1772
  204MPD1    C2 3153   0.372   4.493  17.623 -0.6663  0.0376  0.5165
  204MPD1    C3 3154   0.381   4.399  17.717  0.0831 -0.2972 -0.0047
  204MPD1    C4 3155   0.302   4.412   0.072 -0.3843 -0.2866 -0.4062
  204MPD1    C5 3156   0.224   4.521   0.092 -0.4101  0.2152  0.0515
  204MPD1     H 3157   0.444   4.487  17.543 -0.7500  1.3582  0.3387
  204MPD1    H1 3158   0.286   4.332   0.143 -0.5566 -1.3023 -1.5858
  204MPD1    H2 3159   0.176   4.719   0.013 -2.5763 -1.3175 -0.6807
  204MPD1    H3 3160   0.166   4.536   0.182 -1.3944 -1.5492 -0.2884
  204MPD1     N 3161   0.460   4.290  17.690  0.1352  0.3196  0.4071
  204MPD1    H5 3162   0.515   4.298  17.605  1.4713  1.7636  1.3985
  204MPD1    N1 3163   0.296   4.708  17.550 -0.2076 -0.0663 -0.5335
  204MPD1    H6 3164   0.231   0.043  17.572 -1.5970 -0.8013 -2.0971
  204MPD1    H7 3165   0.260   4.657  17.469 -0.8695 -0.5359  0.0604
  205MPD1     C 3166   1.148   2.849   0.760 -1.1281  0.0453  0.7118
  205MPD1    C1 3167   1.061   2.742   0.732  0.4090  0.5687  0.4958
  205MPD1    C2 3168   0.984   2.756   0.615  0.1722 -0.7533  0.7497
  205MPD1    C3 3169   0.986   2.874   0.532 -0.1458  0.0644  0.4432
  205MPD1    C4 3170   1.075   2.976   0.569  0.3419  0.2880 -0.0191
  205MPD1    C5 3171   1.151   2.964   0.687  0.3877  0.0250  0.7775
  205MPD1     H 3172   0.919   2.681   0.571 -1.5254  0.9881  0.3231
  205MPD1    H1 3173   1.097   3.054   0.497  0.9820  0.4925  0.4068
  205MPD1    H2 3174   1.216   2.838   0.844  0.1756 -1.2991 -0.4929
  205MPD1    H3 3175   1.234   3.030   0.707  1.0563 -0.8972  1.0673
  205MPD1     N 3176   0.927   2.887   0.404 -0.4315  0.1492  1.0875
  205MPD1    H5 3177   0.958   2.963   0.344  1.8946  0.0979  2.1970
  205MPD1    N1 3178   1.069   2.626   0.807 -0.6738  0.2294 -0.1854
  205MPD1    H6 3179   0.990   2.562   0.809  2.8325 -4.0688  0.9184
  205MPD1    H7 3180   1.112   2.646   0.897  0.5860  0.3407 -0.8079
  206MPD1     C 3181   1.095   0.208  17.017 -0.6324 -0.4618  0.1722
  206MPD1    C1 3182   1.192   0.175  16.927  0.0240  1.0749 -0.2703
  206MPD1    C2 3183   1.195   0.232  16.798 -0.0839 -0.0194  0.5193
  206MPD1    C3 3184   1.110   0.332  16.765 -0.8652  0.3804 -0.7394
  206MPD1    C4 3185   1.026   0.386  16.865 -0.1928 -0.4758  0.4345
  206MPD1    C5 3186   1.014   0.323  16.990 -0.0334 -0.7128  0.5521
  206MPD1     H 3187   1.271   0.204  16.727  0.0191  2.5353 -0.3740
  206MPD1    H1 3188   0.963   0.470  16.837  0.3400 -1.1748 -2.8540
  206MPD1    H2 3189   1.086   0.148  17.107  1.4055 -0.5452  0.3221
  206MPD1    H3 3190   0.947   0.355  17.069 -0.1742 -1.4123  0.7184
  206MPD1     N 3191   1.110   0.395  16.640 -0.3416  0.1007 -0.1054
  206MPD1    H5 3192   1.044   0.471  16.630 -0.1665  0.6044  2.6388
  206MPD1    N1 3193   1.274   0.062  16.949 -0.1271 -0.1534  0.2407
  206MPD1    H6 3194   1.288   0.038  17.047  1.7722 -0.5313 -0.1199
  206MPD1    H7 3195   1.364   0.070  16.902  0.4351  0.0087  1.3266
  207MPD1     C 3196   4.720   4.434   9.808 -0.3073  0.0293 -0.1673
  207MPD1    C1 3197   4.629   4.336   9.772  0.9027  0.4957  0.5468
  207MPD1    C2 3198   4.606   4.222   9.849 -0.2763 -0.5504  0.1475
  207MPD1    C3 3199   4.669   4.208   9.967 -0.5679 -0.4825 -0.1941
  207MPD1    C4 3200   0.028   4.297   9.999 -0.0847 -0.0775 -0.7009
  207MPD1    C5 3201   0.050   4.404   9.921  0.3822  0.3166 -0.3905
  207MPD1     H 3202   4.533   4.148   9.818 -0.6221  0.1699 -0.7549
  207MPD1    H1 3203   0.094   4.268  10.080 -1.4801 -1.7581 -0.1760
  207MPD1    H2 3204   4.739   4.526   9.755  0.0969  0.0844  0.0717
  207MPD1    H3 3205   0.134   4.468   9.944  1.3624 -0.9520 -0.3987
  207MPD1     N 3206   4.665   4.086  10.043 -0.3544 -0.3953  0.2689
  207MPD1    H5 3207   4.713   4.085  10.132  0.8050 -2.3264 -0.3714
  207MPD1    N1 3208   4.542   4.356   9.659  0.3313 -0.3406  0.4433
  207MPD1    H6 3209   4.598   4.409   9.593 -0.1630  1.7199  1.6947
  207MPD1    H7 3210   4.500   4.274   9.615  4.8703 -0.7133 -3.1774
  208MPD1     C 3211   4.640   1.288   0.519 -0.1230  0.4049 -0.4872
  208MPD1    C1 3212   4.688   1.324   0.396 -0.2622 -0.0466  0.6010
  208MPD1    C2 3213   0.013   1.448   0.384  0.3163 -0.4931 -0.4652
  208MPD1    C3 3214   0.019   1.531   0.497  0.1400  0.1866  0.5409
  208MPD1    C4 3215   4.706   1.496   0.619  0.5846  0.0379 -0.5747
  208MPD1    C5 3216   4.646   1.372   0.626 -0.1945  0.1851 -0.2231
  208MPD1     H 3217   0.071   1.477   0.297 -1.1235  2.5589 -0.3922
  208MPD1    H1 3218   4.732   1.542   0.714  0.2048  1.9645 -1.3860
  208MPD1    H2 3219   4.605   1.187   0.534 -0.6806  0.6036 -0.4202
  208MPD1    H3 3220   4.617   1.340   0.726 -1.0452  1.2681 -0.1193
  208MPD1     N 3221   0.099   1.646   0.493  0.1782 -0.1194 -0.3335
  208MPD1    H5 3222   0.137   1.682   0.406 -0.0177 -0.9380 -0.7568
  208MPD1    N1 3223   4.699   1.237   0.289 -0.5858  0.0620  0.3932
  208MPD1    H6 3224   4.690   1.294   0.206  0.0076 -1.4727 -0.7203
  208MPD1    H7 3225   4.625   1.168   0.275  0.0230 -0.1994 -1.4234
  209MPD1     C 3226   4.026   2.271  10.232  0.4558 -0.7533  0.1139
  209MPD1    C1 3227   4.109   2.321  10.325 -0.1820 -0.4648 -0.0272
  209MPD1    C2 3228   4.094   2.450  10.363 -0.3456  0.5606  0.2070
  209MPD1    C3 3229   4.005   2.536  10.300 -0.0998  0.8410  0.1691
  209MPD1    C4 3230   3.926   2.487  10.197 -0.1989 -0.4772  0.3684
  209MPD1    C5 3231   3.938   2.349  10.166  0.6342 -0.1732  0.0571
  209MPD1     H 3232   4.152   2.488  10.446 -0.8356 -1.4573  1.4888
  209MPD1    H1 3233   3.841   2.543  10.160  0.1689  1.6415  2.7602
  209MPD1    H2 3234   4.030   2.168  10.199  1.1334  0.4347 -3.4942
  209MPD1    H3 3235   3.874   2.301  10.093  1.5245 -0.3981 -0.5811
  209MPD1     N 3236   3.993   2.667  10.339 -0.5386  0.2118 -0.0272
  209MPD1    H5 3237   4.055   2.693  10.415  0.1424 -1.5756  0.0233
  209MPD1    N1 3238   4.206   2.243  10.388 -0.4969  0.2399 -0.0844
  209MPD1    H6 3239   4.247   2.166  10.336 -2.7156 -1.0712  0.1094
  209MPD1    H7 3240   4.283   2.294  10.430 -1.0125 -1.3553  2.8240
  210MPD1     C 3241   3.899   2.651  11.154 -0.1256  0.2517  0.9766
  210MPD1    C1 3242   3.954   2.772  11.125 -0.3147 -0.3142  0.1019
  210MPD1    C2 3243   3.940   2.831  11.002  0.7524  0.2374 -0.4098
  210MPD1    C3 3244   3.887   2.756  10.898 -0.1075 -0.4932 -0.7104
  210MPD1    C4 3245   3.854   2.622  10.923  0.0560 -0.5181 -0.7800
  210MPD1    C5 3246   3.850   2.573  11.049  0.2275 -0.5926 -0.6668
  210MPD1     H 3247   3.982   2.929  10.983 -0.5604  0.6793 -1.0783
  210MPD1    H1 3248   3.842   2.552  10.842 -0.6054  0.6774 -1.7251
  210MPD1    H2 3249   3.903   2.612  11.255 -1.5439 -1.2332  0.4561
  210MPD1    H3 3250   3.832   2.467  11.063  0.2683 -0.7374 -1.7065
  210MPD1     N 3251   3.880   2.804  10.763  0.3660  0.0127 -0.2433
  210MPD1    H5 3252   3.850   2.736  10.694 -0.1943  0.7845 -0.7585
  210MPD1    N1 3253   4.015   2.844  11.230 -0.1752  0.1643 -0.4321
  210MPD1    H6 3254   4.097   2.898  11.202  0.7033 -0.0548  1.7463
  210MPD1    H7 3255   4.042   2.784  11.308 -0.3822  1.1339  0.3790
  211MPD1     C 3256   1.392   2.371  16.809  0.3682  0.9436  0.0886
  211MPD1    C1 3257   1.417   2.447  16.697 -0.7311  0.1121 -0.7502
  211MPD1    C2 3258   1.399   2.589  16.704  0.5049  0.1556 -0.1624
  211MPD1    C3 3259   1.379   2.649  16.826 -0.1679  0.6680  0.4948
  211MPD1    C4 3260   1.371   2.576  16.936 -0.2809 -0.2942 -0.8481
  211MPD1    C5 3261   1.365   2.435  16.930  0.3814  0.1583 -0.3472
  211MPD1     H 3262   1.399   2.637  16.608  0.7344  1.0860  0.3083
  211MPD1    H1 3263   1.376   2.623  17.034  2.8592  1.2473 -1.7471
  211MPD1    H2 3264   1.413   2.265  16.818  1.7782  1.3069  1.1313
  211MPD1    H3 3265   1.349   2.370  17.015  1.9920 -0.9551 -0.9034
  211MPD1     N 3266   1.369   2.791  16.819  0.2386 -0.2146 -0.0082
  211MPD1    H5 3267   1.397   2.833  16.731  0.1107  2.0711  1.0225
  211MPD1    N1 3268   1.443   2.380  16.576 -0.3255  0.5070  0.1469
  211MPD1    H6 3269   1.484   2.437  16.503 -0.0043 -0.7869 -0.6851
  211MPD1    H7 3270   1.507   2.302  16.586 -0.1260  0.6788  0.1929
  212MPD1     C 3271   0.348   1.312  16.384  0.5986 -0.0302 -0.1140
  212MPD1    C1 3272   0.212   1.324  16.411 -0.2633 -0.0980 -0.6563
  212MPD1    C2 3273   0.149   1.247  16.504  0.4217  0.5578  0.5970
  212MPD1    C3 3274   0.222   1.155  16.573 -0.3531 -0.2040 -0.8451
  212MPD1    C4 3275   0.355   1.149  16.546 -0.6049 -0.0175 -0.5057
  212MPD1    C5 3276   0.420   1.225  16.455  0.4561  0.3431  0.0729
  212MPD1     H 3277   0.041   1.257  16.508  0.2750 -0.0444 -2.1591
  212MPD1    H1 3278   0.413   1.076  16.601  0.1749 -0.4568 -1.9118
  212MPD1    H2 3279   0.391   1.375  16.307 -0.0076  0.5241 -0.0002
  212MPD1    H3 3280   0.524   1.210  16.432 -0.1177  1.7259 -3.3685
  212MPD1     N 3281   0.172   1.078  16.681  0.1672 -0.1123 -0.2367
  212MPD1    H5 3282   0.234   1.009  16.723 -0.8995 -0.2795  1.0477
  212MPD1    N1 3283   0.136   1.408  16.328 -0.4029  0.3196 -0.1243
  212MPD1    H6 3284   0.177   1.480  16.270 -1.0883  1.0606  0.3079
  212MPD1    H7 3285   0.062   1.451  16.383 -0.9390 -1.1147  0.2819
  213MPD1     C 3286   3.069   1.780  15.718  0.0181 -0.4993 -0.6326
  213MPD1    C1 3287   2.959   1.728  15.652 -0.0466 -0.1825 -0.7485
  213MPD1    C2 3288   2.909   1.816  15.555  0.3443  0.3618  0.2364
  213MPD1    C3 3289   2.971   1.939  15.517  0.5592 -0.1631 -0.0074
  213MPD1    C4 3290   3.086   1.976  15.576  0.8254  0.5103  0.0585
  213MPD1    C5 3291   3.140   1.893  15.669 -0.3083 -0.2009 -0.1625
  213MPD1     H 3292   2.808   1.802  15.518  0.1718  3.5838 -0.5025
  213MPD1    H1 3293   3.124   2.077  15.566 -1.1132  1.4372  2.0743
  213MPD1    H2 3294   3.113   1.717  15.795  0.5212  0.9907  0.2852
  213MPD1    H3 3295   3.226   1.935  15.719 -0.0514 -1.4634  0.4636
  213MPD1     N 3296   2.908   2.023  15.423  0.1819 -0.3697 -0.6945
  213MPD1    H5 3297   2.823   1.984  15.384 -1.5155  0.6282  1.9922
  213MPD1    N1 3298   2.872   1.650  15.735 -0.0094  0.5488  0.2120
  213MPD1    H6 3299   2.794   1.604  15.687  0.2348  0.5356 -0.1671
  213MPD1    H7 3300   2.905   1.585  15.806  2.3945  0.3161 -1.1300
  214MPD1     C 3301   2.515   1.502  15.016  0.6733  0.0493 -0.4073
  214MPD1    C1 3302   2.602   1.546  14.921 -0.2588  0.6042 -0.1770
  214MPD1    C2 3303   2.664   1.667  14.945  0.2083  0.0509  0.7597
  214MPD1    C3 3304   2.636   1.746  15.053  0.6058  0.0519  0.5562
  214MPD1    C4 3305   2.540   1.701  15.139  0.3885  0.1067  0.4041
  214MPD1    C5 3306   2.481   1.582  15.119  0.0475  0.3998  0.0587
  214MPD1     H 3307   2.713   1.714  14.860 -1.3912  2.5349  1.2277
  214MPD1    H1 3308   2.516   1.754  15.230 -0.7432  0.8176 -0.3154
  214MPD1    H2 3309   2.456   1.413  15.002 -2.7730  1.9087  2.3296
  214MPD1    H3 3310   2.395   1.552  15.179 -0.5532 -1.5011 -1.7398
  214MPD1     N 3311   2.694   1.869  15.074  0.4212 -0.5283 -0.0231
  214MPD1    H5 3312   2.644   1.923  15.143  0.6368 -1.6770  1.0241
  214MPD1    N1 3313   2.604   1.487  14.792 -0.1571 -0.4120 -0.4320
  214MPD1    H6 3314   2.593   1.387  14.801  2.5167 -0.5591  1.2957
  214MPD1    H7 3315   2.693   1.502  14.745 -0.9746 -0.5195 -1.9952
  215MPD1     C 3316   3.200   2.194  10.792  0.1570 -0.5704 -0.2846
  215MPD1    C1 3317   3.143   2.242  10.906 -0.3093  0.8244  0.0172
  215MPD1    C2 3318   3.204   2.356  10.969 -0.6993 -1.5254  0.4587
  215MPD1    C3 3319   3.306   2.421  10.898 -0.2054 -0.2169  0.1502
  215MPD1    C4 3320   3.358   2.371  10.784 -0.1083  0.2094 -0.1806
  215MPD1    C5 3321   3.315   2.248  10.736 -0.3346  0.0856  0.7060
  215MPD1     H 3322   3.183   2.398  11.067  0.4367 -2.9515  1.3155
  215MPD1    H1 3323   3.443   2.418  10.737 -0.9042  1.1049 -0.7390
  215MPD1    H2 3324   3.155   2.107  10.744 -1.5390 -1.4511  2.9043
  215MPD1    H3 3325   3.369   2.197  10.656 -0.6227 -0.9249  1.1512
  215MPD1     N 3326   3.360   2.538  10.953  0.5022  0.2464 -0.1853
  215MPD1    H5 3327   3.323   2.570  11.041  0.4068 -0.6969  0.1236
  215MPD1    N1 3328   3.050   2.168  10.975  1.0395 -0.0661  0.0276
  215MPD1    H6 3329   3.082   2.134  11.065 -1.3001  2.3580  1.7561
  215MPD1    H7 3330   3.019   2.086  10.922 -0.6213 -0.6020  1.8303
  216MPD1     C 3331   0.202   1.007  17.159  0.1447 -0.5761 -0.2886
  216MPD1    C1 3332   0.253   0.900  17.101 -0.7397  0.4923 -0.2897
  216MPD1    C2 3333   0.204   0.774  17.137 -0.6540  0.5940 -1.3261
  216MPD1    C3 3334   0.086   0.767  17.217 -0.3432 -0.3643  0.0329
  216MPD1    C4 3335   0.033   0.887  17.267 -0.0391  0.1051 -0.5673
  216MPD1    C5 3336   0.091   1.004  17.231 -0.3602 -0.5542  0.3044
  216MPD1     H 3337   0.249   0.681  17.104 -1.1992 -0.4876  0.9626
  216MPD1    H1 3338   4.685   0.890  17.330  0.7481  1.3293  0.4743
  216MPD1    H2 3339   0.249   1.101  17.133  0.7261  0.2215  3.6109
  216MPD1    H3 3340   0.051   1.099  17.265  1.3214  0.2693 -0.0442
  216MPD1     N 3341   0.045   0.640  17.247  0.1591 -0.1453  0.3651
  216MPD1    H5 3342   0.112   0.572  17.212  0.2159  0.6261 -1.0410
  216MPD1    N1 3343   0.373   0.908  17.024  0.6129 -0.0073 -0.2954
  216MPD1    H6 3344   0.365   0.843  16.946 -1.8626 -2.0059  1.6147
  216MPD1    H7 3345   0.382   1.001  16.984 -0.1131 -0.8441 -2.3638
  217MPD1     C 3346   2.641   2.624   9.279 -0.2888  0.2703  0.4867
  217MPD1    C1 3347   2.580   2.707   9.366  0.3723 -0.0286  0.4041
  217MPD1    C2 3348   2.463   2.660   9.427  0.0026 -0.2381  0.7860
  217MPD1    C3 3349   2.414   2.531   9.400 -0.5061  0.2236 -0.2593
  217MPD1    C4 3350   2.477   2.456   9.306 -0.4982 -0.2111  0.0217
  217MPD1    C5 3351   2.592   2.503   9.255 -0.2002  0.3784 -0.8715
  217MPD1     H 3352   2.406   2.727   9.490 -1.2606  1.2498 -1.9292
  217MPD1    H1 3353   2.459   2.352   9.281 -0.2504 -0.5831  1.3815
  217MPD1    H2 3354   2.729   2.655   9.224 -0.6612 -1.0423 -0.8670
  217MPD1    H3 3355   2.641   2.443   9.179 -3.0118 -1.3785 -1.2926
  217MPD1     N 3356   2.287   2.481   9.454  0.1948  0.2577 -0.1721
  217MPD1    H5 3357   2.250   2.398   9.409  0.1824 -0.5977  1.4477
  217MPD1    N1 3358   2.635   2.836   9.369  0.1227  0.5129  0.0315
  217MPD1    H6 3359   2.736   2.841   9.355  0.1151  0.4825 -0.0339
  217MPD1    H7 3360   2.606   2.884   9.454 -0.0258  1.0854 -0.3466
  218MPD1     C 3361   3.597   3.537  12.956  0.1458  0.1409 -0.2166
  218MPD1    C1 3362   3.475   3.471  12.967 -0.0969  0.0105  0.2855
  218MPD1    C2 3363   3.461   3.356  12.890  0.3043 -0.0519 -0.6860
  218MPD1    C3 3364   3.550   3.327  12.787  0.5005 -0.0600  0.3076
  218MPD1    C4 3365   3.666   3.399  12.770  0.0687  0.3979 -0.2784
  218MPD1    C5 3366   3.688   3.495  12.857 -0.1678  0.4712  0.0420
  218MPD1     H 3367   3.370   3.297  12.901  0.4002  0.1174  1.0841
  218MPD1    H1 3368   3.743   3.387  12.694 -0.2476  1.1170 -0.7141
  218MPD1    H2 3369   3.624   3.622  13.018  1.0632 -1.5453  1.7079
  218MPD1    H3 3370   3.771   3.561  12.833 -0.5250  0.1783 -2.0272
  218MPD1     N 3371   3.500   3.236  12.691  0.2508 -0.2839 -0.0143
  218MPD1    H5 3372   3.406   3.198  12.698  1.2014 -2.5222  0.3955
  218MPD1    N1 3373   3.392   3.502  13.076  0.5291 -0.6230 -0.4175
  218MPD1    H6 3374   3.386   3.602  13.095 -1.0992 -1.0403  1.2394
  218MPD1    H7 3375   3.300   3.457  13.073 -0.1419  0.7189 -0.1031
  219MPD1     C 3376   3.501   2.761  11.704 -0.3693  0.1905 -0.3226
  219MPD1    C1 3377   3.547   2.878  11.751 -0.2873  0.0370  0.3474
  219MPD1    C2 3378   3.521   2.907  11.882 -0.4565  0.8392 -0.3775
  219MPD1    C3 3379   3.491   2.814  11.986  0.1654 -0.2513  0.3177
  219MPD1    C4 3380   3.471   2.685  11.935  0.2287  0.1738  0.0026
  219MPD1    C5 3381   3.471   2.660  11.798  0.6291 -0.0092  0.1529
  219MPD1     H 3382   3.523   3.012  11.907 -1.0519  0.5283  0.9705
  219MPD1    H1 3383   3.436   2.612  12.007  0.6050  1.0385  1.0700
  219MPD1    H2 3384   3.490   2.728  11.602 -0.3324 -0.1693 -0.2130
  219MPD1    H3 3385   3.442   2.563  11.761  0.0690 -0.5829  2.0893
  219MPD1     N 3386   3.464   2.840  12.119  0.2153 -0.1911  0.0887
  219MPD1    H5 3387   3.459   2.760  12.181  1.4782 -0.7939 -0.5806
  219MPD1    N1 3388   3.582   2.980  11.671 -0.1103 -0.1599  0.4937
  219MPD1    H6 3389   3.641   3.048  11.720  0.1980 -1.2855  1.6742
  219MPD1    H7 3390   3.622   2.944  11.585 -0.0412  0.2364  0.3578
  220MPD1     C 3391   2.679   3.518  10.164  0.6278 -0.5134 -0.2846
  220MPD1    C1 3392   2.704   3.396  10.218  0.5392 -0.0931 -0.6533
  220MPD1    C2 3393   2.832   3.337  10.202  0.7472 -0.2510  0.0114
  220MPD1    C3 3394   2.933   3.399  10.131 -0.2270 -0.8829  0.3017
  220MPD1    C4 3395   2.901   3.523  10.074  0.0056  0.2299 -0.4708
  220MPD1    C5 3396   2.776   3.574  10.083  0.4215  0.0419  0.3945
  220MPD1     H 3397   2.858   3.240  10.241 -1.9631 -1.0878 -0.2682
  220MPD1    H1 3398   2.964   3.588  10.014 -1.8119  1.0707 -1.4379
  220MPD1    H2 3399   2.589   3.574  10.185  0.2551 -0.3106 -2.3555
  220MPD1    H3 3400   2.754   3.674  10.046  0.9531  0.2546  0.6632
  220MPD1     N 3401   3.060   3.336  10.134  0.1713  0.0407  0.1959
  220MPD1    H5 3402   3.065   3.250  10.188 -2.5102 -1.0975 -1.4206
  220MPD1    N1 3403   2.607   3.346  10.311  0.0364  0.5200 -0.1958
  220MPD1    H6 3404   2.511   3.357  10.280  0.0973 -0.7214 -0.8282
  220MPD1    H7 3405   2.621   3.247  10.327  3.2701  1.0737  0.5204
  221MPD1     C 3406   1.609   1.584  17.311  0.0386 -0.8499  0.3079
  221MPD1    C1 3407   1.545   1.471  17.258 -0.2460  0.5133 -0.4892
  221MPD1    C2 3408   1.505   1.484  17.126 -0.2616 -0.3395  0.2408
  221MPD1    C3 3409   1.499   1.605  17.061 -0.9113  0.5165  0.7701
  221MPD1    C4 3410   1.549   1.717  17.122  0.4315 -0.3564 -0.2564
  221MPD1    C5 3411   1.603   1.707  17.248 -0.5721 -0.0300  0.4270
  221MPD1     H 3412   1.486   1.396  17.066  0.1810  1.0416 -1.9269
  221MPD1    H1 3413   1.550   1.812  17.069 -0.0126 -1.4737 -2.2899
  221MPD1    H2 3414   1.668   1.574  17.401 -1.2415  1.4455  1.4015
  221MPD1    H3 3415   1.651   1.796  17.288 -1.0620  0.2336  0.4335
  221MPD1     N 3416   1.450   1.627  16.930  0.5565  0.2399 -0.4198
  221MPD1    H5 3417   1.465   1.719  16.889 -0.1522  1.9968  3.1995
  221MPD1    N1 3418   1.548   1.347  17.320 -1.1075  0.2112 -0.0185
  221MPD1    H6 3419   1.476   1.286  17.281 -1.7015 -0.4636  2.1367
  221MPD1    H7 3420   1.531   1.361  17.420 -0.1186  0.5882  0.0960
  222MPD1     C 3421   4.451   0.955  17.740  0.5255  0.1078  0.5361
  222MPD1    C1 3422   4.408   0.883   0.094  0.0033  0.2146  0.9862
  222MPD1    C2 3423   4.367   0.951   0.208  0.0661 -0.9208  0.0742
  222MPD1    C3 3424   4.351   1.088   0.207  0.2342 -0.3527 -0.1918
  222MPD1    C4 3425   4.390   1.161   0.093 -0.5306  0.3096 -0.1780
  222MPD1    C5 3426   4.439   1.089  17.742 -0.3312  0.3128  0.3730
  222MPD1     H 3427   4.319   0.895   0.287 -0.6234 -2.5068 -1.4758
  222MPD1    H1 3428   4.395   1.269   0.090 -0.1531  0.3188  0.8657
  222MPD1    H2 3429   4.494   0.904  17.655 -0.0974 -0.9404  0.8556
  222MPD1    H3 3430   4.470   1.158  17.664  0.5328  2.3040  2.4629
  222MPD1     N 3431   4.293   1.162   0.313  0.2326 -0.2086 -0.0712
  222MPD1    H5 3432   4.271   1.260   0.295  0.4381 -0.1564 -0.0451
  222MPD1    N1 3433   4.410   0.739   0.091  1.0502 -0.7391  0.2808
  222MPD1    H6 3434   4.356   0.696   0.166 -0.0149 -0.0958 -0.1200
  222MPD1    H7 3435   4.404   0.710  17.751  0.4525  0.0935  0.0685
  223MPD1     C 3436   3.542   1.589   0.911 -0.0316 -0.4903 -0.7081
  223MPD1    C1 3437   3.649   1.633   0.983 -0.4116  0.2276 -0.2984
  223MPD1    C2 3438   3.772   1.565   0.966  1.0201 -0.3962  0.2917
  223MPD1    C3 3439   3.794   1.479   0.866  0.2038  0.3841 -0.2278
  223MPD1    C4 3440   3.687   1.447   0.787 -0.4018  0.0339  0.2209
  223MPD1    C5 3441   3.561   1.495   0.813  0.2955  0.4156  0.1984
  223MPD1     H 3442   3.850   1.597   1.034  1.9252 -0.2630 -0.8144
  223MPD1    H1 3443   3.688   1.376   0.705  1.7379  1.0629 -0.6354
  223MPD1    H2 3444   3.446   1.636   0.930 -0.4791 -1.9230  0.4946
  223MPD1    H3 3445   3.473   1.465   0.756 -1.2584 -0.1381  2.8918
  223MPD1     N 3446   3.925   1.426   0.836 -0.1409 -0.7211  0.3177
  223MPD1    H5 3447   4.012   1.449   0.885 -0.7959  1.3262  0.5338
  223MPD1    N1 3448   3.619   1.711   1.092  0.5421 -0.1726 -0.5840
  223MPD1    H6 3449   3.537   1.771   1.082  1.2820  1.3153  2.3334
  223MPD1    H7 3450   3.693   1.776   1.120  0.2155 -0.9257  1.9911
  224MPD1     C 3451   3.459   2.753   9.544 -0.0676 -0.8270 -0.2522
  224MPD1    C1 3452   3.496   2.622   9.570 -0.1615  0.5901 -0.5610
  224MPD1    C2 3453   3.405   2.549   9.637  0.0647 -0.3263 -0.1128
  224MPD1    C3 3454   3.270   2.586   9.654 -0.6182 -0.9495  0.4407
  224MPD1    C4 3455   3.230   2.707   9.601  0.3979 -0.5586  0.3149
  224MPD1    C5 3456   3.330   2.793   9.558  0.4631 -0.2501 -0.3918
  224MPD1     H 3457   3.432   2.446   9.656  0.6389 -0.1098  0.2573
  224MPD1    H1 3458   3.128   2.740   9.615 -0.4120 -3.2491  0.7168
  224MPD1    H2 3459   3.523   2.826   9.496  1.4189 -0.5130  2.2042
  224MPD1    H3 3460   3.297   2.893   9.531  0.2633 -0.2159 -0.0180
  224MPD1     N 3461   3.166   2.505   9.703  0.1582  0.1227  0.4484
  224MPD1    H5 3462   3.077   2.551   9.719  1.2758  2.5429 -0.2475
  224MPD1    N1 3463   3.635   2.586   9.558  0.2138  0.0790 -0.2282
  224MPD1    H6 3464   3.696   2.650   9.507 -2.2959  1.6482 -1.2313
  224MPD1    H7 3465   3.660   2.488   9.544  0.9569  0.4577 -1.5526
  225MPD1     C 3466   3.597   3.652  12.410  0.0958 -0.7887  0.5689
  225MPD1    C1 3467   3.496   3.571  12.367 -0.4671 -0.5161  0.0251
  225MPD1    C2 3468   3.380   3.558  12.442 -0.0938 -0.4696 -0.6114
  225MPD1    C3 3469   3.359   3.623  12.558 -0.1688 -0.7402  0.7234
  225MPD1    C4 3470   3.454   3.724  12.591 -0.2725 -0.0016  0.1629
  225MPD1    C5 3471   3.582   3.725  12.527 -0.3827  0.7357 -0.1605
  225MPD1     H 3472   3.307   3.484  12.410 -0.5326 -1.0331  1.6712
  225MPD1    H1 3473   3.437   3.792  12.674  1.1300 -0.2946  0.6937
  225MPD1    H2 3474   3.696   3.657  12.366 -0.7893  1.4854 -1.1178
  225MPD1    H3 3475   3.653   3.800  12.560  0.5205  0.1618 -0.8236
  225MPD1     N 3476   3.238   3.622  12.626  0.0625 -0.3001 -0.0932
  225MPD1    H5 3477   3.228   3.691  12.700  1.5195 -0.9763  0.7349
  225MPD1    N1 3478   3.506   3.504  12.245 -0.1051  0.2624  0.6186
  225MPD1    H6 3479   3.413   3.473  12.220  0.0551  0.2787  0.0065
  225MPD1    H7 3480   3.540   3.555  12.164  0.6062 -4.0756 -1.8425
  226MPD1     C 3481   2.085   2.757  10.036 -0.0405 -0.0379  0.2080
  226MPD1    C1 3482   2.052   2.884  10.068 -0.0205 -1.1127  0.0866
  226MPD1    C2 3483   2.142   2.986  10.047 -0.6239  1.2154  0.2954
  226MPD1    C3 3484   2.267   2.958  10.005  0.7520 -0.0678 -0.4284
  226MPD1    C4 3485   2.298   2.826   9.970 -0.2751  0.6308 -0.0709
  226MPD1    C5 3486   2.208   2.724   9.979  0.0332 -0.2231  0.7761
  226MPD1     H 3487   2.110   3.087  10.067 -0.6862  1.3438 -0.4540
  226MPD1    H1 3488   2.396   2.795   9.934 -0.8329  0.9691 -1.8770
  226MPD1    H2 3489   2.017   2.675  10.056  1.9690 -1.8072 -0.2138
  226MPD1    H3 3490   2.241   2.625   9.949 -2.9858 -0.7961 -0.7360
  226MPD1     N 3491   2.354   3.071   9.981  0.2536  0.3150 -0.2241
  226MPD1    H5 3492   2.309   3.161   9.997 -1.4384 -0.1331 -2.3809
  226MPD1    N1 3493   1.920   2.910  10.098  0.3713  0.0320 -0.2911
  226MPD1    H6 3494   1.870   2.834  10.145 -1.2435  1.0527 -0.3731
  226MPD1    H7 3495   1.910   2.993  10.156  2.1981  1.1056 -1.4768
  227MPD1     C 3496   2.088   3.782   9.642  0.5985 -0.2742  0.4413
  227MPD1    C1 3497   2.052   3.648   9.630 -0.6326  0.4045  0.7580
  227MPD1    C2 3498   2.149   3.552   9.655  0.7292  0.4499  0.0420
  227MPD1    C3 3499   2.279   3.583   9.680 -0.7166 -0.1660 -0.2413
  227MPD1    C4 3500   2.314   3.720   9.678 -0.6357  0.2296 -0.5037
  227MPD1    C5 3501   2.223   3.814   9.650 -0.8396 -0.2433  0.1216
  227MPD1     H 3502   2.115   3.450   9.667  0.5688  0.6749  1.4754
  227MPD1    H1 3503   2.414   3.751   9.705 -0.6008  1.6520 -2.2860
  227MPD1    H2 3504   2.012   3.859   9.639 -0.3103 -1.2764 -2.2318
  227MPD1    H3 3505   2.261   3.916   9.651 -0.7412 -0.2673 -1.0305
  227MPD1     N 3506   2.364   3.481   9.731  0.3656 -0.0400  0.1051
  227MPD1    H5 3507   2.319   3.391   9.741  0.3363  0.1235  1.5635
  227MPD1    N1 3508   1.923   3.607   9.647 -0.4194  0.1162 -0.5304
  227MPD1    H6 3509   1.920   3.515   9.604  1.1683  0.1625 -0.7283
  227MPD1    H7 3510   1.857   3.669   9.600 -0.4377  0.7231  0.2840
  228MPD1     C 3511   4.405   2.283  13.645  0.5993 -0.1901  0.2848
  228MPD1    C1 3512   4.402   2.205  13.753  0.3184 -0.3626 -0.2262
  228MPD1    C2 3513   4.357   2.072  13.742  0.4492  1.1703  0.8211
  228MPD1    C3 3514   4.341   2.016  13.624 -0.7036 -0.2529  0.2365
  228MPD1    C4 3515   4.351   2.098  13.509 -0.5334 -0.1559 -0.6967
  228MPD1    C5 3516   4.387   2.228  13.517  0.1373 -0.6056 -0.4289
  228MPD1     H 3517   4.342   2.008  13.828  1.9378  0.7449  0.7493
  228MPD1    H1 3518   4.323   2.058  13.412  0.9512 -0.4497 -1.0072
  228MPD1    H2 3519   4.407   2.391  13.653 -1.1014 -0.1753  0.5090
  228MPD1    H3 3520   4.371   2.282  13.425 -0.8702  0.4765  0.3850
  228MPD1     N 3521   4.322   1.876  13.615 -0.0409  0.5697  0.4651
  228MPD1    H5 3522   4.299   1.830  13.703  0.9045  0.5408  0.6979
  228MPD1    N1 3523   4.407   2.273  13.879  0.9820 -0.1446 -0.3745
  228MPD1    H6 3524   4.436   2.209  13.952  1.4518 -1.0777 -1.3795
  228MPD1    H7 3525   4.479   2.345  13.873  1.9762 -1.2098 -1.1050
  229MPD1     C 3526   3.761   0.353  14.556 -0.1053  0.3997  0.3007
  229MPD1    C1 3527   3.821   0.254  14.480 -0.0136  0.3448 -0.2828
  229MPD1    C2 3528   3.914   0.176  14.547  0.0286 -0.6605  0.1471
  229MPD1    C3 3529   3.938   0.193  14.683 -0.2038 -0.0010  0.0284
  229MPD1    C4 3530   3.858   0.276  14.758  0.2526  0.5840 -0.0521
  229MPD1    C5 3531   3.781   0.365  14.693  0.5181  0.4281 -0.2513
  229MPD1     H 3532   3.969   0.099  14.494  0.8000 -1.0026  1.4587
  229MPD1    H1 3533   3.882   0.295  14.862  0.8251 -2.7168  0.3976
  229MPD1    H2 3534   3.707   0.432  14.505 -1.1128 -1.0966 -0.9711
  229MPD1    H3 3535   3.742   0.456  14.737 -1.9277 -1.4584  1.4993
  229MPD1     N 3536   4.044   0.122  14.751  0.5666 -0.3137  0.2242
  229MPD1    H5 3537   4.053   0.142  14.851  1.3265  2.6522 -0.4260
  229MPD1    N1 3538   3.824   0.260  14.340 -0.6974 -0.3062 -0.0330
  229MPD1    H6 3539   3.748   0.308  14.292 -0.9356 -1.3014 -0.6662
  229MPD1    H7 3540   3.835   0.164  14.308  0.9893  0.6194 -2.1805
  230MPD1     C 3541   4.209   4.376  15.588  0.0679  0.1790  0.4208
  230MPD1    C1 3542   4.336   4.357  15.541 -0.2493  0.0309  0.4512
  230MPD1    C2 3543   4.355   4.406  15.416 -0.6841  0.6599 -0.6583
  230MPD1    C3 3544   4.263   4.493  15.360  0.1128  0.5693 -0.0353
  230MPD1    C4 3545   4.146   4.526  15.427 -0.5730  0.4643  0.7213
  230MPD1    C5 3546   4.115   4.459  15.532 -0.7780  1.1886  0.5727
  230MPD1     H 3547   4.450   4.393  15.364 -1.2554  1.2870 -1.8696
  230MPD1    H1 3548   4.075   4.600  15.392  0.2312  0.8532 -0.0961
  230MPD1    H2 3549   4.171   4.345  15.685  0.6029 -2.4066 -0.2133
  230MPD1    H3 3550   4.028   4.498  15.583 -0.1702  0.5839  2.0599
  230MPD1     N 3551   4.297   4.541  15.232 -0.4520  0.6118 -0.2945
  230MPD1    H5 3552   4.377   4.502  15.184  0.5982  0.2493  1.7575
  230MPD1    N1 3553   4.416   4.251  15.601 -0.4825 -0.4771 -0.4827
  230MPD1    H6 3554   4.511   4.270  15.568  0.0542  0.4039  1.5135
  230MPD1    H7 3555   4.411   4.268  15.701  3.0007 -1.5859 -0.1156
  231MPD1     C 3556   2.379   2.252  15.618 -0.3002 -0.2747  0.1513
  231MPD1    C1 3557   2.325   2.233  15.493 -0.6647 -0.4136  0.3335
  231MPD1    C2 3558   2.386   2.278  15.376 -0.0373  0.4710  0.8232
  231MPD1    C3 3559   2.503   2.354  15.384 -0.5376  0.3193  0.3123
  231MPD1    C4 3560   2.563   2.376  15.509  0.5525 -0.2574  0.1766
  231MPD1    C5 3561   2.497   2.321  15.622  0.1741 -0.2671 -0.3424
  231MPD1     H 3562   2.343   2.255  15.279 -0.2122  2.0449  0.5316
  231MPD1    H1 3563   2.655   2.432  15.516  1.7442 -2.2528  0.3384
  231MPD1    H2 3564   2.334   2.218  15.710 -0.0942  0.6019  0.5704
  231MPD1    H3 3565   2.541   2.340  15.719  0.0894 -1.0642 -0.1422
  231MPD1     N 3566   2.554   2.391  15.256 -0.3945 -0.3822  0.0192
  231MPD1    H5 3567   2.489   2.370  15.182  0.2400  0.9627 -0.9202
  231MPD1    N1 3568   2.208   2.153  15.480  0.1083  0.1724 -0.1880
  231MPD1    H6 3569   2.157   2.156  15.569  0.8170  1.6922  0.1670
  231MPD1    H7 3570   2.151   2.171  15.398  2.8412  1.7894 -1.7277
  232MPD1     C 3571   3.822   0.573   0.376 -0.3216  0.3152 -0.0104
  232MPD1    C1 3572   3.742   0.632   0.282  0.4039 -0.9782  0.3088
  232MPD1    C2 3573   3.696   0.553   0.183  0.1798 -0.0406  0.0021
  232MPD1    C3 3574   3.742   0.421   0.173  0.0181  0.3118 -0.2153
  232MPD1    C4 3575   3.823   0.371   0.271 -0.2907 -0.7634 -0.0146
  232MPD1    C5 3576   3.863   0.447   0.375 -0.0330  0.2009  0.2076
  232MPD1     H 3577   3.631   0.595   0.107  0.3298  1.1762  0.5340
  232MPD1    H1 3578   3.859   0.269   0.276 -0.5420 -0.8682 -0.3373
  232MPD1    H2 3579   3.845   0.633   0.463 -0.2421 -1.2575  1.0616
  232MPD1    H3 3580   3.918   0.408   0.459 -1.9344 -0.2779  1.2133
  232MPD1     N 3581   3.694   0.340   0.062  0.9573 -0.4538  0.0966
  232MPD1    H5 3582   3.630   0.382  17.753 -1.2333  0.2783  2.6537
  232MPD1    N1 3583   3.689   0.760   0.309  0.1717  0.5723 -0.4201
  232MPD1    H6 3584   3.756   0.814   0.363 -0.5643  1.7389 -0.6931
  232MPD1    H7 3585   3.666   0.809   0.223 -1.7022 -0.2792 -0.3996
  233MPD1     C 3586   4.502   2.219   1.854  0.4783 -0.7323 -0.4204
  233MPD1    C1 3587   4.592   2.304   1.801  0.0361 -0.3225 -0.8273
  233MPD1    C2 3588   4.718   2.259   1.782 -0.3694  0.0513 -0.0692
  233MPD1    C3 3589   0.017   2.130   1.818  0.2515 -0.5192 -0.4068
  233MPD1    C4 3590   4.662   2.039   1.870 -0.6120 -0.1680  0.5432
  233MPD1    C5 3591   4.537   2.093   1.887 -0.4236 -0.3131  0.0466
  233MPD1     H 3592   0.045   2.329   1.732 -1.3309  0.3131 -0.9922
  233MPD1    H1 3593   4.681   1.936   1.899  0.1598 -0.6978 -1.8244
  233MPD1    H2 3594   4.395   2.238   1.855  0.3312 -1.6511  1.5916
  233MPD1    H3 3595   4.452   2.031   1.916  0.3695 -0.7560  1.4503
  233MPD1     N 3596   0.149   2.085   1.807 -0.2042  0.1724  0.6587
  233MPD1    H5 3597   0.166   2.006   1.868  0.0979  0.8449  1.4518
  233MPD1    N1 3598   4.549   2.439   1.786 -0.2307  0.4733 -0.1501
  233MPD1    H6 3599   4.450   2.450   1.765 -0.5655  0.4871  1.4711
  233MPD1    H7 3600   4.593   2.469   1.699 -1.8707  1.2718 -0.7102
  234MPD1     C 3601   1.978   1.104   8.870 -0.4056 -0.3149 -0.7546
  234MPD1    C1 3602   1.921   1.214   8.926  0.1664 -0.4797  0.4653
  234MPD1    C2 3603   1.982   1.264   9.044  0.3457  0.8034  0.4778
  234MPD1    C3 3604   2.100   1.209   9.096  0.3310  0.7249  0.2343
  234MPD1    C4 3605   2.149   1.091   9.039  0.4951 -0.2691  0.0169
  234MPD1    C5 3606   2.086   1.037   8.929  0.7052  0.4294  0.3915
  234MPD1     H 3607   1.943   1.355   9.087 -0.5313 -0.1388  1.6837
  234MPD1    H1 3608   2.226   1.025   9.078  1.1112  1.6648  2.0573
  234MPD1    H2 3609   1.946   1.061   8.775 -0.4974 -2.7702  0.3915
  234MPD1    H3 3610   2.129   0.948   8.883  1.1001  1.1173 -0.5861
  234MPD1     N 3611   2.169   1.290   9.189 -0.0502  0.1920  0.1408
  234MPD1    H5 3612   2.126   1.381   9.203  0.5585  1.0198 -3.2293
  234MPD1    N1 3613   1.839   1.298   8.853  0.3646  0.0523 -0.0693
  234MPD1    H6 3614   1.776   1.247   8.791  1.3268 -0.6724 -0.4604
  234MPD1    H7 3615   1.781   1.358   8.912  0.4457  2.0229 -2.0053
  235MPD1     C 3616   4.147   3.500  10.691  0.2247 -0.2720  0.8408
  235MPD1    C1 3617   4.157   3.585  10.795  0.3799 -0.1887 -0.0146
  235MPD1    C2 3618   4.230   3.704  10.780  0.2973 -0.5621  0.5626
  235MPD1    C3 3619   4.289   3.734  10.661 -0.2567 -0.0955  0.1995
  235MPD1    C4 3620   4.269   3.652  10.552  0.0863 -0.4380  0.0567
  235MPD1    C5 3621   4.184   3.547  10.566 -0.2277 -0.2626  0.5666
  235MPD1     H 3622   4.246   3.760  10.872 -1.0877 -0.3521  0.6828
  235MPD1    H1 3623   4.314   3.663  10.454 -1.2656  2.3041 -0.2584
  235MPD1    H2 3624   4.099   3.404  10.697 -0.1035 -0.1934 -0.5167
  235MPD1    H3 3625   4.165   3.478  10.484 -1.0289 -0.4541  0.9103
  235MPD1     N 3626   4.363   3.854  10.662 -0.2035  0.0276  0.2629
  235MPD1    H5 3627   4.387   3.900  10.749 -2.3302 -0.6059  1.1729
  235MPD1    N1 3628   4.126   3.541  10.919 -0.6994 -0.3136 -0.0813
  235MPD1    H6 3629   4.110   3.614  10.988  1.5166  2.5679 -2.6453
  235MPD1    H7 3630   4.045   3.480  10.919 -0.9514  0.0225 -1.2372
  236MPD1     C 3631   3.493   0.596   9.828  0.5359 -0.4125  0.3322
  236MPD1    C1 3632   3.494   0.603   9.963  0.0417 -0.2530  0.1059
  236MPD1    C2 3633   3.540   0.490  10.037  0.4044 -0.9172  0.5625
  236MPD1    C3 3634   3.606   0.392   9.964 -0.1278  0.2701  0.5483
  236MPD1    C4 3635   3.613   0.397   9.827 -0.2881 -0.1612  0.0894
  236MPD1    C5 3636   3.554   0.498   9.755  0.3346  0.1578  0.7545
  236MPD1     H 3637   3.516   0.496  10.143 -0.7184  0.6966  0.2152
  236MPD1    H1 3638   3.670   0.323   9.773 -0.9295 -0.5195 -0.0942
  236MPD1    H2 3639   3.437   0.667   9.768  1.0857  0.6795  1.1106
  236MPD1    H3 3640   3.557   0.502   9.647  1.6701  1.7500  0.8492
  236MPD1     N 3641   3.656   0.273  10.026  0.2396  0.1912  0.3325
  236MPD1    H5 3642   3.663   0.191   9.967  0.7920  0.3085  0.2362
  236MPD1    N1 3643   3.421   0.699  10.029 -0.3953  0.3963  0.3583
  236MPD1    H6 3644   3.465   0.708  10.121  0.5518  2.2491 -0.2714
  236MPD1    H7 3645   3.419   0.792   9.989  1.8213  1.1061  1.9232
  237MPD1     C 3646   2.452   4.157  15.730  0.2214  0.9095  0.1634
  237MPD1    C1 3647   2.557   4.082  15.792  0.6209  0.2976 -0.1703
  237MPD1    C2 3648   2.555   3.943  15.784  0.2108 -0.0679 -0.4140
  237MPD1    C3 3649   2.452   3.884  15.707  0.3599 -0.4588 -0.5536
  237MPD1    C4 3650   2.362   3.958  15.639  0.0544  0.3507 -0.1693
  237MPD1    C5 3651   2.359   4.094  15.648  0.7575  0.0433  0.3247
  237MPD1     H 3652   2.627   3.884  15.840 -0.3630 -0.5629 -0.2098
  237MPD1    H1 3653   2.279   3.914  15.584  0.3684 -1.3638  0.7467
  237MPD1    H2 3654   2.461   4.265  15.734  1.2280  0.8656 -0.9427
  237MPD1    H3 3655   2.294   4.155  15.586  3.0779  0.1439 -2.0246
  237MPD1     N 3656   2.437   3.742  15.695  0.0290  0.3734  0.2508
  237MPD1    H5 3657   2.363   3.717  15.630  1.2367 -1.3742 -0.4784
  237MPD1    N1 3658   2.639   4.148  15.882 -0.2622 -0.1586  0.6264
  237MPD1    H6 3659   2.659   4.245  15.861 -1.0258  0.2740  1.8539
  237MPD1    H7 3660   2.726   4.105  15.911 -0.7106 -0.5089  1.4650
  238MPD1     C 3661   4.705   1.533  15.223 -0.1331  1.0336  0.3201
  238MPD1    C1 3662   4.681   1.663  15.264  0.7081 -0.8808  0.2394
  238MPD1    C2 3663   4.556   1.716  15.236  0.1810 -0.2860 -0.0194
  238MPD1    C3 3664   4.457   1.621  15.196 -0.2164 -0.5313  0.5838
  238MPD1    C4 3665   4.477   1.491  15.176 -0.6873  0.8346 -0.3222
  238MPD1    C5 3666   4.606   1.444  15.192 -0.4550  0.3295  0.3321
  238MPD1     H 3667   4.526   1.816  15.264  1.4298  0.3958 -1.1330
  238MPD1    H1 3668   4.397   1.418  15.174  0.4445 -0.4613  1.3934
  238MPD1    H2 3669   0.063   1.489  15.238 -0.5830 -0.9927 -2.6851
  238MPD1    H3 3670   4.630   1.341  15.167  0.5969  0.1817  1.9534
  238MPD1     N 3671   4.324   1.667  15.180 -0.8479  0.0713 -0.6724
  238MPD1    H5 3672   4.253   1.597  15.160 -0.1664 -1.2449  1.5849
  238MPD1    N1 3673   0.047   1.741  15.309 -0.6437 -0.1257  0.3311
  238MPD1    H6 3674   0.017   1.824  15.359  0.0255  0.9008 -0.9665
  238MPD1    H7 3675   0.116   1.692  15.366 -0.6948 -2.8301 -1.9404
  239MPD1     C 3676   0.074   3.269  15.143  0.1485 -0.6221 -0.4719
  239MPD1    C1 3677   0.140   3.203  15.035  0.2737  0.4099  0.0038
  239MPD1    C2 3678   0.086   3.216  14.909 -0.5650 -0.0513 -0.2445
  239MPD1    C3 3679   4.716   3.303  14.884 -0.0436  0.6358  0.4825
  239MPD1    C4 3680   4.652   3.366  14.990  0.2043  0.3390 -0.7017
  239MPD1    C5 3681   4.700   3.342  15.118  0.3058 -0.3494  0.0860
  239MPD1     H 3682   0.135   3.150  14.839 -0.3589 -1.3240  1.0837
  239MPD1    H1 3683   4.565   3.428  14.976  1.3042  1.6002 -1.8968
  239MPD1    H2 3684   0.113   3.248  15.242  2.3083  0.2040 -1.1562
  239MPD1    H3 3685   4.646   3.392  15.198 -1.0128 -2.4048  0.4871
  239MPD1     N 3686   4.659   3.309  14.757  0.3207  0.2125 -0.0784
  239MPD1    H5 3687   4.567   3.352  14.748  0.0176 -0.5643 -0.6693
  239MPD1    N1 3688   0.236   3.109  15.062  0.1795  0.6159 -0.1112
  239MPD1    H6 3689   0.300   3.097  14.984 -0.8467 -0.0327 -0.8476
  239MPD1    H7 3690   0.290   3.165  15.128 -0.9276  0.4963  0.9081
  240MPD1     C 3691   4.241   2.493  14.421  1.0293 -0.3162  0.2131
  240MPD1    C1 3692   4.105   2.466  14.409  0.1361  0.5085 -0.7660
  240MPD1    C2 3693   4.039   2.392  14.506  0.0192  0.2305  0.6836
  240MPD1    C3 3694   4.115   2.353  14.618 -0.8269 -0.0590 -0.8312
  240MPD1    C4 3695   4.251   2.386  14.636 -0.1155 -0.1183  0.5040
  240MPD1    C5 3696   4.310   2.460  14.530  0.1796  0.6770 -0.6289
  240MPD1     H 3697   3.935   2.364  14.490 -0.0221  0.2757  0.8704
  240MPD1    H1 3698   4.312   2.361  14.721 -1.3490 -1.6398  0.9472
  240MPD1    H2 3699   4.293   2.554  14.348 -1.8448 -0.8782 -2.3006
  240MPD1    H3 3700   4.411   2.498  14.543  0.2448  0.5703 -0.8177
  240MPD1     N 3701   4.045   2.279  14.716 -0.9213 -0.3738  0.2456
  240MPD1    H5 3702   3.948   2.253  14.698 -1.3565  1.0514  0.5245
  240MPD1    N1 3703   4.048   2.500  14.287  0.4763  0.2666  0.6515
  240MPD1    H6 3704   3.948   2.512  14.301  0.3805  0.6446 -0.3969
  240MPD1    H7 3705   4.051   2.428  14.215  0.2897  0.6996  0.2099
  241MPD1     C 3706   4.351   2.131  15.648 -0.2537  0.1957 -0.1864
  241MPD1    C1 3707   4.270   2.024  15.629  0.3764  1.1240  0.3205
  241MPD1    C2 3708   4.188   2.020  15.513  0.3943  0.8424  0.8097
  241MPD1    C3 3709   4.192   2.121  15.420 -0.4455 -0.2588  0.6941
  241MPD1    C4 3710   4.287   2.218  15.439  0.9593 -0.0098 -0.7800
  241MPD1    C5 3711   4.366   2.221  15.550 -0.1312  0.6689  0.0849
  241MPD1     H 3712   4.120   1.937  15.498 -1.2418  1.9742  1.9312
  241MPD1    H1 3713   4.305   2.288  15.358  1.0457  0.1704 -0.6031
  241MPD1    H2 3714   4.413   2.141  15.736 -2.1748  1.9485  0.9748
  241MPD1    H3 3715   4.445   2.294  15.554  0.1014  0.4137  0.1565
  241MPD1     N 3716   4.119   2.121  15.295 -0.5135 -0.1548 -0.1475
  241MPD1    H5 3717   4.143   2.189  15.224  1.6597  0.1564  0.8493
  241MPD1    N1 3718   4.286   1.911  15.705 -0.5065 -0.2600  0.2174
  241MPD1    H6 3719   4.309   1.937  15.801  0.2097 -1.1449  0.2780
  241MPD1    H7 3720   4.205   1.850  15.718  0.8390 -1.7092  1.7445
  242MPD1     C 3721   3.456   0.604  16.096 -0.1944 -0.9695 -0.5575
  242MPD1    C1 3722   3.379   0.692  16.029  0.7382  0.7992  0.0708
  242MPD1    C2 3723   3.384   0.691  15.890  0.3085 -0.1546  0.4335
  242MPD1    C3 3724   3.460   0.600  15.825 -0.1034 -0.2671  0.1975
  242MPD1    C4 3725   3.519   0.498  15.898  0.3191  0.3201 -0.6617
  242MPD1    C5 3726   3.522   0.502  16.033 -0.5169  0.0659 -0.4307
  242MPD1     H 3727   3.328   0.769  15.839  0.7395  0.3542  0.7481
  242MPD1    H1 3728   3.564   0.416  15.843  0.6349  0.7570 -1.0587
  242MPD1    H2 3729   3.474   0.612  16.202 -2.8868 -2.2765 -0.0216
  242MPD1    H3 3730   3.571   0.429  16.097 -0.6863  0.9094  0.6737
  242MPD1     N 3731   3.483   0.597  15.689 -0.4198 -0.6345  0.2995
  242MPD1    H5 3732   3.554   0.534  15.653  1.1506  0.1394  2.0172
  242MPD1    N1 3733   3.327   0.809  16.093 -0.5062 -0.7525  0.1487
  242MPD1    H6 3734   3.247   0.851  16.047 -0.8230 -0.8400  0.6275
  242MPD1    H7 3735   3.295   0.797  16.189  0.5608  0.5419  0.6574
  243MPD1     C 3736   4.320   4.678   0.141 -0.5601  0.1292 -0.1254
  243MPD1    C1 3737   4.353   4.549   0.174  0.0859 -0.0444  0.4696
  243MPD1    C2 3738   4.450   4.492   0.089 -0.2658 -0.2145  0.6619
  243MPD1    C3 3739   4.520   4.562  17.750  0.2953  0.5401  0.0325
  243MPD1    C4 3740   4.495   4.696  17.735  0.1033 -0.3099 -0.0099
  243MPD1    C5 3741   4.392   0.016   0.051 -0.2676  0.3307  0.4827
  243MPD1     H 3742   4.461   4.384   0.091 -2.1090 -0.3858  1.0162
  243MPD1    H1 3743   4.559   0.018  17.673 -2.0148  1.4650 -0.4200
  243MPD1    H2 3744   4.239   4.729   0.193 -0.7333  1.1206 -1.3633
  243MPD1    H3 3745   4.373   0.121   0.033  2.1838  0.9564  1.4486
  243MPD1     N 3746   4.624   4.499  17.674  0.3668  0.4294 -0.0927
  243MPD1    H5 3747   4.649   4.404  17.699  2.7512  0.7275 -1.2885
  243MPD1    N1 3748   4.277   4.472   0.263 -0.2154  0.5091 -0.2891
  243MPD1    H6 3749   4.241   4.533   0.337 -0.6426 -2.9215  2.3267
  243MPD1    H7 3750   4.305   4.380   0.296 -1.6446  0.1291 -0.1416
  244MPD1     C 3751   0.285   3.755   0.091 -0.6394 -0.3826  0.1176
  244MPD1    C1 3752   0.254   3.870   0.157  0.4262 -0.5965  0.0781
  244MPD1    C2 3753   0.209   3.980   0.089 -0.3361  0.3154 -0.0703
  244MPD1    C3 3754   0.201   3.988  17.711 -0.3488 -0.0603  0.3049
  244MPD1    C4 3755   0.241   3.873  17.640  0.3778 -0.6721 -0.0388
  244MPD1    C5 3756   0.267   3.759  17.709 -0.5181 -0.0286  0.1494
  244MPD1     H 3757   0.194   4.072   0.145  0.2836 -0.3455  1.1722
  244MPD1    H1 3758   0.245   3.873  17.532 -1.4520  1.5067 -0.1180
  244MPD1    H2 3759   0.299   3.659   0.139  0.8177  0.1910  0.8033
  244MPD1    H3 3760   0.291   3.663  17.665 -0.5712  0.2289 -0.4446
  244MPD1     N 3761   0.156   4.104  17.648 -0.4630 -0.3619  0.1050
  244MPD1    H5 3762   0.119   4.181  17.704 -3.3629 -1.6300 -0.0779
  244MPD1    N1 3763   0.248   3.874   0.293 -0.3644 -0.4940 -1.2421
  244MPD1    H6 3764   0.291   3.788   0.326 -2.2475 -0.7080  0.6532
  244MPD1    H7 3765   0.297   3.958   0.323 -1.4407  0.8148 -3.1384
  245MPD1     C 3766   3.260   0.291  12.887 -0.4495 -0.0466 -0.4160
  245MPD1    C1 3767   3.233   0.423  12.890  0.0479 -0.2300 -0.1149
  245MPD1    C2 3768   3.158   0.474  12.997  0.6347  0.1453  0.2298
  245MPD1    C3 3769   3.087   0.392  13.089  0.8013  0.1899  0.0804
  245MPD1    C4 3770   3.101   0.252  13.062  0.3116 -0.2860  0.2412
  245MPD1    C5 3771   3.194   0.205  12.969  0.3556  0.5406  0.4415
  245MPD1     H 3772   3.146   0.579  13.019 -1.3076  0.3073 -1.5221
  245MPD1    H1 3773   3.049   0.175  13.118 -2.4222  1.3335 -0.0294
  245MPD1    H2 3774   3.315   0.250  12.803 -0.3566  1.5551 -1.1184
  245MPD1    H3 3775   3.203   0.098  12.956  0.6641  0.4511  1.3676
  245MPD1     N 3776   3.004   0.439  13.194 -0.7830  0.3245  0.6622
  245MPD1    H5 3777   2.989   0.540  13.200  2.7158  0.9098 -0.7702
  245MPD1    N1 3778   3.295   0.513  12.794  0.0856  0.3333 -0.1434
  245MPD1    H6 3779   3.278   0.476  12.700  1.8166  0.7400 -0.6140
  245MPD1    H7 3780   3.260   0.608  12.795  0.7373  0.5582  0.8079
  246MPD1     C 3781   3.714   3.022   9.458 -0.5919  0.7330 -0.1691
  246MPD1    C1 3782   3.677   3.133   9.385 -0.3064 -1.1455 -0.2229
  246MPD1    C2 3783   3.637   3.242   9.464 -0.7329  0.2997  0.2850
  246MPD1    C3 3784   3.615   3.229   9.599  0.6047  0.0259 -0.1348
  246MPD1    C4 3785   3.645   3.114   9.667 -0.1721  0.0349 -0.0223
  246MPD1    C5 3786   3.677   3.006   9.592 -0.0433 -0.1461  0.1277
  246MPD1     H 3787   3.630   3.341   9.419  1.9524  0.8439  1.0874
  246MPD1    H1 3788   3.635   3.109   9.775  1.8005  0.6927  0.1853
  246MPD1    H2 3789   3.754   2.936   9.407  0.4188  1.6985 -1.0112
  246MPD1    H3 3790   3.704   2.916   9.646  1.6016 -0.7458 -1.6914
  246MPD1     N 3791   3.575   3.352   9.665  0.6108  0.2518  0.1564
  246MPD1    H5 3792   3.553   3.432   9.606 -2.8522 -0.8467 -0.0320
  246MPD1    N1 3793   3.705   3.140   9.249  0.0454 -0.3203  0.0489
  246MPD1    H6 3794   3.641   3.203   9.200  0.2518  0.2783  0.5479
  246MPD1    H7 3795   3.692   3.046   9.214 -2.8436  0.7180 -1.6370
  247MPD1     C 3796   1.816   4.515  17.174 -0.1794 -0.1093 -0.2236
  247MPD1    C1 3797   1.930   4.573  17.114 -0.4856  0.7865 -0.3036
  247MPD1    C2 3798   1.961   4.551  16.980  0.5956 -0.3404 -0.5839
  247MPD1    C3 3799   1.880   4.459  16.910 -0.4917 -0.0439 -0.1908
  247MPD1    C4 3800   1.779   4.396  16.975  0.4785 -0.6925 -0.2750
  247MPD1    C5 3801   1.746   4.432  17.101  0.0814 -0.1494  0.0467
  247MPD1     H 3802   2.043   4.598  16.927  0.8634 -0.9210 -0.6941
  247MPD1    H1 3803   1.702   4.336  16.928 -1.1279  0.3781  0.9930
  247MPD1    H2 3804   1.783   4.557  17.268  1.9734 -0.1690  0.5732
  247MPD1    H3 3805   1.663   4.382  17.150 -0.7529  1.7665  0.6082
  247MPD1     N 3806   1.884   4.444  16.769  0.1484 -0.5341 -0.2268
  247MPD1    H5 3807   1.819   4.369  16.746  1.6087 -1.8710  0.0257
  247MPD1    N1 3808   1.990   4.677  17.181 -0.7076  0.6127  0.3172
  247MPD1    H6 3809   2.080   4.701  17.140 -1.1127  0.4743 -0.6682
  247MPD1    H7 3810   2.005   4.657  17.279 -2.6961  1.7492  0.8449
  248MPD1     C 3811   2.179   4.298   0.067  0.3524  0.7033 -0.9144
  248MPD1    C1 3812   2.107   4.412   0.090  0.8692  0.0183  0.0767
  248MPD1    C2 3813   1.973   4.396   0.119  0.6704  0.5180  0.4884
  248MPD1    C3 3814   1.913   4.276   0.094  0.2352 -0.4075 -0.4380
  248MPD1    C4 3815   1.990   4.165   0.052 -0.7419  0.2492 -0.2766
  248MPD1    C5 3816   2.127   4.177   0.042  0.1273 -0.3105 -0.0754
  248MPD1     H 3817   1.913   4.482   0.145  0.7238  0.7112 -0.0439
  248MPD1    H1 3818   1.944   4.067   0.043 -0.1136 -0.1002  0.4253
  248MPD1    H2 3819   2.284   4.313   0.047  0.1297 -0.8651 -3.2138
  248MPD1    H3 3820   2.196   4.095   0.026 -0.3060 -0.6749 -0.0851
  248MPD1     N 3821   1.776   4.259   0.116  0.1102 -0.2506  0.1781
  248MPD1    H5 3822   1.722   4.345   0.111  0.2655 -0.0626  1.6799
  248MPD1    N1 3823   2.173   4.530   0.119 -0.0432 -0.2393 -0.4276
  248MPD1    H6 3824   2.127   4.618   0.096 -1.2147 -0.2537  1.9172
  248MPD1    H7 3825   2.267   4.536   0.080 -0.3166  0.5849 -0.9537
  249MPD1     C 3826   4.061   2.159  11.218 -0.3290 -0.0667 -0.0472
  249MPD1    C1 3827   4.140   2.153  11.103  0.2281 -0.2652  0.2058
  249MPD1    C2 3828   4.207   2.267  11.060  0.2822 -0.5665 -0.4705
  249MPD1    C3 3829   4.216   2.376  11.147  0.3671 -0.5425 -1.0412
  249MPD1    C4 3830   4.155   2.374  11.264 -0.0608  0.3273 -0.8204
  249MPD1    C5 3831   4.080   2.263  11.303 -0.0408  0.5391  0.3920
  249MPD1     H 3832   4.246   2.278  10.959 -2.6992 -0.7768 -1.6332
  249MPD1    H1 3833   4.164   2.452  11.339 -1.2887 -0.0252 -0.3066
  249MPD1    H2 3834   4.013   2.071  11.260  2.1936 -0.9646  1.0041
  249MPD1    H3 3835   4.035   2.250  11.401  1.3487 -0.4256  0.9005
  249MPD1     N 3836   4.271   2.490  11.082 -0.1893  0.3603  0.4097
  249MPD1    H5 3837   4.299   2.477  10.985  0.3436  1.6540  0.3954
  249MPD1    N1 3838   4.134   2.039  11.014  0.4691 -0.2098  0.1674
  249MPD1    H6 3839   4.117   1.948  11.057 -0.2551 -0.7129 -1.1849
  249MPD1    H7 3840   4.225   2.021  10.972  0.2084  2.7259 -1.6356
  250MPD2     C 3841   1.592   3.303  13.243 -0.0568  0.4078 -0.5380
  250MPD2    C1 3842   1.476   3.384  13.245 -0.1178 -0.0812  0.2028
  250MPD2    C2 3843   1.355   3.324  13.260 -1.0039  0.2507  0.1229
  250MPD2    C3 3844   1.341   3.187  13.259 -0.1376 -0.6078 -0.1359
  250MPD2    C4 3845   1.455   3.108  13.263  0.5012 -0.7213 -0.1775
  250MPD2    C5 3846   1.579   3.169  13.270 -0.1696  0.5472 -0.6000
  250MPD2     H 3847   1.268   3.388  13.264 -0.3202  1.1159  1.0014
  250MPD2    H1 3848   1.441   3.000  13.269  1.5040 -0.7969  0.8567
  250MPD2    H2 3849   1.693   3.343  13.240  0.2874 -0.4917 -1.0164
  250MPD2    H3 3850   1.667   3.106  13.271 -0.4919  0.1023 -0.1482
  250MPD2     N 3851   1.215   3.122  13.249  0.3618  0.1759  0.6789
  250MPD2    H5 3852   1.223   3.022  13.237  0.1670  0.3866 -1.1728
  250MPD2    N1 3853   1.495   3.518  13.216 -0.0128 -0.5641  0.3560
  250MPD2    H7 3854   1.592   3.541  13.196  0.2625 -1.1948  0.9697
  251TMC3    C1 3855   1.451   3.762  13.200 -0.6945  0.0677 -0.0961
  251TMC3    C2 3856   1.372   3.859  13.146  0.0715  1.4787 -0.7270
  251TMC3    C3 3857   1.419   3.991  13.144 -0.5696 -0.0067 -0.2191
  251TMC3    C4 3858   1.578   3.792  13.237 -0.4686 -0.6487 -0.6286
  251TMC3    C5 3859   1.624   3.920  13.223  0.2808  0.2071  0.4412
  251TMC3    C6 3860   1.545   4.027  13.178 -1.0719  0.6336 -0.4598
  251TMC3     C 3861   1.397   3.616  13.205 -0.4763 -0.5447 -0.0235
  251TMC3     O 3862   1.275   3.605  13.199  0.2745 -0.6230  0.3176
  251TMC3     H 3863   1.273   3.840  13.105 -0.3404  2.4004 -0.1465
  251TMC3    H1 3864   1.635   3.714  13.287 -2.7882 -1.8014  0.2201
  251TMC3    H2 3865   1.578   4.130  13.173  1.0792  0.0292  1.3249
  251TMC3    C7 3866   1.765   3.937  13.241 -0.7860  0.1285 -0.5010
  251TMC3    C8 3867   1.315   4.088  13.162 -0.2422 -0.0107 -0.0577
  251TMC3    O1 3868   1.830   3.834  13.253 -0.5566  0.3856  0.1964
  251TMC3    O2 3869   1.200   4.048  13.138  0.1929 -0.3807  0.0259
  252TMC3    C1 3870   1.471   0.072   9.404  0.0632  0.3910  0.1996
  252TMC3    C2 3871   1.521   4.683   9.384  0.0587 -0.3300 -0.8230
  252TMC3    C3 3872   1.553   4.611   9.502  0.1237 -0.5731 -0.0980
  252TMC3    C4 3873   1.448   0.125   9.530 -0.2867  0.3144 -0.2014
  252TMC3    C5 3874   1.459   0.040   9.635  0.2836 -0.1169 -0.2053
  252TMC3    C6 3875   1.520   4.655   9.626 -0.2947 -0.2217  0.1339
  252TMC3     C 3876   1.492   0.176   9.304  0.1704  0.4504  0.9524
  252TMC3     O 3877   1.564   0.140   9.211 -0.3168 -0.3684  0.0140
  252TMC3     H 3878   1.559   4.646   9.290  1.3120  1.8250 -1.1797
  252TMC3    H1 3879   1.427   0.231   9.542 -2.0672 -0.2851  2.0798
  252TMC3    H2 3880   1.535   4.596   9.716 -5.1492 -1.8250 -0.1466
  252TMC3    C7 3881   1.405   0.087   9.762 -0.2086  0.7496  0.4770
  252TMC3    C8 3882   1.631   4.486   9.494  0.0692  0.4554 -0.3641
  252TMC3    O1 3883   1.362   0.202   9.765 -0.1411  0.9131  0.4019
  252TMC3    O2 3884   1.638   4.436   9.380 -0.2575  0.2158 -1.2262
  253MPD2     C 3885   2.135   3.596  15.892 -0.6473 -0.0722 -0.6274
  253MPD2    C1 3886   2.014   3.556  15.834  0.1035 -0.1142  0.6383
  253MPD2    C2 3887   1.914   3.505  15.917  0.2533  0.0949 -0.5621
  253MPD2    C3 3888   1.940   3.488  16.054  0.2858  0.1546  0.5362
  253MPD2    C4 3889   2.065   3.518  16.109  0.0271  0.5081  0.6292
  253MPD2    C5 3890   2.163   3.572  16.026 -0.2727 -0.0059 -0.4781
  253MPD2     H 3891   1.820   3.473  15.872 -0.6028 -0.8670  1.9048
  253MPD2    H1 3892   2.085   3.517  16.215  3.1828  0.0174  0.0216
  253MPD2    H2 3893   2.199   3.651  15.824 -0.1403  1.1514  0.8346
  253MPD2    H3 3894   2.260   3.596  16.068  0.5981 -3.1397 -0.7186
  253MPD2     N 3895   1.841   3.459  16.149  0.2323  0.1762  0.0398
  253MPD2    H5 3896   1.879   3.433  16.239 -0.1249 -2.5495 -0.5772
  253MPD2    N1 3897   1.971   3.578  15.700 -0.0394 -0.5113  0.0371
  253MPD2    H7 3898   1.872   3.567  15.681 -0.0366 -0.6538  0.0989
  254TMC3    C1 3899   1.643   3.441  16.262  1.1755 -0.3545 -1.2897
  254TMC3    C2 3900   1.517   3.390  16.259  0.0080 -0.1810 -0.1936
  254TMC3    C3 3901   1.458   3.357  16.381 -0.2552  0.3763  0.0753
  254TMC3    C4 3902   1.704   3.464  16.378 -0.1590 -0.0689  0.6229
  254TMC3    C5 3903   1.648   3.428  16.491 -0.6321  1.1355 -0.6648
  254TMC3    C6 3904   1.526   3.362  16.499  1.0216  0.5940  0.0089
  254TMC3     C 3905   1.705   3.462  16.138  0.2445 -0.7305  0.1939
  254TMC3     O 3906   1.634   3.486  16.043 -0.0033  0.0446 -0.0042
  254TMC3     H 3907   1.458   3.387  16.168 -1.0539  0.3831  0.4759
  254TMC3    H1 3908   1.803   3.509  16.377  0.2509 -0.9814 -0.5959
  254TMC3    H2 3909   1.479   3.327  16.591 -1.9453 -0.6838 -1.9838
  254TMC3    C7 3910   1.717   3.440  16.622 -0.0097 -0.4234 -0.0549
  254TMC3    C8 3911   1.313   3.383  16.397 -0.0847 -0.3202  0.4059
  254TMC3    O1 3912   1.656   3.381  16.713  0.7367 -0.3035  0.6879
  254TMC3    O2 3913   1.271   3.391  16.512  0.0624  0.5319 -0.4171
  255MPD2     C 3914   0.928   0.845  10.726  0.5836  1.0590 -0.1159
  255MPD2    C1 3915   1.000   0.958  10.737  0.7306  0.6181  0.6070
  255MPD2    C2 3916   1.105   0.988  10.649 -0.2753  0.2260  1.4054
  255MPD2    C3 3917   1.108   0.914  10.535  0.3296  0.1223  0.3189
  255MPD2    C4 3918   1.039   0.797  10.528 -0.0066  0.0213 -0.5302
  255MPD2    C5 3919   0.950   0.762  10.625  0.1977 -0.3158 -0.1903
  255MPD2     H 3920   1.165   1.079  10.653  3.8417 -2.3307 -2.5012
  255MPD2    H1 3921   1.048   0.724  10.449  2.4487 -0.6702  0.3926
  255MPD2    H2 3922   0.856   0.813  10.800  0.7781  2.3187  0.6214
  255MPD2    H3 3923   0.890   0.672  10.615 -1.7757  1.1076 -0.9255
  255MPD2     N 3924   1.199   0.959  10.437  0.3335 -0.0607  0.1676
  255MPD2    H5 3925   1.244   1.047  10.461 -0.7495  0.0233  1.8752
  255MPD2    N1 3926   0.969   1.039  10.849  0.7479 -0.0450 -0.2905
  255MPD2    H7 3927   0.876   1.022  10.886  0.2662  1.3157 -0.8638
  256TMC3    C1 3928   0.976   1.234  10.984  0.2891 -0.1634 -0.0016
  256TMC3    C2 3929   1.048   1.329  11.052 -0.6638 -0.2277 -0.3556
  256TMC3    C3 3930   0.979   1.439  11.100  0.4064 -0.6601  0.5382
  256TMC3    C4 3931   0.840   1.252  10.966  0.5786 -0.7285 -0.0407
  256TMC3    C5 3932   0.774   1.370  11.010  0.6191  0.4595  0.7054
  256TMC3    C6 3933   0.847   1.464  11.073  0.3355 -0.3515  0.2069
  256TMC3     C 3934   1.047   1.141  10.894  0.0032  0.5823  0.0749
  256TMC3     O 3935   1.163   1.176  10.876  0.3986 -0.3861  0.5657
  256TMC3     H 3936   1.156   1.341  11.054 -0.7292  0.4349 -0.9483
  256TMC3    H1 3937   0.782   1.188  10.901 -0.8519  0.6350 -0.0869
  256TMC3    H2 3938   0.803   1.556  11.110 -2.2187 -1.3553 -0.3607
  256TMC3    C7 3939   0.667   1.409  10.923 -0.1800 -0.6975  0.2873
  256TMC3    C8 3940   1.052   1.555  11.150  0.1624 -0.5587 -0.2932
  256TMC3    O1 3941   0.597   1.315  10.880 -0.6900  0.0486 -0.1649
  256TMC3    O2 3942   0.994   1.614  11.241  0.7077 -0.0864 -0.1900
  257MPD2     C 3943   4.284   3.639  13.252 -0.2432 -0.2378  1.2127
  257MPD2    C1 3944   4.356   3.533  13.198 -0.4522 -0.0399 -0.1433
  257MPD2    C2 3945   4.380   3.419  13.286 -0.0283  0.3032 -0.3207
  257MPD2    C3 3946   4.332   3.421  13.419  0.7050 -0.4183  0.6377
  257MPD2    C4 3947   4.261   3.529  13.459  0.1722  0.6798  0.1843
  257MPD2    C5 3948   4.235   3.640  13.379  0.2671  0.0455  0.3908
  257MPD2     H 3949   4.439   3.334  13.255  1.1355  0.4081  1.6128
  257MPD2    H1 3950   4.223   3.528  13.561 -1.1707  0.9721 -0.3143
  257MPD2    H2 3951   4.266   3.732  13.200  0.6457 -0.9453 -0.3674
  257MPD2    H3 3952   4.167   3.720  13.407 -1.5346 -0.6936 -1.8634
  257MPD2     N 3953   4.368   3.310  13.502  0.0080 -0.2619 -0.1547
  257MPD2    H5 3954   4.429   3.245  13.453  0.0958 -0.3782  0.1079
  257MPD2    N1 3955   4.404   3.547  13.066  0.1151  0.4365  0.2703
  257MPD2    H7 3956   4.393   3.642  13.033 -0.1141  0.2005 -0.3429
  258TMC3    C1 3957   4.391   3.172  13.698  0.1941 -0.4518  0.2097
  258TMC3    C2 3958   4.424   3.068  13.612  0.6659  0.7044  0.0074
  258TMC3    C3 3959   4.495   2.955  13.655  0.6038  0.7075 -0.4941
  258TMC3    C4 3960   4.418   3.161  13.826  0.7402  0.2526  0.1959
  258TMC3    C5 3961   4.471   3.047  13.872  0.7638  0.0278  0.0582
  258TMC3    C6 3962   4.521   2.947  13.791 -0.4319 -0.0468  0.2707
  258TMC3     C 3963   4.336   3.295  13.636  0.4664 -0.6622 -0.2822
  258TMC3     O 3964   4.267   3.362  13.710  0.4035 -0.4896  0.5001
  258TMC3     H 3965   4.401   3.079  13.507  0.5195  1.4275  0.1137
  258TMC3    H1 3966   4.395   3.243  13.894 -1.7635 -0.3499  0.0504
  258TMC3    H2 3967   4.555   2.853  13.833 -0.3469  1.2976  3.2124
  258TMC3    C7 3968   4.508   3.037  14.013 -0.9855 -0.8629 -0.5670
  258TMC3    C8 3969   4.477   2.836  13.586 -0.5724  0.3828 -0.2919
  258TMC3    O1 3970   4.427   3.082  14.095  0.2278  0.2497  0.2099
  258TMC3    O2 3971   4.476   2.727  13.642  0.0626 -0.0093  0.1518
  259MPD2     C 3972   2.481   0.464   0.757 -0.2315  0.0563 -0.3504
  259MPD2    C1 3973   2.597   0.393   0.755  0.3239  0.1364 -0.0280
  259MPD2    C2 3974   2.639   0.340   0.636 -0.1895 -0.4204  0.4831
  259MPD2    C3 3975   2.575   0.380   0.516 -0.3581 -0.7223 -0.6615
  259MPD2    C4 3976   2.476   0.473   0.521  0.0296 -0.4185  0.1376
  259MPD2    C5 3977   2.422   0.500   0.640 -0.0236  0.6950 -0.3578
  259MPD2     H 3978   2.724   0.273   0.635  1.4707  1.6826  0.2787
  259MPD2    H1 3979   2.417   0.508   0.437  0.8464 -0.9259 -0.6474
  259MPD2    H2 3980   2.451   0.505   0.853  1.6330  0.5900  0.0101
  259MPD2    H3 3981   2.333   0.560   0.653 -1.3181 -0.9591 -1.6776
  259MPD2     N 3982   2.625   0.334   0.393  0.2153 -1.2118 -0.7013
  259MPD2    H5 3983   2.701   0.267   0.392 -0.3807 -1.8662 -3.5778
  259MPD2    N1 3984   2.659   0.362   0.877  0.6932 -0.6034  0.0418
  259MPD2    H7 3985   2.616   0.405   0.958 -1.4832 -2.3405 -0.2203
  260TMC3    C1 3986   2.672   0.321   0.169  0.2463  0.1339  1.3646
  260TMC3    C2 3987   2.697   0.394   0.053  0.5652 -0.0782 -0.4337
  260TMC3    C3 3988   2.749   0.325  17.707  0.3582  0.2704  0.3252
  260TMC3    C4 3989   2.714   0.189   0.187 -0.2631  0.0751 -0.1197
  260TMC3    C5 3990   2.776   0.132   0.086  0.1275 -0.1900 -0.2277
  260TMC3    C6 3991   2.779   0.189  17.714  0.0292 -0.0373 -0.1610
  260TMC3     C 3992   2.589   0.385   0.271 -0.2836  0.5395 -0.7120
  260TMC3     O 3993   2.507   0.473   0.235  0.3724  0.2786  0.5648
  260TMC3     H 3994   2.662   0.496   0.046 -0.3769 -0.4003 -0.3312
  260TMC3    H1 3995   2.684   0.133   0.275 -1.7729  0.0337 -0.6653
  260TMC3    H2 3996   2.792   0.125  17.627  3.1947 -0.8779  0.9318
  260TMC3    C7 3997   2.831   4.736   0.094  0.9378  0.0206  0.0107
  260TMC3    C8 3998   2.827   0.410  17.620 -0.9806 -0.4074  0.2537
  260TMC3    O1 3999   2.856   4.678  17.750  0.1899  0.2611  0.0073
  260TMC3    O2 4000   2.803   0.527  17.620 -0.4995 -0.1344 -0.1172
  261MPD2     C 4001   0.489   3.365  12.925  0.0562  0.3308  0.3181
  261MPD2    C1 4002   0.622   3.334  12.908 -1.2063  0.2630 -0.7962
  261MPD2    C2 4003   0.688   3.386  12.797 -0.3523  0.4813 -0.4294
  261MPD2    C3 4004   0.623   3.465  12.704  0.3108  0.5396 -0.5208
  261MPD2    C4 4005   0.490   3.490  12.726  0.5525 -0.6701  0.3306
  261MPD2    C5 4006   0.420   3.443  12.835  0.2336 -0.8269 -0.4061
  261MPD2     H 4007   0.791   3.359  12.781 -0.0770 -0.1298  2.4407
  261MPD2    H1 4008   0.429   3.547  12.658 -2.1765 -1.7753  1.8694
  261MPD2    H2 4009   0.427   3.326  13.006  0.1791  1.8217  1.1247
  261MPD2    H3 4010   0.314   3.465  12.844  0.8283  2.0590 -0.4359
  261MPD2     N 4011   0.706   3.522  12.595 -0.4050  0.2183  0.1306
  261MPD2    H5 4012   0.803   3.496  12.604 -0.1525  0.5538 -1.6845
  261MPD2    N1 4013   0.701   3.248  12.991  0.1691  0.1133 -0.1031
  261MPD2    H7 4014   0.803   3.249  12.994  0.2788  0.3417 -4.6116
  262TMC3    C1 4015   0.771   3.657  12.399 -0.0264 -0.2399 -0.0250
  262TMC3    C2 4016   0.731   3.753  12.309  0.5652 -0.1645  0.2771
  262TMC3    C3 4017   0.767   3.729  12.173  0.4734  0.6873 -0.4066
  262TMC3    C4 4018   0.862   3.562  12.360  0.5847  0.0348 -0.1561
  262TMC3    C5 4019   0.913   3.557  12.237  0.0624  0.2806 -0.1473
  262TMC3    C6 4020   0.860   3.634  12.136  0.2066  0.4785 -0.2295
  262TMC3     C 4021   0.667   3.613  12.497 -0.2698 -0.0657 -1.0588
  262TMC3     O 4022   0.554   3.651  12.468 -0.0604 -0.1374 -0.5718
  262TMC3     H 4023   0.653   3.826  12.323  0.4003  0.0482 -1.7923
  262TMC3    H1 4024   0.897   3.490  12.433 -1.1136 -1.0076 -0.3630
  262TMC3    H2 4025   0.905   3.627  12.037 -1.0969  2.5859 -0.9817
  262TMC3    C7 4026   0.960   3.426  12.187  0.5152  0.1180 -0.7025
  262TMC3    C8 4027   0.746   3.841  12.077 -0.2112  0.6677 -0.0291
  262TMC3    O1 4028   0.912   3.324  12.238  0.2693 -0.0973 -0.0772
  262TMC3    O2 4029   0.704   3.949  12.113  0.0424 -0.2089 -0.0921
  263MPD2     C 4030   1.670   1.899  11.480 -0.5536  0.0286 -0.2820
  263MPD2    C1 4031   1.657   1.990  11.585  0.2313 -0.4063 -1.0558
  263MPD2    C2 4032   1.741   2.096  11.597 -0.0261 -0.1449 -0.5308
  263MPD2    C3 4033   1.836   2.127  11.500 -0.4205 -0.0209  0.2218
  263MPD2    C4 4034   1.846   2.043  11.387  0.0483  0.4201 -0.0755
  263MPD2    C5 4035   1.760   1.925  11.385 -0.0759 -0.6734  0.0922
  263MPD2     H 4036   1.728   2.170  11.675  0.6212 -1.0794  0.4675
  263MPD2    H1 4037   1.907   2.052  11.298  1.2691  0.5885  0.7833
  263MPD2    H2 4038   1.610   1.809  11.473 -0.5892  0.0514 -0.2744
  263MPD2    H3 4039   1.771   1.855  11.303  0.5440 -0.1547 -0.2694
  263MPD2     N 4040   1.911   2.244  11.512 -0.7786 -0.4613  0.5726
  263MPD2    H5 4041   1.908   2.285  11.604  2.0464 -0.6615  0.7539
  263MPD2    N1 4042   1.563   1.957  11.683  0.4740 -0.3960 -0.1199
  263MPD2    H7 4043   1.508   1.872  11.684  2.1426 -1.4669  2.3293
  264TMC3    C1 4044   2.055   2.409  11.436  0.4729 -0.3907  0.2873
  264TMC3    C2 4045   2.016   2.495  11.536 -0.9803  0.0212 -1.1624
  264TMC3    C3 4046   2.053   2.631  11.527  0.2233 -0.6525  0.4777
  264TMC3    C4 4047   2.146   2.444  11.344 -0.0059  0.4845  0.1916
  264TMC3    C5 4048   2.182   2.576  11.330  0.2696  0.0661  0.3835
  264TMC3    C6 4049   2.127   2.664  11.417 -0.1461  0.0218 -0.8206
  264TMC3     C 4050   1.972   2.301  11.402  0.3026 -0.1604  0.0235
  264TMC3     O 4051   1.976   2.278  11.282 -0.2415  0.1242  0.0618
  264TMC3     H 4052   1.938   2.466  11.607 -0.5779 -1.3059 -1.2581
  264TMC3    H1 4053   2.187   2.364  11.283  0.9819  0.7310  0.5349
  264TMC3    H2 4054   2.138   2.771  11.402  2.7822 -0.0371  0.9565
  264TMC3    C7 4055   2.299   2.617  11.256  0.7536  0.9394  0.4353
  264TMC3    C8 4056   2.053   2.725  11.632 -1.1280 -1.1054 -0.6418
  264TMC3    O1 4057   2.318   2.554  11.158  0.2418 -0.3888  0.8431
  264TMC3    O2 4058   2.118   2.827  11.610  0.1095 -0.2127  0.2802
  265MPD2     C 4059   2.947   3.380  15.172  0.2269 -0.7302 -0.2972
  265MPD2    C1 4060   3.038   3.445  15.248  0.5058 -0.1832  0.5550
  265MPD2    C2 4061   3.167   3.417  15.223  0.1052 -0.1197 -0.1706
  265MPD2    C3 4062   3.204   3.309  15.146  0.3602 -0.1341 -0.1131
  265MPD2    C4 4063   3.107   3.235  15.075  0.2192 -0.0636 -0.1744
  265MPD2    C5 4064   2.979   3.271  15.091 -0.0884  0.0556  0.8531
  265MPD2     H 4065   3.238   3.479  15.277 -0.0408  0.0261 -0.1461
  265MPD2    H1 4066   3.123   3.147  15.015 -0.3824 -0.1763 -0.1713
  265MPD2    H2 4067   2.844   3.414  15.173  0.5255  0.1580  1.0495
  265MPD2    H3 4068   2.899   3.208  15.054  1.7828 -2.0941  0.4715
  265MPD2     N 4069   3.346   3.281  15.132  0.4277 -0.1982 -0.8692
  265MPD2    H5 4070   3.415   3.344  15.171 -0.6818  0.8899 -0.6364
  265MPD2    N1 4071   3.005   3.530  15.347 -0.0948 -0.0666 -0.5550
  265MPD2    H7 4072   3.078   3.575  15.402  1.7547 -2.3628 -1.1065
  266TMC3    C1 4073   2.874   3.645  15.504 -0.3763  0.3646  0.2793
  266TMC3    C2 4074   2.944   3.608  15.619 -0.0732 -0.1730 -0.1940
  266TMC3    C3 4075   2.964   3.703  15.715 -0.0256 -0.2798  0.0269
  266TMC3    C4 4076   2.815   3.767  15.493  0.5960  0.7885 -0.1057
  266TMC3    C5 4077   2.841   3.860  15.591 -0.0206 -0.1666 -0.1217
  266TMC3    C6 4078   2.910   3.831  15.705 -0.2492  0.6439 -0.9511
  266TMC3     C 4079   2.883   3.573  15.380 -0.4128 -0.2765 -0.0086
  266TMC3     O 4080   2.782   3.564  15.313  0.0704 -0.8767 -0.0924
  266TMC3     H 4081   3.001   3.515  15.617 -0.0252 -0.1480 -0.0238
  266TMC3    H1 4082   2.772   3.798  15.399  0.4177 -1.1756 -0.6530
  266TMC3    H2 4083   2.917   3.896  15.792 -0.5460  0.2672 -0.6452
  266TMC3    C7 4084   2.807   3.996  15.554 -0.0107 -0.7251  0.0418
  266TMC3    C8 4085   3.061   3.671  15.817  0.1956 -0.0822 -0.1448
  266TMC3    O1 4086   2.728   4.011  15.462  0.2142 -0.0632  0.4458
  266TMC3    O2 4087   3.058   3.557  15.863 -0.2790  0.6602  0.3798
  267MPD2     C 4088   0.188   0.371   0.305 -0.3058 -0.2831  0.6117
  267MPD2    C1 4089   0.238   0.307   0.191  0.8195  0.4138  0.5801
  267MPD2    C2 4090   0.155   0.267   0.092  0.2080  0.3491  0.4105
  267MPD2    C3 4091   0.028   0.320   0.083  0.0850  0.2255 -0.0356
  267MPD2    C4 4092   4.725   0.400   0.191  0.0928 -0.8394 -0.2543
  267MPD2    C5 4093   0.061   0.424   0.302 -0.1891 -0.1215  0.0271
  267MPD2     H 4094   0.191   0.207   0.010 -0.5959  0.0280  0.2961
  267MPD2    H1 4095   4.625   0.444   0.188  0.3247 -0.3465 -1.0573
  267MPD2    H2 4096   0.246   0.397   0.393 -0.1310 -1.8902  0.9745
  267MPD2    H3 4097   0.021   0.468   0.392 -1.0274  1.1124 -0.9503
  267MPD2     N 4098   4.681   0.304  17.729  0.3838  0.2584  0.1513
  267MPD2    H5 4099   4.599   0.363  17.726 -0.3616 -0.7612  0.6687
  267MPD2    N1 4100   0.370   0.269   0.193  0.5274 -0.1564  0.8062
  267MPD2    H7 4101   0.429   0.277   0.275  0.1766  0.8492  0.9577
  268TMC3    C1 4102   0.573   0.190   0.110  0.6127  0.1969 -0.2365
  268TMC3    C2 4103   0.659   0.219   0.012 -0.4075 -0.6131 -0.7608
  268TMC3    C3 4104   0.791   0.186   0.024  0.3458 -0.3649  0.4752
  268TMC3    C4 4105   0.611   0.125   0.225  0.0099  0.1467 -0.3320
  268TMC3    C5 4106   0.743   0.092   0.231 -0.4155 -0.5415 -0.2145
  268TMC3    C6 4107   0.839   0.126   0.132  0.5509  0.0215 -0.1215
  268TMC3     C 4108   0.439   0.222   0.079 -0.2161  0.4795  0.3727
  268TMC3     O 4109   0.413   0.231  17.717 -0.3346 -0.3000  0.2231
  268TMC3     H 4110   0.635   0.294  17.694 -0.5429 -1.6646 -1.7690
  268TMC3    H1 4111   0.536   0.097   0.298  1.6031  0.4431  1.4262
  268TMC3    H2 4112   0.946   0.109   0.126  0.8627  2.0225 -0.2008
  268TMC3    C7 4113   0.787   0.002   0.327  0.4969  0.2095 -0.2298
  268TMC3    C8 4114   0.875   0.225  17.671  0.3749  0.7482 -0.9357
  268TMC3    O1 4115   0.878   4.669   0.291  0.3021 -0.1769 -0.1252
  268TMC3    O2 4116   0.995   0.237  17.691  0.4810  0.2557 -0.2291
  269MPD2     C 4117   1.134   3.913  15.646  0.0687 -0.3580 -0.1146
  269MPD2    C1 4118   0.994   3.928  15.658 -0.0837 -0.0086 -0.5109
  269MPD2    C2 4119   0.942   4.051  15.626 -0.5309 -0.0720  0.2882
  269MPD2    C3 4120   1.017   4.163  15.604  0.7337 -0.0585  0.2105
  269MPD2    C4 4121   1.155   4.151  15.589  0.1568  0.0858 -0.0682
  269MPD2    C5 4122   1.209   4.021  15.618 -0.3594 -0.5266  0.4746
  269MPD2     H 4123   0.838   4.050  15.593  0.2168 -3.3894 -2.0663
  269MPD2    H1 4124   1.219   4.236  15.565 -1.1940  1.8499  2.4970
  269MPD2    H2 4125   1.183   3.818  15.662 -0.6384 -1.1379 -2.7058
  269MPD2    H3 4126   1.317   4.018  15.616 -0.3332  1.1127 -0.6847
  269MPD2     N 4127   0.952   4.285  15.567  0.0718  0.8048  0.8661
  269MPD2    H5 4128   0.852   4.279  15.583 -0.1256 -1.1158 -1.0381
  269MPD2    N1 4129   0.922   3.808  15.673  0.9796 -0.0721 -0.0599
  269MPD2    H7 4130   0.971   3.719  15.666  2.2245  0.8886 -3.4101
  270TMC3    C1 4131   0.740   3.668  15.726  0.1591  0.3818 -0.0229
  270TMC3    C2 4132   0.612   3.637  15.688  0.0875 -0.4537  0.5002
  270TMC3    C3 4133   0.582   3.500  15.689  0.3146  0.6108  0.5789
  270TMC3    C4 4134   0.836   3.576  15.762  0.7311  0.4637 -0.2931
  270TMC3    C5 4135   0.791   3.450  15.778  0.2631 -0.4033 -0.5471
  270TMC3    C6 4136   0.665   3.407  15.749  0.0252 -1.4871  0.0949
  270TMC3     C 4137   0.785   3.801  15.691 -0.2509  0.0219 -0.4975
  270TMC3     O 4138   0.705   3.893  15.699 -0.2443 -0.5084 -0.2920
  270TMC3     H 4139   0.553   3.714  15.641  1.7471 -1.2714 -2.8907
  270TMC3    H1 4140   0.941   3.597  15.776  0.8319  1.3374 -2.2864
  270TMC3    H2 4141   0.647   3.300  15.744 -0.9623 -1.3706  1.2290
  270TMC3    C7 4142   0.895   3.350  15.763 -0.0335 -0.1604  0.4555
  270TMC3    C8 4143   0.531   3.448  15.561 -0.5763  1.0452 -0.0122
  270TMC3    O1 4144   1.001   3.370  15.816  0.0115 -0.1545  0.2453
  270TMC3    O2 4145   0.564   3.340  15.522  0.0147 -0.2830 -0.1352
  271MPD2     C 4146   0.191   3.793  14.003 -0.0345 -0.5739 -0.6220
  271MPD2    C1 4147   0.128   3.699  14.080 -0.1980  0.1442  0.3047
  271MPD2    C2 4148   4.733   3.659  14.040  0.2591 -0.1118 -0.2230
  271MPD2    C3 4149   4.661   3.728  13.943  0.4082  0.5250 -0.9109
  271MPD2    C4 4150   4.727   3.828  13.885  0.0258  0.3626 -0.0906
  271MPD2    C5 4151   0.114   3.863  13.920  0.0348  0.2072  0.0527
  271MPD2     H 4152   4.684   3.591  14.109 -1.6454  0.4957 -1.0125
  271MPD2    H1 4153   4.674   3.893  13.816 -0.4450  1.0816  0.9483
  271MPD2    H2 4154   0.294   3.821  14.022 -0.0338  0.4710 -2.1650
  271MPD2    H3 4155   0.150   3.958  13.881 -0.1729 -0.7507 -2.4929
  271MPD2     N 4156   4.527   3.712  13.917  0.3753  0.0635  0.2276
  271MPD2    H5 4157   4.485   3.783  13.857  0.9664 -3.0189 -3.8258
  271MPD2    N1 4158   0.186   3.635  14.193 -0.2147 -0.0974 -0.3587
  271MPD2    H7 4159   0.141   3.552  14.230 -0.3421 -0.1327 -0.5957
  272TMC3    C1 4160   0.343   3.565  14.347 -0.2589 -0.6688  0.1831
  272TMC3    C2 4161   0.465   3.508  14.333 -0.0301  0.0227 -0.4891
  272TMC3    C3 4162   0.513   3.426  14.432 -0.6537  0.3300  0.2583
  272TMC3    C4 4163   0.276   3.584  14.462  0.0175 -0.4433  0.1993
  272TMC3    C5 4164   0.337   3.510  14.564 -0.4774  0.1125  0.7586
  272TMC3    C6 4165   0.444   3.420  14.552  0.4769  0.6616  0.6570
  272TMC3     C 4166   0.314   3.661  14.240  0.4705  0.0514 -0.4815
  272TMC3     O 4167   0.409   3.712  14.178 -0.1559 -0.2631  0.9779
  272TMC3     H 4168   0.525   3.511  14.242  0.2364 -2.5575 -0.4073
  272TMC3    H1 4169   0.201   3.660  14.480  0.3574  0.1002 -0.6843
  272TMC3    H2 4170   0.474   3.362  14.639  2.6330  0.1793 -0.4126
  272TMC3    C7 4171   0.324   3.564  14.702  0.2553 -0.6219  0.3666
  272TMC3    C8 4172   0.621   3.343  14.402 -0.0095 -0.6460  0.4163
  272TMC3    O1 4173   0.394   3.499  14.782 -0.5039 -0.6623 -0.7273
  272TMC3    O2 4174   0.692   3.367  14.303  0.2552 -0.0836 -0.5066
  273MPD2     C 4175   2.569   1.220  11.920 -0.2460  0.0118 -0.0130
  273MPD2    C1 4176   2.471   1.295  11.984  0.4161  0.7613  0.1042
  273MPD2    C2 4177   2.351   1.238  12.023 -0.5394  0.3631  0.1085
  273MPD2    C3 4178   2.325   1.107  11.992  0.1424  0.1868 -0.0698
  273MPD2    C4 4179   2.427   1.034  11.939 -0.2217  0.0610 -1.1183
  273MPD2    C5 4180   2.548   1.089  11.909  0.3814  0.1965 -0.3983
  273MPD2     H 4181   2.282   1.310  12.066  0.7019  1.1306  0.8085
  273MPD2    H1 4182   2.409   0.929  11.923 -0.7634 -0.3113  1.8817
  273MPD2    H2 4183   2.665   1.267  11.901 -0.5262  0.4366 -0.3883
  273MPD2    H3 4184   2.630   1.020  11.888 -0.1361  0.3419 -2.8477
  273MPD2     N 4185   2.200   1.041  12.011  0.3112  0.3407  0.1253
  273MPD2    H5 4186   2.188   0.943  11.987  0.7844  0.6677 -1.4813
  273MPD2    N1 4187   2.503   1.434  12.005 -0.5843 -0.2052 -0.2177
  273MPD2    H7 4188   2.596   1.459  11.975 -1.0471 -0.3567 -1.7594
  274TMC3    C1 4189   1.970   1.014  12.059 -0.8105 -0.5839  0.5372
  274TMC3    C2 4190   1.942   0.952  11.941  0.4280  0.4267 -0.0079
  274TMC3    C3 4191   1.810   0.921  11.923  0.2428  0.1510 -0.7334
  274TMC3    C4 4192   1.873   1.033  12.153  0.1042 -0.1145 -0.2736
  274TMC3    C5 4193   1.745   1.011  12.128 -0.1656 -0.1271  0.0019
  274TMC3    C6 4194   1.717   0.934  12.021  0.0490 -0.2533  0.2774
  274TMC3     C 4195   2.091   1.099  12.072 -0.2868 -0.2646  0.2529
  274TMC3     O 4196   2.088   1.203  12.133 -0.7575 -0.0720 -0.3458
  274TMC3     H 4197   2.021   0.943  11.867  0.5328  1.8790 -0.0685
  274TMC3    H1 4198   1.906   1.110  12.221 -0.3801  2.1033 -2.5518
  274TMC3    H2 4199   1.611   0.930  11.995  0.1955  2.0185 -0.7329
  274TMC3    C7 4200   1.664   1.132  12.140  0.0237  0.2912 -0.3705
  274TMC3    C8 4201   1.761   0.967  11.798 -0.9252 -0.1828  0.4368
  274TMC3    O1 4202   1.724   1.242  12.134 -0.5328  0.1420 -0.3430
  274TMC3    O2 4203   1.644   0.994  11.788  0.7079  0.1251 -0.0074
  275MPD2     C 4204   2.016   4.674  14.590  0.0285 -0.1196  0.3862
  275MPD2    C1 4205   1.954   4.670  14.714 -0.4111 -0.1069  0.4154
  275MPD2    C2 4206   1.836   4.603  14.733  0.3414  0.0685  0.2864
  275MPD2    C3 4207   1.786   4.521  14.630 -0.7569 -0.3670 -0.7604
  275MPD2    C4 4208   1.841   4.530  14.507  0.6432  0.6227  0.5397
  275MPD2    C5 4209   1.959   4.600  14.490  0.0166 -0.7767  0.1203
  275MPD2     H 4210   1.795   4.595  14.833  0.9458 -1.2553  0.4271
  275MPD2    H1 4211   1.817   4.464  14.424 -2.1151  1.3239  0.8130
  275MPD2    H2 4212   2.109   4.726  14.575  0.9265 -2.2044 -1.1676
  275MPD2    H3 4213   2.008   4.601  14.393  0.5943  0.6674  0.4275
  275MPD2     N 4214   1.678   4.426  14.661 -0.1521  0.1287 -0.7032
  275MPD2    H5 4215   1.672   4.396  14.758 -0.0107 -1.5132 -1.2144
  275MPD2    N1 4216   2.005   4.732  14.827  0.0280  0.2141  0.0202
  275MPD2    H7 4217   1.961   4.707  14.915 -1.0036  0.0295 -0.5509
  276TMC3    C1 4218   2.146   0.070  14.986 -0.1168  0.2529  0.4503
  276TMC3    C2 4219   2.031   0.054  15.059 -0.1724  0.1255 -0.0961
  276TMC3    C3 4220   2.032   4.703  15.162  0.1985  0.4395  0.1835
  276TMC3    C4 4221   2.266   0.014  15.028 -0.1417  0.3651 -1.2520
  276TMC3    C5 4222   2.265   4.675  15.141  0.5042  0.0114 -0.4043
  276TMC3    C6 4223   2.149   4.648  15.204 -0.7674 -0.3790 -0.1522
  276TMC3     C 4224   2.122   0.064  14.842 -0.6332  0.0367  0.3619
  276TMC3     O 4225   2.219   0.065  14.776 -0.3330  0.0066 -0.1552
  276TMC3     H 4226   1.939   0.106  15.035 -0.5611 -1.3631 -1.7910
  276TMC3    H1 4227   2.355   0.042  14.973 -0.1656  1.9579 -0.4729
  276TMC3    H2 4228   2.151   4.591  15.296 -2.5415  0.0016  0.1229
  276TMC3    C7 4229   2.378   4.702  15.227 -0.5781 -0.2745 -0.0242
  276TMC3    C8 4230   1.910   4.621  15.170 -0.4491  1.0253  0.3645
  276TMC3    O1 4231   2.341   4.720  15.342  0.1190 -0.3119  0.3928
  276TMC3    O2 4232   1.814   4.658  15.103 -0.2575 -0.2164  0.2026
  277MPD2     C 4233   4.105   3.126  13.389 -0.0974 -0.6032 -0.6632
  277MPD2    C1 4234   4.027   3.199  13.473  0.0732 -0.6185 -0.1498
  277MPD2    C2 4235   3.983   3.139  13.590  0.1659  0.0931  0.7173
  277MPD2    C3 4236   4.007   3.007  13.619 -0.1037 -0.4926 -0.3633
  277MPD2    C4 4237   4.077   2.933  13.524  0.6734  0.3077  0.1429
  277MPD2    C5 4238   4.126   2.995  13.412 -0.1291 -1.0108 -0.1128
  277MPD2     H 4239   3.921   3.194  13.660  1.5119  1.1291  1.0844
  277MPD2    H1 4240   4.096   2.828  13.545  0.7345  0.2655 -0.1249
  277MPD2    H2 4241   4.144   3.176  13.302  1.9959 -2.1519 -0.6183
  277MPD2    H3 4242   4.188   2.933  13.348  0.3544 -1.4264  0.7505
  277MPD2     N 4243   3.944   2.966  13.739  1.0551 -0.0585 -1.1338
  277MPD2    H5 4244   3.898   3.032  13.801  0.8022 -1.6554  0.3933
  277MPD2    N1 4245   3.989   3.333  13.438  0.5334 -0.3314  0.4685
  277MPD2    H7 4246   3.999   3.368  13.343  0.7200 -2.0645 -0.1489
  278TMC3    C1 4247   3.821   2.819  13.873  0.4504  0.7300  0.1077
  278TMC3    C2 4248   3.823   2.744  13.986  0.2823  0.2933  0.1468
  278TMC3    C3 4249   3.708   2.731  14.056 -0.1302 -0.1852  0.0313
  278TMC3    C4 4250   3.716   2.897  13.837 -0.1224 -0.1023 -0.3037
  278TMC3    C5 4251   3.598   2.877  13.909  0.4961 -0.3796 -0.3108
  278TMC3    C6 4252   3.599   2.800  14.022 -0.0378  0.8095  0.3012
  278TMC3     C 4253   3.943   2.837  13.785 -0.0461 -0.4050 -0.2819
  278TMC3     O 4254   4.023   2.743  13.787 -0.2358 -0.4234  0.2702
  278TMC3     H 4255   3.904   2.676  14.010  0.4868  0.4624 -0.0792
  278TMC3    H1 4256   3.723   2.954  13.745 -1.5885 -0.1271 -0.4282
  278TMC3    H2 4257   3.508   2.789  14.081  1.7550 -0.7337  2.7745
  278TMC3    C7 4258   3.506   2.997  13.914  0.8349 -0.1094  0.7502
  278TMC3    C8 4259   3.679   2.628  14.156  0.2881 -0.2893  0.2488
  278TMC3    O1 4260   3.562   3.093  13.870  0.1867 -0.5092 -0.5030
  278TMC3    O2 4261   3.778   2.588  14.216  0.1056  0.0202  0.0565
  279MPD2     C 4262   2.573   3.459   0.409  0.7234  0.0502 -0.2820
  279MPD2    C1 4263   2.528   3.351   0.338 -0.0629  0.3665 -0.2565
  279MPD2    C2 4264   2.610   3.273   0.262 -0.0171 -0.4293  0.3821
  279MPD2    C3 4265   2.742   3.315   0.245  0.6737  0.4692  0.0996
  279MPD2    C4 4266   2.791   3.425   0.319  0.7808 -0.1755  0.1856
  279MPD2    C5 4267   2.704   3.494   0.403  0.2378 -0.5247 -0.4385
  279MPD2     H 4268   2.576   3.192   0.198 -2.1198  0.0038  0.9619
  279MPD2    H1 4269   2.891   3.465   0.306  1.6201 -1.7660  1.6997
  279MPD2    H2 4270   2.506   3.525   0.463  2.3774  0.8863  0.7310
  279MPD2    H3 4271   2.727   3.587   0.455 -1.6580 -0.4944  0.3707
  279MPD2     N 4272   2.839   3.254   0.155 -0.5213  0.7622 -0.0305
  279MPD2    H5 4273   2.929   3.301   0.155 -0.6044  0.9274  0.6404
  279MPD2    N1 4274   2.392   3.321   0.336  0.2080 -0.2596  0.4505
  279MPD2    H7 4275   2.332   3.392   0.377  0.4481  0.7701 -0.9770
  280TMC3    C1 4276   2.193   3.230   0.269  0.4165 -0.0297 -0.5317
  280TMC3    C2 4277   2.135   3.119   0.229  0.0114 -0.0040 -0.4476
  280TMC3    C3 4278   2.021   3.134   0.155  0.7137  0.1621  0.4068
  280TMC3    C4 4279   2.143   3.353   0.240 -0.2843  0.2944  0.8598
  280TMC3    C5 4280   2.041   3.359   0.162 -0.6305  0.1034 -0.2589
  280TMC3    C6 4281   1.978   3.252   0.105 -0.1200 -0.2202 -0.1206
  280TMC3     C 4282   2.333   3.205   0.289 -0.1562 -0.3120 -0.2138
  280TMC3     O 4283   2.381   3.097   0.256  1.1481  0.0821 -0.1283
  280TMC3     H 4284   2.178   3.026   0.264 -0.2778 -0.5068 -1.4214
  280TMC3    H1 4285   2.187   3.438   0.289  3.0763  0.4077 -2.3729
  280TMC3    H2 4286   1.880   3.259   0.060  0.4346 -0.5083 -1.3652
  280TMC3    C7 4287   2.003   3.497   0.134  0.1914  1.1231 -0.6836
  280TMC3    C8 4288   1.941   3.009   0.134 -0.0090 -0.0431  0.4560
  280TMC3    O1 4289   2.076   3.582   0.185 -0.2505  0.3676 -0.4207
  280TMC3    O2 4290   1.870   3.005   0.036 -0.1133  0.4084  0.0164
  281TMC3    C1 4291   2.041   3.717  13.460  0.2745 -0.5057  0.0043
  281TMC3    C2 4292   2.139   3.796  13.405 -0.7960 -0.1279 -0.2951
  281TMC3    C3 4293   2.191   3.754  13.281 -0.1375  0.1320 -0.3692
  281TMC3    C4 4294   2.003   3.598  13.409  0.1220 -0.4588  0.0879
  281TMC3    C5 4295   2.058   3.551  13.288 -0.1712 -0.2033 -0.0220
  281TMC3    C6 4296   2.150   3.633  13.220  0.7506 -0.0267 -0.7786
  281TMC3     C 4297   1.960   3.767  13.568 -0.0531 -0.5968  0.1562
  281TMC3     O 4298   1.903   3.687  13.640 -0.2749 -0.0217 -0.7398
  281TMC3     H 4299   2.161   3.892  13.451 -0.2617 -0.5388  0.3086
  281TMC3    H1 4300   1.916   3.548  13.450 -0.2793 -0.1292 -0.3754
  281TMC3    H2 4301   2.173   3.612  13.116  0.4965 -0.3774 -0.7651
  281TMC3    C7 4302   2.042   3.410  13.248 -0.2241  0.2498 -0.0985
  281TMC3    C8 4303   2.300   3.832  13.225 -0.0017 -0.5625 -0.9571
  281TMC3    O1 4304   2.111   3.368  13.156  0.5734 -0.2810  0.3594
  281TMC3    O2 4305   2.388   3.766  13.172  0.1628 -0.4606  0.1823
  282MPD2     C 4306   3.333   0.337  15.453  0.0508 -0.2390  0.1236
  282MPD2    C1 4307   3.210   0.371  15.502 -0.9590 -0.1702  0.6531
  282MPD2    C2 4308   3.102   0.379  15.412  0.2571 -0.3382  0.5786
  282MPD2    C3 4309   3.126   0.356  15.278 -0.5900 -0.6533  0.1774
  282MPD2    C4 4310   3.254   0.320  15.241 -0.7681  0.1094  0.5069
  282MPD2    C5 4311   3.355   0.302  15.327  0.4476  0.5539  0.0317
  282MPD2     H 4312   3.002   0.403  15.448 -0.8786 -2.4789 -1.1525
  282MPD2    H1 4313   3.276   0.315  15.135  0.3467 -1.0330  0.8055
  282MPD2    H2 4314   3.425   0.338  15.511 -1.0761 -1.7314  1.9215
  282MPD2    H3 4315   3.453   0.264  15.300 -0.2063  1.5912 -3.8297
  282MPD2     N 4316   3.010   0.363  15.193  0.2248  0.2247 -0.1454
  282MPD2    H5 4317   2.927   0.397  15.239  1.5887  1.2887  1.5309
  282MPD2    N1 4318   3.185   0.391  15.638 -0.3302  0.0429 -0.4971
  282MPD2    H7 4319   3.096   0.429  15.669  0.1121  1.2216 -0.6536
  283TMC3    C1 4320   3.199   0.347  15.865 -0.2616 -0.5903 -0.5539
  283TMC3    C2 4321   3.150   0.469  15.890 -0.0050  0.4341 -1.2298
  283TMC3    C3 4322   3.116   0.504  16.016  0.2711 -0.1004  0.1178
  283TMC3    C4 4323   3.194   0.238  15.958  0.4800 -0.5695  0.7238
  283TMC3    C5 4324   3.139   0.272  16.082  0.5755  0.1606  0.2442
  283TMC3    C6 4325   3.123   0.403  16.113 -0.4833  0.1318  0.3372
  283TMC3     C 4326   3.260   0.336  15.738  0.0044 -0.3764  0.1539
  283TMC3     O 4327   3.353   0.257  15.735 -0.2723  0.4664 -0.4922
  283TMC3     H 4328   3.167   0.547  15.818 -1.9043  0.3081 -1.8282
  283TMC3    H1 4329   3.240   0.143  15.931  1.8045  0.2143  0.1896
  283TMC3    H2 4330   3.099   0.427  16.216 -1.3919 -1.2967  0.4560
  283TMC3    C7 4331   3.048   0.175  16.133  0.7227 -0.2151  0.7278
  283TMC3    C8 4332   3.049   0.624  16.050 -0.0771 -0.1086 -0.4826
  283TMC3    O1 4333   2.990   0.218  16.232 -0.3612 -0.5682  0.3042
  283TMC3    O2 4334   3.046   0.654  16.167 -0.1819 -0.2245 -0.3680
  284MPD2     C 4335   2.061   4.402  12.442  0.5450 -0.0681 -0.3166
  284MPD2    C1 4336   2.037   4.267  12.430  0.2085 -0.5743 -0.2428
  284MPD2    C2 4337   2.146   4.182  12.438  0.2281 -0.0573  0.7847
  284MPD2    C3 4338   2.271   4.229  12.482  0.1453 -0.1765  0.7862
  284MPD2    C4 4339   2.295   4.362  12.498  1.0008 -0.0605 -0.3311
  284MPD2    C5 4340   2.187   4.449  12.469  0.3529 -0.3150 -0.1659
  284MPD2     H 4341   2.137   4.074  12.429  0.3235 -0.1120  1.3311
  284MPD2    H1 4342   2.395   4.401  12.509 -0.0510  2.2159  1.1706
  284MPD2    H2 4343   1.987   4.476  12.417  0.0214 -0.1927  0.8865
  284MPD2    H3 4344   2.199   4.556  12.463  0.5758 -0.2953  0.6205
  284MPD2     N 4345   2.367   4.133  12.498  0.6116  0.1754 -0.7240
  284MPD2    H5 4346   2.349   4.039  12.464  0.1041 -0.3316  0.9540
  284MPD2    N1 4347   1.903   4.218  12.412 -0.3472 -0.5846  0.3303
  284MPD2    H7 4348   1.900   4.117  12.399 -4.8354 -0.3283 -0.4164
  285TMC3    C1 4349   1.671   4.203  12.374  0.0800 -0.1956 -0.1803
  285TMC3    C2 4350   1.664   4.068  12.398 -0.9035 -0.2463 -0.4652
  285TMC3    C3 4351   1.583   3.991  12.315  0.1674  0.3555  0.6123
  285TMC3    C4 4352   1.575   4.265  12.298 -0.2961 -0.1221 -0.4600
  285TMC3    C5 4353   1.492   4.190  12.215  0.0363  0.1614  0.4151
  285TMC3    C6 4354   1.496   4.049  12.223  0.3115 -0.0174  0.2881
  285TMC3     C 4355   1.785   4.285  12.399 -0.3474  0.5704 -0.3808
  285TMC3     O 4356   1.766   4.402  12.400  0.0196  0.4786 -0.3125
  285TMC3     H 4357   1.741   4.015  12.452 -0.2435 -0.0557 -1.2105
  285TMC3    H1 4358   1.559   4.373  12.297 -2.5714 -0.4424  0.7135
  285TMC3    H2 4359   1.453   3.983  12.148  2.2714  0.0205 -0.8835
  285TMC3    C7 4360   1.410   4.252  12.115  0.1357  0.3381  0.0748
  285TMC3    C8 4361   1.606   3.842  12.322  0.2995 -0.0502 -0.1878
  285TMC3    O1 4362   1.428   4.371  12.098 -0.5623  0.0103 -0.1181
  285TMC3    O2 4363   1.600   3.776  12.220 -0.0060 -0.1190  0.2728
  286MPD2     C 4364   2.064   3.269   1.523 -0.4906  0.1314  0.1421
  286MPD2    C1 4365   1.957   3.212   1.471  0.5100  0.3763  0.6650
  286MPD2    C2 4366   1.966   3.091   1.408 -0.2681  0.2203  0.4448
  286MPD2    C3 4367   2.095   3.035   1.398  0.1368 -0.8484 -0.2391
  286MPD2    C4 4368   2.206   3.097   1.451  0.5882 -0.8249 -0.0283
  286MPD2    C5 4369   2.185   3.217   1.511 -0.0063  0.0154 -0.0279
  286MPD2     H 4370   1.884   3.039   1.360 -1.0832  0.9594  1.0505
  286MPD2    H1 4371   2.308   3.061   1.438  1.2527 -0.6447  4.4977
  286MPD2    H2 4372   2.057   3.367   1.569  0.9953 -1.3908  3.5946
  286MPD2    H3 4373   2.270   3.276   1.545 -0.9503  0.3529  1.7515
  286MPD2     N 4374   2.121   2.916   1.326  0.5925  0.3384  0.2832
  286MPD2    H5 4375   2.216   2.881   1.328 -0.1607 -1.7104 -0.2379
  286MPD2    N1 4376   1.827   3.265   1.487  0.1444 -0.2053 -0.4299
  286MPD2    H7 4377   1.749   3.242   1.426  0.1626 -1.5082  0.0339
  287TMC3    C1 4378   2.087   2.719   1.195 -0.4034  0.5631 -0.2627
  287TMC3    C2 4379   1.998   2.616   1.170  0.1083 -0.2880 -0.3505
  287TMC3    C3 4380   2.040   2.489   1.143  0.0569  0.0402  0.0623
  287TMC3    C4 4381   2.220   2.695   1.182 -0.0493 -0.0225  0.3158
  287TMC3    C5 4382   2.258   2.569   1.146  0.4369 -0.5587  0.4725
  287TMC3    C6 4383   2.173   2.459   1.132  0.6613 -0.0553 -0.3303
  287TMC3     C 4384   2.029   2.836   1.264  0.8521 -0.3916 -0.3016
  287TMC3     O 4385   1.908   2.846   1.270 -0.4768  0.2676  0.3147
  287TMC3     H 4386   1.894   2.641   1.184  0.4558  1.1087 -0.2695
  287TMC3    H1 4387   2.288   2.780   1.186  1.6087 -1.3241 -0.0765
  287TMC3    H2 4388   2.210   2.368   1.087  2.5765  0.2216  0.7280
  287TMC3    C7 4389   2.395   2.525   1.152 -0.0203 -0.0413  0.1085
  287TMC3    C8 4390   1.953   2.404   1.067  0.3669  0.4113  0.0602
  287TMC3    O1 4391   2.418   2.409   1.180  0.3099  1.0385 -0.5151
  287TMC3    O2 4392   1.997   2.292   1.040 -0.3814  0.6182 -0.0636
  288TMC3    C1 4393   3.917   2.708  14.612 -0.4826 -1.3772 -0.1297
  288TMC3    C2 4394   3.783   2.717  14.628  0.4499  0.0773  0.1217
  288TMC3    C3 4395   3.701   2.777  14.534  0.8037  0.3667  0.2954
  288TMC3    C4 4396   3.977   2.761  14.502  0.6660  0.1162 -0.1168
  288TMC3    C5 4397   3.893   2.830  14.416 -0.5458  1.0767 -0.2725
  288TMC3    C6 4398   3.758   2.832  14.428  0.2402 -0.3159 -0.2541
  288TMC3     C 4399   4.003   2.674  14.728  0.7865 -0.3857 -0.4486
  288TMC3     O 4400   4.117   2.720  14.730 -0.1482  0.6003  0.5714
  288TMC3     H 4401   3.744   2.701  14.728 -0.8110  1.1097 -0.2001
  288TMC3    H1 4402   4.083   2.754  14.483  0.7257  0.6703  0.0075
  288TMC3    H2 4403   3.701   2.892  14.357  0.0047  2.5035  2.3348
  288TMC3    C7 4404   3.956   2.885  14.295  0.4098  0.2301  0.2760
  288TMC3    C8 4405   3.593   2.848  14.596  0.3442 -0.0895 -0.4885
  288TMC3    O1 4406   4.072   2.851  14.279 -0.5124  0.3379 -0.0029
  288TMC3    O2 4407   3.610   2.970  14.590 -0.1093 -0.4272 -0.0069
  289MPD2     C 4408   3.360   1.988  15.162  0.4209  0.0681  0.3918
  289MPD2    C1 4409   3.434   2.008  15.041  0.2657 -0.1057 -0.7452
  289MPD2    C2 4410   3.373   1.971  14.924 -0.0201  0.6540 -0.5691
  289MPD2    C3 4411   3.243   1.916  14.926  0.0067  0.3000 -0.1019
  289MPD2    C4 4412   3.184   1.880  15.044  0.5051 -0.1320 -0.3436
  289MPD2    C5 4413   3.240   1.919  15.161  0.6379 -0.1634  0.4886
  289MPD2     H 4414   3.425   1.995  14.832 -0.1669  1.5666 -0.4156
  289MPD2    H1 4415   3.088   1.829  15.047 -1.1817  3.0503  0.5319
  289MPD2    H2 4416   3.399   2.013  15.260  0.4491  0.3088  0.3183
  289MPD2    H3 4417   3.188   1.893  15.252 -0.7209 -0.1565 -0.2907
  289MPD2     N 4418   3.166   1.884  14.812 -0.0685 -0.4032  0.5815
  289MPD2    H5 4419   3.087   1.824  14.834  0.4774 -1.4961 -0.4249
  289MPD2    N1 4420   3.570   2.059  15.054  0.4520  1.2675 -0.4346
  289MPD2    H7 4421   3.604   2.088  15.145  0.7520  2.6023 -0.9723
  290TMC3    C1 4422   3.093   1.878  14.588  0.9242  0.3053 -0.1433
  290TMC3    C2 4423   3.081   1.966  14.483  0.6969 -0.0983  0.1416
  290TMC3    C3 4424   2.972   1.943  14.400  0.0103 -0.9623 -0.0116
  290TMC3    C4 4425   2.997   1.783  14.614  0.6231  0.3356 -0.0709
  290TMC3    C5 4426   2.879   1.785  14.544  0.1638  0.2990  0.0385
  290TMC3    C6 4427   2.870   1.859  14.429 -0.2750 -0.0450 -0.1066
  290TMC3     C 4428   3.190   1.926  14.685 -0.1731 -0.1717 -0.3472
  290TMC3     O 4429   3.281   1.993  14.633  1.0324  0.1202  0.1809
  290TMC3     H 4430   3.160   2.035  14.457 -0.5758  1.5682  0.7119
  290TMC3    H1 4431   3.014   1.711  14.693  1.8339  0.4792 -0.1872
  290TMC3    H2 4432   2.780   1.861  14.369  0.2522 -0.8050 -0.9255
  290TMC3    C7 4433   2.802   1.659  14.548 -0.2450 -0.2040  0.5216
  290TMC3    C8 4434   2.949   2.040  14.288 -0.1541 -0.4545  0.3356
  290TMC3    O1 4435   2.829   1.573  14.630 -0.7572  0.6024 -0.3319
  290TMC3    O2 4436   2.873   2.009  14.199 -0.1431 -0.0845 -0.2848
  291MPD2     C 4437   2.376   2.266   0.477  0.8087 -0.4466  0.0918
  291MPD2    C1 4438   2.424   2.177   0.378 -0.6415 -0.2028  0.0913
  291MPD2    C2 4439   2.515   2.231   0.285  0.8190 -0.8125  0.3377
  291MPD2    C3 4440   2.571   2.359   0.304  0.5134  0.4874 -0.3893
  291MPD2    C4 4441   2.523   2.436   0.400 -0.0281  0.1059  0.2499
  291MPD2    C5 4442   2.420   2.393   0.480  0.3069  0.4544  0.0944
  291MPD2     H 4443   2.567   2.161   0.220 -1.6944 -2.4407  0.0326
  291MPD2    H1 4444   2.569   2.534   0.405  0.4376 -0.1679  1.2414
  291MPD2    H2 4445   2.311   2.227   0.555 -1.7225  2.5601 -0.5085
  291MPD2    H3 4446   2.389   2.460   0.560 -1.5291 -1.8752  1.3426
  291MPD2     N 4447   2.684   2.405   0.232 -0.2376  0.5423 -1.3399
  291MPD2    H5 4448   2.716   2.495   0.265 -2.0238  0.7719 -0.2295
  291MPD2    N1 4449   2.381   2.039   0.389 -0.2257  0.4960  0.4176
  291MPD2    H7 4450   2.344   2.006   0.478 -2.3953  0.3847 -0.5272
  292TMC3    C1 4451   2.376   1.799   0.362 -0.2800  0.3949 -0.1373
  292TMC3    C2 4452   2.276   1.801   0.462 -0.1373 -0.1630 -0.4610
  292TMC3    C3 4453   2.210   1.678   0.482 -0.2074 -0.2972 -0.6914
  292TMC3    C4 4454   2.388   1.704   0.267  0.3267  0.5756 -0.3267
  292TMC3    C5 4455   2.312   1.594   0.282  0.6442 -0.2980  0.2531
  292TMC3    C6 4456   2.227   1.579   0.391  0.2072  0.1993  0.1059
  292TMC3     C 4457   2.426   1.931   0.315  0.4975 -0.0640 -0.2547
  292TMC3     O 4458   2.494   1.931   0.214 -0.0446  0.5401  0.6198
  292TMC3     H 4459   2.265   1.885   0.530 -1.4160 -0.0197 -0.8327
  292TMC3    H1 4460   2.456   1.708   0.183 -0.4453  1.5306 -0.9070
  292TMC3    H2 4461   2.175   1.484   0.393  0.9225 -0.1849  0.5714
  292TMC3    C7 4462   2.358   1.473   0.216 -0.0757 -0.0085  0.6640
  292TMC3    C8 4463   2.105   1.684   0.582 -0.2475 -0.0832 -0.1696
  292TMC3    O1 4464   2.296   1.424   0.119 -0.0528 -0.3006  0.0623
  292TMC3    O2 4465   2.089   1.786   0.642 -0.2835 -0.7743  0.4128
  293MPD2     C 4466   0.043   3.243  12.573 -0.1901  0.3502 -0.0914
  293MPD2    C1 4467   4.730   3.176  12.679 -0.2376 -0.7345 -0.8812
  293MPD2    C2 4468   4.734   3.246  12.801 -0.3548  0.7274 -0.0291
  293MPD2    C3 4469   0.050   3.367  12.829 -0.0182  0.1548 -0.2234
  293MPD2    C4 4470   0.099   3.431  12.723  0.0674  0.3399  0.0881
  293MPD2    C5 4471   0.088   3.372  12.595 -0.4148 -0.8344  0.2923
  293MPD2     H 4472   4.711   3.188  12.890  2.7298  1.5938  1.3458
  293MPD2    H1 4473   0.148   3.527  12.710  0.0041  0.4007  0.3017
  293MPD2    H2 4474   0.033   3.211  12.470  0.8336  1.3708 -0.5179
  293MPD2    H3 4475   0.127   3.428  12.511 -0.9729 -1.1123 -0.1533
  293MPD2     N 4476   0.053   3.411  12.967 -0.3088  0.0014 -0.3672
  293MPD2    H5 4477   0.023   3.349  13.041  0.1621 -0.4015 -0.5069
  293MPD2    N1 4478   4.679   3.043  12.657  0.0766  0.0736  0.0155
  293MPD2    H7 4479   4.673   3.001  12.565 -0.0594 -0.4537  0.2648
  294TMC3    C1 4480   4.573   2.841  12.715  0.3887 -0.3694 -0.4086
  294TMC3    C2 4481   4.589   2.742  12.809 -0.4763  0.2535  0.2662
  294TMC3    C3 4482   4.572   2.610  12.769  0.2470 -0.1980  0.0807
  294TMC3    C4 4483   4.521   2.815  12.590 -0.5744 -0.7732 -0.1971
  294TMC3    C5 4484   4.492   2.687  12.562  0.4811  0.0338  0.4007
  294TMC3    C6 4485   4.516   2.585  12.644 -0.1977 -0.1845  0.3073
  294TMC3     C 4486   4.614   2.969  12.754 -0.2057  0.2600  0.1421
  294TMC3     O 4487   4.585   3.002  12.867 -0.3726  0.0679 -0.4603
  294TMC3     H 4488   4.633   2.770  12.904 -1.2819  0.7278  0.4984
  294TMC3    H1 4489   4.491   2.900  12.530  1.6947 -0.9232 -1.5469
  294TMC3    H2 4490   4.491   2.485  12.611  1.1393 -0.0296 -1.1756
  294TMC3    C7 4491   4.438   2.652  12.436 -0.0078  0.1791 -0.1124
  294TMC3    C8 4492   4.650   2.514  12.844  0.0122 -0.0892  0.7821
  294TMC3    O1 4493   4.387   2.540  12.433 -0.4547  0.1252  0.4365
  294TMC3    O2 4494   4.685   2.541  12.962  0.3583 -0.0923  0.8050
  295MPD2     C 4495   0.544   1.849   1.007 -0.5171 -0.6064 -0.5488
  295MPD2    C1 4496   0.422   1.844   1.073 -0.1013  0.6730  0.3685
  295MPD2    C2 4497   0.395   1.750   1.171 -1.0275  0.1849  0.1922
  295MPD2    C3 4498   0.495   1.654   1.200 -0.1013  0.1651  0.1157
  295MPD2    C4 4499   0.609   1.656   1.125  0.1850 -0.4950  0.4908
  295MPD2    C5 4500   0.638   1.748   1.030  0.4690 -1.3953 -0.1096
  295MPD2     H 4501   0.296   1.754   1.214 -1.9864  0.0284 -1.9617
  295MPD2    H1 4502   0.692   1.589   1.144  0.8217 -0.2824 -1.4395
  295MPD2    H2 4503   0.568   1.917   0.926  0.9064  0.8405  1.0994
  295MPD2    H3 4504   0.724   1.725   0.970  0.5115  0.7883 -0.8903
  295MPD2     N 4505   0.491   1.565   1.306  0.5032  0.6928 -0.0808
  295MPD2    H5 4506   0.564   1.495   1.315  0.3220  0.5644  0.4060
  295MPD2    N1 4507   0.319   1.934   1.036  0.1379 -0.0993  0.0836
  295MPD2    H7 4508   0.223   1.917   1.065 -0.5094  1.7113 -1.0028
  296TMC3    C1 4509   0.398   1.450   1.485  0.0070  0.2430  0.2598
  296TMC3    C2 4510   0.305   1.450   1.588 -0.5514 -0.4766 -1.0614
  296TMC3    C3 4511   0.281   1.334   1.655 -0.8031  0.9039 -0.8218
  296TMC3    C4 4512   0.456   1.339   1.436  0.4980  1.1751 -0.0729
  296TMC3    C5 4513   0.428   1.227   1.509  0.5400  0.3436 -0.3844
  296TMC3    C6 4514   0.352   1.220   1.623 -0.1550 -0.0987  0.6745
  296TMC3     C 4515   0.394   1.569   1.405 -0.2609 -0.2318  0.0915
  296TMC3     O 4516   0.325   1.666   1.429 -0.0164  0.1760  0.1954
  296TMC3     H 4517   0.241   1.537   1.605 -0.2803 -0.2979 -0.9515
  296TMC3    H1 4518   0.492   1.327   1.334  0.7412 -2.1957  0.4248
  296TMC3    H2 4519   0.331   1.128   1.676 -1.8638  0.2048  0.5199
  296TMC3    C7 4520   0.487   1.103   1.452  0.1081  0.5006  0.6119
  296TMC3    C8 4521   0.206   1.335   1.789  0.5730 -0.3840  0.2307
  296TMC3    O1 4522   0.584   1.120   1.381  0.5225 -0.0034 -0.0503
  296TMC3    O2 4523   0.172   1.227   1.829  0.0014  0.2639  0.7930
  297MPD2     C 4524   2.176   3.721  16.481 -0.5812 -0.3923  0.2092
  297MPD2    C1 4525   2.174   3.797  16.363  0.4385  0.0584  0.0794
  297MPD2    C2 4526   2.278   3.879  16.332 -0.2149  0.0229  0.4068
  297MPD2    C3 4527   2.385   3.905  16.416  0.0507 -0.0538 -0.3191
  297MPD2    C4 4528   2.384   3.833  16.533 -0.6183  0.8640  0.0258
  297MPD2    C5 4529   2.288   3.737  16.559 -0.0125  0.0737  0.4249
  297MPD2     H 4530   2.268   3.951  16.252 -0.1473 -1.0900 -0.5940
  297MPD2    H1 4531   2.455   3.845  16.613  1.8161  0.2647 -2.0541
  297MPD2    H2 4532   2.102   3.648  16.513 -1.9333  1.0924  0.4480
  297MPD2    H3 4533   2.293   3.692  16.657  3.1756 -0.4668  0.0074
  297MPD2     N 4534   2.480   4.011  16.381 -0.0339  0.5278  0.2022
  297MPD2    H5 4535   2.476   4.042  16.285  1.2721  1.6373  0.5077
  297MPD2    N1 4536   2.059   3.824  16.282 -0.1311  0.3241  0.2174
  297MPD2    H7 4537   2.057   3.890  16.205 -2.3918 -1.6433 -1.4201
  298TMC3    C1 4538   1.837   3.788  16.206  0.9045  0.6160 -0.7185
  298TMC3    C2 4539   1.869   3.823  16.077  0.0914  0.1960 -0.2542
  298TMC3    C3 4540   1.763   3.860  15.997  0.6016  0.2038  0.6072
  298TMC3    C4 4541   1.707   3.785  16.251  0.1254  0.8351 -0.1208
  298TMC3    C5 4542   1.602   3.822  16.164 -1.2160 -0.6534 -0.0431
  298TMC3    C6 4543   1.635   3.869  16.034 -0.3483 -0.0052  0.2065
  298TMC3     C 4544   1.934   3.771  16.307 -0.6325 -0.0961 -0.9071
  298TMC3     O 4545   1.903   3.699  16.405  0.0079 -0.2366  0.1431
  298TMC3     H 4546   1.965   3.798  16.034 -1.3696 -2.7511 -1.8136
  298TMC3    H1 4547   1.690   3.763  16.356 -0.2838  0.8863 -0.1781
  298TMC3    H2 4548   1.563   3.903  15.961  0.2516 -2.1325 -1.3629
  298TMC3    C7 4549   1.466   3.832  16.223  0.1711  0.3358  1.2277
  298TMC3    C8 4550   1.812   3.940  15.878  0.0818 -0.2367 -0.6901
  298TMC3    O1 4551   1.463   3.884  16.335 -0.4264  0.4047  0.1522
  298TMC3    O2 4552   1.741   3.957  15.781 -0.2695 -0.1816 -0.0785
  299MPD2     C 4553   2.645   3.006  10.388  0.3127  0.1254 -0.3396
  299MPD2    C1 4554   2.691   3.042  10.512 -0.2095 -0.7501  0.2123
  299MPD2    C2 4555   2.613   3.104  10.605  0.0808  0.0595  0.2539
  299MPD2    C3 4556   2.480   3.136  10.579 -0.3525 -0.4149  0.5052
  299MPD2    C4 4557   2.437   3.098  10.454  0.9320 -0.6395 -0.1306
  299MPD2    C5 4558   2.518   3.031  10.362 -0.2106 -0.0025  0.2060
  299MPD2     H 4559   2.660   3.145  10.693  2.1187  0.2493 -0.9101
  299MPD2    H1 4560   2.335   3.113  10.421  1.3406  1.8920 -0.1990
  299MPD2    H2 4561   2.707   2.967  10.308 -0.9882 -0.4885 -1.0554
  299MPD2    H3 4562   2.478   3.023  10.262  2.6973 -1.1096 -0.8539
  299MPD2     N 4563   2.403   3.200  10.677  0.1497  0.3491  0.0017
  299MPD2    H5 4564   2.452   3.230  10.761  0.3467 -0.8523  0.3120
  299MPD2    N1 4565   2.829   3.034  10.539  0.6430  0.6868  0.0001
  299MPD2    H7 4566   2.891   3.026  10.459  1.1568  0.8569  0.3796
  300TMC3    C1 4567   2.219   3.341  10.737  0.2973 -0.4306 -0.2750
  300TMC3    C2 4568   2.203   3.449  10.652 -0.4528 -0.4660  0.3967
  300TMC3    C3 4569   2.204   3.568  10.708  0.1976 -0.5302 -0.3664
  300TMC3    C4 4570   2.249   3.349  10.869 -0.0071 -0.4972  1.3289
  300TMC3    C5 4571   2.250   3.471  10.920 -0.5418 -0.3019  0.6714
  300TMC3    C6 4572   2.234   3.586  10.840  0.6235  0.2614 -0.1654
  300TMC3     C 4573   2.265   3.221  10.656 -0.3092 -1.1108 -0.0549
  300TMC3     O 4574   2.192   3.193  10.562  0.3438 -0.7075  0.3436
  300TMC3     H 4575   2.214   3.429  10.546  0.3304  0.5376  0.2896
  300TMC3    H1 4576   2.277   3.259  10.922  2.1832 -1.3195 -1.2820
  300TMC3    H2 4577   2.250   3.684  10.884 -0.3594 -0.8383  2.6519
  300TMC3    C7 4578   2.269   3.488  11.067 -0.3682  0.1224 -0.1593
  300TMC3    C8 4579   2.256   3.677  10.622 -0.2438 -0.0018 -0.7637
  300TMC3    O1 4580   2.248   3.393  11.140  0.2031  0.0899 -0.0417
  300TMC3    O2 4581   2.314   3.774  10.669 -0.1418  0.2093  0.0138
  301MPD2     C 4582   0.049   0.485   1.105 -0.4152  0.2386  0.5427
  301MPD2    C1 4583   4.674   0.414   1.095 -0.0294 -0.0612 -0.2732
  301MPD2    C2 4584   4.683   0.282   1.057 -0.5456  0.5187  0.2721
  301MPD2    C3 4585   0.066   0.217   1.032 -1.0834 -0.5177 -0.1782
  301MPD2    C4 4586   0.180   0.291   1.047 -0.5948  0.0143  0.0951
  301MPD2    C5 4587   0.174   0.426   1.092 -0.6033 -0.0398 -0.0429
  301MPD2     H 4588   4.592   0.223   1.052 -0.2388  0.0777 -0.1227
  301MPD2    H1 4589   0.278   0.247   1.038 -1.5410 -1.6044 -2.2741
  301MPD2    H2 4590   0.053   0.590   1.131 -2.2518  0.2593  0.7397
  301MPD2    H3 4591   0.260   0.493   1.096 -1.3799  0.9363  0.2440
  301MPD2     N 4592   0.075   0.085   0.980 -0.9433  0.8035  0.5519
  301MPD2    H5 4593   0.171   0.057   0.962 -1.8676 -1.8387 -0.3003
  301MPD2    N1 4594   4.548   0.463   1.112 -0.3535 -0.4095  0.0900
  301MPD2    H7 4595   4.470   0.401   1.091 -2.4775  1.9770  0.9588
  302TMC3    C1 4596   0.003   4.609   0.930 -0.2833 -0.0384  0.7898
  302TMC3    C2 4597   0.069   4.548   1.035  0.4553  0.4228 -0.1120
  302TMC3    C3 4598   0.067   4.418   1.050  0.3945  0.3056  0.4392
  302TMC3    C4 4599   4.662   4.532   0.849  0.0239 -0.6993  0.3344
  302TMC3    C5 4600   4.667   4.400   0.866  0.0367 -0.0759  0.4344
  302TMC3    C6 4601   0.000   4.338   0.964  0.1727  0.8746  0.2309
  302TMC3     C 4602   4.707   0.007   0.946  0.1359  0.0881  0.3694
  302TMC3     O 4603   4.588   0.032   0.923  0.4614  0.0964 -0.4993
  302TMC3     H 4604   0.124   4.613   1.103 -0.9147  2.2802 -0.7701
  302TMC3    H1 4605   4.593   4.579   0.780  0.5626  2.0094  1.6189
  302TMC3    H2 4606   0.016   4.231   0.964 -0.9430  0.7107  1.0086
  302TMC3    C7 4607   4.605   4.325   0.764 -0.6382  0.0877  1.1654
  302TMC3    C8 4608   0.133   4.353   1.160  1.3373  0.4742  0.0873
  302TMC3    O1 4609   4.669   4.245   0.699  0.1587  0.0398  0.5608
  302TMC3    O2 4610   0.123   4.236   1.175 -0.4774  0.3770  0.0767
  303MPD2     C 4611   1.580   2.461  10.737  0.3434 -0.5332 -0.0723
  303MPD2    C1 4612   1.452   2.470  10.757  0.0892  0.2641 -1.0907
  303MPD2    C2 4613   1.378   2.578  10.705 -0.2050  0.6504  0.0583
  303MPD2    C3 4614   1.435   2.672  10.625  0.1276 -0.5597  0.3454
  303MPD2    C4 4615   1.567   2.654  10.598 -0.0931  0.0648  0.2629
  303MPD2    C5 4616   1.642   2.553  10.655 -0.0938  0.4269  0.4631
  303MPD2     H 4617   1.274   2.584  10.736  0.1337 -0.0878  1.3583
  303MPD2    H1 4618   1.614   2.727  10.532 -0.4650  2.4593  2.6340
  303MPD2    H2 4619   1.642   2.385  10.782 -1.3119 -2.5892 -1.2660
  303MPD2    H3 4620   1.745   2.531  10.628 -0.5606 -0.3399 -0.7215
  303MPD2     N 4621   1.368   2.789  10.565  0.5282 -1.3643  0.3822
  303MPD2    H5 4622   1.425   2.862  10.523  1.5000 -2.2646  0.1374
  303MPD2    N1 4623   1.396   2.361  10.823  0.0187 -0.6348  0.1557
  303MPD2    H7 4624   1.452   2.281  10.851  1.3980  0.7247  1.3021
  304TMC3    C1 4625   1.261   2.259  10.990 -0.1214 -0.0036 -0.4964
  304TMC3    C2 4626   1.315   2.324  11.096  0.1842  0.5950  0.0381
  304TMC3    C3 4627   1.246   2.309  11.217  0.1031 -0.3953 -0.3210
  304TMC3    C4 4628   1.141   2.190  10.998  1.1231  0.3876  0.1012
  304TMC3    C5 4629   1.086   2.161  11.117  0.5420  0.3035 -0.2592
  304TMC3    C6 4630   1.141   2.224  11.220 -0.0917 -0.0330  0.0967
  304TMC3     C 4631   1.268   2.349  10.869  0.2147 -0.7445  0.7211
  304TMC3     O 4632   1.164   2.411  10.847  0.1377 -0.4838  0.3243
  304TMC3     H 4633   1.407   2.379  11.082  0.3700 -0.1326 -1.5808
  304TMC3    H1 4634   1.099   2.157  10.904 -0.8846  0.1532  1.0798
  304TMC3    H2 4635   1.082   2.199  11.307 -1.9196  0.6430 -0.9431
  304TMC3    C7 4636   0.937   2.166  11.123  0.1470  0.2024  0.6255
  304TMC3    C8 4637   1.214   2.429  11.300 -1.0234 -0.0067 -0.2332
  304TMC3    O1 4638   0.888   2.230  11.218  0.3616 -0.1230  0.1082
  304TMC3    O2 4639   1.298   2.515  11.307 -0.0146  0.4597 -0.4311
  305MPD2     C 4640   3.125   0.502  13.977 -1.5058  0.2232 -0.1284
  305MPD2    C1 4641   3.218   0.409  14.012  0.2004  0.1207  0.4094
  305MPD2    C2 4642   3.286   0.330  13.911  0.1182 -0.5952  0.2177
  305MPD2    C3 4643   3.263   0.364  13.777  0.3935 -0.2021 -0.1754
  305MPD2    C4 4644   3.170   0.470  13.750 -0.4335 -0.1175  0.2076
  305MPD2    C5 4645   3.111   0.536  13.849  0.5345  0.6375  0.0814
  305MPD2     H 4646   3.355   0.248  13.927 -1.9397 -2.1962  0.8139
  305MPD2    H1 4647   3.153   0.500  13.647 -1.7895  1.7151  0.9480
  305MPD2    H2 4648   3.063   0.560  14.044 -0.4990  0.5194  0.5447
  305MPD2    H3 4649   3.050   0.623  13.826  1.0945  0.5922 -1.5314
  305MPD2     N 4650   3.337   0.290  13.682  0.0348 -0.1899  0.3048
  305MPD2    H5 4651   3.408   0.226  13.715  0.9233  0.6683  0.0633
  305MPD2    N1 4652   3.243   0.387  14.148 -0.3650  0.2074 -0.1323
  305MPD2    H7 4653   3.216   0.457  14.217 -1.1015  0.1703 -0.3859
  306TMC3    C1 4654   3.290   0.280  14.349  0.6137 -0.1149 -0.1981
  306TMC3    C2 4655   3.379   0.213  14.423  0.9570 -0.0278 -0.5447
  306TMC3    C3 4656   3.371   0.218  14.562  0.1748 -0.2697 -0.3437
  306TMC3    C4 4657   3.187   0.342  14.409  0.3281 -0.0272 -0.3733
  306TMC3    C5 4658   3.175   0.340  14.544 -0.0537  0.5464  0.1169
  306TMC3    C6 4659   3.265   0.277  14.625 -0.7082 -0.7687  0.5733
  306TMC3     C 4660   3.308   0.280  14.208 -0.7034 -0.0968 -0.3611
  306TMC3     O 4661   3.383   0.195  14.159 -0.7930  0.2683 -0.7126
  306TMC3     H 4662   3.461   0.155  14.381  2.3477  1.5282  0.0026
  306TMC3    H1 4663   3.111   0.399  14.357 -0.1561 -1.3483 -1.0996
  306TMC3    H2 4664   3.253   0.272  14.732 -1.7465 -0.4598  0.4786
  306TMC3    C7 4665   3.075   0.414  14.610 -0.4369 -0.6163 -0.3330
  306TMC3    C8 4666   3.477   0.169  14.643 -0.7673 -0.0548  0.0450
  306TMC3    O1 4667   2.973   0.441  14.551 -0.1262  0.0675 -0.9006
  306TMC3    O2 4668   3.536   0.069  14.607  0.1092  0.0416  0.1010
  307MPD2     C 4669   0.777   3.133   0.612  0.0146  0.0190  0.6994
  307MPD2    C1 4670   0.786   3.277   0.610 -0.2513 -0.0762 -0.0828
  307MPD2    C2 4671   0.740   3.350   0.716  0.1722  0.0802  0.1634
  307MPD2    C3 4672   0.688   3.286   0.825  1.0924  0.4768 -0.4959
  307MPD2    C4 4673   0.684   3.152   0.833 -0.2126 -0.8074  0.1112
  307MPD2    C5 4674   0.740   3.080   0.735 -0.8579  0.2066  0.2510
  307MPD2     H 4675   0.739   3.458   0.720  0.0398  0.0517  0.8748
  307MPD2    H1 4676   0.653   3.103   0.925  1.0149 -3.7049 -1.0134
  307MPD2    H2 4677   0.821   3.069   0.537  2.3911  1.8823  0.4976
  307MPD2    H3 4678   0.735   2.972   0.735  1.9021  0.0814  0.8464
  307MPD2     N 4679   0.638   3.358   0.934 -0.7489  0.6879 -0.0965
  307MPD2    H5 4680   0.628   3.457   0.915 -0.4672  0.7190 -0.0772
  307MPD2    N1 4681   0.846   3.358   0.505 -0.4193  0.2740 -0.5449
  307MPD2    H7 4682   0.851   3.457   0.527  0.7356 -0.1888  1.3096
  308TMC3    C1 4683   0.305   3.407   1.239 -0.1757 -0.9481 -0.2675
  308TMC3    C2 4684   0.292   3.541   1.212 -0.6074 -0.5839  0.0525
  308TMC3    C3 4685   0.387   3.605   1.136  0.4797  0.1053  0.1146
  308TMC3    C4 4686   0.427   3.340   1.216 -0.3212 -0.6481  0.2995
  308TMC3    C5 4687   0.517   3.407   1.132  0.1056 -0.1323  0.4764
  308TMC3    C6 4688   0.498   3.532   1.084  1.0964 -0.0617 -0.0966
  308TMC3     C 4689   0.203   3.324   1.189 -0.4946  0.1388  0.5963
  308TMC3     O 4690   0.203   3.205   1.220 -0.2853  0.2231 -0.2269
  308TMC3     H 4691   0.208   3.599   1.250 -0.4412 -0.7897  0.7471
  308TMC3    H1 4692   0.438   3.240   1.256  0.2956 -1.2224 -1.2722
  308TMC3    H2 4693   0.579   3.586   1.035  0.5135  0.8564 -0.0573
  308TMC3    C7 4694   0.603   3.318   1.061 -0.1144 -0.2019 -0.5895
  308TMC3    C8 4695   0.385   3.753   1.141 -0.1507  0.7895  0.3602
  308TMC3    O1 4696   0.618   3.213   1.121  0.0216 -0.2313 -0.5719
  308TMC3    O2 4697   0.307   3.806   1.214  0.0697 -0.1376  0.2082
  309MPD2     C 4698   4.732   3.930  17.297  0.0557  0.8094  0.1498
  309MPD2    C1 4699   4.683   3.871  17.185  0.2941  0.0381  0.6056
  309MPD2    C2 4700   4.551   3.859  17.160 -0.5527  0.2479 -0.2820
  309MPD2    C3 4701   4.469   3.903  17.261 -0.4638 -0.1560 -0.2295
  309MPD2    C4 4702   4.516   3.969  17.370  0.2502 -0.2300 -0.1786
  309MPD2    C5 4703   4.649   3.990  17.384 -0.0642  0.2744  0.0456
  309MPD2     H 4704   4.517   3.809  17.070 -2.1007  1.4927 -0.3798
  309MPD2    H1 4705   4.452   4.012  17.446 -0.5668 -2.5591  0.4372
  309MPD2    H2 4706   0.099   3.932  17.312 -0.1085  1.4269  1.1910
  309MPD2    H3 4707   4.691   4.035  17.473  1.5974  1.1497 -1.1685
  309MPD2     N 4708   4.326   3.877  17.261  0.9333 -0.0020  0.2964
  309MPD2    H5 4709   4.271   3.909  17.340 -0.8766 -0.4477 -0.7888
  309MPD2    N1 4710   0.027   3.813  17.089  1.0097  0.2020  0.0047
  309MPD2    H7 4711   4.721   3.776  17.007  0.2839 -2.1104  1.4454
  310TMC3    C1 4712   0.230   3.748  16.980 -0.0488  0.1866  0.5330
  310TMC3    C2 4713   0.188   3.798  16.866 -0.0388  0.3712 -0.5146
  310TMC3    C3 4714   0.263   3.778  16.752 -0.6095 -0.6343  0.1212
  310TMC3    C4 4715   0.356   3.696  16.999  0.6380  0.1229 -0.3357
  310TMC3    C5 4716   0.431   3.680  16.884 -0.3336 -0.0373 -0.7788
  310TMC3    C6 4717   0.387   3.719  16.762 -0.1122  0.2186  0.2130
  310TMC3     C 4718   0.163   3.787  17.102  0.0108 -0.3202 -0.0814
  310TMC3     O 4719   0.231   3.788  17.201 -0.6389  0.2719 -0.3663
  310TMC3     H 4720   0.100   3.860  16.855 -0.4491  0.0221  0.8938
  310TMC3    H1 4721   0.378   3.644  17.092  0.0352 -0.2130 -0.3773
  310TMC3    H2 4722   0.445   3.702  16.672  2.0333 -0.3832  1.7180
  310TMC3    C7 4723   0.558   3.613  16.894  0.2490 -0.5364 -0.4755
  310TMC3    C8 4724   0.221   3.836  16.624  0.1938  0.4125 -0.6014
  310TMC3    O1 4725   0.607   3.558  16.795  0.1834 -0.5298  0.3898
  310TMC3    O2 4726   0.105   3.825  16.590 -0.8589  0.7641  0.1252
  311MPD2     C 4727   2.739   4.680  13.037  0.4868 -0.0322  0.2015
  311MPD2    C1 4728   2.683   0.060  12.994  0.2043  0.4606  0.4880
  311MPD2    C2 4729   2.554   0.089  13.021 -0.1141 -0.2844 -0.1391
  311MPD2    C3 4730   2.488   0.003  13.103 -0.7671  0.1102  0.6155
  311MPD2    C4 4731   2.540   4.635  13.154  0.4662 -0.4811  0.7471
  311MPD2    C5 4732   2.665   4.597  13.118 -0.1863 -0.3517  0.0313
  311MPD2     H 4733   2.501   0.173  12.976 -1.0255 -0.0147  1.4421
  311MPD2    H1 4734   2.484   4.576  13.225  2.6976 -2.9894  0.4548
  311MPD2    H2 4735   2.842   4.656  13.011  0.3068 -0.3490 -0.2006
  311MPD2    H3 4736   2.714   4.506  13.150  0.7496  0.2781  0.4026
  311MPD2     N 4737   2.357   0.045  13.140 -0.7778 -0.2067 -0.0795
  311MPD2    H5 4738   2.332   0.138  13.111  1.3382  0.8857  1.5936
  311MPD2    N1 4739   2.751   0.152  12.911  0.2077  0.5210  0.6326
  311MPD2    H7 4740   2.709   0.242  12.889 -1.0018  0.3582  2.2062
  312TMC3    C1 4741   2.152   0.070  13.254  0.3210 -0.0344 -0.3743
  312TMC3    C2 4742   2.032   0.021  13.221 -0.0037  0.7567  0.0769
  312TMC3    C3 4743   1.926   0.107  13.186  0.4851  0.5319  0.0940
  312TMC3    C4 4744   2.170   0.199  13.264  0.1228  0.7046 -0.6311
  312TMC3    C5 4745   2.066   0.281  13.226 -0.5243  0.8160  0.5961
  312TMC3    C6 4746   1.946   0.242  13.182 -0.4098 -0.4587  0.3507
  312TMC3     C 4747   2.264   4.722  13.221  0.6284  0.2458 -0.3624
  312TMC3     O 4748   2.264   4.603  13.252  0.4124  0.0924  0.1647
  312TMC3     H 4749   2.019   4.653  13.217  0.9476  0.6288  0.4900
  312TMC3    H1 4750   2.268   0.229  13.296  0.6790 -0.7332 -0.9796
  312TMC3    H2 4751   1.879   0.325  13.161 -0.1870  0.0414  1.6363
  312TMC3    C7 4752   2.073   0.426  13.260 -0.5659 -0.3939 -0.2952
  312TMC3    C8 4753   1.793   0.053  13.143  0.4469 -0.6873 -0.4926
  312TMC3    O1 4754   1.993   0.504  13.204  0.8040  0.3892 -0.5348
  312TMC3    O2 4755   1.789   4.670  13.142  0.3719  0.4690 -0.2785
  313MPD2     C 4756   1.784   3.645  11.748 -0.2371 -0.9827 -0.8509
  313MPD2    C1 4757   1.848   3.587  11.638 -0.2480  0.2560  0.6144
  313MPD2    C2 4758   1.838   3.446  11.622  0.1953  0.4196  0.6949
  313MPD2    C3 4759   1.750   3.373  11.696 -0.0146  0.0714  0.4874
  313MPD2    C4 4760   1.682   3.442  11.794 -0.5661  0.2268 -0.8746
  313MPD2    C5 4761   1.704   3.572  11.824  0.7663 -0.9793 -0.0633
  313MPD2     H 4762   1.890   3.395  11.542 -0.1672 -0.6665  1.1623
  313MPD2    H1 4763   1.615   3.382  11.855  1.0982  0.0786  0.8166
  313MPD2    H2 4764   1.797   3.749  11.778  0.7234 -1.6764  1.1500
  313MPD2    H3 4765   1.663   3.612  11.916 -3.0842 -1.5513 -1.5441
  313MPD2     N 4766   1.738   3.234  11.659 -0.4041 -0.0388 -0.1831
  313MPD2    H5 4767   1.815   3.216  11.595  0.8400  1.3437  0.9223
  313MPD2    N1 4768   1.922   3.653  11.546  0.2702  0.1905 -0.1075
  313MPD2    H7 4769   1.958   3.604  11.465  0.2629  1.8787 -1.1364
  314TMC3    C1 4770   2.025   3.839  11.430  1.2227 -0.3423 -0.3833
  314TMC3    C2 4771   2.096   3.954  11.442 -0.1109 -0.6460  0.0184
  314TMC3    C3 4772   2.127   4.019  11.323  0.3819 -0.3351 -0.1760
  314TMC3    C4 4773   1.988   3.778  11.309 -0.2434  0.3378 -0.4721
  314TMC3    C5 4774   2.025   3.849  11.197 -0.8563 -0.6178  0.6017
  314TMC3    C6 4775   2.092   3.969  11.197  0.0884  0.1499  0.0482
  314TMC3     C 4776   1.959   3.790  11.553 -0.0686  0.2893 -1.0771
  314TMC3     O 4777   1.949   3.876  11.638  0.2464  0.3087 -0.1149
  314TMC3     H 4778   2.094   4.008  11.536  0.3856 -1.1264  0.3001
  314TMC3    H1 4779   1.938   3.684  11.288 -0.0016 -0.2153  1.4063
  314TMC3    H2 4780   2.107   4.030  11.108  0.3521  0.9254  0.6192
  314TMC3    C7 4781   1.970   3.792  11.075  0.7993  1.1594  0.3840
  314TMC3    C8 4782   2.205   4.138  11.321 -0.7901 -0.1459  0.6650
  314TMC3    O1 4783   1.869   3.722  11.073  0.4606  0.1975 -0.1299
  314TMC3    O2 4784   2.193   4.206  11.222  0.1545 -0.8266  0.2286
  315MPD2     C 4785   0.951   3.227   0.017  0.3057 -0.3745  0.3638
  315MPD2    C1 4786   1.067   3.197  17.711  0.0368  0.5002  0.1455
  315MPD2    C2 4787   1.115   3.287  17.622  0.1242  0.1604  0.2721
  315MPD2    C3 4788   1.058   3.419  17.602 -0.2875  0.2906  0.4542
  315MPD2    C4 4789   0.936   3.448  17.677 -0.2075 -0.2517  0.6663
  315MPD2    C5 4790   0.891   3.350   0.003  0.8614 -0.5097  0.0238
  315MPD2     H 4791   1.214   3.270  17.581 -0.1007 -2.7302  0.9569
  315MPD2    H1 4792   0.878   3.539  17.668  0.7409  0.5073  2.3609
  315MPD2    H2 4793   0.900   3.164   0.090 -1.7838 -2.6302 -3.0526
  315MPD2    H3 4794   0.796   3.367   0.053  0.8767 -1.0492  0.2350
  315MPD2     N 4795   1.127   3.514  17.528 -0.1444  0.3843 -0.3892
  315MPD2    H5 4796   1.210   3.483  17.478  0.4958 -0.5057  1.2381
  315MPD2    N1 4797   1.142   3.091  17.739 -0.1829 -0.0976  0.2556
  315MPD2    H7 4798   1.225   3.086  17.681 -1.5460  0.6040 -1.7462
  316TMC3    C1 4799   1.172   3.716  17.442  0.0389 -0.1975 -0.4681
  316TMC3    C2 4800   1.308   3.699  17.453 -0.1237  0.3941  0.4287
  316TMC3    C3 4801   1.390   3.794  17.393  0.6681 -0.1480 -0.5206
  316TMC3    C4 4802   1.113   3.819  17.369  0.1774 -0.0166 -0.0267
  316TMC3    C5 4803   1.199   3.906  17.305 -0.2271 -1.0652 -0.1365
  316TMC3    C6 4804   1.337   3.898  17.314  0.1608  0.0305 -0.2569
  316TMC3     C 4805   1.091   3.642  17.527  0.0318 -0.3430  0.8475
  316TMC3     O 4806   1.002   3.695  17.595 -0.1368  0.2435  0.6947
  316TMC3     H 4807   1.354   3.635  17.527 -1.5207  0.2997  1.2191
  316TMC3    H1 4808   1.008   3.807  17.349  0.0340 -0.0587  0.7559
  316TMC3    H2 4809   1.392   3.965  17.250  0.6392  1.1778  1.3543
  316TMC3    C7 4810   1.140   4.020  17.233  0.2997 -0.5537 -0.0074
  316TMC3    C8 4811   1.516   3.830  17.453  0.2133 -0.0678 -0.0268
  316TMC3    O1 4812   1.212   4.095  17.167  0.1779  0.2088 -0.4115
  316TMC3    O2 4813   1.563   3.931  17.408 -0.0649  0.4354  0.6457
  317MPD2     C 4814   3.856   1.808  12.676 -0.1418  0.1170  0.3550
  317MPD2    C1 4815   3.891   1.688  12.730 -0.0397  0.5905 -0.3160
  317MPD2    C2 4816   3.886   1.668  12.865 -0.2183 -0.1678 -0.0963
  317MPD2    C3 4817   3.840   1.766  12.948 -1.2109 -0.2530  0.6864
  317MPD2    C4 4818   3.787   1.884  12.892 -0.0190 -0.8009 -0.0838
  317MPD2    C5 4819   3.807   1.907  12.760  0.1043  0.3317 -0.3596
  317MPD2     H 4820   3.913   1.570  12.901 -0.1227 -0.7822 -1.8092
  317MPD2    H1 4821   3.747   1.967  12.950  0.2660  0.9781 -2.4878
  317MPD2    H2 4822   3.879   1.839  12.574  0.7793 -2.7129 -0.3038
  317MPD2    H3 4823   3.770   1.999  12.716  1.1091 -0.3899 -2.6809
  317MPD2     N 4824   3.848   1.739  13.086 -0.3841  0.1704  0.0724
  317MPD2    H5 4825   3.883   1.649  13.116 -1.7541 -0.1455  0.7096
  317MPD2    N1 4826   3.955   1.590  12.649  0.2977 -0.3889 -0.6260
  317MPD2    H7 4827   3.997   1.511  12.698  0.1166  0.8713  1.5749
  318TMC3    C1 4828   3.821   1.750  13.317  0.3123  0.3382 -0.1445
  318TMC3    C2 4829   3.778   1.615  13.329 -0.3411 -0.9474 -0.7480
  318TMC3    C3 4830   3.755   1.563  13.453  0.0198 -0.5007  0.2056
  318TMC3    C4 4831   3.840   1.821  13.430  0.3464 -0.4064 -0.3876
  318TMC3    C5 4832   3.836   1.756  13.551  0.3300 -0.3069 -0.6553
  318TMC3    C6 4833   3.783   1.628  13.570 -0.5923  0.1720 -0.0374
  318TMC3     C 4834   3.823   1.826  13.189 -0.2688 -0.4274 -0.3655
  318TMC3     O 4835   3.809   1.945  13.191  0.2604 -0.5579  0.3189
  318TMC3     H 4836   3.747   1.566  13.238 -1.4658 -1.3258 -0.1643
  318TMC3    H1 4837   3.881   1.921  13.416  1.1016 -0.2548  2.9700
  318TMC3    H2 4838   3.775   1.574  13.664  2.2355  0.0588  0.1190
  318TMC3    C7 4839   3.900   1.822  13.658  0.3119 -0.2368 -0.8119
  318TMC3    C8 4840   3.738   1.425  13.459 -0.3712 -0.8359 -0.5390
  318TMC3    O1 4841   3.926   1.937  13.643 -0.2939 -0.4213  0.2572
  318TMC3    O2 4842   3.772   1.367  13.558  0.3119 -0.2286  0.2690
  319MPD2     C 4843   4.418   3.253  16.429 -0.0035 -0.4119  0.7244
  319MPD2    C1 4844   4.324   3.190  16.511  0.8907  0.2183  0.2858
  319MPD2    C2 4845   4.207   3.138  16.457  0.0365  0.3667  0.2410
  319MPD2    C3 4846   4.172   3.168  16.321 -0.7028 -0.2229  0.1740
  319MPD2    C4 4847   4.266   3.223  16.240 -0.4306 -0.9103  0.1117
  319MPD2    C5 4848   4.395   3.258  16.292 -0.0556  0.1888 -0.8897
  319MPD2     H 4849   4.143   3.073  16.515  0.6853  0.2342  0.8000
  319MPD2    H1 4850   4.253   3.242  16.134 -1.7592  2.2193  0.8403
  319MPD2    H2 4851   4.511   3.296  16.464 -1.8865  4.2914 -0.1421
  319MPD2    H3 4852   4.467   3.307  16.227 -0.0914  1.5165  0.0643
  319MPD2     N 4853   4.051   3.126  16.253  0.3604  0.1782 -0.1828
  319MPD2    H5 4854   4.049   3.137  16.152 -1.5606  0.1691 -0.1567
  319MPD2    N1 4855   4.351   3.179  16.649  0.0564 -1.3427 -0.8845
  319MPD2    H7 4856   4.283   3.122  16.700 -0.5289 -2.3131 -2.7561
  320TMC3    C1 4857   3.833   3.044  16.207 -0.7690  0.6149  0.1834
  320TMC3    C2 4858   3.788   3.148  16.126  0.0667 -0.5355 -0.0492
  320TMC3    C3 4859   3.670   3.126  16.053  0.6743 -0.3028  1.1748
  320TMC3    C4 4860   3.775   2.920  16.210 -0.5882  0.3340  0.2509
  320TMC3    C5 4861   3.659   2.907  16.139 -0.5162 -0.2407  0.3274
  320TMC3    C6 4862   3.607   3.003  16.057  0.1643 -1.0569  0.4936
  320TMC3     C 4863   3.943   3.058  16.303  0.4047  0.3570 -0.8260
  320TMC3     O 4864   3.929   3.002  16.412 -0.7022  0.4441  0.5227
  320TMC3     H 4865   3.845   3.239  16.115 -0.9762  0.0949 -0.1919
  320TMC3    H1 4866   3.804   2.845  16.282 -0.4661 -0.9820 -1.1678
  320TMC3    H2 4867   3.520   2.977  15.997  0.6698  3.7789 -2.3202
  320TMC3    C7 4868   3.576   2.781  16.137  0.1445 -0.1864 -0.3805
  320TMC3    C8 4869   3.628   3.229  15.959  0.4888 -0.4643  0.7130
  320TMC3    O1 4870   3.458   2.774  16.107 -0.1789 -0.0199 -0.2320
  320TMC3    O2 4871   3.684   3.336  15.960 -0.4453  0.1764  0.4414
  321TMC3    C1 4872   4.480   3.225  16.850  0.3504 -0.6757  0.2245
  321TMC3    C2 4873   4.451   3.104  16.904  0.3761  0.0091 -0.2837
  321TMC3    C3 4874   4.503   3.078  17.028  0.9307  0.0106  0.7240
  321TMC3    C4 4875   4.549   3.326  16.919  0.1160 -0.3874 -0.0233
  321TMC3    C5 4876   4.600   3.292  17.043  0.2678  0.2411 -0.1968
  321TMC3    C6 4877   4.563   3.174  17.102 -0.2753 -0.8986 -0.5112
  321TMC3     C 4878   4.448   3.258  16.714  0.4414 -0.0620  0.1759
  321TMC3     O 4879   4.510   3.356  16.670 -0.5639  0.1414 -0.4157
  321TMC3     H 4880   4.382   3.036  16.856  0.2137 -0.2865  0.3637
  321TMC3    H1 4881   4.556   3.426  16.879 -1.0084 -0.8895 -1.5145
  321TMC3    H2 4882   4.580   3.164  17.209  0.3409 -1.0123 -0.6213
  321TMC3    C7 4883   4.671   3.392  17.112  0.0611 -0.6041 -0.0420
  321TMC3    C8 4884   4.514   2.942  17.084  0.4365 -0.1442 -0.3113
  321TMC3    O1 4885   4.650   3.513  17.090 -0.4360 -0.3061 -1.0927
  321TMC3    O2 4886   4.439   2.855  17.039  0.3204 -0.0074 -0.1188
  322MPD2     C 4887   3.123   0.007  13.825  0.1705  0.4428  0.4373
  322MPD2    C1 4888   3.149   4.639  13.902 -0.4105 -0.3748 -0.0239
  322MPD2    C2 4889   3.125   4.512  13.858 -0.3879  0.1446  0.3158
  322MPD2    C3 4890   3.083   4.491  13.730 -0.2488  0.3372  0.1169
  322MPD2    C4 4891   3.046   4.602  13.652 -0.6819 -0.3170  0.6560
  322MPD2    C5 4892   3.071   4.729  13.699 -0.2263  0.1418 -0.2449
  322MPD2     H 4893   3.130   4.419  13.913  0.0958  1.1176  1.9162
  322MPD2    H1 4894   3.011   4.595  13.550 -0.1311  1.9672  0.3170
  322MPD2    H2 4895   3.156   0.105  13.859 -0.2823  1.2591 -1.4186
  322MPD2    H3 4896   3.063   0.075  13.634 -1.0767 -0.4507 -0.9281
  322MPD2     N 4897   3.081   4.360  13.680 -0.0062 -0.2564 -0.0635
  322MPD2    H5 4898   3.083   4.278  13.740 -0.7901  1.1226  1.8520
  322MPD2    N1 4899   3.206   4.656  14.025  0.4344  0.4483 -0.0398
  322MPD2    H7 4900   3.241   0.010  14.039 -1.1785  0.9797  0.3744
  323TMC3    C1 4901   3.339   4.601  14.204 -0.8782  0.3300  0.7948
  323TMC3    C2 4902   3.451   4.664  14.155 -0.1027  0.1557  0.7282
  323TMC3    C3 4903   3.559   4.682  14.242 -0.2260 -0.0450  0.2330
  323TMC3    C4 4904   3.341   4.526  14.314 -0.4692  0.1482 -0.9843
  323TMC3    C5 4905   3.435   4.552  14.400  0.3177 -0.7316 -0.1214
  323TMC3    C6 4906   3.549   4.623  14.368  0.9696  0.0923 -0.7455
  323TMC3     C 4907   3.237   4.561  14.114  0.1693  0.1925  0.0068
  323TMC3     O 4908   3.200   4.443  14.123 -0.1631  0.3454 -0.1084
  323TMC3     H 4909   3.450   4.710  14.058  0.5680 -2.3267 -0.4595
  323TMC3    H1 4910   3.265   4.450  14.331  0.0422 -0.2223 -0.3086
  323TMC3    H2 4911   3.633   4.632  14.436 -1.6096  2.9798  2.0541
  323TMC3    C7 4912   3.431   4.476  14.523 -0.2650 -0.8355  0.8458
  323TMC3    C8 4913   3.691   4.706  14.185  0.1520  1.1285 -0.2098
  323TMC3    O1 4914   3.409   4.359  14.522  0.3489 -0.1756  0.4478
  323TMC3    O2 4915   3.784   4.724  14.264 -0.3370  0.7811  0.0737
  324MPD2     C 4916   0.094   0.811  14.743  0.2223 -0.0717 -0.3833
  324MPD2    C1 4917   0.086   0.951  14.738  0.5230  0.3336  0.2037
  324MPD2    C2 4918   4.703   1.006  14.714  0.0574  0.2114 -1.0208
  324MPD2    C3 4919   4.589   0.934  14.693 -0.1931  0.3285  0.9703
  324MPD2    C4 4920   4.593   0.799  14.706  0.6220 -0.6482  0.0515
  324MPD2    C5 4921   4.717   0.739  14.731 -0.8472 -0.1406  0.1239
  324MPD2     H 4922   4.707   1.114  14.715  0.4604  0.1906 -0.5671
  324MPD2    H1 4923   4.508   0.733  14.691  0.9355 -0.6721 -1.5938
  324MPD2    H2 4924   0.181   0.754  14.771  0.1925  0.3648  0.6024
  324MPD2    H3 4925   4.721   0.634  14.755  1.8207 -0.0571  0.0686
  324MPD2     N 4926   4.461   0.983  14.664  0.1166 -0.4771  0.0832
  324MPD2    H5 4927   4.381   0.924  14.689 -0.9704  0.1957 -1.7776
  324MPD2    N1 4928   0.192   1.033  14.771  0.0926  0.1175  0.1060
  324MPD2    H7 4929   0.185   1.134  14.760  2.1012  0.1436 -0.8172
  325TMC3    C1 4930   4.299   1.107  14.561 -1.4755  0.6521  0.3225
  325TMC3    C2 4931   4.234   0.994  14.516 -0.4693  1.0499  0.3402
  325TMC3    C3 4932   4.132   1.013  14.425 -0.2114  0.3408  0.4864
  325TMC3    C4 4933   4.265   1.233  14.520  0.5446 -0.1336 -0.3024
  325TMC3    C5 4934   4.141   1.239  14.456 -0.1259 -0.3904 -0.3154
  325TMC3    C6 4935   4.081   1.137  14.401  0.6792 -0.1075  0.4143
  325TMC3     C 4936   4.433   1.104  14.615 -1.3448  0.2922 -0.2594
  325TMC3     O 4937   4.512   1.185  14.565  0.2315 -0.3560  0.2839
  325TMC3     H 4938   4.278   0.897  14.533  1.0082  1.6914  0.1668
  325TMC3    H1 4939   4.305   1.321  14.567 -1.1332 -0.3652  1.5536
  325TMC3    H2 4940   3.989   1.154  14.347  1.6072 -2.5100 -1.9765
  325TMC3    C7 4941   4.069   1.370  14.451  0.3553  0.2910 -0.0302
  325TMC3    C8 4942   4.071   0.897  14.361  0.3768  0.0022 -0.0161
  325TMC3    O1 4943   4.137   1.468  14.469 -0.4529  0.0698 -1.2151
  325TMC3    O2 4944   4.112   0.792  14.410  0.5635 -0.1168 -0.4756
  326MPD2     C 4945   1.695   1.557  11.676 -0.0653  0.1000 -0.2924
  326MPD2    C1 4946   1.717   1.562  11.540 -0.0780 -0.1895 -0.0160
  326MPD2    C2 4947   1.836   1.610  11.490 -0.4036  0.5669 -0.0648
  326MPD2    C3 4948   1.926   1.667  11.579 -0.7353  0.1522  0.4035
  326MPD2    C4 4949   1.905   1.668  11.718  0.4363  0.9780 -0.4153
  326MPD2    C5 4950   1.783   1.620  11.764 -0.1552  0.2663  0.3968
  326MPD2     H 4951   1.845   1.625  11.384  0.6422 -1.6094 -0.2822
  326MPD2    H1 4952   1.975   1.707  11.792 -0.5383  2.2638 -0.1609
  326MPD2    H2 4953   1.597   1.536  11.716  0.7467 -0.0127  1.6757
  326MPD2    H3 4954   1.761   1.620  11.870  1.3995 -0.6396  0.7270
  326MPD2     N 4955   2.052   1.731  11.532 -0.1881  0.4777  0.5515
  326MPD2    H5 4956   2.113   1.772  11.602 -0.8951  0.5048  1.1613
  326MPD2    N1 4957   1.614   1.536  11.450 -0.1410 -0.5492  0.8648
  326MPD2    H7 4958   1.640   1.539  11.352 -1.2675 -1.3198  0.5345
  327TMC3    C1 4959   1.441   1.451  11.352  0.2830  0.9781 -0.1541
  327TMC3    C2 4960   1.462   1.552  11.262 -0.2124  0.2237 -0.5104
  327TMC3    C3 4961   1.496   1.520  11.140  0.6692 -0.0965  0.0144
  327TMC3    C4 4962   1.435   1.329  11.316  0.0951 -0.1362  0.2743
  327TMC3    C5 4963   1.474   1.294  11.188 -0.6049 -0.2626 -0.9285
  327TMC3    C6 4964   1.509   1.393  11.093  0.5571  0.4398  0.5028
  327TMC3     C 4965   1.498   1.475  11.480 -0.0562  0.2266  0.0869
  327TMC3     O 4966   1.459   1.423  11.582  0.5867  0.2860  0.7010
  327TMC3     H 4967   1.475   1.652  11.302  2.7382 -0.3921  0.0200
  327TMC3    H1 4968   1.401   1.261  11.393 -0.5413 -0.2110 -0.0647
  327TMC3    H2 4969   1.552   1.368  10.997  0.7101  0.7063  0.5011
  327TMC3    C7 4970   1.570   1.186  11.199 -1.3319 -0.0468  0.4703
  327TMC3    C8 4971   1.585   1.625  11.078  0.8012  0.1710 -0.5436
  327TMC3    O1 4972   1.647   1.175  11.101  0.0108 -0.0358  0.4333
  327TMC3    O2 4973   1.654   1.695  11.151  0.1181  0.5123  0.2757
  328MPD2     C 4974   3.597   2.034  16.973 -0.2721  0.4206  0.2500
  328MPD2    C1 4975   3.489   1.952  16.948  0.0804  0.3473 -0.2443
  328MPD2    C2 4976   3.377   2.001  16.889 -0.3200 -0.3644  0.0268
  328MPD2    C3 4977   3.370   2.139  16.856  0.2843  0.2137 -0.8226
  328MPD2    C4 4978   3.474   2.222  16.881  0.4188 -0.7992 -0.3356
  328MPD2    C5 4979   3.587   2.170  16.936  0.0953  0.4272 -0.0952
  328MPD2     H 4980   3.283   1.947  16.895 -0.9699  0.7806  0.1386
  328MPD2    H1 4981   3.469   2.325  16.849 -0.5042 -0.5641  0.5700
  328MPD2    H2 4982   3.682   2.000  17.031  0.6986  0.0441 -1.4067
  328MPD2    H3 4983   3.669   2.236  16.962  0.6294 -0.4791  0.5177
  328MPD2     N 4984   3.260   2.210  16.802 -0.0029  0.0915  0.5340
  328MPD2    H5 4985   3.279   2.310  16.802 -0.1621  0.1148 -0.5473
  328MPD2    N1 4986   3.483   1.811  16.992 -0.7552 -0.4640 -0.1529
  328MPD2    H7 4987   3.404   1.759  16.953  0.0428 -0.6521 -1.5168
  329TMC3    C1 4988   3.508   1.637  17.134  0.2986  0.7887 -0.6120
  329TMC3    C2 4989   3.525   1.642  17.267 -0.4697  0.2318  0.0601
  329TMC3    C3 4990   3.416   1.655  17.344  0.4600 -0.1838 -0.0148
  329TMC3    C4 4991   3.386   1.611  17.079 -0.0877  0.1690  0.1336
  329TMC3    C5 4992   3.280   1.623  17.158  0.3056 -0.3990  0.4652
  329TMC3    C6 4993   3.291   1.658  17.290  0.2693 -0.3487 -0.0649
  329TMC3     C 4994   3.571   1.752  17.076  0.5364  1.0082  0.5538
  329TMC3     O 4995   3.649   1.812  17.145  0.2677 -0.2385  0.1376
  329TMC3     H 4996   3.622   1.641  17.316 -0.6816 -1.2854  0.4459
  329TMC3    H1 4997   3.378   1.578  16.976  2.6251  2.1342 -0.6847
  329TMC3    H2 4998   3.201   1.672  17.349 -0.5314  1.3359 -1.6894
  329TMC3    C7 4999   3.148   1.647  17.092  0.1719  0.3406  0.1570
  329TMC3    C8 5000   3.448   1.710  17.477 -0.0682  0.2222  0.0886
  329TMC3    O1 5001   3.120   1.573  17.000 -0.1294  0.0996  0.1226
  329TMC3    O2 5002   3.562   1.696  17.517 -0.7609  0.9834 -0.2215
  330TMC3    C1 5003   2.550   0.590   9.571 -0.3132  0.2545  0.4479
  330TMC3    C2 5004   2.676   0.543   9.577  0.0357  0.3195 -0.2647
  330TMC3    C3 5005   2.690   0.410   9.608 -0.0169 -0.6518 -0.9122
  330TMC3    C4 5006   2.438   0.509   9.582  0.1821  0.5013  0.3808
  330TMC3    C5 5007   2.461   0.374   9.595  0.1654  0.8484  0.7501
  330TMC3    C6 5008   2.584   0.323   9.612  0.5887  0.3091 -0.2122
  330TMC3     C 5009   2.533   0.728   9.583 -0.8866 -0.5661  0.2275
  330TMC3     O 5010   2.629   0.789   9.638 -0.6397 -0.5013 -0.6011
  330TMC3     H 5011   2.761   0.611   9.580  0.9859 -0.9171  1.0397
  330TMC3    H1 5012   2.336   0.547   9.582  0.4675  1.2305  2.6422
  330TMC3    H2 5013   2.602   0.216   9.611 -1.3712 -0.0210 -1.2297
  330TMC3    C7 5014   2.344   0.295   9.574  0.1304  0.3628 -0.3279
  330TMC3    C8 5015   2.805   0.390   9.691  0.5626 -0.3475  0.4032
  330TMC3    O1 5016   2.260   0.338   9.497 -0.2789 -0.3608  0.0417
  330TMC3    O2 5017   2.902   0.461   9.668 -0.2761  0.8294  0.4986
  331MPD2     C 5018   0.111   4.725  13.440  0.0840  0.0195 -0.1273
  331MPD2    C1 5019   0.130   4.726  13.303  0.1658 -0.0518 -0.4082
  331MPD2    C2 5020   0.095   4.610  13.238  0.2333  0.8472 -0.9433
  331MPD2    C3 5021   0.045   4.499  13.303 -0.2119 -1.0649  1.1547
  331MPD2    C4 5022   0.023   4.498  13.437 -0.0481 -0.2563 -0.1124
  331MPD2    C5 5023   0.059   4.616  13.503  0.3916 -0.1158 -0.3276
  331MPD2     H 5024   0.106   4.604  13.131 -2.7661  1.0187 -1.2542
  331MPD2    H1 5025   4.723   4.415  13.493 -2.0388  0.3697 -0.5919
  331MPD2    H2 5026   0.126   0.068  13.507  2.4463 -0.0462 -0.5778
  331MPD2    H3 5027   0.055   4.613  13.611  0.0812  3.1188 -0.2491
  331MPD2     N 5028   0.026   4.386  13.220  0.4486 -0.5128  0.5098
  331MPD2    H5 5029   0.060   4.394  13.125  0.0260 -0.4158  0.3689
  331MPD2    N1 5030   0.179   0.092  13.222  0.0455 -0.2870 -0.4134
  331MPD2    H7 5031   0.212   0.069  13.128  1.4904  0.6484 -0.1208
  332TMC3    C1 5032   0.027   4.164  13.173 -0.4987 -0.0307  0.8493
  332TMC3    C2 5033   0.041   4.202  13.044 -0.1268  0.6726  0.2289
  332TMC3    C3 5034   0.138   4.148  12.962  0.1515 -0.0269  0.3670
  332TMC3    C4 5035   0.124   4.094  13.237  0.0457  0.4234  0.5385
  332TMC3    C5 5036   0.232   4.057  13.153 -0.4179 -0.2445  0.2684
  332TMC3    C6 5037   0.243   4.078  13.019 -0.3596 -0.1473 -0.0497
  332TMC3     C 5038   4.722   4.267  13.264 -0.3333  0.2734  0.2197
  332TMC3     O 5039   4.674   4.230  13.368  0.2535  0.9556  0.1899
  332TMC3     H 5040   4.708   4.266  12.996  0.1836  0.2210 -0.8417
  332TMC3    H1 5041   0.119   4.081  13.344 -0.5693 -0.3984  0.4083
  332TMC3    H2 5042   0.311   4.022  12.956  1.1641  1.1042  0.4899
  332TMC3    C7 5043   0.352   4.020  13.229  0.3495 -0.1587  0.3121
  332TMC3    C8 5044   0.165   4.199  12.825 -0.3584 -0.2257 -0.2018
  332TMC3    O1 5045   0.338   3.982  13.343  0.5823  0.4340 -0.4656
  332TMC3    O2 5046   0.280   4.229  12.802 -0.1023 -0.0662  0.2149
  333MPD2     C 5047   0.351   0.132  11.499  0.6246  0.1975  0.2276
  333MPD2    C1 5048   0.417   0.016  11.459 -0.0729 -0.5168 -0.2098
  333MPD2    C2 5049   0.369   4.636  11.507 -0.2730 -0.7917 -0.6682
  333MPD2    C3 5050   0.264   4.626  11.590  0.0614  0.3612  0.0740
  333MPD2    C4 5051   0.205   0.005  11.637 -0.6909  0.0249 -0.5390
  333MPD2    C5 5052   0.245   0.121  11.583 -0.3177 -0.1983  0.4154
  333MPD2     H 5053   0.417   4.549  11.463 -1.2697 -1.2897 -0.7795
  333MPD2    H1 5054   0.112   0.002  11.692 -1.8189  0.4922 -2.4001
  333MPD2    H2 5055   0.378   0.224  11.450 -1.9069  1.1806  0.6838
  333MPD2    H3 5056   0.187   0.209  11.610  0.8387  1.3438 -2.1746
  333MPD2     N 5057   0.211   4.501  11.628 -0.1708  0.7324 -0.2509
  333MPD2    H5 5058   0.269   4.426  11.593 -0.7278 -0.0705  0.5344
  333MPD2    N1 5059   0.529   0.040  11.372 -0.7627 -0.4700  0.4248
  333MPD2    H7 5060   0.559   0.135  11.351  1.3201 -0.9949  0.9820
  334TMC3    C1 5061   0.693   4.717  11.216  0.1870 -0.0867  0.3176
  334TMC3    C2 5062   0.724   4.638  11.107  0.1595 -0.4681  0.7310
  334TMC3    C3 5063   0.828   4.671  11.028 -0.1605 -0.2413  0.1170
  334TMC3    C4 5064   0.776   0.076  11.257  0.0638  0.0284 -0.4203
  334TMC3    C5 5065   0.886   0.104  11.182 -0.0930 -0.7224 -0.6295
  334TMC3    C6 5066   0.916   0.031  11.074  0.0949 -0.0350  0.0301
  334TMC3     C 5067   0.579   4.679  11.290 -0.3003  0.4855  0.0310
  334TMC3     O 5068   0.532   4.571  11.261  0.0434  0.2594 -0.2342
  334TMC3     H 5069   0.661   4.554  11.081 -0.5185  0.2374  0.0828
  334TMC3    H1 5070   0.761   0.131  11.349 -0.1407  0.1670 -0.5369
  334TMC3    H2 5071   1.002   0.060  11.014  1.1453 -0.5903  1.2779
  334TMC3    C7 5072   0.940   0.239  11.198  0.6181  0.2007 -0.8162
  334TMC3    C8 5073   0.875   4.576  10.919 -0.5006  0.1504  0.6722
  334TMC3    O1 5074   0.931   0.280  11.315  0.0588  0.5301  0.1030
  334TMC3    O2 5075   0.814   4.471  10.905  0.5491 -0.0234 -0.1287
  335TMC3    C1 5076   4.106   2.153  16.963  0.0210  0.5448  0.0957
  335TMC3    C2 5077   4.008   2.094  16.885 -0.1520  0.6919 -0.5405
  335TMC3    C3 5078   4.036   1.962  16.862 -0.6723 -0.2780 -0.7765
  335TMC3    C4 5079   4.236   2.113  16.967  0.1982  0.3097  0.4075
  335TMC3    C5 5080   4.262   1.988  16.931  0.2333 -0.3684  0.2340
  335TMC3    C6 5081   4.158   1.906  16.895  0.3298  0.1182  0.1196
  335TMC3     C 5082   4.049   2.199  17.091  0.5267  0.0463  0.2808
  335TMC3     O 5083   3.931   2.226  17.108  0.5238  0.5962  0.8375
  335TMC3     H 5084   3.904   2.124  16.875  0.3563  3.4805  2.6323
  335TMC3    H1 5085   4.316   2.162  17.021  0.2728 -2.3281  2.6925
  335TMC3    H2 5086   4.176   1.808  16.852  0.8455  0.1285  0.3124
  335TMC3    C7 5087   4.380   1.930  16.972  0.3006 -0.0779  0.7835
  335TMC3    C8 5088   3.925   1.880  16.828  0.2124 -0.1661  0.1674
  335TMC3    O1 5089   4.482   2.000  16.967  0.0020 -0.5755 -0.3850
  335TMC3    O2 5090   3.857   1.923  16.732 -0.4895  0.7477 -0.1706
  336MPD2     C 5091   3.940   4.463  16.481  0.3941  0.1854  0.4382
  336MPD2    C1 5092   3.995   4.424  16.365  0.2744  0.4092 -0.3545
  336MPD2    C2 5093   4.049   4.301  16.366  0.0223 -0.1307 -0.5155
  336MPD2    C3 5094   4.061   4.218  16.474 -1.3430 -0.0377  0.5450
  336MPD2    C4 5095   3.997   4.262  16.587  0.2785  0.0115  0.3962
  336MPD2    C5 5096   3.942   4.381  16.590  0.3126 -0.1149  0.0169
  336MPD2     H 5097   4.098   4.267  16.275  0.6850 -1.7621  0.4346
  336MPD2    H1 5098   3.987   4.206  16.679 -2.5429  1.1021  0.7389
  336MPD2    H2 5099   3.872   4.547  16.489 -0.3436 -0.1909 -1.9167
  336MPD2    H3 5100   3.895   4.412  16.683  0.2220 -2.2676  0.6903
  336MPD2     N 5101   4.111   4.091  16.453 -0.5042 -0.8104  0.4161
  336MPD2    H5 5102   4.127   4.061  16.357  0.0009 -0.0219  0.2557
  336MPD2    N1 5103   3.989   4.486  16.244 -0.7401  0.2417  0.4037
  336MPD2    H7 5104   4.032   4.438  16.166  1.0784 -1.1921  2.2797
  337TMC3    C1 5105   3.939   4.654  16.078 -0.0641 -0.4725 -0.2995
  337TMC3    C2 5106   3.900   4.564  15.978  0.0792  0.3608 -0.1477
  337TMC3    C3 5107   3.858   4.612  15.860  0.5224 -1.2301 -0.3155
  337TMC3    C4 5108   3.921   0.048  16.070 -0.0951 -0.6707 -0.1102
  337TMC3    C5 5109   3.862   0.096  15.953  0.2973  0.1863  0.8437
  337TMC3    C6 5110   3.837   0.011  15.849 -0.5201 -0.3944 -0.7706
  337TMC3     C 5111   3.927   4.606  16.217  0.8238  0.3470 -0.9106
  337TMC3     O 5112   3.892   4.689  16.301 -0.0695 -0.1967  0.1575
  337TMC3     H 5113   3.918   4.458  15.993 -0.8329 -0.1482 -2.6139
  337TMC3    H1 5114   3.947   0.117  16.150 -0.1783 -0.0819 -0.5840
  337TMC3    H2 5115   3.803   0.051  15.754 -0.3088  0.9358 -0.2835
  337TMC3    C7 5116   3.843   0.243  15.937  0.2429 -0.4611  0.3730
  337TMC3    C8 5117   3.800   4.516  15.768  0.5134 -0.2667 -0.6147
  337TMC3    O1 5118   3.796   0.290  15.834 -0.2708 -0.6184  0.3186
  337TMC3    O2 5119   3.828   4.397  15.790  0.3266 -0.3144 -0.6420
  338MPD2     C 5120   4.230   4.099   0.848  0.2759 -0.0000  0.5482
  338MPD2    C1 5121   4.166   4.016   0.760  0.0649  0.1752 -0.3955
  338MPD2    C2 5122   4.025   4.029   0.742  0.2349  0.2699 -0.0099
  338MPD2    C3 5123   3.959   4.127   0.816  0.6848 -0.6331  0.7313
  338MPD2    C4 5124   4.029   4.205   0.906  0.6497  0.1161  0.3366
  338MPD2    C5 5125   4.166   4.191   0.926 -0.2385 -0.4298  0.4480
  338MPD2     H 5126   3.971   3.971   0.668 -0.9408  0.4390  0.7195
  338MPD2    H1 5127   3.980   4.290   0.952  0.2560 -0.2189  0.5349
  338MPD2    H2 5128   4.338   4.098   0.860  0.3427 -1.1178 -0.0717
  338MPD2    H3 5129   4.232   4.260   0.978  0.4533  0.0745 -1.1151
  338MPD2     N 5130   3.820   4.128   0.800 -0.2042  0.3591 -0.2833
  338MPD2    H5 5131   3.780   4.072   0.725  1.2278  2.1458 -2.3791
  338MPD2    N1 5132   4.220   3.925   0.669 -0.5443 -0.0193  0.1557
  338MPD2    H7 5133   4.157   3.868   0.613 -0.5531 -0.7579  0.9114
  339TMC3    C1 5134   3.603   4.170   0.813  0.6164  0.1951 -0.4359
  339TMC3    C2 5135   3.597   4.027   0.810 -0.1786  0.3496  0.1554
  339TMC3    C3 5136   3.535   3.972   0.698  0.5638 -0.6791 -0.4406
  339TMC3    C4 5137   3.550   4.240   0.706 -0.0719 -0.0545 -0.3880
  339TMC3    C5 5138   3.484   4.179   0.605 -0.8078  0.1842 -0.3871
  339TMC3    C6 5139   3.476   4.046   0.600  0.5291  0.0852 -1.0027
  339TMC3     C 5140   3.735   4.215   0.863 -0.0179 -0.3013 -0.1381
  339TMC3     O 5141   3.747   4.297   0.955  0.0147  0.4335 -0.5402
  339TMC3     H 5142   3.650   3.976   0.890 -0.1160  0.5733  0.2560
  339TMC3    H1 5143   3.560   4.347   0.702  0.8941 -0.0763  1.2898
  339TMC3    H2 5144   3.436   3.996   0.512 -0.6643 -1.7936  0.6053
  339TMC3    C7 5145   3.498   4.258   0.490 -0.5868 -0.3807 -0.2163
  339TMC3    C8 5146   3.579   3.845   0.654  0.2588 -0.7176 -0.4125
  339TMC3    O1 5147   3.468   4.377   0.490  0.3195 -0.8456  0.1980
  339TMC3    O2 5148   3.562   3.817   0.531 -0.1177 -0.1704 -0.1306
  340MPD2     C 5149   0.572   1.700  10.518  0.1459  0.2059  0.3510
  340MPD2    C1 5150   0.576   1.566  10.523  0.0647  0.9075  0.1255
  340MPD2    C2 5151   0.592   1.504  10.654 -0.0053  0.2218 -0.3298
  340MPD2    C3 5152   0.623   1.591  10.757 -0.0095 -0.4268  0.7438
  340MPD2    C4 5153   0.619   1.726  10.745  0.9569 -0.5444 -0.4442
  340MPD2    C5 5154   0.599   1.779  10.624  0.7058 -0.5027  0.8005
  340MPD2     H 5155   0.584   1.397  10.666 -0.8637  0.4554  1.1314
  340MPD2    H1 5156   0.631   1.787  10.834 -0.7577  2.4949 -2.2683
  340MPD2    H2 5157   0.553   1.751  10.424  0.4133 -1.2415 -0.4900
  340MPD2    H3 5158   0.598   1.886  10.608  3.1156 -0.4204  1.1959
  340MPD2     N 5159   0.661   1.542  10.885  0.2163 -0.4813  0.3660
  340MPD2    H5 5160   0.705   1.612  10.944 -1.0556  0.0134  0.7133
  340MPD2    N1 5161   0.563   1.495  10.406 -0.5804  0.5182 -0.2354
  340MPD2    H7 5162   0.563   1.550  10.321  0.9216  0.0556 -0.5301
  341TMC3    C1 5163   0.550   1.309  10.264  0.0503  0.3614 -0.2038
  341TMC3    C2 5164   0.517   1.182  10.263  0.4593  0.5271 -0.2720
  341TMC3    C3 5165   0.520   1.120  10.140 -0.5623 -0.0867  0.0393
  341TMC3    C4 5166   0.578   1.381  10.153  0.4797  0.8544  0.1486
  341TMC3    C5 5167   0.570   1.319  10.028  0.5753  0.5919 -0.6583
  341TMC3    C6 5168   0.540   1.189  10.027 -0.3165 -0.1734 -0.3865
  341TMC3     C 5169   0.553   1.358  10.398  0.1519 -0.3705 -0.0205
  341TMC3     O 5170   0.545   1.277  10.491  0.0090 -0.1602 -0.1959
  341TMC3     H 5171   0.458   1.131  10.339  1.1950  0.8400  0.4997
  341TMC3    H1 5172   0.606   1.485  10.166  1.4542  0.9165 -2.4852
  341TMC3    H2 5173   0.541   1.139   9.931  0.6715  0.3685 -0.6618
  341TMC3    C7 5174   0.627   1.377   9.908  0.4190 -0.1961 -0.9215
  341TMC3    C8 5175   0.499   0.977  10.150  0.3469 -0.1278  0.0402
  341TMC3    O1 5176   0.637   1.298   9.818  0.2258  0.6560  0.6952
  341TMC3    O2 5177   0.503   0.929  10.263 -0.2586  1.1176 -0.4528
  342MPD2     C 5178   2.414   4.725   0.095 -0.4923  0.2288  0.2499
  342MPD2    C1 5179   2.456   0.015  17.715 -0.5209 -0.4566 -0.4480
  342MPD2    C2 5180   2.455   0.147  17.669  0.4566  0.0209  0.0524
  342MPD2    C3 5181   2.400   0.244  17.757 -0.2023  0.0195  0.5977
  342MPD2    C4 5182   2.354   0.213   0.126  0.1396 -0.1022 -0.0259
  342MPD2    C5 5183   2.374   0.088   0.175 -0.3671  0.3561 -0.0964
  342MPD2     H 5184   2.495   0.173  17.572 -0.0895 -0.6834 -0.3559
  342MPD2    H1 5185   2.305   0.283   0.192  1.4465  0.0189  0.8102
  342MPD2    H2 5186   2.432   4.625   0.132 -3.2648  0.8066  3.1902
  342MPD2    H3 5187   2.353   0.063   0.279  3.5325 -1.5220  0.2442
  342MPD2     N 5188   2.386   0.378  17.724  0.1371 -0.4391 -0.4917
  342MPD2    H5 5189   2.368   0.437   0.046  1.4254  0.4578 -0.8686
  342MPD2    N1 5190   2.503   4.651  17.637  0.1564  0.0482 -0.2625
  342MPD2    H7 5191   2.524   4.679  17.542 -0.6437  2.3284  0.2197
  343TMC3    C1 5192   2.551   4.442  17.550 -0.1663 -0.1501 -0.1714
  343TMC3    C2 5193   2.623   4.502  17.452 -0.2736 -0.7314  0.2772
  343TMC3    C3 5194   2.626   4.435  17.326  0.1210  0.3010 -0.0439
  343TMC3    C4 5195   2.505   4.317  17.544  0.4617  0.3583 -0.0683
  343TMC3    C5 5196   2.509   4.257  17.415  0.1883 -0.1103 -0.7685
  343TMC3    C6 5197   2.562   4.316  17.303 -0.3107 -0.5209  0.0539
  343TMC3     C 5198   2.513   4.518  17.669  0.1630 -0.0610 -0.3233
  343TMC3     O 5199   2.466   4.452   0.008 -0.0424 -0.0922  0.1136
  343TMC3     H 5200   2.693   4.579  17.480  1.6811 -2.0321 -0.9715
  343TMC3    H1 5201   2.450   4.272  17.626  1.3129  1.6900  1.2458
  343TMC3    H2 5202   2.556   4.262  17.209 -1.3119 -1.5234  0.6827
  343TMC3    C7 5203   2.427   4.147  17.395 -0.7541 -0.4085  0.4578
  343TMC3    C8 5204   2.729   4.490  17.238  0.2585  0.6777  0.4666
  343TMC3    O1 5205   2.375   4.131  17.287 -0.1305 -0.0311  0.3911
  343TMC3    O2 5206   2.768   4.603  17.253  0.5224  0.4285 -1.0870
  344MPD2     C 5207   3.286   3.625  10.385 -0.0652  0.8012 -0.1131
  344MPD2    C1 5208   3.347   3.567  10.491 -1.0382 -0.1197  0.2164
  344MPD2    C2 5209   3.457   3.618  10.549  0.1297 -0.3872 -0.3790
  344MPD2    C3 5210   3.523   3.725  10.479  0.2048 -0.3546  0.2881
  344MPD2    C4 5211   3.469   3.784  10.366  1.0359 -0.6685 -0.6007
  344MPD2    C5 5212   3.347   3.737  10.325  0.1376 -0.3521  0.4912
  344MPD2     H 5213   3.483   3.564  10.639 -0.0094 -0.0859 -0.1571
  344MPD2    H1 5214   3.514   3.865  10.309  0.6707 -1.0515 -1.4434
  344MPD2    H2 5215   3.191   3.584  10.352 -0.1614 -0.2660  1.4646
  344MPD2    H3 5216   3.295   3.779  10.240 -4.3423 -1.8936  2.4843
  344MPD2     N 5217   3.648   3.782  10.519  0.5303 -0.6226 -0.1326
  344MPD2    H5 5218   3.692   3.844  10.451  0.3114  0.2203  0.4933
  344MPD2    N1 5219   3.282   3.459  10.561 -0.4014  0.2658 -0.0847
  344MPD2    H7 5220   3.318   3.427  10.650 -2.1977 -2.6649 -0.4229
  345TMC3    C1 5221   3.834   3.814  10.652 -0.5814 -0.2739 -0.2894
  345TMC3    C2 5222   3.878   3.792  10.784  0.2402 -1.0869  0.7212
  345TMC3    C3 5223   3.959   3.886  10.839  0.3464  0.2292 -0.1298
  345TMC3    C4 5224   3.875   3.922  10.577  0.3879 -0.0004 -0.6710
  345TMC3    C5 5225   3.962   4.010  10.635 -0.2548 -0.7035 -0.2262
  345TMC3    C6 5226   3.999   3.993  10.767  0.0689  0.5353  0.4224
  345TMC3     C 5227   3.709   3.747  10.631  0.0628 -0.0491  0.2803
  345TMC3     O 5228   3.672   3.679  10.726 -0.1694  0.0710 -0.0870
  345TMC3     H 5229   3.842   3.720  10.857 -0.3677 -0.7593  0.7380
  345TMC3    H1 5230   3.846   3.929  10.473  0.7199 -0.4130 -0.7898
  345TMC3    H2 5231   4.066   4.070  10.803  0.5247 -0.1033  0.9333
  345TMC3    C7 5232   4.016   4.126  10.568  0.1412 -0.2537  0.2666
  345TMC3    C8 5233   3.984   3.882  10.987 -0.1893 -0.0447  0.4070
  345TMC3    O1 5234   4.107   4.191  10.611 -0.1922 -0.0728  0.0499
  345TMC3    O2 5235   4.031   3.780  11.042 -0.1368  0.1451  0.3769
  346MPD2     C 5236   2.993   1.026  14.078  0.5538  1.0520  0.0848
  346MPD2    C1 5237   3.073   1.133  14.063  0.0703 -0.7348  0.0344
  346MPD2    C2 5238   3.074   1.227  14.165 -0.3145  0.1919 -0.4408
  346MPD2    C3 5239   3.009   1.199  14.283 -0.9265  0.6547  0.0712
  346MPD2    C4 5240   2.920   1.094  14.292  0.1194 -0.3933  0.8302
  346MPD2    C5 5241   2.915   1.004  14.192 -1.3380  0.2602 -0.5143
  346MPD2     H 5242   3.126   1.322  14.156  0.4199 -0.2082 -0.4334
  346MPD2    H1 5243   2.862   1.067  14.379  2.5339  0.6361  2.7403
  346MPD2    H2 5244   2.984   0.950  14.001 -1.8060  0.2869  1.0955
  346MPD2    H3 5245   2.866   0.907  14.195 -2.3136  0.8465  2.3626
  346MPD2     N 5246   3.043   1.288  14.383  0.4990 -0.2174  0.4707
  346MPD2    H5 5247   3.100   1.366  14.354  0.4821 -0.7366 -0.9497
  346MPD2    N1 5248   3.135   1.156  13.942  0.1125 -0.2229 -0.4482
  346MPD2    H7 5249   3.171   1.251  13.933 -0.4413 -0.0984 -1.4310
  347TMC3    C1 5250   3.080   1.371  14.597 -0.3167 -0.2578  0.0646
  347TMC3    C2 5251   3.208   1.411  14.550  1.0739 -0.6945  0.1195
  347TMC3    C3 5252   3.279   1.490  14.636 -0.0145  0.1771  0.5011
  347TMC3    C4 5253   3.034   1.385  14.727  0.0902  0.3726  0.4033
  347TMC3    C5 5254   3.115   1.461  14.806  0.3598  0.2095  0.4507
  347TMC3    C6 5255   3.233   1.523  14.757  0.5617  0.0039 -0.1876
  347TMC3     C 5256   3.004   1.278  14.516 -0.9159 -0.5434  0.2352
  347TMC3     O 5257   2.918   1.208  14.564 -0.0878  0.0854  0.3635
  347TMC3     H 5258   3.255   1.387  14.455  0.9247  0.7330 -0.3074
  347TMC3    H1 5259   2.940   1.340  14.756  0.0019  1.0222  1.1252
  347TMC3    H2 5260   3.295   1.584  14.821  0.0115  0.4014 -0.0283
  347TMC3    C7 5261   3.070   1.494  14.943 -0.5045 -0.3046  0.0162
  347TMC3    C8 5262   3.380   1.573  14.584  0.3656 -0.1041  0.5181
  347TMC3    O1 5263   3.132   1.587  14.995  0.1685  0.0424  0.0253
  347TMC3    O2 5264   3.368   1.692  14.598 -0.4974  0.0348 -0.5141
  348MPD2     C 5265   2.649   1.021  11.552 -0.4514 -0.7240 -0.0685
  348MPD2    C1 5266   2.616   0.921  11.461 -0.6289  0.0018 -0.1384
  348MPD2    C2 5267   2.625   0.951  11.323  0.4558 -0.2167  0.2111
  348MPD2    C3 5268   2.675   1.071  11.278  0.5932 -0.2705  0.5027
  348MPD2    C4 5269   2.700   1.164  11.378  0.4253 -1.2458  0.4331
  348MPD2    C5 5270   2.684   1.145  11.511 -0.3472  0.5635 -0.2952
  348MPD2     H 5271   2.619   0.872  11.249 -2.0142  0.2262 -0.0494
  348MPD2    H1 5272   2.728   1.266  11.353 -0.7221 -1.7289 -2.7582
  348MPD2    H2 5273   2.643   1.005  11.659 -0.6160  1.5415  0.2754
  348MPD2    H3 5274   2.688   1.230  11.578 -1.7330 -0.4832  1.0908
  348MPD2     N 5275   2.702   1.096  11.141 -0.8221 -0.8761  0.8298
  348MPD2    H5 5276   2.675   1.019  11.082  0.2931  0.5427 -1.5154
  348MPD2    N1 5277   2.567   0.792  11.497  0.1915 -0.1618  0.4272
  348MPD2    H7 5278   2.527   0.733  11.425  1.1037  0.9812 -1.0153
  349TMC3    C1 5279   2.511   0.616  11.636 -0.8881 -0.4927 -0.6290
  349TMC3    C2 5280   2.570   0.543  11.735 -0.1087  0.5389 -0.3765
  349TMC3    C3 5281   2.513   0.426  11.779 -0.1723  0.3302  0.1777
  349TMC3    C4 5282   2.375   0.594  11.602  0.1907 -0.2821  0.2442
  349TMC3    C5 5283   2.325   0.472  11.648  0.6848 -0.1776 -0.3051
  349TMC3    C6 5284   2.391   0.391  11.737  0.1728 -0.1967  0.4143
  349TMC3     C 5285   2.565   0.750  11.629  0.5544 -0.0768 -0.3044
  349TMC3     O 5286   2.641   0.781  11.716  0.5132  0.0797 -0.3595
  349TMC3     H 5287   2.676   0.555  11.754  0.3900 -0.5018 -2.5743
  349TMC3    H1 5288   2.322   0.636  11.518  0.0767 -2.2815 -0.7047
  349TMC3    H2 5289   2.344   0.298  11.767  3.4263 -1.6245  1.1069
  349TMC3    C7 5290   2.195   0.423  11.610  0.4260 -0.7693  0.2372
  349TMC3    C8 5291   2.578   0.339  11.884  0.3017 -0.4219 -0.1643
  349TMC3    O1 5292   2.183   0.304  11.611 -0.0074 -0.0252  1.0349
  349TMC3    O2 5293   2.503   0.264  11.947 -0.2377  0.5077 -0.0508
  350MPD2     C 5294   2.307   2.935  11.060  0.0940  0.0462 -0.1110
  350MPD2    C1 5295   2.207   2.849  11.021  0.1161  0.3256 -0.6819
  350MPD2    C2 5296   2.090   2.860  11.092 -0.0801  0.2567  0.0779
  350MPD2    C3 5297   2.074   2.945  11.204  0.1117 -0.3642 -0.3880
  350MPD2    C4 5298   2.179   3.024  11.242 -0.7149  0.6217 -0.1487
  350MPD2    C5 5299   2.293   3.022  11.169  0.2506 -0.3267 -0.1381
  350MPD2     H 5300   2.012   2.793  11.059 -0.9458  1.4339 -0.2523
  350MPD2    H1 5301   2.174   3.090  11.328 -1.0838  1.4023 -0.7715
  350MPD2    H2 5302   2.399   2.940  11.002 -2.1974  3.2023 -3.4738
  350MPD2    H3 5303   2.377   3.086  11.191  0.5379 -0.4498 -0.8868
  350MPD2     N 5304   1.947   2.942  11.266  0.7128  0.2502  0.3091
  350MPD2    H5 5305   1.884   2.872  11.229 -0.3049  1.5556 -0.4179
  350MPD2    N1 5306   2.205   2.773  10.900 -0.0543 -0.2579  0.5549
  350MPD2    H7 5307   2.115   2.731  10.879 -0.0040 -0.8430  1.5164
  351TMC3    C1 5308   2.279   2.704  10.691  0.5988 -0.1922  1.0482
  351TMC3    C2 5309   2.385   2.673  10.611  0.1595 -0.0044  0.4276
  351TMC3    C3 5310   2.353   2.667  10.479  0.2967  0.5781 -0.2505
  351TMC3    C4 5311   2.149   2.743  10.640 -0.3960  0.3369  0.2800
  351TMC3    C5 5312   2.123   2.730  10.510  0.2092  0.2620  0.5583
  351TMC3    C6 5313   2.229   2.699  10.424 -0.1705  0.2480  0.9354
  351TMC3     C 5314   2.322   2.746  10.821 -0.1180  0.6885  0.6107
  351TMC3     O 5315   2.438   2.769  10.838  0.4856 -0.9401  0.1651
  351TMC3     H 5316   2.477   2.635  10.654  0.1336 -2.5514 -1.7982
  351TMC3    H1 5317   2.067   2.777  10.703  1.2832  3.3450  0.8530
  351TMC3    H2 5318   2.208   2.667  10.323  0.2254 -0.0499  0.9476
  351TMC3    C7 5319   1.988   2.758  10.467 -0.4157  0.2203  0.1818
  351TMC3    C8 5320   2.463   2.627  10.387  0.4690 -0.8055  0.6947
  351TMC3    O1 5321   1.920   2.839  10.537  0.5879 -0.0242  0.2381
  351TMC3    O2 5322   2.438   2.606  10.269  0.4627 -0.0902  0.5106
  352MPD2     C 5323   3.926   1.276   1.313 -0.3605 -0.6458  0.0569
  352MPD2    C1 5324   3.882   1.197   1.211 -0.6034  0.4171  0.0874
  352MPD2    C2 5325   3.941   1.070   1.205 -0.4206 -0.1037 -0.3687
  352MPD2    C3 5326   4.060   1.041   1.272 -0.6572 -0.4230 -0.8334
  352MPD2    C4 5327   4.109   1.126   1.368 -0.3809  0.5158 -0.1318
  352MPD2    C5 5328   4.027   1.241   1.400  0.2215 -0.0674 -0.3587
  352MPD2     H 5329   3.894   0.991   1.148 -1.0710 -1.2284  1.7160
  352MPD2    H1 5330   4.193   1.097   1.429  1.6602 -1.6189 -3.9927
  352MPD2    H2 5331   3.863   1.362   1.334  0.7371 -0.2156  1.6016
  352MPD2    H3 5332   4.052   1.299   1.488  0.0361 -2.1903  1.0777
  352MPD2     N 5333   4.128   0.917   1.258  0.3273  0.7577 -0.1525
  352MPD2    H5 5334   4.223   0.912   1.295  0.9489  0.5251 -1.8080
  352MPD2    N1 5335   3.762   1.230   1.143 -0.5624  0.1254 -0.1602
  352MPD2    H7 5336   3.703   1.308   1.166 -1.1296 -0.3688  0.0529
  353TMC3    C1 5337   4.157   0.686   1.200 -0.7410  0.4845  0.3571
  353TMC3    C2 5338   4.297   0.690   1.198 -0.4557  0.4864 -0.7440
  353TMC3    C3 5339   4.365   0.573   1.177 -0.2764 -0.4662 -0.7379
  353TMC3    C4 5340   4.089   0.570   1.190  0.3479  0.1543  0.6560
  353TMC3    C5 5341   4.162   0.453   1.177  0.3250 -0.8864  0.3714
  353TMC3    C6 5342   4.297   0.451   1.171  0.8866 -0.0922  0.0092
  353TMC3     C 5343   4.071   0.801   1.219 -0.0712 -0.2786  0.1088
  353TMC3     O 5344   3.952   0.780   1.203 -0.4217 -0.2163 -0.2835
  353TMC3     H 5345   4.351   0.782   1.221  0.6465 -0.1404 -0.8495
  353TMC3    H1 5346   3.982   0.559   1.176  0.5164 -1.6764  0.7528
  353TMC3    H2 5347   4.341   0.353   1.162  1.7240  0.0885  2.1946
  353TMC3    C7 5348   4.100   0.323   1.141  0.2230 -0.2273 -0.1658
  353TMC3    C8 5349   4.511   0.582   1.166  0.2358 -0.6250  0.2672
  353TMC3    O1 5350   4.158   0.240   1.067 -0.0752  0.2757  0.3345
  353TMC3    O2 5351   4.575   0.678   1.207 -0.5147  0.3011  0.2839
  354TMC3    C1 5352   1.348   1.909  13.637 -0.0109 -0.2969 -0.5028
  354TMC3    C2 5353   1.370   2.043  13.616  0.5698  0.3691 -0.3781
  354TMC3    C3 5354   1.462   2.085  13.525 -0.3777 -0.0384  0.1961
  354TMC3    C4 5355   1.420   1.817  13.556  0.2508 -0.5806 -0.0175
  354TMC3    C5 5356   1.501   1.865  13.460 -0.3559 -0.0947 -0.5919
  354TMC3    C6 5357   1.509   1.998  13.434 -0.1408  0.2595  0.3104
  354TMC3     C 5358   1.324   1.853  13.767  0.3181 -0.6155  0.0823
  354TMC3     O 5359   1.215   1.824  13.811 -0.0350  0.3239 -0.1730
  354TMC3     H 5360   1.317   2.112  13.680  0.5199 -0.2817  0.2902
  354TMC3    H1 5361   1.424   1.712  13.585 -0.8330 -0.8590 -0.8736
  354TMC3    H2 5362   1.579   2.027  13.356  0.7416 -1.5667  0.4063
  354TMC3    C7 5363   1.596   1.771  13.398 -0.2484 -0.4948 -0.2718
  354TMC3    C8 5364   1.480   2.233  13.514 -0.9494  0.9818  0.1025
  354TMC3    O1 5365   1.568   1.651  13.397  0.0698 -0.2951  0.1088
  354TMC3    O2 5366   1.433   2.298  13.607  0.1051  0.0346  0.0780
  355MPD2     C 5367   1.928   2.807  12.460  0.2017  0.1047 -0.1615
  355MPD2    C1 5368   2.024   2.723  12.404  0.3449 -0.0320  0.5308
  355MPD2    C2 5369   2.054   2.602  12.455  0.3390  0.6385 -0.3413
  355MPD2    C3 5370   2.001   2.566  12.578 -0.4261 -0.3787 -1.0311
  355MPD2    C4 5371   1.906   2.646  12.634  0.4190  0.0337  0.1265
  355MPD2    C5 5372   1.865   2.764  12.570  0.5273 -0.0249  0.3231
  355MPD2     H 5373   2.133   2.545  12.406  0.5047  0.1162  0.5383
  355MPD2    H1 5374   1.866   2.614  12.730 -3.3752 -2.9284 -2.4370
  355MPD2    H2 5375   1.907   2.907  12.424 -1.3688  0.5818  2.0555
  355MPD2    H3 5376   1.780   2.817  12.613 -0.6230  0.3004 -2.3471
  355MPD2     N 5377   2.051   2.446  12.643 -0.1091 -0.2280 -0.3637
  355MPD2    H5 5378   1.992   2.410  12.717 -1.7715  2.1988 -0.4874
  355MPD2    N1 5379   2.084   2.777  12.286 -0.3383  0.2136 -0.4497
  355MPD2    H7 5380   2.069   2.876  12.270  1.9111  0.0958 -3.2577
  356TMC3    C1 5381   2.282   2.504  12.647 -0.4985  0.0376  1.1500
  356TMC3    C2 5382   2.374   2.495  12.542  0.3911 -0.2438  0.1537
  356TMC3    C3 5383   2.439   2.615  12.513 -0.2965  0.3278  0.1873
  356TMC3    C4 5384   2.271   2.616  12.724  0.4668  0.1224 -0.4561
  356TMC3    C5 5385   2.342   2.725  12.691 -0.6079  0.2742 -0.4654
  356TMC3    C6 5386   2.424   2.730  12.582 -0.2563  0.5948  0.0078
  356TMC3     C 5387   2.178   2.403  12.649  0.5239  1.0903  0.2293
  356TMC3     O 5388   2.221   2.289  12.668 -0.5216  0.0925 -0.5716
  356TMC3     H 5389   2.394   2.410  12.477 -0.2672 -0.8619  0.7612
  356TMC3    H1 5390   2.194   2.620  12.801  2.1001 -0.7706  1.2140
  356TMC3    H2 5391   2.478   2.822  12.561 -2.1289  1.9866  1.3136
  356TMC3    C7 5392   2.359   2.814  12.808  0.2062 -0.8478 -0.0108
  356TMC3    C8 5393   2.488   2.634  12.377 -0.9518 -0.2647  0.5205
  356TMC3    O1 5394   2.297   2.780  12.909 -0.1258 -0.6324  0.6588
  356TMC3    O2 5395   2.461   2.542  12.307 -0.5926 -0.0622  0.2147
  357MPD2     C 5396   1.013   2.507   1.634 -0.2024  0.1036 -0.1785
  357MPD2    C1 5397   0.986   2.398   1.559  0.7624 -0.0121  1.0838
  357MPD2    C2 5398   0.893   2.306   1.602  0.6285  0.4016  0.1428
  357MPD2    C3 5399   0.840   2.312   1.727  0.6041  0.0067 -0.7449
  357MPD2    C4 5400   0.878   2.422   1.806  0.5736  0.1009  0.0693
  357MPD2    C5 5401   0.958   2.522   1.755 -0.2918  0.2131 -0.6273
  357MPD2     H 5402   0.859   2.224   1.540  1.2657  0.5028 -0.3323
  357MPD2    H1 5403   0.834   2.445   1.902  0.5766  0.1371  0.0621
  357MPD2    H2 5404   1.079   2.585   1.599  0.0730 -0.3017 -0.5714
  357MPD2    H3 5405   0.986   2.611   1.809  2.0061 -1.6711  1.2711
  357MPD2     N 5406   0.752   2.222   1.774 -0.1074 -0.5951 -0.1989
  357MPD2    H5 5407   0.685   2.240   1.849 -0.9646 -5.2045  0.1349
  357MPD2    N1 5408   1.051   2.398   1.434 -0.4358 -0.6054  0.4303
  357MPD2    H7 5409   1.132   2.458   1.421 -0.8016 -0.3456 -0.7002
  358TMC3    C1 5410   1.093   2.287   1.225 -0.5869  0.5242  0.7891
  358TMC3    C2 5411   1.026   2.255   1.112  0.3876  0.6358 -0.4093
  358TMC3    C3 5412   1.094   2.185   1.014 -0.0356 -0.0086  0.3223
  358TMC3    C4 5413   1.230   2.272   1.239 -0.0175  0.1564 -0.5125
  358TMC3    C5 5414   1.284   2.192   1.149 -0.3116 -0.3788 -0.1483
  358TMC3    C6 5415   1.215   2.143   1.042  0.1244 -0.4310  0.4969
  358TMC3     C 5416   1.001   2.318   1.332 -0.2364 -0.0149  0.3071
  358TMC3     O 5417   0.881   2.293   1.315  0.3776  0.4551 -0.1769
  358TMC3     H 5418   0.920   2.273   1.095  0.4017 -0.2026 -1.4296
  358TMC3    H1 5419   1.291   2.305   1.323  1.5215  1.0060 -1.9797
  358TMC3    H2 5420   1.278   2.087   0.973 -0.0979  1.0883 -0.9267
  358TMC3    C7 5421   1.417   2.136   1.182  0.1924  0.5686 -0.2855
  358TMC3    C8 5422   1.011   2.135   0.902 -0.1566  0.1433  0.4408
  358TMC3    O1 5423   1.481   2.187   1.271 -0.1095  0.1094  0.2597
  358TMC3    O2 5424   0.912   2.202   0.873 -0.3292  0.2506  0.1594
  359MPD2     C 5425   2.112   2.120  12.336  0.6263  0.4836 -0.8719
  359MPD2    C1 5426   2.119   1.985  12.304 -0.6562  0.1072 -0.0449
  359MPD2    C2 5427   2.019   1.905  12.341 -0.0429  1.0410 -1.1638
  359MPD2    C3 5428   1.918   1.945  12.428 -0.8229 -0.0329 -1.2014
  359MPD2    C4 5429   1.912   2.076  12.454 -0.2439  0.6172 -0.3704
  359MPD2    C5 5430   2.010   2.163  12.409 -0.0716  0.0568  0.2711
  359MPD2     H 5431   2.032   1.799  12.320  0.2817  0.5988  1.2833
  359MPD2    H1 5432   1.834   2.132  12.504 -0.1001  1.0319 -0.6073
  359MPD2    H2 5433   2.196   2.180  12.301  0.6400  1.0967  0.1983
  359MPD2    H3 5434   2.001   2.264  12.449  1.2203 -0.4233  1.7446
  359MPD2     N 5435   1.830   1.847  12.466 -0.7552  0.0931  0.1110
  359MPD2    H5 5436   1.741   1.879  12.503 -0.7055  1.6507 -1.1392
  359MPD2    N1 5437   2.226   1.921  12.237 -0.0403  0.4500 -0.5421
  359MPD2    H7 5438   2.211   1.830  12.195 -0.0935  0.1351  0.1583
  360TMC3    C1 5439   2.447   1.878  12.142 -0.1643  0.5032  0.3246
  360TMC3    C2 5440   2.529   1.923  12.040  0.1899 -0.9576 -0.4808
  360TMC3    C3 5441   2.602   1.829  11.970  0.3418 -1.0134  0.4793
  360TMC3    C4 5442   2.409   1.746  12.152 -0.0669  0.2616 -0.5031
  360TMC3    C5 5443   2.477   1.660  12.067 -0.0299  0.7452  0.3367
  360TMC3    C6 5444   2.577   1.689  11.979  0.1189  0.3069  0.1529
  360TMC3     C 5445   2.350   1.972  12.197  0.1999 -0.1838  0.1041
  360TMC3     O 5446   2.401   2.079  12.220  0.0422  0.0630 -0.7613
  360TMC3     H 5447   2.569   2.024  12.048  0.9133 -1.4222  1.5519
  360TMC3    H1 5448   2.355   1.714  12.241  0.9570  2.9067  1.0916
  360TMC3    H2 5449   2.641   1.625  11.919 -0.5033 -1.5433  1.4867
  360TMC3    C7 5450   2.427   1.523  12.076 -0.3315 -0.0347  0.6104
  360TMC3    C8 5451   2.709   1.880  11.882 -0.9016  0.1386 -0.8600
  360TMC3    O1 5452   2.317   1.514  12.133  0.3653 -0.2716  0.5014
  360TMC3    O2 5453   2.747   1.995  11.903 -0.2920 -0.5046  0.3334
  361MPD2     C 5454   3.576   0.605  16.532  0.3499 -0.3776 -0.2808
  361MPD2    C1 5455   3.568   0.642  16.662 -0.4361  0.0616 -0.0466
  361MPD2    C2 5456   3.585   0.543  16.756 -0.5724  0.3011 -0.4200
  361MPD2    C3 5457   3.615   0.412  16.717 -0.2403  0.4640 -0.2135
  361MPD2    C4 5458   3.637   0.381  16.588 -0.2416 -0.1893  0.4123
  361MPD2    C5 5459   3.617   0.479  16.494 -0.2507  0.7900  0.3222
  361MPD2     H 5460   3.563   0.567  16.859 -0.4157 -1.0401 -0.0891
  361MPD2    H1 5461   3.676   0.286  16.551  0.1238  0.6340 -1.3036
  361MPD2    H2 5462   3.537   0.671  16.456 -2.2470  2.4553  3.5448
  361MPD2    H3 5463   3.622   0.452  16.389 -0.3323 -0.9409  0.7642
  361MPD2     N 5464   3.638   0.305  16.809 -0.0301  0.2474  0.0297
  361MPD2    H5 5465   3.674   0.220  16.768 -0.5306  0.0306  0.0533
  361MPD2    N1 5466   3.519   0.776  16.686 -0.1320 -0.0326  0.4903
  361MPD2    H7 5467   3.478   0.826  16.607 -1.0016 -0.1603  0.8531
  362TMC3    C1 5468   3.423   0.942  16.830 -0.8935 -0.6800  0.1070
  362TMC3    C2 5469   3.426   1.014  16.953 -0.4730 -0.4318 -0.6844
  362TMC3    C3 5470   3.366   1.136  16.966 -0.6267  0.3403  0.0080
  362TMC3    C4 5471   3.356   0.991  16.723 -0.8924 -0.2597 -0.1034
  362TMC3    C5 5472   3.304   1.114  16.738 -0.3181  0.6958 -0.4588
  362TMC3    C6 5473   3.310   1.188  16.854 -0.0739 -0.6847  0.1845
  362TMC3     C 5474   3.513   0.835  16.811 -0.2106  0.7283 -0.1819
  362TMC3     O 5475   3.572   0.791  16.909 -0.4774 -0.3634 -0.6363
  362TMC3     H 5476   3.487   0.974  17.033  0.6887  0.4750 -1.1199
  362TMC3    H1 5477   3.358   0.946  16.625 -1.7357  0.3786 -0.4159
  362TMC3    H2 5478   3.258   1.283  16.863  1.1970  0.2510 -2.3395
  362TMC3    C7 5479   3.193   1.145  16.647 -0.2950 -0.7756 -0.7276
  362TMC3    C8 5480   3.331   1.177  17.099  0.4577  0.4294 -0.1077
  362TMC3    O1 5481   3.160   1.261  16.632 -0.4769 -0.6834 -0.1020
  362TMC3    O2 5482   3.405   1.133  17.187  0.2026 -0.4449 -0.0727
  363TMC3    C1 5483   3.516   2.447  10.007  0.4836 -0.5831  0.7882
  363TMC3    C2 5484   3.440   2.348  10.058 -0.6527  0.0668 -0.0583
  363TMC3    C3 5485   3.310   2.370  10.104 -0.5336 -1.2884 -0.0730
  363TMC3    C4 5486   3.454   2.570   9.986 -0.1330  0.5488 -0.0421
  363TMC3    C5 5487   3.331   2.594  10.034  0.4902  0.3182 -0.2840
  363TMC3    C6 5488   3.257   2.494  10.098  0.3914  0.2294 -0.0031
  363TMC3     C 5489   3.651   2.424   9.962  0.0339  0.8328  0.4297
  363TMC3     O 5490   3.708   2.530   9.973 -0.2032  0.4597  0.2099
  363TMC3     H 5491   3.487   2.254  10.085 -1.3570 -0.5077 -0.8504
  363TMC3    H1 5492   3.504   2.653   9.940  0.4195 -0.5498 -1.4104
  363TMC3    H2 5493   3.158   2.520  10.136  1.8671  2.2910  2.3780
  363TMC3    C7 5494   3.258   2.724   9.999  0.3742 -0.9641 -0.2862
  363TMC3    C8 5495   3.222   2.259  10.102  0.2015 -0.0078 -0.5330
  363TMC3    O1 5496   3.139   2.722  10.027  0.3392  0.5651  0.4608
  363TMC3    O2 5497   3.104   2.287  10.136 -0.0132  0.1141 -0.3647
  364MPD2     C 5498   1.848   1.792  10.661 -0.3360  0.5773 -0.2395
  364MPD2    C1 5499   1.839   1.841  10.790 -0.1864  0.3958  0.2284
  364MPD2    C2 5500   1.755   1.790  10.884  0.7289  0.6511  0.9358
  364MPD2    C3 5501   1.665   1.691  10.852  0.1389 -0.5387 -0.2715
  364MPD2    C4 5502   1.658   1.656  10.724 -0.2634  0.3663 -0.2771
  364MPD2    C5 5503   1.752   1.702  10.631 -0.6709  0.2645  0.7493
  364MPD2     H 5504   1.751   1.836  10.982 -0.7010 -0.6395  1.4870
  364MPD2    H1 5505   1.583   1.592  10.679 -0.4922 -0.2298  0.9514
  364MPD2    H2 5506   1.909   1.816  10.575  0.0422 -2.1577 -0.7548
  364MPD2    H3 5507   1.740   1.673  10.527  1.8423  0.3219  0.4426
  364MPD2     N 5508   1.589   1.615  10.942  0.1707 -0.2278 -0.4832
  364MPD2    H5 5509   1.523   1.550  10.900 -2.0560  0.8826  1.2710
  364MPD2    N1 5510   1.925   1.955  10.811  0.4824  0.7346  0.3451
  364MPD2    H7 5511   1.985   1.978  10.733 -0.2396 -1.9390 -0.9844
  365TMC3    C1 5512   2.016   2.149  10.903 -0.2469  0.1102  0.6165
  365TMC3    C2 5513   2.120   2.145  10.811 -0.1977 -0.1961 -0.5738
  365TMC3    C3 5514   2.183   2.262  10.798 -0.4480 -0.7098  0.3992
  365TMC3    C4 5515   1.971   2.261  10.969  0.4387 -0.1679 -0.2797
  365TMC3    C5 5516   2.035   2.373  10.937 -0.4645 -0.0690 -0.3253
  365TMC3    C6 5517   2.136   2.378  10.850 -1.0164  0.5164  0.0372
  365TMC3     C 5518   1.926   2.039  10.920 -0.6227 -0.4440 -1.0016
  365TMC3     O 5519   1.866   2.034  11.025  0.7286 -0.9300  0.2500
  365TMC3     H 5520   2.153   2.052  10.766  0.3272 -0.4347  0.3139
  365TMC3    H1 5521   1.880   2.269  11.027 -0.0375  1.4698 -1.2499
  365TMC3    H2 5522   2.185   2.474  10.839 -0.4188  0.4839  2.2719
  365TMC3    C7 5523   1.969   2.496  10.967  0.1436 -0.4374  0.2682
  365TMC3    C8 5524   2.289   2.288  10.702 -0.5112 -0.1084 -0.2612
  365TMC3    O1 5525   1.981   2.584  10.883 -0.3685 -0.1434 -0.1331
  365TMC3    O2 5526   2.341   2.399  10.689 -0.1050  0.3055 -0.1774
  366MPD2     C 5527   3.643   3.240  15.372 -0.3631  0.5512 -0.6098
  366MPD2    C1 5528   3.740   3.285  15.285  0.1734 -0.0012 -0.1192
  366MPD2    C2 5529   3.864   3.220  15.275  0.0031 -0.1404  0.3096
  366MPD2    C3 5530   3.886   3.117  15.361  0.3022 -0.0089  0.3961
  366MPD2    C4 5531   3.786   3.062  15.438  0.1235 -0.0513  0.0541
  366MPD2    C5 5532   3.662   3.123  15.439 -1.1683 -0.5169 -0.3554
  366MPD2     H 5533   3.940   3.272  15.217  0.2343  0.2010  0.9164
  366MPD2    H1 5534   3.802   2.979  15.506  1.3756  0.3439  0.2354
  366MPD2    H2 5535   3.551   3.296  15.382 -1.1718 -0.9484  0.3159
  366MPD2    H3 5536   3.587   3.077  15.503  0.1604 -1.6933  0.3517
  366MPD2     N 5537   4.024   3.090  15.376 -0.5136  0.3608  0.6592
  366MPD2    H5 5538   4.082   3.149  15.317  0.2313 -1.3989 -0.3707
  366MPD2    N1 5539   3.734   3.410  15.225  0.1578  0.1003 -1.0484
  366MPD2    H7 5540   3.817   3.440  15.175  0.4507 -0.9451 -1.2001
  367TMC3    C1 5541   3.670   3.633  15.231 -0.0073 -0.2265 -0.0961
  367TMC3    C2 5542   3.784   3.657  15.305 -0.2243 -0.8720 -0.0124
  367TMC3    C3 5543   3.809   3.787  15.340 -0.6764 -0.3630  0.2971
  367TMC3    C4 5544   3.581   3.728  15.200  0.3424 -0.2848 -0.1965
  367TMC3    C5 5545   3.607   3.851  15.249  0.3104 -0.6916 -0.4901
  367TMC3    C6 5546   3.724   3.887  15.319 -0.6000  0.3990 -0.6718
  367TMC3     C 5547   3.627   3.497  15.229  0.2627  0.3947 -0.2373
  367TMC3     O 5548   3.502   3.483  15.246 -0.3300 -0.7022  0.3961
  367TMC3     H 5549   3.852   3.577  15.330  0.2667  0.0111  1.4689
  367TMC3    H1 5550   3.483   3.710  15.157  1.4070  0.1945 -2.8045
  367TMC3    H2 5551   3.737   3.992  15.339  1.0414 -0.6473  3.7623
  367TMC3    C7 5552   3.520   3.952  15.213  0.2942  0.1323  0.4639
  367TMC3    C8 5553   3.915   3.808  15.441  0.6071  0.8492 -0.2165
  367TMC3    O1 5554   3.523   4.043  15.287  0.1478 -0.6916  0.6225
  367TMC3    O2 5555   3.999   3.719  15.456 -0.6472 -0.3854 -0.5320
  368MPD2     C 5556   0.535   0.484  13.272 -0.1846 -0.1329 -0.0835
  368MPD2    C1 5557   0.521   0.621  13.272 -0.0231 -0.4658 -0.1704
  368MPD2    C2 5558   0.615   0.696  13.207 -0.2234 -0.8325  0.2356
  368MPD2    C3 5559   0.719   0.643  13.132 -0.1202  0.1996 -0.8730
  368MPD2    C4 5560   0.729   0.502  13.134  0.1768 -0.8249 -0.3783
  368MPD2    C5 5561   0.637   0.425  13.208 -0.5897  0.6172  0.2341
  368MPD2     H 5562   0.618   0.801  13.233 -1.2793 -0.9921  1.0181
  368MPD2    H1 5563   0.818   0.463  13.086 -0.8075 -3.9257  0.3772
  368MPD2    H2 5564   0.466   0.424  13.331  0.7817  0.3655  1.5473
  368MPD2    H3 5565   0.637   0.316  13.204 -3.0474  0.5822  1.4321
  368MPD2     N 5566   0.814   0.736  13.073  0.4245 -0.3580  0.4492
  368MPD2    H5 5567   0.801   0.835  13.088  3.2027 -0.0224  0.6041
  368MPD2    N1 5568   0.419   0.682  13.356 -0.9607 -0.0326  0.2804
  368MPD2    H7 5569   0.359   0.622  13.411 -0.6901 -1.1235 -0.6276
  369TMC3    C1 5570   0.319   0.838  13.497 -0.3469 -0.1908  0.3314
  369TMC3    C2 5571   0.321   0.955  13.560  0.2610 -0.2115  0.5714
  369TMC3    C3 5572   0.230   0.977  13.663  0.3687  0.4449 -0.1188
  369TMC3    C4 5573   0.223   0.745  13.521 -0.4154  0.0406 -0.3322
  369TMC3    C5 5574   0.133   0.769  13.618 -0.0014  0.5133 -0.2923
  369TMC3    C6 5575   0.145   0.875  13.702 -0.0060  0.5755 -0.4839
  369TMC3     C 5576   0.391   0.818  13.375 -0.2780  0.0643 -0.3380
  369TMC3     O 5577   0.443   0.920  13.323  0.1122 -0.0450 -0.0960
  369TMC3     H 5578   0.393   1.033  13.538 -1.4858  0.7059 -1.7925
  369TMC3    H1 5579   0.210   0.661  13.454 -2.9262  0.0903  0.0814
  369TMC3    H2 5580   0.082   0.875  13.790  0.4479  1.6217 -0.1609
  369TMC3    C7 5581   0.014   0.685  13.632  0.2647  0.5428 -0.2275
  369TMC3    C8 5582   0.169   1.107  13.689  0.4327 -0.2536  0.1718
  369TMC3    O1 5583   4.691   0.710  13.736  0.1358  0.4796 -0.3705
  369TMC3    O2 5584   0.069   1.103  13.761  0.1613 -0.4057  0.0449
  370TMC3    C1 5585   3.984   1.475  16.363 -0.0920 -0.8108 -0.3526
  370TMC3    C2 5586   3.959   1.381  16.457 -0.2431  0.9338  0.5737
  370TMC3    C3 5587   3.984   1.251  16.411  0.0047  0.6428 -0.1085
  370TMC3    C4 5588   4.029   1.446  16.244 -0.3202  0.2346 -0.3727
  370TMC3    C5 5589   4.044   1.316  16.202 -0.5030 -0.2048  0.6827
  370TMC3    C6 5590   4.028   1.215  16.286 -0.2676  0.3066  0.3361
  370TMC3     C 5591   4.018   1.609  16.412 -0.6358 -0.8881 -0.4815
  370TMC3     O 5592   3.927   1.653  16.480 -0.3145 -0.2550 -0.4120
  370TMC3     H 5593   3.927   1.408  16.557  0.1855 -2.1476  1.5451
  370TMC3    H1 5594   4.060   1.523  16.175  1.8010 -0.7767 -0.5594
  370TMC3    H2 5595   4.023   1.110  16.261 -0.3892  0.1920  0.8496
  370TMC3    C7 5596   4.109   1.290  16.077 -0.2311  0.0584  0.4285
  370TMC3    C8 5597   4.016   1.142  16.507  0.4108  0.1822  0.3339
  370TMC3    O1 5598   4.102   1.379  15.989  0.4915  0.1857 -0.3076
  370TMC3    O2 5599   4.043   1.030  16.470  0.0582 -0.3206  0.3462
  371TMC3    C1 5600   0.904   4.522  15.530  0.3212  0.0712  0.1113
  371TMC3    C2 5601   0.799   4.514  15.621 -1.1099 -0.0474 -0.3089
  371TMC3    C3 5602   0.734   4.635  15.639  0.3527 -0.4713  0.2407
  371TMC3    C4 5603   0.938   4.625  15.448  0.2044  0.3053  1.2260
  371TMC3    C5 5604   0.869   4.738  15.474  0.0472 -0.4616  0.1845
  371TMC3    C6 5605   0.773   0.008  15.569  0.5969 -0.1227  0.4593
  371TMC3     C 5606   1.002   4.405  15.525 -0.2699 -0.1956 -0.4813
  371TMC3     O 5607   1.117   4.426  15.490  0.1770 -0.5577  0.3483
  371TMC3     H 5608   0.760   4.426  15.671 -0.3994 -1.2764 -1.9190
  371TMC3    H1 5609   1.018   4.632  15.376 -0.7116 -0.4749  0.1438
  371TMC3    H2 5610   0.723   0.104  15.581  0.1085 -0.1308 -1.4355
  371TMC3    C7 5611   0.908   0.123  15.412  0.4026 -0.0823 -0.6615
  371TMC3    C8 5612   0.591   4.617  15.647 -0.8339 -0.2239  0.2816
  371TMC3    O1 5613   0.862   0.222  15.467  0.3629  0.0755 -0.9689
  371TMC3    O2 5614   0.544   4.505  15.633 -0.0444 -0.7564  0.1774
  372MPD2     C 5615   1.131   0.894  13.352 -0.2274 -0.3456  0.5015
  372MPD2    C1 5616   1.198   0.804  13.432 -0.2337 -0.3653 -0.0196
  372MPD2    C2 5617   1.123   0.703  13.493 -0.7587 -0.2578  0.1962
  372MPD2    C3 5618   0.985   0.701  13.484  0.7625  0.4438  0.0748
  372MPD2    C4 5619   0.922   0.791  13.393 -0.3198 -0.4608  0.2668
  372MPD2    C5 5620   0.995   0.886  13.331  0.3967  0.0279  0.1230
  372MPD2     H 5621   1.171   0.619  13.543  2.6634  1.3493 -0.4044
  372MPD2    H1 5622   0.816   0.789  13.367  0.2460 -0.3854 -1.9821
  372MPD2    H2 5623   1.186   0.973  13.302 -0.4818  0.1538  1.0069
  372MPD2    H3 5624   0.953   0.951  13.255 -2.0722 -1.3216  0.3193
  372MPD2     N 5625   0.913   0.600  13.540  0.0264  0.1706 -0.5363
  372MPD2    H5 5626   0.966   0.524  13.582  1.6474 -0.0835 -3.0328
  372MPD2    N1 5627   1.337   0.818  13.445 -0.5606  0.3807 -0.2658
  372MPD2    H7 5628   1.380   0.761  13.518  0.4192 -0.1133 -1.2328
  373TMC3    C1 5629   0.732   0.468  13.595  1.1227  0.3686 -0.1349
  373TMC3    C2 5630   0.641   0.471  13.697 -0.3275  0.3356 -0.6403
  373TMC3    C3 5631   0.621   0.354  13.763 -0.3562  0.1260 -0.1410
  373TMC3    C4 5632   0.795   0.355  13.553 -0.1322 -0.4580  0.2667
  373TMC3    C5 5633   0.785   0.244  13.631  0.1489 -0.1573 -0.1395
  373TMC3    C6 5634   0.705   0.244  13.743 -0.2722  0.5838 -0.2496
  373TMC3     C 5635   0.784   0.602  13.558  0.0786  0.3700 -0.1074
  373TMC3     O 5636   0.706   0.693  13.548  0.2687 -0.3009 -0.0256
  373TMC3     H 5637   0.595   0.566  13.722  1.1485  0.7829  0.3900
  373TMC3    H1 5638   0.852   0.350  13.461 -0.2414 -0.0745  0.1780
  373TMC3    H2 5639   0.694   0.154  13.802  0.4795  0.6855  0.0444
  373TMC3    C7 5640   0.883   0.134  13.608  0.1076  0.0183 -0.3256
  373TMC3    C8 5641   0.586   0.384  13.898 -0.4921 -0.1640 -0.0225
  373TMC3    O1 5642   0.989   0.169  13.561  0.1148  0.4895  0.2074
  373TMC3    O2 5643   0.496   0.457  13.917  0.5999 -0.0682 -0.2717
  374TMC3    C1 5644   1.746   0.418   9.541  0.5909 -0.3375 -0.3829
  374TMC3    C2 5645   1.770   0.525   9.621 -0.6821 -0.0932 -0.4570
  374TMC3    C3 5646   1.807   0.643   9.563 -0.3230  0.4526  0.2590
  374TMC3    C4 5647   1.764   0.433   9.405  0.7018 -0.5854 -0.2634
  374TMC3    C5 5648   1.795   0.555   9.350 -0.6294  1.1842 -0.0304
  374TMC3    C6 5649   1.816   0.659   9.427  0.0366  0.4728 -0.0731
  374TMC3     C 5650   1.755   0.281   9.589  0.2578 -0.1928 -0.0133
  374TMC3     O 5651   1.784   0.196   9.504 -0.0394 -0.1020 -0.1447
  374TMC3     H 5652   1.765   0.509   9.728  3.2154  1.6558 -0.0433
  374TMC3    H1 5653   1.734   0.350   9.342 -2.1763  0.9662 -0.8991
  374TMC3    H2 5654   1.848   0.755   9.386 -1.0825  1.6766  1.8832
  374TMC3    C7 5655   1.802   0.575   9.206 -0.0452 -0.3190 -0.3389
  374TMC3    C8 5656   1.880   0.735   9.645 -0.4957  0.2688 -0.1116
  374TMC3    O1 5657   1.761   0.684   9.164  0.0019 -0.1254 -0.4115
  374TMC3    O2 5658   1.820   0.843   9.664 -0.6439  0.0212 -0.1305
  375MPD2     C 5659   0.632   1.034  16.751  0.0494  0.1047  0.1597
  375MPD2    C1 5660   0.672   1.167  16.745  0.3595  0.5037  0.2716
  375MPD2    C2 5661   0.783   1.204  16.675 -0.4393 -0.7139  0.2806
  375MPD2    C3 5662   0.861   1.112  16.612 -0.7972  0.3840 -0.2736
  375MPD2    C4 5663   0.828   0.980  16.628 -0.1839  0.7203  0.4747
  375MPD2    C5 5664   0.716   0.941  16.692 -0.5635  0.5295 -0.1045
  375MPD2     H 5665   0.811   1.308  16.666 -2.4377 -0.1921  0.0939
  375MPD2    H1 5666   0.884   0.900  16.583  0.3858  1.8382 -0.8136
  375MPD2    H2 5667   0.544   1.002  16.806 -0.0869 -0.5225 -0.4290
  375MPD2    H3 5668   0.688   0.837  16.684  0.9562  0.0533  0.8471
  375MPD2     N 5669   0.959   1.157  16.523 -0.2701  0.3124  0.2190
  375MPD2    H5 5670   0.973   1.256  16.509 -0.1804  0.2355 -0.2300
  375MPD2    N1 5671   0.586   1.274  16.789 -0.0069  0.9947  0.6382
  375MPD2    H7 5672   0.626   1.367  16.782  1.5887  0.3142  0.8274
  376TMC3    C1 5673   1.119   1.157  16.353 -0.1025 -0.4202  0.8801
  376TMC3    C2 5674   1.245   1.199  16.383  0.6749 -0.2035  0.8018
  376TMC3    C3 5675   1.299   1.281  16.292  0.8591 -0.3275 -0.4285
  376TMC3    C4 5676   1.037   1.208  16.257  0.4276  0.4997 -0.4059
  376TMC3    C5 5677   1.098   1.300  16.173 -0.0688  0.7559 -0.4624
  376TMC3    C6 5678   1.230   1.335  16.185 -0.0824 -0.6303  0.5275
  376TMC3     C 5679   1.054   1.081  16.457  0.2210  0.8838 -0.1461
  376TMC3     O 5680   1.106   0.978  16.502 -0.4084 -0.6552  0.2810
  376TMC3     H 5681   1.297   1.137  16.456  2.6690 -0.4615 -0.8207
  376TMC3    H1 5682   0.936   1.168  16.249  1.6895 -2.5515 -1.3593
  376TMC3    H2 5683   1.271   1.403  16.110 -0.1710 -0.4997  0.5988
  376TMC3    C7 5684   1.023   1.389  16.089  0.5643 -0.0787 -0.3311
  376TMC3    C8 5685   1.423   1.339  16.325 -0.3851 -0.3535 -0.3458
  376TMC3    O1 5686   1.080   1.434  15.991  0.1283  0.3110  0.1710
  376TMC3    O2 5687   1.453   1.438  16.259  0.2099  0.5864 -0.3160
  377MPD2     C 5688   0.112   1.024  13.156 -0.5024  0.4369  0.1747
  377MPD2    C1 5689   0.020   0.968  13.071 -0.1368 -0.2750  0.1305
  377MPD2    C2 5690   4.638   0.926  13.121 -0.3126  0.5266 -0.6273
  377MPD2    C3 5691   4.609   0.942  13.259  0.6806  0.2765 -0.8130
  377MPD2    C4 5692   4.696   1.010  13.335 -0.5312  0.4902 -0.3087
  377MPD2    C5 5693   0.081   1.045  13.286  0.2232 -0.0884 -0.2106
  377MPD2     H 5694   4.572   0.889  13.044  0.4344  3.0418 -2.4960
  377MPD2    H1 5695   4.673   1.039  13.436 -1.2389  3.1544 -1.2195
  377MPD2    H2 5696   0.207   1.062  13.120  0.4774 -2.2376 -0.0733
  377MPD2    H3 5697   0.153   1.096  13.349 -0.5022  0.3186  0.2854
  377MPD2     N 5698   4.485   0.906  13.315 -0.2612 -0.6073  0.0997
  377MPD2    H5 5699   4.463   0.934  13.410  0.2464 -1.5050  0.4809
  377MPD2    N1 5700   0.050   0.942  12.930  0.5380  0.2336 -0.5600
  377MPD2    H7 5701   4.715   0.900  12.876  0.2017  1.6028 -1.1745
  378TMC3    C1 5702   0.090   0.850  12.537 -0.2925 -0.9464 -0.7589
  378TMC3    C2 5703   0.073   0.896  12.662  0.1673 -0.4115  0.7072
  378TMC3    C3 5704   0.183   0.898  12.737  0.2129  0.7217 -0.6495
  378TMC3    C4 5705   0.203   0.790  12.489 -0.4580  0.3633  0.2777
  378TMC3    C5 5706   0.311   0.791  12.573  0.2760 -0.1728  0.0511
  378TMC3    C6 5707   0.305   0.851  12.695 -0.3976 -0.2360  0.1365
  378TMC3     C 5708   4.724   0.881  12.446  0.1229  0.4201  0.3538
  378TMC3     O 5709   4.671   0.990  12.455  0.5913  0.2608  0.4164
  378TMC3     H 5710   4.724   0.952  12.687 -0.0859 -0.6238  0.2839
  378TMC3    H1 5711   0.203   0.770  12.382  2.4188 -1.5998  0.6724
  378TMC3    H2 5712   0.380   0.830  12.770  1.2403  2.3968 -0.7474
  378TMC3    C7 5713   0.437   0.718  12.548 -0.3650  0.1606 -0.8541
  378TMC3    C8 5714   0.174   0.955  12.871  0.7978  0.1419  0.2056
  378TMC3    O1 5715   0.532   0.717  12.627 -0.8913  0.2929  0.1660
  378TMC3    O2 5716   0.283   0.981  12.914  0.5984 -0.4198 -0.2662
  379MPD2     C 5717   0.331   4.117  16.203  0.1793 -0.0147  0.3949
  379MPD2    C1 5718   0.231   4.021  16.229 -0.8343 -0.1028  0.3130
  379MPD2    C2 5719   0.216   3.960  16.348  0.9904 -0.5811  0.2130
  379MPD2    C3 5720   0.312   3.987  16.444  0.0940 -0.2919  0.0953
  379MPD2    C4 5721   0.417   4.062  16.407 -0.4088  1.3494  0.5527
  379MPD2    C5 5722   0.433   4.132  16.290  0.6238  0.3577  0.8266
  379MPD2     H 5723   0.137   3.887  16.363  1.5742 -1.3188 -0.3122
  379MPD2    H1 5724   0.504   4.078  16.470 -1.7271  1.3574  2.3759
  379MPD2    H2 5725   0.314   4.178  16.115  1.5401  0.9919  0.8256
  379MPD2    H3 5726   0.509   4.209  16.283  0.5952  0.1731 -1.5813
  379MPD2     N 5727   0.319   3.916  16.565 -0.3186 -0.5215 -0.7226
  379MPD2    H5 5728   0.406   3.916  16.618 -0.9727 -2.1040  0.3187
  379MPD2    N1 5729   0.137   4.009  16.130  0.9394 -0.0917  0.1455
  379MPD2    H7 5730   0.149   4.065  16.047 -0.0363 -0.1498 -0.0307
  380TMC3    C1 5731   4.719   3.902  15.986 -0.4319 -0.8729  0.5307
  380TMC3    C2 5732   0.042   3.956  15.880  0.0360  0.5045  0.1353
  380TMC3    C3 5733   4.707   3.974  15.763 -0.6333  0.2863  0.1056
  380TMC3    C4 5734   4.586   3.879  15.984  0.2026  0.7117  0.0295
  380TMC3    C5 5735   4.511   3.914  15.877 -0.6772  0.0829 -0.3473
  380TMC3    C6 5736   4.570   3.956  15.765  0.1291  0.2301 -0.7025
  380TMC3     C 5737   0.045   3.904  16.113 -0.6134 -0.3724  0.3510
  380TMC3     O 5738   0.012   3.813  16.184  0.2163  0.3867  0.0245
  380TMC3     H 5739   0.148   3.974  15.881 -0.2128  1.8440  2.0672
  380TMC3    H1 5740   4.545   3.844  16.078 -0.9695  0.9493 -0.3945
  380TMC3    H2 5741   4.513   3.975  15.675  0.4285  0.4403 -0.8465
  380TMC3    C7 5742   4.371   3.948  15.895  0.2824 -0.2729  0.4313
  380TMC3    C8 5743   0.031   4.040  15.648  0.1850 -0.1779 -0.5335
  380TMC3    O1 5744   4.344   3.998  16.003 -0.1565  0.1732 -0.6772
  380TMC3    O2 5745   0.154   4.041  15.657  0.1337 -0.1141  0.0328
  381TMC3    C1 5746   4.170   0.397  16.203 -0.2037 -0.0882 -0.7359
  381TMC3    C2 5747   4.215   0.521  16.169 -0.0571  0.0670  0.2866
  381TMC3    C3 5748   4.203   0.618  16.269  0.9771 -0.1561  0.7615
  381TMC3    C4 5749   4.116   0.362  16.321 -0.1035  0.4967 -0.2767
  381TMC3    C5 5750   4.104   0.465  16.408  0.3580  0.1382 -0.6870
  381TMC3    C6 5751   4.151   0.592  16.389  0.0118 -1.0738 -0.0939
  381TMC3     C 5752   4.191   0.293  16.106 -0.2430 -0.3148  0.1695
  381TMC3     O 5753   4.195   0.179  16.153 -0.0704  0.1182  0.1887
  381TMC3     H 5754   4.267   0.533  16.074  2.7253 -0.9599  1.6637
  381TMC3    H1 5755   4.086   0.263  16.351 -1.4244  0.6917 -0.9387
  381TMC3    H2 5756   4.143   0.666  16.467 -1.7360 -0.1923 -1.1189
  381TMC3    C7 5757   4.055   0.428  16.546  0.8292  0.9010  0.0413
  381TMC3    C8 5758   4.302   0.727  16.257  0.4831 -0.0484  0.3987
  381TMC3    O1 5759   4.080   0.312  16.574 -0.4786 -0.9664  0.2258
  381TMC3    O2 5760   4.369   0.719  16.159  0.4190 -0.0419  0.1952
  382MPD2     C 5761   3.550   3.026  16.614  0.0097 -0.0621 -0.5679
  382MPD2    C1 5762   3.610   3.061  16.735 -0.7035 -0.2047  0.0203
  382MPD2    C2 5763   3.659   2.961  16.815 -0.1955 -0.0498  0.0932
  382MPD2    C3 5764   3.650   2.828  16.784 -0.1800 -0.3928 -0.7421
  382MPD2    C4 5765   3.586   2.797  16.669  0.7021  0.2636  0.5537
  382MPD2    C5 5766   3.549   2.898  16.577 -0.3905  0.4689  1.0216
  382MPD2     H 5767   3.712   2.994  16.904  0.9291 -0.1832 -0.5310
  382MPD2    H1 5768   3.573   2.694  16.638  2.5920 -0.2894  1.6509
  382MPD2    H2 5769   3.510   3.098  16.543  1.0175 -0.7358 -1.8150
  382MPD2    H3 5770   3.512   2.863  16.481 -0.4429  1.1034  0.8161
  382MPD2     N 5771   3.693   2.724  16.873  0.7199  0.1679  0.0049
  382MPD2    H5 5772   3.654   2.633  16.848 -0.3417 -0.1393  2.7695
  382MPD2    N1 5773   3.601   3.195  16.784 -0.1417 -0.4005  0.6327
  382MPD2    H7 5774   3.650   3.219  16.870 -0.5399 -0.6319  0.9274
  383TMC3    C1 5775   3.733   2.664  17.107  0.4195 -1.2661  0.3431
  383TMC3    C2 5776   3.608   2.606  17.109 -0.4174  0.5831 -0.7815
  383TMC3    C3 5777   3.551   2.588  17.231  0.1813 -0.3860  0.7132
  383TMC3    C4 5778   3.793   2.713  17.225 -0.2628  0.3265  0.1227
  383TMC3    C5 5779   3.727   2.700  17.344 -0.1617 -0.0598  0.1437
  383TMC3    C6 5780   3.611   2.633  17.342  0.0919  0.0369 -0.1780
  383TMC3     C 5781   3.757   2.756  16.996  0.6362 -0.1794  0.5586
  383TMC3     O 5782   3.829   2.849  17.029  0.0132  0.1866  0.4028
  383TMC3     H 5783   3.545   2.599  17.021  2.7251 -2.6950 -2.7665
  383TMC3    H1 5784   3.888   2.764  17.233  0.5767 -1.0287 -1.1314
  383TMC3    H2 5785   3.570   2.597  17.436  0.4364  1.2035  0.4200
  383TMC3    C7 5786   3.785   2.749  17.470 -0.0351  0.0986  0.8559
  383TMC3    C8 5787   3.407   2.585  17.227  0.4836  0.5072  0.0791
  383TMC3    O1 5788   3.742   2.695  17.574 -0.7712  0.3341  0.2685
  383TMC3    O2 5789   3.331   2.664  17.285  0.4262 -0.0888  0.4109
  384MPD2     C 5790   1.005   3.975  12.232 -0.2367  0.2870  0.0178
  384MPD2    C1 5791   1.034   3.964  12.367  0.0060 -0.2321  0.0868
  384MPD2    C2 5792   1.129   3.873  12.406  0.1223  0.0305 -0.3393
  384MPD2    C3 5793   1.198   3.803  12.310 -0.1443 -0.4178 -0.6339
  384MPD2    C4 5794   1.191   3.831  12.180 -0.3680  0.0376  0.1574
  384MPD2    C5 5795   1.080   3.911  12.140 -0.7450  0.7305 -0.5399
  384MPD2     H 5796   1.146   3.858  12.512 -0.4833  3.6056  0.2790
  384MPD2    H1 5797   1.262   3.792  12.108  0.4379 -1.1570  1.6023
  384MPD2    H2 5798   0.914   4.023  12.197  0.2450  0.0491 -1.5607
  384MPD2    H3 5799   1.051   3.909  12.035 -0.2478  1.4834 -0.6923
  384MPD2     N 5800   1.283   3.697  12.353  0.2975 -0.4948  0.2283
  384MPD2    H5 5801   1.294   3.692  12.454  0.6718 -4.7909 -0.0574
  384MPD2    N1 5802   0.962   4.033  12.468  0.4121  0.2767 -0.5681
  384MPD2    H7 5803   0.979   4.009  12.566 -0.0567  2.6702  0.0922
  385TMC3    C1 5804   1.378   3.485  12.351  0.3104  0.0651 -0.0488
  385TMC3    C2 5805   1.321   3.365  12.314 -0.1812  0.0639  0.2356
  385TMC3    C3 5806   1.303   3.278  12.423  0.0908  0.3024  0.5878
  385TMC3    C4 5807   1.404   3.514  12.486  0.9756 -0.2127 -0.3894
  385TMC3    C5 5808   1.370   3.432  12.588 -0.5819  0.3010 -0.9191
  385TMC3    C6 5809   1.323   3.310  12.554  0.2020 -0.5970 -1.1017
  385TMC3     C 5810   1.322   3.588  12.273  0.0179  0.0432  0.1929
  385TMC3     O 5811   1.314   3.574  12.147  0.0724  0.0139  0.1337
  385TMC3     H 5812   1.298   3.339  12.212  0.3803 -1.8687  0.6032
  385TMC3    H1 5813   1.438   3.612  12.517  2.4545 -0.4829 -1.1267
  385TMC3    H2 5814   1.305   3.238  12.632 -0.1332 -1.0147 -1.5617
  385TMC3    C7 5815   1.271   3.508  12.663 -0.0853 -0.2922  0.1099
  385TMC3    C8 5816   1.243   3.151  12.399  0.1223  0.2993  0.1867
  385TMC3    O1 5817   1.233   3.601  12.596  0.0641 -0.0459  0.0124
  385TMC3    O2 5818   1.151   3.132  12.476  0.2440 -0.6802 -0.1175
  386TMC3    C1 5819   1.103   0.840  12.549  0.7704 -0.3138  0.2628
  386TMC3    C2 5820   1.083   0.717  12.494 -0.3906 -0.3213  0.3921
  386TMC3    C3 5821   0.956   0.680  12.457 -0.0295  0.3977 -0.0697
  386TMC3    C4 5822   1.000   0.921  12.585 -0.0287 -0.0642  0.0495
  386TMC3    C5 5823   0.869   0.869  12.566 -0.0586 -0.0266  0.8277
  386TMC3    C6 5824   0.845   0.752  12.493 -0.5630  0.1168 -0.5544
  386TMC3     C 5825   1.237   0.886  12.586 -0.5064 -0.1302 -0.5830
  386TMC3     O 5826   1.247   0.994  12.641  0.3339  0.1059  0.5792
  386TMC3     H 5827   1.165   0.665  12.447 -0.8407 -3.0965  2.6745
  386TMC3    H1 5828   1.017   1.018  12.630 -0.9269 -0.0828  0.4283
  386TMC3    H2 5829   0.744   0.737  12.457 -1.0600 -0.7193  1.1742
  386TMC3    C7 5830   0.763   0.973  12.572  0.1773 -0.5410  0.2019
  386TMC3    C8 5831   0.941   0.660  12.321 -0.0037  0.5229  0.6740
  386TMC3    O1 5832   0.755   1.047  12.670  0.6955 -0.2237 -1.0348
  386TMC3    O2 5833   0.889   0.755  12.261  0.3225  0.5025  0.2766
  387MPD2     C 5834   4.548   0.719   9.923  0.0271  0.0749 -0.4050
  387MPD2    C1 5835   4.553   0.721  10.064 -0.1651  0.8572 -0.4182
  387MPD2    C2 5836   4.575   0.604  10.132 -0.3915  0.1171  0.3531
  387MPD2    C3 5837   4.571   0.484  10.065 -0.0581 -0.6737  0.4064
  387MPD2    C4 5838   4.558   0.484   9.929 -0.2671  0.6182  0.0697
  387MPD2    C5 5839   4.550   0.597   9.860  1.1603  0.6601 -0.2955
  387MPD2     H 5840   4.584   0.617  10.240 -0.2755 -0.9938  0.4835
  387MPD2    H1 5841   4.560   0.396   9.865  0.2707  0.7488 -0.0979
  387MPD2    H2 5842   4.538   0.807   9.860  0.2118  1.5222  1.5802
  387MPD2    H3 5843   4.543   0.597   9.751 -0.4466 -0.6609 -0.2045
  387MPD2     N 5844   4.567   0.361  10.138 -0.1039 -0.6387 -0.1903
  387MPD2    H5 5845   4.591   0.376  10.236  0.6683 -1.5094 -0.2470
  387MPD2    N1 5846   4.559   0.838  10.144 -0.0605  0.2652  0.0342
  387MPD2    H7 5847   4.586   0.826  10.241  3.9917  0.8173 -1.0393
  388TMC3    C1 5848   4.484   1.043  10.209 -0.0148  0.0734 -0.4115
  388TMC3    C2 5849   4.400   1.148  10.178 -0.0471 -0.2310 -0.1063
  388TMC3    C3 5850   4.314   1.203  10.273  0.3147  0.4872  0.4990
  388TMC3    C4 5851   4.486   0.992  10.338  0.0159  0.2932 -0.1414
  388TMC3    C5 5852   4.396   1.047  10.424  0.5533  0.3887 -0.3077
  388TMC3    C6 5853   4.310   1.150  10.397  0.1485  0.5426 -0.5379
  388TMC3     C 5854   4.545   0.965  10.098  0.0771 -0.3992  0.5459
  388TMC3     O 5855   4.518   1.010   9.986 -0.5745 -0.4033 -0.7411
  388TMC3     H 5856   4.399   1.200  10.083  1.4687 -1.0024 -0.5431
  388TMC3    H1 5857   4.552   0.914  10.376  0.2126 -0.8551 -2.8327
  388TMC3    H2 5858   4.259   1.181  10.488 -1.2468 -1.2056 -0.7233
  388TMC3    C7 5859   4.369   0.960  10.537 -0.3987 -0.3173 -0.4991
  388TMC3    C8 5860   4.220   1.303  10.232  0.8230  0.2140  0.4984
  388TMC3    O1 5861   4.315   1.012  10.631 -0.6652  0.3969 -0.0482
  388TMC3    O2 5862   4.227   1.348  10.119  0.1574 -0.1383  0.0933
  389MPD2     C 5863   2.875   3.451  10.752 -0.0428 -0.1220 -0.4568
  389MPD2    C1 5864   2.901   3.586  10.782 -0.7843  0.3036  0.6558
  389MPD2    C2 5865   2.894   3.637  10.908  0.1714  0.1794 -0.3850
  389MPD2    C3 5866   2.867   3.550  11.016 -0.4067  0.2774 -0.6052
  389MPD2    C4 5867   2.852   3.417  10.989 -0.2926 -0.0062  0.4307
  389MPD2    C5 5868   2.855   3.368  10.862  0.1612  0.0539 -0.9078
  389MPD2     H 5869   2.906   3.743  10.923  0.1780 -0.0525  1.2612
  389MPD2    H1 5870   2.838   3.342  11.067 -0.7206  0.6462  0.9815
  389MPD2    H2 5871   2.871   3.425  10.647 -1.2500 -1.9932  0.0659
  389MPD2    H3 5872   2.845   3.263  10.837  2.1094  0.0016 -1.4540
  389MPD2     N 5873   2.861   3.591  11.154  0.6366  0.3851 -0.0164
  389MPD2    H5 5874   2.829   3.514  11.211  1.6468  0.6169  0.8599
  389MPD2    N1 5875   2.926   3.677  10.679 -0.1261  0.2555  0.1993
  389MPD2    H7 5876   2.903   3.648  10.584 -0.0062 -0.3514  0.3533
  390TMC3    C1 5877   2.843   3.719  11.347  0.2190 -0.8515  0.3051
  390TMC3    C2 5878   2.779   3.617  11.409 -0.3923 -0.3969  0.4301
  390TMC3    C3 5879   2.753   3.637  11.544 -0.0512 -0.2402  0.0088
  390TMC3    C4 5880   2.888   3.832  11.411  0.3506  0.3818  0.0100
  390TMC3    C5 5881   2.852   3.845  11.540  1.2735 -0.0887 -0.5927
  390TMC3    C6 5882   2.799   3.743  11.616 -0.4114 -0.2677  0.0505
  390TMC3     C 5883   2.878   3.714  11.212  0.1045 -0.1047 -0.1758
  390TMC3     O 5884   2.899   3.817  11.151  0.4973  0.0474  0.3233
  390TMC3     H 5885   2.752   3.520  11.368 -1.5644 -0.0490  0.3549
  390TMC3    H1 5886   2.939   3.909  11.355  0.3831  0.4939  0.1940
  390TMC3    H2 5887   2.801   3.744  11.724  1.5158 -1.4731  0.0150
  390TMC3    C7 5888   2.910   3.958  11.620 -0.7041 -0.2712 -0.0382
  390TMC3    C8 5889   2.692   3.530  11.624 -0.1187  0.0212 -0.5768
  390TMC3    O1 5890   3.016   4.005  11.583  0.1794 -0.3397  0.0792
  390TMC3    O2 5891   2.680   3.420  11.566 -0.4134  0.5200 -0.0862
  391MPD2     C 5892   2.615   0.628  10.750 -0.5179 -0.0398  0.2454
  391MPD2    C1 5893   2.682   0.721  10.674  0.3134  0.5953 -0.4171
  391MPD2    C2 5894   2.733   0.697  10.544 -0.2309 -0.0392  0.6884
  391MPD2    C3 5895   2.722   0.566  10.492  0.2154  0.2151 -0.3473
  391MPD2    C4 5896   2.665   0.470  10.575  0.0855  0.4601 -0.3292
  391MPD2    C5 5897   2.608   0.502  10.697  0.2586  0.4130  0.3890
  391MPD2     H 5898   2.775   0.778  10.484 -0.8834 -0.7984 -0.8111
  391MPD2    H1 5899   2.666   0.367  10.540  1.4189  0.4219 -0.1955
  391MPD2    H2 5900   2.593   0.644  10.855  0.2657 -0.7351  0.5149
  391MPD2    H3 5901   2.578   0.424  10.766  1.4330 -0.2215  0.1800
  391MPD2     N 5902   2.769   0.554  10.355 -0.3748 -0.2143  1.1952
  391MPD2    H5 5903   2.812   0.635  10.312  2.1642 -1.1966  1.9031
  391MPD2    N1 5904   2.682   0.850  10.726  0.0785 -0.4456  0.1937
  391MPD2    H7 5905   2.658   0.848  10.824  0.7913  0.6831  0.3911
  392TMC3    C1 5906   2.768   0.484  10.138  0.0267 -0.2141  0.7561
  392TMC3    C2 5907   2.653   0.473  10.064  0.9044 -1.1391 -0.0947
  392TMC3    C3 5908   2.616   0.580   9.983  0.1046  0.2492 -0.2494
  392TMC3    C4 5909   2.858   0.582  10.115 -0.0796 -0.0751  0.2390
  392TMC3    C5 5910   2.821   0.682  10.026  0.6538  0.0942 -0.2519
  392TMC3    C6 5911   2.702   0.680   9.948  0.0780 -0.2016  0.1731
  392TMC3     C 5912   2.745   0.446  10.270  0.2065  0.4955  0.2200
  392TMC3     O 5913   2.670   0.352  10.289  0.1164  0.5356 -0.0926
  392TMC3     H 5914   2.577   0.401  10.093 -0.1071  0.5038  1.3212
  392TMC3    H1 5915   2.939   0.602  10.184  3.2607 -2.3466 -3.0431
  392TMC3    H2 5916   2.674   0.760   9.880  2.8988  0.4137 -0.2402
  392TMC3    C7 5917   2.918   0.786  10.010  0.1209 -0.7467  0.7607
  392TMC3    C8 5918   2.479   0.581   9.935 -0.3523  0.2739 -0.1690
  392TMC3    O1 5919   3.022   0.792  10.076 -0.3015 -0.0094  0.4909
  392TMC3    O2 5920   2.424   0.483   9.888  0.2373  0.2293 -0.4772
  393TMC3    C1 5921   1.005   3.445  10.794 -0.0868 -0.0906 -0.3675
  393TMC3    C2 5922   0.886   3.432  10.731 -0.6025  0.3325  0.5661
  393TMC3    C3 5923   0.784   3.373  10.802  0.6755 -0.5603  0.8560
  393TMC3    C4 5924   1.025   3.399  10.919  0.8522 -0.3352  0.1573
  393TMC3    C5 5925   0.918   3.345  10.988  0.4635  0.7412 -0.4908
  393TMC3    C6 5926   0.791   3.333  10.932 -0.6623 -0.2254  0.4448
  393TMC3     C 5927   1.120   3.474  10.708 -0.0622  0.0343  0.5493
  393TMC3     O 5928   1.102   3.453  10.590  0.9655 -0.7852 -0.4241
  393TMC3     H 5929   0.881   3.479  10.633 -3.4286  0.6932  0.8804
  393TMC3    H1 5930   1.126   3.410  10.956  0.7058 -0.7940  0.6910
  393TMC3    H2 5931   0.702   3.291  10.976 -1.2213 -0.3020 -0.7568
  393TMC3    C7 5932   0.928   3.281  11.116 -0.2576 -0.0987  1.1650
  393TMC3    C8 5933   0.649   3.411  10.761  0.4521  0.6279  0.3276
  393TMC3    O1 5934   0.819   3.244  11.165  0.1378  0.2588 -0.0458
  393TMC3    O2 5935   0.582   3.443  10.855  0.4832  0.1799 -0.0310
  394TMC3    C1 5936   2.960   3.873  10.560 -0.4049 -0.6686  0.9783
  394TMC3    C2 5937   2.865   3.837  10.473 -0.1210 -0.4158  0.0557
  394TMC3    C3 5938   2.859   3.891  10.348 -0.2884  0.1743  0.1696
  394TMC3    C4 5939   3.066   3.947  10.522 -0.1705  0.5000 -0.0341
  394TMC3    C5 5940   3.075   3.978  10.385 -0.6137  0.3363  0.0559
  394TMC3    C6 5941   2.970   3.958  10.305 -0.1668 -0.3577  0.2589
  394TMC3     C 5942   2.966   3.810  10.690 -0.4869 -0.3160  0.5126
  394TMC3     O 5943   3.021   3.878  10.777  0.5696  0.1589  0.1308
  394TMC3     H 5944   2.789   3.766  10.503 -0.7057  0.6196  1.0162
  394TMC3    H1 5945   3.139   3.974  10.598  0.0331  1.3089 -0.5215
  394TMC3    H2 5946   2.958   4.005  10.209  3.6987 -0.1876 -0.1636
  394TMC3    C7 5947   3.193   4.064  10.343  0.0743 -0.2178 -0.2251
  394TMC3    C8 5948   2.743   3.886  10.258  0.5555 -0.2691  0.2741
  394TMC3    O1 5949   3.254   4.118  10.432 -0.1355 -0.8459  0.2001
  394TMC3    O2 5950   2.752   3.897  10.136  0.1384  0.3080 -0.0718
  395TMC3    C1 5951   2.068   1.652  15.149  0.0061  0.2519 -0.1088
  395TMC3    C2 5952   2.007   1.569  15.060  0.8767 -0.0746  0.6468
  395TMC3    C3 5953   2.053   1.576  14.932  0.2323  0.1428  0.2480
  395TMC3    C4 5954   2.170   1.735  15.116  0.2518 -0.3466 -0.4247
  395TMC3    C5 5955   2.223   1.727  14.988 -0.6252 -0.0567  0.0251
  395TMC3    C6 5956   2.168   1.645  14.889  0.0743 -0.0775 -0.2032
  395TMC3     C 5957   2.025   1.652  15.288  0.0768 -0.1893 -0.0024
  395TMC3     O 5958   2.028   1.759  15.344  0.1331 -0.1128  0.0329
  395TMC3     H 5959   1.912   1.530  15.094  0.0991 -0.5039 -2.0529
  395TMC3    H1 5960   2.211   1.800  15.192 -2.4026 -0.1975  0.8855
  395TMC3    H2 5961   2.196   1.665  14.787 -0.4403  2.0625  0.0741
  395TMC3    C7 5962   2.319   1.835  14.949 -0.6651  0.1695 -0.2902
  395TMC3    C8 5963   1.962   1.558  14.818 -0.0218 -0.1575 -0.3753
  395TMC3    O1 5964   2.326   1.932  15.023 -0.1627 -0.2211 -0.0041
  395TMC3    O2 5965   1.984   1.618  14.714 -0.4678  0.5107  0.2006
  396MPD2     C 5966   1.832   2.455  17.629  0.3624  0.5731 -0.8040
  396MPD2    C1 5967   1.931   2.527  17.687  0.3709 -0.2823 -0.4133
  396MPD2    C2 5968   1.971   2.646  17.623 -0.0301 -0.0581  0.2432
  396MPD2    C3 5969   1.905   2.687  17.503 -0.0175 -0.2113 -0.0478
  396MPD2    C4 5970   1.800   2.613  17.452 -0.3838  0.1691  0.9071
  396MPD2    C5 5971   1.766   2.494  17.512 -0.4123  0.9145 -0.5182
  396MPD2     H 5972   2.059   2.701  17.655 -0.9132 -0.1634  2.8844
  396MPD2    H1 5973   1.736   2.636  17.368 -2.1894 -1.2085  1.9145
  396MPD2    H2 5974   1.806   2.358  17.671  0.1956  1.7758  1.8615
  396MPD2    H3 5975   1.684   2.437  17.472  0.4988 -0.8079  0.0939
  396MPD2     N 5976   1.960   2.797  17.431 -0.5710  0.1087 -0.5030
  396MPD2    H5 5977   2.036   2.851  17.472 -2.0257  0.5817  1.5516
  396MPD2    N1 5978   2.005   2.461   0.031 -0.0610 -0.0085  0.0364
  396MPD2    H7 5979   1.986   2.362   0.042  2.5324 -0.3509  1.3276
  397TMC3    C1 5980   2.196   2.419   0.155  0.4095  0.1354 -0.3704
  397TMC3    C2 5981   2.322   2.451   0.117 -0.7419  0.3951 -0.3596
  397TMC3    C3 5982   2.396   2.379   0.031  0.4108  0.4958  0.4118
  397TMC3    C4 5983   2.147   2.296   0.128 -0.2887 -0.4149 -0.9653
  397TMC3    C5 5984   2.224   2.219   0.047 -1.0397 -0.0693  0.8215
  397TMC3    C6 5985   2.338   2.263  17.743 -0.0038 -0.0505 -0.1496
  397TMC3     C 5986   2.114   2.515   0.086 -0.1466  0.1296  0.4610
  397TMC3     O 5987   2.153   2.630   0.088 -0.0693  0.6457  0.5392
  397TMC3     H 5988   2.359   2.552   0.123 -0.3964  0.4077 -2.4683
  397TMC3    H1 5989   2.056   2.265   0.179 -0.4464  0.4353 -0.7317
  397TMC3    H2 5990   2.396   2.208  17.669  0.6718 -2.8488  2.4401
  397TMC3    C7 5991   2.205   2.068   0.050 -0.3983  0.5997  0.2116
  397TMC3    C8 5992   2.435   2.467  17.688  0.5866  0.1715  0.9896
  397TMC3    O1 5993   2.255   1.998  17.718 -0.2326  0.3122  0.0326
  397TMC3    O2 5994   2.534   2.534  17.712 -0.2852  0.0159 -0.6209
  398MPD2     C 5995   4.647   4.198   0.308 -0.4861  1.0404  0.4515
  398MPD2    C1 5996   4.733   4.109   0.356  0.1080  0.6971  0.2760
  398MPD2    C2 5997   0.116   4.157   0.415  0.3756  0.0487  0.0829
  398MPD2    C3 5998   0.148   4.293   0.409 -0.0407  0.7505 -0.3863
  398MPD2    C4 5999   0.050   4.379   0.375  0.6897  0.0010 -0.2881
  398MPD2    C5 6000   4.665   4.330   0.328 -0.3670 -0.1045 -0.5652
  398MPD2     H 6001   0.194   4.086   0.439  0.8081  0.3429 -0.4697
  398MPD2    H1 6002   0.055   4.488   0.369  0.2771  0.0592  0.4510
  398MPD2    H2 6003   4.561   4.165   0.250 -0.2947  0.8683  0.2678
  398MPD2    H3 6004   4.588   4.403   0.307  0.0975  0.1159 -1.5044
  398MPD2     N 6005   0.280   4.335   0.450 -0.1814  0.1436  0.6077
  398MPD2    H5 6006   0.360   4.279   0.479 -0.6128 -1.9724 -2.3001
  398MPD2    N1 6007   4.723   3.970   0.332  0.1329 -0.1736  0.4411
  398MPD2    H7 6008   0.072   3.922   0.341  1.1377  1.2312 -1.8341
  399TMC3    C1 6009   4.647   3.768   0.290 -0.7589 -0.0064 -0.1111
  399TMC3    C2 6010   4.732   3.729   0.388  0.1512  0.1946  0.2659
  399TMC3    C3 6011   0.041   3.595   0.379 -0.4094 -0.3413  0.1233
  399TMC3    C4 6012   4.603   3.687   0.190  0.4185  0.4436  0.4348
  399TMC3    C5 6013   4.652   3.558   0.192 -0.7575 -0.1817 -0.9704
  399TMC3    C6 6014   0.000   3.512   0.283  0.6033  0.4865 -0.3403
  399TMC3     C 6015   4.608   3.903   0.296 -0.2037  0.4779 -0.0514
  399TMC3     O 6016   4.508   3.948   0.242  0.8596 -0.0889  0.1949
  399TMC3     H 6017   0.016   3.785   0.478  3.2616  0.0058 -0.4671
  399TMC3    H1 6018   4.525   3.718   0.121 -0.0869 -2.6500 -0.3878
  399TMC3    H2 6019   0.042   3.413   0.269  0.1577  0.1686  0.5666
  399TMC3    C7 6020   4.606   3.463   0.095  0.2077 -0.3272  0.5861
  399TMC3    C8 6021   0.137   3.556   0.481  0.0090  0.4773 -0.0903
  399TMC3    O1 6022   4.604   3.345   0.131  0.3758 -0.6147  0.5853
  399TMC3    O2 6023   0.177   3.649   0.549 -0.5005  0.0415 -0.0982
  400TMC3    C1 6024   3.033   2.256  16.753 -0.0268  0.1228  0.3946
  400TMC3    C2 6025   2.903   2.217  16.750 -0.2894  0.3856  0.0122
  400TMC3    C3 6026   2.820   2.311  16.698  0.2622 -0.6877  0.4062
  400TMC3    C4 6027   3.070   2.376  16.692  0.4534  0.6399  0.5679
  400TMC3    C5 6028   2.987   2.463  16.643 -0.1189  0.0929  0.6607
  400TMC3    C6 6029   2.852   2.435  16.653 -0.3639  0.1040 -0.0761
  400TMC3     C 6030   3.130   2.154  16.784 -0.0744  0.4931  0.0528
  400TMC3     O 6031   3.091   2.040  16.813 -0.3462 -0.1280  0.5080
  400TMC3     H 6032   2.878   2.121  16.793 -0.1775 -0.4898 -1.8688
  400TMC3    H1 6033   3.173   2.405  16.709  0.8387 -0.6324  0.4431
  400TMC3    H2 6034   2.781   2.501  16.606 -0.2400  0.5572  0.3763
  400TMC3    C7 6035   3.021   2.601  16.644 -0.5096  0.4596 -0.1310
  400TMC3    C8 6036   2.675   2.271  16.688 -0.4773 -0.3537 -0.2812
  400TMC3    O1 6037   2.947   2.677  16.701  0.5989  0.0522  0.1560
  400TMC3    O2 6038   2.596   2.360  16.664 -0.2797 -0.4842 -0.3768
  401MPD2     C 6039   1.105   0.906   0.853 -1.1603  0.7409  0.1559
  401MPD2    C1 6040   1.194   0.803   0.887 -0.0788 -0.5320 -0.5265
  401MPD2    C2 6041   1.148   0.674   0.863  0.3289  0.6907 -0.0544
  401MPD2    C3 6042   1.029   0.639   0.811  0.1408 -0.0161  0.1466
  401MPD2    C4 6043   0.940   0.744   0.788 -0.5775  0.2943  0.3305
  401MPD2    C5 6044   0.981   0.874   0.806 -0.3202  0.2379 -0.6647
  401MPD2     H 6045   1.216   0.591   0.884  1.5553  2.0890  1.5238
  401MPD2    H1 6046   0.841   0.725   0.749 -0.7945  3.1673 -0.5300
  401MPD2    H2 6047   1.137   1.009   0.849  0.8934  0.1014  0.0845
  401MPD2    H3 6048   0.917   0.955   0.772  2.0088  1.8942 -1.0472
  401MPD2     N 6049   0.993   0.504   0.790 -0.1112 -0.3635  0.6845
  401MPD2    H5 6050   1.072   0.442   0.805  0.5417  0.4024  0.4348
  401MPD2    N1 6051   1.332   0.819   0.922  0.0256  0.1443 -0.0167
  401MPD2    H7 6052   1.392   0.736   0.922  2.0418  1.6163  1.7753
  402TMC3    C1 6053   0.888   0.308   0.702 -1.0435  0.5505 -0.3086
  402TMC3    C2 6054   0.953   0.256   0.809  0.7979 -0.5402 -0.2866
  402TMC3    C3 6055   1.053   0.160   0.779 -0.7102  0.4920  0.2210
  402TMC3    C4 6056   0.908   0.275   0.570  0.3686 -0.4914  0.5024
  402TMC3    C5 6057   1.018   0.198   0.544  0.4446 -0.3135 -0.5888
  402TMC3    C6 6058   1.090   0.135   0.647  0.4847 -0.2900 -0.5494
  402TMC3     C 6059   0.879   0.454   0.721  0.1614  0.2917  0.0485
  402TMC3     O 6060   0.797   0.512   0.655  0.3094  0.7181 -0.2341
  402TMC3     H 6061   0.931   0.294   0.908 -1.2459 -1.0934 -0.5303
  402TMC3    H1 6062   0.854   0.331   0.494  2.0935  0.3916 -0.0683
  402TMC3    H2 6063   1.186   0.086   0.632  0.7895  0.1002  0.1019
  402TMC3    C7 6064   1.081   0.221   0.426 -0.3199 -0.4156  0.3952
  402TMC3    C8 6065   1.140   0.096   0.877 -0.8635 -0.1494 -0.1933
  402TMC3    O1 6066   1.091   0.340   0.392 -0.0742  0.2443 -0.2227
  402TMC3    O2 6067   1.242   0.035   0.841 -0.7572  0.2928 -0.3232
  403MPD2     C 6068   0.584   3.557  13.256  0.0563  0.0062 -0.4134
  403MPD2    C1 6069   0.501   3.623  13.340  0.0394 -0.0135 -0.0809
  403MPD2    C2 6070   0.549   3.642  13.467 -0.4496 -0.0316 -1.0233
  403MPD2    C3 6071   0.658   3.593  13.516 -0.0147 -1.4128 -0.2420
  403MPD2    C4 6072   0.749   3.526  13.432  0.1226  1.0522  0.3540
  403MPD2    C5 6073   0.704   3.514  13.302 -0.2783  0.5058 -0.5340
  403MPD2     H 6074   0.495   3.693  13.546  0.2159  0.4191 -0.8639
  403MPD2    H1 6075   0.845   3.481  13.456  0.3367  2.4757  2.1577
  403MPD2    H2 6076   0.562   3.550  13.150  0.0875 -2.3251 -0.2724
  403MPD2    H3 6077   0.767   3.472  13.225 -0.9715 -0.6243 -0.4779
  403MPD2     N 6078   0.673   3.603  13.655  0.2324 -0.0827 -0.2669
  403MPD2    H5 6079   0.612   3.659  13.715 -0.1544  0.1031 -0.8354
  403MPD2    N1 6080   0.370   3.657  13.302  0.3754  0.7034 -0.2476
  403MPD2    H7 6081   0.348   3.648  13.204  0.7647  1.4080 -0.3961
  404TMC3    C1 6082   0.144   3.675  13.330 -0.0161  0.1345  0.4259
  404TMC3    C2 6083   0.051   3.609  13.410  0.2416 -0.2508  0.0233
  404TMC3    C3 6084   4.726   3.504  13.351  0.0444 -0.2850 -0.1084
  404TMC3    C4 6085   0.141   3.665  13.195 -0.2686 -0.0262 -1.1617
  404TMC3    C5 6086   0.072   3.560  13.146  0.2010 -0.6484 -0.2481
  404TMC3    C6 6087   0.002   3.468  13.221 -0.7967  0.1125  0.5525
  404TMC3     C 6088   0.269   3.695  13.394  0.3476  0.8237  0.4303
  404TMC3     O 6089   0.267   3.728  13.515 -0.4512  0.3496  0.4578
  404TMC3     H 6090   0.048   3.620  13.517 -0.0334  1.1947 -0.1287
  404TMC3    H1 6091   0.167   3.740  13.121 -1.1767  0.8281 -0.6137
  404TMC3    H2 6092   4.689   3.385  13.175 -0.2242 -1.5774  2.8840
  404TMC3    C7 6093   0.101   3.531  13.007 -0.3586 -0.1370 -0.2070
  404TMC3    C8 6094   4.717   3.390  13.447  0.3171  0.7228  0.6840
  404TMC3    O1 6095   0.163   3.610  12.940  0.7559  0.4146  0.5868
  404TMC3    O2 6096   0.004   3.281  13.398 -0.5049  0.4819  0.3959
  405MPD2     C 6097   0.437   0.084  14.800 -0.0608 -0.3986 -1.0631
  405MPD2    C1 6098   0.478   4.730  14.707  0.4154  0.4811  0.4348
  405MPD2    C2 6099   0.383   4.683  14.613 -0.4743 -0.4477  0.1862
  405MPD2    C3 6100   0.247   4.718  14.624  0.7620 -0.4743  0.6590
  405MPD2    C4 6101   0.210   0.076  14.716  0.1176  0.0591  0.0005
  405MPD2    C5 6102   0.304   0.121  14.803 -0.9448 -1.1313  0.8769
  405MPD2     H 6103   0.398   4.592  14.557 -0.1640 -0.0879 -0.3171
  405MPD2    H1 6104   0.106   0.102  14.727  0.1257  0.2415 -0.3777
  405MPD2    H2 6105   0.507   0.125  14.872  1.3028 -2.2321 -1.3442
  405MPD2    H3 6106   0.277   0.190  14.883 -1.3688 -1.2120  0.8033
  405MPD2     N 6107   0.150   4.646  14.542 -0.4060  0.7813 -0.7021
  405MPD2    H5 6108   0.183   4.575  14.477  1.4940  2.1066 -1.1597
  405MPD2    N1 6109   0.609   4.670  14.698 -0.7773 -0.3950 -0.2137
  405MPD2    H7 6110   0.676   4.685  14.774 -0.5735  0.8651 -0.6382
  406TMC3    C1 6111   4.536   4.443  14.351  0.3911  0.5736 -0.1853
  406TMC3    C2 6112   4.604   4.331  14.311  0.1255  0.2657  0.3759
  406TMC3    C3 6113   4.734   4.325  14.363  0.1446  0.3805 -0.3606
  406TMC3    C4 6114   4.574   4.543  14.434  0.2823  0.1929 -0.0531
  406TMC3    C5 6115   4.702   4.537  14.483  0.0354  0.4381 -0.1839
  406TMC3    C6 6116   0.039   4.429  14.447 -0.2876 -0.3414  0.4840
  406TMC3     C 6117   4.386   4.419  14.338 -0.1223  0.0522  0.4822
  406TMC3     O 6118   4.345   4.395  14.227 -0.2128 -0.1416  0.8968
  406TMC3     H 6119   4.563   4.252  14.251  1.1809  0.0542 -0.0750
  406TMC3    H1 6120   4.505   4.624  14.455 -0.0160 -0.1891  0.4557
  406TMC3    H2 6121   0.122   4.403  14.512  0.3177 -0.4841 -0.3313
  406TMC3    C7 6122   0.014   4.653  14.548  0.2142 -0.0081  0.0433
  406TMC3    C8 6123   0.089   4.229  14.321 -0.3237  0.6873  0.4858
  406TMC3    O1 6124   4.670   4.725  14.601 -0.0764 -0.2354  0.2902
  406TMC3    O2 6125   0.049   4.116  14.292  0.1023 -0.2504 -0.1279
  407MPD2     C 6126   4.145   4.709   9.617 -0.5440  0.2708  0.3700
  407MPD2    C1 6127   4.135   4.695   9.755  0.0695  0.2225  0.8065
  407MPD2    C2 6128   4.085   0.061   9.829  0.5027 -0.4882  0.4206
  407MPD2    C3 6129   4.047   0.182   9.768 -0.5376 -1.3206 -1.1570
  407MPD2    C4 6130   4.057   0.191   9.626 -0.4999 -0.1201  0.0415
  407MPD2    C5 6131   4.096   0.086   9.553 -0.2171 -0.5586  0.0105
  407MPD2     H 6132   4.089   0.060   9.937  2.7041 -0.6162  0.3373
  407MPD2    H1 6133   4.027   0.276   9.566 -0.3382  0.6672  1.0737
  407MPD2    H2 6134   4.201   4.639   9.556  0.4383 -0.0382  1.6332
  407MPD2    H3 6135   4.100   0.100   9.446 -3.3641 -0.5295 -0.1060
  407MPD2     N 6136   4.003   0.309   9.833 -0.4311  0.4291 -0.5285
  407MPD2    H5 6137   3.985   0.389   9.773 -1.2043 -0.0492 -0.9431
  407MPD2    N1 6138   4.186   4.585   9.824 -0.3941  0.7451  0.8216
  407MPD2    H7 6139   4.187   4.598   9.925 -0.6699 -0.9559  1.0321
  408TMC3    C1 6140   4.258   4.367   9.870 -1.0847 -0.7341  0.1165
  408TMC3    C2 6141   4.340   4.412   9.965  0.0097 -0.2140 -0.0314
  408TMC3    C3 6142   4.371   4.323  10.068  0.1668  0.4288 -0.1780
  408TMC3    C4 6143   4.192   4.246   9.881  0.4497 -1.1453 -0.1107
  408TMC3    C5 6144   4.196   4.175   9.997  0.6171  0.0803 -0.4526
  408TMC3    C6 6145   4.290   4.213  10.094 -0.3987 -0.2365 -0.6286
  408TMC3     C 6146   4.209   4.460   9.770  0.2743 -0.5563 -0.4525
  408TMC3     O 6147   4.162   4.419   9.665  0.0790  0.6402  0.2680
  408TMC3     H 6148   4.383   4.511   9.961 -0.4710  0.0905  2.3502
  408TMC3    H1 6149   4.123   4.213   9.804  1.2542 -0.6501 -1.0371
  408TMC3    H2 6150   4.318   4.154  10.180 -0.7580  1.0966  0.4066
  408TMC3    C7 6151   4.095   4.076  10.028  0.5294  0.0618 -0.2999
  408TMC3    C8 6152   4.434   4.371  10.185 -0.1990 -0.2749  0.5666
  408TMC3    O1 6153   4.011   4.048   9.943  0.2454  0.0127  0.0196
  408TMC3    O2 6154   4.413   4.317  10.292  0.2180 -0.1932  0.1068
  409MPD2     C 6155   2.232   2.002  17.028  0.5714 -0.2005 -0.0484
  409MPD2    C1 6156   2.362   2.028  17.071  0.2419  0.6224  0.4182
  409MPD2    C2 6157   2.420   2.154  17.051 -0.2854 -0.2846 -0.2603
  409MPD2    C3 6158   2.349   2.252  16.984 -0.1534 -0.0539  0.1745
  409MPD2    C4 6159   2.217   2.230  16.944  0.7724 -0.4359 -0.2114
  409MPD2    C5 6160   2.158   2.110  16.975  0.3798 -0.7613 -0.6356
  409MPD2     H 6161   2.516   2.177  17.094 -0.4505 -3.0357  1.6008
  409MPD2    H1 6162   2.149   2.299  16.895 -1.3882 -0.2152  3.0753
  409MPD2    H2 6163   2.186   1.908  17.058 -0.2528 -0.1579 -1.1945
  409MPD2    H3 6164   2.050   2.099  16.967  0.0860 -0.0840  2.2867
  409MPD2     N 6165   2.405   2.377  16.957  0.1577 -0.1688  0.0531
  409MPD2    H5 6166   2.340   2.448  16.923 -0.8452 -0.0755  2.1573
  409MPD2    N1 6167   2.437   1.935  17.148  0.2524 -0.0447  0.4549
  409MPD2    H7 6168   2.516   1.974  17.199 -0.1945  1.3431  0.0957
  410TMC3    C1 6169   2.542   2.552  16.973 -0.0659 -0.2148 -0.0735
  410TMC3    C2 6170   2.642   2.581  17.059 -0.8576 -0.1022  0.3911
  410TMC3    C3 6171   2.743   2.666  17.017 -0.1632 -0.0846 -0.2499
  410TMC3    C4 6172   2.526   2.625  16.865  0.3403 -0.4133 -0.0575
  410TMC3    C5 6173   2.626   2.704  16.829  0.4650 -0.7428  0.6987
  410TMC3    C6 6174   2.731   2.738  16.906 -0.2578  0.4145  0.4022
  410TMC3     C 6175   2.530   2.407  16.960  0.5714 -0.8246  0.3348
  410TMC3     O 6176   2.629   2.342  16.979  0.2476 -0.1083 -0.2239
  410TMC3     H 6177   2.641   2.527  17.153  2.5940 -0.6982  0.0685
  410TMC3    H1 6178   2.437   2.612  16.804  1.1610  1.1117 -1.5706
  410TMC3    H2 6179   2.807   2.806  16.871  0.9316 -1.6763 -1.0372
  410TMC3    C7 6180   2.603   2.795  16.715 -0.4083  0.0425 -0.1284
  410TMC3    C8 6181   2.873   2.639  17.072  0.0621 -0.3524 -0.2945
  410TMC3    O1 6182   2.488   2.827  16.691 -0.6766 -0.0973  0.2169
  410TMC3    O2 6183   2.959   2.728  17.054  0.3412 -0.4549  0.2445
  411MPD2     C 6184   2.743   2.605  14.478 -0.1797 -0.0403  0.4661
  411MPD2    C1 6185   2.669   2.646  14.583 -0.4741 -0.6835  0.5571
  411MPD2    C2 6186   2.549   2.575  14.620  0.0481  0.2488 -0.1523
  411MPD2    C3 6187   2.507   2.463  14.552 -0.1713  0.6948 -0.0531
  411MPD2    C4 6188   2.595   2.416  14.451 -0.6371  0.1078  0.1364
  411MPD2    C5 6189   2.706   2.485  14.421 -0.6561 -0.3637 -0.6675
  411MPD2     H 6190   2.482   2.630  14.685 -2.0154  0.2883 -2.3368
  411MPD2    H1 6191   2.573   2.337  14.380  2.6505 -0.3170 -0.3991
  411MPD2    H2 6192   2.834   2.652  14.443 -0.4999  0.1518 -0.1036
  411MPD2    H3 6193   2.776   2.437  14.353  0.2670 -0.9515  0.7140
  411MPD2     N 6194   2.384   2.402  14.566 -0.5176  0.6554  0.1823
  411MPD2    H5 6195   2.366   2.325  14.503  0.0772  1.1959 -0.6459
  411MPD2    N1 6196   2.700   2.761  14.649  0.2059  0.7597  0.8388
  411MPD2    H7 6197   2.768   2.817  14.600  0.3206 -0.1304 -0.0241
  412TMC3    C1 6198   2.182   2.328  14.648 -0.0349 -0.4427  0.3635
  412TMC3    C2 6199   2.114   2.357  14.532  0.3716  0.2282  0.5524
  412TMC3    C3 6200   2.025   2.264  14.479  0.3173  0.5074  0.0865
  412TMC3    C4 6201   2.166   2.203  14.707 -0.4194  0.1425  0.2273
  412TMC3    C5 6202   2.075   2.119  14.650 -0.3571 -0.1736  0.0859
  412TMC3    C6 6203   2.000   2.150  14.543  0.0938  1.3988  0.2182
  412TMC3     C 6204   2.300   2.408  14.673 -0.0318  0.3689  0.0484
  412TMC3     O 6205   2.323   2.453  14.784 -0.5648 -0.2754  0.1840
  412TMC3     H 6206   2.118   2.454  14.483 -3.4312  0.5129  0.8475
  412TMC3    H1 6207   2.219   2.171  14.796 -0.2147 -2.3580 -0.7755
  412TMC3    H2 6208   1.916   2.092  14.507  1.7291 -0.2135 -0.9795
  412TMC3    C7 6209   2.064   1.986  14.709  0.2310 -0.3393 -0.8622
  412TMC3    C8 6210   1.986   2.279  14.343  0.3501  0.1082 -0.2891
  412TMC3    O1 6211   2.022   1.982  14.822 -0.8343  0.2379  0.3013
  412TMC3    O2 6212   1.999   2.391  14.287 -0.7385  0.4448 -0.4973
  413MPD2     C 6213   4.081   0.645  15.510 -0.1978 -0.0564  0.1602
  413MPD2    C1 6214   3.998   0.594  15.414  0.6655  0.0753  0.6383
  413MPD2    C2 6215   4.064   0.518  15.310  0.3283 -0.3456  0.3546
  413MPD2    C3 6216   4.196   0.485  15.321 -0.3149 -0.2139 -0.1449
  413MPD2    C4 6217   4.272   0.538  15.421 -0.5570  0.0289  0.3897
  413MPD2    C5 6218   4.218   0.626  15.503  0.4635  0.1328  0.9726
  413MPD2     H 6219   3.998   0.478  15.233 -0.5700  1.1809  0.3187
  413MPD2    H1 6220   4.376   0.517  15.440  0.6543  3.2832 -2.7380
  413MPD2    H2 6221   4.055   0.717  15.587 -2.0655  1.5062 -1.9556
  413MPD2    H3 6222   4.280   0.679  15.574  0.1525 -1.1067  2.1475
  413MPD2     N 6223   4.246   0.401  15.222 -0.0490  0.6253 -0.4180
  413MPD2    H5 6224   4.186   0.383  15.143  1.7511 -2.6556 -1.0295
  413MPD2    N1 6225   3.863   0.635  15.404 -0.0503  0.2132 -0.6967
  413MPD2    H7 6226   3.817   0.684  15.480 -0.2380 -3.7180  1.7270
  414TMC3    C1 6227   4.416   0.264  15.108  0.0630  0.5396 -0.7173
  414TMC3    C2 6228   4.501   0.159  15.129 -0.1067  0.1698 -0.3366
  414TMC3    C3 6229   4.552   0.101  15.012 -0.7988  0.5782 -0.6883
  414TMC3    C4 6230   4.384   0.324  14.989  0.6808 -0.2984 -0.4682
  414TMC3    C5 6231   4.456   0.279  14.880  0.1169  0.3709 -0.7435
  414TMC3    C6 6232   4.526   0.162  14.889 -0.2447  0.8329 -1.0857
  414TMC3     C 6233   4.368   0.336  15.227  0.1760 -0.1328 -0.0654
  414TMC3     O 6234   4.436   0.318  15.331 -0.1643 -0.8160  0.1365
  414TMC3     H 6235   4.516   0.124  15.230 -1.7531 -1.4564 -0.6435
  414TMC3    H1 6236   4.333   0.420  14.991 -0.4082 -0.8324 -2.1478
  414TMC3    H2 6237   4.581   0.111  14.811  2.5961  0.5443  1.1202
  414TMC3    C7 6238   4.552   0.383  14.839 -0.5293 -0.6257  0.8465
  414TMC3    C8 6239   4.696   0.079  15.026 -0.2720  0.2814 -0.1496
  414TMC3    O1 6240   4.578   0.480  14.914  0.1277  0.1039  0.4980
  414TMC3    O2 6241   4.738   4.720  14.969 -0.4612 -0.3271  0.1166
  415TMC3    C1 6242   1.185   2.927  10.533 -0.5534  0.4419 -0.0498
  415TMC3    C2 6243   1.261   3.015  10.459 -0.6164  0.1376 -0.5301
  415TMC3    C3 6244   1.205   3.139  10.425  0.5068  0.3938 -0.1619
  415TMC3    C4 6245   1.061   2.961  10.579  0.1358  0.1723 -0.3424
  415TMC3    C5 6246   1.008   3.085  10.547  0.4711 -0.4915 -0.3029
  415TMC3    C6 6247   1.076   3.174  10.460 -0.6930 -0.7857 -0.2631
  415TMC3     C 6248   1.237   2.805  10.587 -0.0485  0.2909 -0.3720
  415TMC3     O 6249   1.155   2.737  10.646 -0.0584  0.1166 -0.0865
  415TMC3     H 6250   1.364   2.999  10.430 -0.6798  0.0821 -0.7227
  415TMC3    H1 6251   1.004   2.893  10.641 -0.3277  2.4688  1.7418
  415TMC3    H2 6252   1.029   3.266  10.425 -1.2066 -0.1872  1.9578
  415TMC3    C7 6253   0.867   3.107  10.563  0.0884 -0.1767 -0.2945
  415TMC3    C8 6254   1.266   3.226  10.327 -0.1112 -0.1840 -0.0720
  415TMC3    O1 6255   0.813   3.169  10.473  0.0454 -0.0334 -0.4675
  415TMC3    O2 6256   1.371   3.179  10.280 -0.5829  0.0174 -0.0689
  416MPD2     C 6257   1.243   1.390  12.208 -0.3454  0.1952  0.6571
  416MPD2    C1 6258   1.354   1.427  12.140  0.1086  0.6524  0.1296
  416MPD2    C2 6259   1.453   1.337  12.132 -0.0286  0.3440  0.0984
  416MPD2    C3 6260   1.429   1.203  12.170 -0.4145  0.0895 -0.0045
  416MPD2    C4 6261   1.307   1.159  12.222 -0.5533  0.3109 -0.0678
  416MPD2    C5 6262   1.222   1.261  12.252 -0.6417 -0.3684  0.8380
  416MPD2     H 6263   1.545   1.365  12.081 -0.5511  1.9959  0.0611
  416MPD2    H1 6264   1.296   1.060  12.263 -1.9420  0.2130 -0.6931
  416MPD2    H2 6265   1.172   1.465  12.242  0.8433  1.0936  1.1411
  416MPD2    H3 6266   1.131   1.237  12.306 -0.3693  0.2320  1.5553
  416MPD2     N 6267   1.531   1.108  12.154 -0.3160  0.3883  0.5889
  416MPD2    H5 6268   1.495   1.016  12.177 -0.3190 -0.1485 -1.5340
  416MPD2    N1 6269   1.364   1.569  12.114 -0.5374 -0.0113  0.6553
  416MPD2    H7 6270   1.289   1.633  12.137 -1.1281 -0.7850  0.8830
  417TMC3    C1 6271   1.442   1.768  12.025  0.0857  0.6874 -0.2175
  417TMC3    C2 6272   1.380   1.841  12.124 -0.4630  0.8146  0.4343
  417TMC3    C3 6273   1.338   1.967  12.086  0.2367 -0.2897 -0.8259
  417TMC3    C4 6274   1.474   1.822  11.905  0.1509  0.5650  0.2978
  417TMC3    C5 6275   1.443   1.955  11.880  0.4304  0.6410 -0.1443
  417TMC3    C6 6276   1.383   2.029  11.976  0.0456  0.0016 -0.2646
  417TMC3     C 6277   1.464   1.625  12.048 -0.7648 -0.4059 -0.4017
  417TMC3     O 6278   1.535   1.562  11.968  0.4385 -0.2229  0.9781
  417TMC3     H 6279   1.363   1.795  12.220 -0.7812  0.9713  0.4550
  417TMC3    H1 6280   1.519   1.762  11.827  1.3319  3.3514 -1.1976
  417TMC3    H2 6281   1.330   2.118  11.945  2.1375  1.0814 -0.7733
  417TMC3    C7 6282   1.524   2.032  11.788  0.3054  0.4034  0.0753
  417TMC3    C8 6283   1.293   2.056  12.191  0.3977  0.7917  0.2023
  417TMC3    O1 6284   1.538   2.154  11.809 -0.0788 -0.9730  0.0635
  417TMC3    O2 6285   1.260   2.171  12.154 -0.0512 -0.1263 -0.6154
  418TMC3    C1 6286   0.662   4.371   0.395  0.3840 -1.0612 -0.5290
  418TMC3    C2 6287   0.550   4.456   0.380  0.2391  0.4666 -0.0525
  418TMC3    C3 6288   0.463   4.466   0.481  0.1014  1.2848  0.3595
  418TMC3    C4 6289   0.684   4.298   0.513  0.2340 -0.2827  0.0558
  418TMC3    C5 6290   0.591   4.309   0.612  0.7571 -0.3553  0.6188
  418TMC3    C6 6291   0.475   4.390   0.595  0.5250  0.1687 -0.0354
  418TMC3     C 6292   0.736   4.342   0.276 -0.1608  0.2958 -0.2098
  418TMC3     O 6293   0.707   4.416   0.181 -0.9286 -0.2068 -0.2111
  418TMC3     H 6294   0.523   4.498   0.284 -1.0959 -0.5214 -0.1073
  418TMC3    H1 6295   0.772   4.240   0.538 -0.1077 -1.5327 -1.5969
  418TMC3    H2 6296   0.404   4.406   0.675 -0.7153 -0.4079 -1.0305
  418TMC3    C7 6297   0.579   4.208   0.713 -0.2430 -0.0916  0.0331
  418TMC3    C8 6298   0.318   4.471   0.447 -0.2879  0.8419  0.6104
  418TMC3    O1 6299   0.616   4.097   0.679  0.0209  0.5956 -0.0786
  418TMC3    O2 6300   0.270   4.582   0.428  0.3513  0.0300  0.3947
  419MPD2     C 6301   4.167   1.840  13.039 -0.2877  0.5872  0.3155
  419MPD2    C1 6302   4.176   1.932  12.941  0.8941  0.8132 -0.0689
  419MPD2    C2 6303   4.150   2.064  12.968  0.1619 -0.2513 -0.1665
  419MPD2    C3 6304   4.138   2.117  13.091 -0.2787  0.1564  0.6146
  419MPD2    C4 6305   4.128   2.021  13.188 -0.0312 -0.1670  0.5000
  419MPD2    C5 6306   4.143   1.888  13.165 -0.6238  0.0931 -0.0509
  419MPD2     H 6307   4.153   2.134  12.885 -0.6641 -0.3746 -0.3045
  419MPD2    H1 6308   4.107   2.047  13.292  2.3797  0.7511  0.7554
  419MPD2    H2 6309   4.178   1.734  13.018 -1.6679  0.2054  1.5101
  419MPD2    H3 6310   4.135   1.812  13.241  3.1643 -0.0312  0.2541
  419MPD2     N 6311   4.124   2.254  13.113 -0.4698  0.1813  0.4743
  419MPD2    H5 6312   4.137   2.313  13.032  1.4867  0.2266  0.8126
  419MPD2    N1 6313   4.204   1.896  12.804 -0.2536 -0.2201  0.4874
  419MPD2    H7 6314   4.208   1.982  12.750  0.1775  0.4077  1.5191
  420TMC3    C1 6315   4.045   2.450  13.213 -0.3930  0.7426  0.1913
  420TMC3    C2 6316   3.950   2.457  13.112  0.1647 -0.0796  1.0654
  420TMC3    C3 6317   3.870   2.566  13.116  0.1026  0.1600  0.0130
  420TMC3    C4 6318   4.047   2.544  13.312  0.0315 -0.0442 -0.7297
  420TMC3    C5 6319   3.962   2.649  13.313 -0.3389  0.4432 -0.5226
  420TMC3    C6 6320   3.871   2.665  13.208  0.3312  0.6033 -0.1304
  420TMC3     C 6321   4.106   2.320  13.237 -0.0111 -0.0459  0.0269
  420TMC3     O 6322   4.112   2.279  13.351  0.5029  0.1404 -0.5080
  420TMC3     H 6323   3.956   2.393  13.025 -1.3150 -0.0992  0.9923
  420TMC3    H1 6324   4.105   2.525  13.401 -0.3216 -1.8458 -0.8888
  420TMC3    H2 6325   3.803   2.749  13.206 -0.8586 -0.3952 -1.6765
  420TMC3    C7 6326   3.904   2.684  13.445 -0.3282  0.3221  0.2613
  420TMC3    C8 6327   3.782   2.586  13.002 -0.3903  0.4704 -0.4717
  420TMC3    O1 6328   3.963   2.636  13.539  0.0900 -0.1425 -0.0256
  420TMC3    O2 6329   3.732   2.699  12.998  1.2476  0.0372  0.7698
  421TMC3    C1 6330   0.751   3.545  13.869  0.5493  0.3622 -1.0632
  421TMC3    C2 6331   0.703   3.664  13.918  0.2565  0.0448 -0.1727
  421TMC3    C3 6332   0.744   3.712  14.038 -0.6629 -0.3534  0.2664
  421TMC3    C4 6333   0.832   3.471  13.953  0.3915  0.6326 -0.1380
  421TMC3    C5 6334   0.863   3.519  14.077 -0.5870  0.6020 -0.3372
  421TMC3    C6 6335   0.815   3.638  14.119  0.3336 -0.1079 -0.4412
  421TMC3     C 6336   0.757   3.522  13.726  0.2707  0.1133  0.3698
  421TMC3     O 6337   0.819   3.425  13.691 -0.3138  0.8283  0.6298
  421TMC3     H 6338   0.672   3.745  13.853 -0.8324  0.6871  1.1744
  421TMC3    H1 6339   0.882   3.383  13.912 -2.1239 -0.7922 -0.1706
  421TMC3    H2 6340   0.845   3.676  14.216 -0.4467 -3.4874  1.1617
  421TMC3    C7 6341   0.979   3.468  14.147 -0.0644  0.2822 -0.1290
  421TMC3    C8 6342   0.754   3.858  14.038 -0.2928  0.6197 -0.2222
  421TMC3    O1 6343   1.048   3.549  14.206 -0.2072  0.0646  0.2188
  421TMC3    O2 6344   0.860   3.911  14.071  0.4959 -0.1019  0.3629
  422TMC3    C1 6345   3.033   0.332  12.594  0.1288 -1.0904  0.1429
  422TMC3    C2 6346   2.985   0.456  12.619 -0.1808 -0.0312 -0.1459
  422TMC3    C3 6347   2.908   0.481  12.730 -0.1748  0.7041 -0.5035
  422TMC3    C4 6348   2.997   0.226  12.671  0.1767 -0.5301  0.1239
  422TMC3    C5 6349   2.905   0.247  12.777  0.0170 -0.2957  0.5693
  422TMC3    C6 6350   2.872   0.380  12.812  0.2990 -0.0355  0.2567
  422TMC3     C 6351   3.161   0.337  12.529 -0.0867 -0.0555  0.6645
  422TMC3     O 6352   3.201   0.444  12.486  0.8501  0.3746 -0.2349
  422TMC3     H 6353   3.010   0.536  12.551 -1.5868 -2.7393 -3.8094
  422TMC3    H1 6354   3.035   0.125  12.658 -1.9199 -1.3709  0.5852
  422TMC3    H2 6355   2.807   0.406  12.895 -0.1772 -1.1340  0.2312
  422TMC3    C7 6356   2.868   0.131  12.846 -0.0362  0.4947 -0.5831
  422TMC3    C8 6357   2.902   0.618  12.790  0.3176  0.3672 -0.0344
  422TMC3    O1 6358   2.950   0.038  12.852  0.2685  0.2947 -0.0424
  422TMC3    O2 6359   2.878   0.633  12.906 -0.0523  0.6382  0.2456
  423MPD2     C 6360   3.546   1.290   0.405 -0.3042  0.6441 -0.6749
  423MPD2    C1 6361   3.593   1.175   0.470  0.3171 -0.3226 -0.7797
  423MPD2    C2 6362   3.706   1.111   0.422  0.5727  0.0274  0.5787
  423MPD2    C3 6363   3.760   1.148   0.299  0.3110 -0.2760  0.2378
  423MPD2    C4 6364   3.715   1.264   0.235 -0.7894 -0.5882  0.1260
  423MPD2    C5 6365   3.608   1.325   0.288 -0.0141 -0.1634 -0.2547
  423MPD2     H 6366   3.752   1.029   0.475  0.4233 -0.5527 -0.1803
  423MPD2    H1 6367   3.760   1.293   0.141 -0.0718 -2.0884 -0.0058
  423MPD2    H2 6368   3.456   1.342   0.435 -1.3925 -0.7984 -1.4130
  423MPD2    H3 6369   3.563   1.406   0.231 -0.5689 -0.3950 -0.1517
  423MPD2     N 6370   3.870   1.082   0.236 -0.6797 -0.0902  0.8607
  423MPD2    H5 6371   3.902   1.112   0.144  1.7495  0.1081  1.7814
  423MPD2    N1 6372   3.546   1.139   0.595 -0.3252  0.1931  0.2513
  423MPD2    H7 6373   3.584   1.058   0.642 -1.0865  0.0637  0.6315
  424TMC3    C1 6374   3.440   1.162   0.808  0.3916 -0.4474  0.0647
  424TMC3    C2 6375   3.557   1.144   0.861 -1.2055  0.3887 -0.4242
  424TMC3    C3 6376   3.585   1.179   0.987  0.7495 -0.4144 -1.0463
  424TMC3    C4 6377   3.340   1.223   0.880  0.8978 -0.0785  1.0340
  424TMC3    C5 6378   3.371   1.266   1.006 -0.2453  0.1445  1.1043
  424TMC3    C6 6379   3.495   1.250   1.059  0.1100  0.1399  0.2540
  424TMC3     C 6380   3.441   1.200   0.663 -0.7149  0.7225  0.6144
  424TMC3     O 6381   3.362   1.287   0.624 -1.1115  0.2066 -0.1253
  424TMC3     H 6382   3.647   1.122   0.805 -0.3215  0.6991  0.8538
  424TMC3    H1 6383   3.246   1.244   0.830  0.8154 -1.3188  0.6811
  424TMC3    H2 6384   3.509   1.282   1.162 -0.2621 -2.4713  1.1159
  424TMC3    C7 6385   3.294   1.364   1.081  0.0472 -0.2782  0.2870
  424TMC3    C8 6386   3.717   1.152   1.037  0.1769  0.5593  0.0387
  424TMC3    O1 6387   3.303   1.394   1.200 -0.3088  0.0742  0.1278
  424TMC3    O2 6388   3.770   1.056   0.980  0.1841 -0.2278 -0.1093
  425MPD2     C 6389   2.950   0.602  17.081 -0.4885 -0.7842  0.0212
  425MPD2    C1 6390   2.901   0.484  17.143  0.0388 -0.0336 -0.1612
  425MPD2    C2 6391   2.794   0.501  17.223 -0.8002 -0.3704  0.0913
  425MPD2    C3 6392   2.731   0.626  17.239  0.0506 -0.6318 -0.8751
  425MPD2    C4 6393   2.775   0.734  17.164  0.1091 -0.3619 -0.6152
  425MPD2    C5 6394   2.881   0.721  17.082  0.2796 -0.0620 -0.3888
  425MPD2     H 6395   2.753   0.415  17.274 -0.3376 -0.8165 -0.2888
  425MPD2    H1 6396   2.721   0.828  17.156 -2.3803 -1.6664  1.2226
  425MPD2    H2 6397   3.036   0.601  17.015 -0.1300 -2.5752  0.5118
  425MPD2    H3 6398   2.915   0.807  17.026 -0.9500  2.6823  3.0481
  425MPD2     N 6399   2.637   0.644  17.346 -0.0451  0.6681 -0.4274
  425MPD2    H5 6400   2.607   0.566  17.404 -3.1984  2.8011  0.8678
  425MPD2    N1 6401   2.964   0.358  17.112  0.6745 -0.1724 -0.9350
  425MPD2    H7 6402   3.039   0.364  17.044  1.0395 -0.2249 -0.5350
  426TMC3    C1 6403   3.054   0.140  17.165  0.2759 -0.5368  0.5320
  426TMC3    C2 6404   3.139   0.144  17.056  0.4006 -0.0556 -0.0964
  426TMC3    C3 6405   3.246   0.060  17.044 -0.9601 -0.1951  0.1975
  426TMC3    C4 6406   3.062   0.044  17.261  0.2090  0.3924  0.4907
  426TMC3    C5 6407   3.166   4.688  17.242 -0.0623  0.5357  0.3032
  426TMC3    C6 6408   3.262   4.704  17.139 -0.3078  0.2348  0.2325
  426TMC3     C 6409   2.952   0.242  17.186 -0.1115 -0.2997  0.5405
  426TMC3     O 6410   2.867   0.212  17.269 -0.4391  0.2752  0.1036
  426TMC3     H 6411   3.131   0.218  16.978 -2.3988  1.3972  1.6072
  426TMC3    H1 6412   2.984   0.034  17.335  0.0636 -1.2915  0.1191
  426TMC3    H2 6413   3.348   4.639  17.127 -1.3329 -1.6332  2.9970
  426TMC3    C7 6414   3.146   4.553  17.286 -0.2220 -0.5542  0.8551
  426TMC3    C8 6415   3.323   0.049  16.914  0.0787 -0.0641 -0.1325
  426TMC3    O1 6416   3.216   4.467  17.240 -0.2043 -0.1668  0.2682
  426TMC3    O2 6417   3.397   4.691  16.905  0.0294  0.1418 -0.8810
  427MPD2     C 6418   1.655   2.608  14.940  0.9665  1.2215  0.8613
  427MPD2    C1 6419   1.637   2.690  15.056 -0.2480  0.1095 -0.9218
  427MPD2    C2 6420   1.509   2.742  15.074  0.6610  0.3060 -0.2139
  427MPD2    C3 6421   1.405   2.733  14.983  0.6330 -0.2465  0.4467
  427MPD2    C4 6422   1.436   2.661  14.869  0.0949  0.2337 -0.1447
  427MPD2    C5 6423   1.558   2.606  14.849  0.2412  0.1123 -0.6697
  427MPD2     H 6424   1.497   2.799  15.165  0.8629 -0.0885  0.0631
  427MPD2    H1 6425   1.361   2.656  14.791 -1.0952  0.8607  0.9546
  427MPD2    H2 6426   1.745   2.556  14.911  0.7617  0.6911  1.1768
  427MPD2    H3 6427   1.583   2.561  14.754 -0.9161 -1.7030 -0.0986
  427MPD2     N 6428   1.277   2.783  15.002  1.0743 -0.0280 -0.1604
  427MPD2    H5 6429   1.204   2.781  14.932  1.4196  1.0288 -0.5464
  427MPD2    N1 6430   1.726   2.701  15.161 -0.3512 -0.2954  1.2097
  427MPD2    H7 6431   1.685   2.744  15.244 -0.7138 -0.1824  0.9742
  428TMC3    C1 6432   1.896   2.628  15.307 -0.1192  0.0842  0.0773
  428TMC3    C2 6433   1.799   2.595  15.388  0.2580 -0.2057  0.1534
  428TMC3    C3 6434   1.838   2.555  15.512 -0.0295 -0.1310 -0.5951
  428TMC3    C4 6435   2.030   2.621  15.333  0.3699 -0.4258 -0.4856
  428TMC3    C5 6436   2.067   2.589  15.463 -0.2262 -0.1084 -0.4479
  428TMC3    C6 6437   1.974   2.553  15.555 -0.0815  0.1905  0.0024
  428TMC3     C 6438   1.855   2.645  15.169 -0.0173 -0.2282 -0.1438
  428TMC3     O 6439   1.923   2.589  15.080  0.3498  0.1327  0.2645
  428TMC3     H 6440   1.693   2.589  15.370 -0.0874  0.9121  1.8058
  428TMC3    H1 6441   2.095   2.644  15.249 -0.2675  3.2196  0.0485
  428TMC3    H2 6442   2.002   2.519  15.654 -2.3844  2.2074  1.3653
  428TMC3    C7 6443   2.206   2.592  15.498  0.4070  0.0155 -0.7298
  428TMC3    C8 6444   1.741   2.486  15.597  0.1537  0.0997 -0.2003
  428TMC3    O1 6445   2.231   2.569  15.615 -0.6231 -0.2194  0.9776
  428TMC3    O2 6446   1.643   2.437  15.539  0.1702 -0.3084 -0.3719
  429MPD2     C 6447   3.408   2.964  17.670  0.4257  0.3288 -0.0761
  429MPD2    C1 6448   3.342   2.886  17.576 -0.3139 -0.0253 -0.3143
  429MPD2    C2 6449   3.293   2.941  17.462  0.2661  0.1167  0.4553
  429MPD2    C3 6450   3.325   3.074  17.433 -0.5590 -0.1520 -0.1074
  429MPD2    C4 6451   3.377   3.155  17.527  0.7019  0.8991  0.3584
  429MPD2    C5 6452   3.420   3.100  17.648  0.1632  0.5066  0.1953
  429MPD2     H 6453   3.267   2.867  17.387  0.1281 -0.9625  1.5762
  429MPD2    H1 6454   3.399   3.259  17.504 -1.4872  1.0322 -1.1008
  429MPD2    H2 6455   3.439   2.923   0.008  0.0778 -0.9596 -0.5103
  429MPD2    H3 6456   3.470   3.161  17.722  0.4010 -1.7260  1.8819
  429MPD2     N 6457   3.293   3.115  17.305 -0.5837 -0.0296  0.5676
  429MPD2    H5 6458   3.262   3.053  17.231 -0.5867  0.5952  0.0527
  429MPD2    N1 6459   3.337   2.747  17.574  0.0138 -0.4816 -0.5696
  429MPD2    H7 6460   3.311   2.705  17.486 -0.9727  0.6263 -0.8083
  430TMC3    C1 6461   3.256   3.264  17.123 -0.0208  0.0090  0.0761
  430TMC3    C2 6462   3.175   3.374  17.092  0.5392  0.4983 -0.2648
  430TMC3    C3 6463   3.138   3.392  16.958 -0.7105 -0.2962  0.3616
  430TMC3    C4 6464   3.298   3.184  17.016 -0.4987 -0.1928  0.8504
  430TMC3    C5 6465   3.261   3.201  16.888  0.6993  0.3653 -0.0737
  430TMC3    C6 6466   3.182   3.311  16.851 -0.3751 -0.5614  0.7377
  430TMC3     C 6467   3.304   3.247  17.257  0.2676 -0.5108 -0.6044
  430TMC3     O 6468   3.327   3.352  17.317 -0.0688 -0.2031 -0.0844
  430TMC3     H 6469   3.137   3.445  17.165  0.3233  0.5919 -0.4691
  430TMC3    H1 6470   3.346   3.091  17.042  2.4358  0.9890 -0.3656
  430TMC3    H2 6471   3.132   3.319  16.756  1.1210  2.8110  0.2250
  430TMC3    C7 6472   3.223   3.083  16.820  0.7724  0.6374  0.0963
  430TMC3    C8 6473   3.010   3.443  16.934  0.1934 -0.1934  0.7602
  430TMC3    O1 6474   3.210   2.981  16.893 -0.7473  0.1978  0.5724
  430TMC3    O2 6475   2.989   3.460  16.820 -0.4281 -0.2727 -0.5652
  431MPD2     C 6476   4.737   2.246  12.945 -0.3308 -0.1936 -0.0503
  431MPD2    C1 6477   4.685   2.273  12.817 -0.1457 -0.1193  0.1522
  431MPD2    C2 6478   4.656   2.158  12.740  1.2628 -0.2237 -0.1438
  431MPD2    C3 6479   4.684   2.029  12.784  0.8868 -0.2569  0.1903
  431MPD2    C4 6480   4.737   2.013  12.909  0.3806 -0.4275 -0.2182
  431MPD2    C5 6481   0.025   2.118  12.985 -0.2369  0.1270  0.3988
  431MPD2     H 6482   4.601   2.169  12.647  2.1902 -0.9009 -0.7846
  431MPD2    H1 6483   0.020   1.914  12.948 -0.7476 -1.3885 -1.9376
  431MPD2    H2 6484   0.021   2.322  13.018  1.5095  0.0886 -0.9643
  431MPD2    H3 6485   0.062   2.107  13.086  0.9524 -1.0449 -0.1682
  431MPD2     N 6486   4.646   1.913  12.715 -0.6456 -0.2431  0.7528
  431MPD2    H5 6487   4.652   1.822  12.760 -3.3905 -0.2268  1.1396
  431MPD2    N1 6488   4.643   2.400  12.774 -0.2928  0.3738  0.0845
  431MPD2    H7 6489   4.586   2.403  12.691  0.3791  0.9599 -0.3490
  432TMC3    C1 6490   4.521   1.795  12.546 -0.8607  0.1117 -0.0202
  432TMC3    C2 6491   4.464   1.822  12.420  0.0649  0.7378  0.5087
  432TMC3    C3 6492   4.333   1.846  12.418 -0.5073 -0.0646 -0.6346
  432TMC3    C4 6493   4.441   1.755  12.655 -0.1021  0.4301  0.1807
  432TMC3    C5 6494   4.299   1.771  12.635 -0.4472  0.2134 -0.0803
  432TMC3    C6 6495   4.244   1.823  12.515  0.3636  0.6389 -0.5200
  432TMC3     C 6496   4.612   1.906  12.583  0.6539  0.0025  0.0255
  432TMC3     O 6497   4.624   1.984  12.488  0.8446 -0.5947 -0.3007
  432TMC3     H 6498   4.523   1.825  12.329  1.4895  1.7898  1.4607
  432TMC3    H1 6499   4.478   1.741  12.756  1.9835 -1.2962 -0.8253
  432TMC3    H2 6500   4.143   1.861  12.516 -0.2187 -0.9825  1.0067
  432TMC3    C7 6501   4.222   1.772  12.753 -0.4851  0.4329  0.2786
  432TMC3    C8 6502   4.296   1.951  12.320 -0.1440 -0.2799  0.0986
  432TMC3    O1 6503   4.243   1.666  12.813 -0.0145  0.0601  0.1855
  432TMC3    O2 6504   4.179   1.976  12.301 -0.5835 -0.5435  0.7445
  433MPD2     C 6505   3.110   1.073  10.561  0.7118 -0.2656  0.3563
  433MPD2    C1 6506   3.070   0.982  10.655 -0.5775 -0.5709  0.0307
  433MPD2    C2 6507   3.046   1.024  10.784  0.1337 -0.9196 -0.0371
  433MPD2    C3 6508   3.081   1.153  10.822 -0.5909 -0.3264  0.2740
  433MPD2    C4 6509   3.123   1.244  10.725  0.3781 -0.0724  0.2877
  433MPD2    C5 6510   3.139   1.203  10.594  0.3410  0.4862  0.0185
  433MPD2     H 6511   3.011   0.954  10.859  2.0281 -0.8644  0.8971
  433MPD2    H1 6512   3.150   1.344  10.755  1.2512 -0.0466 -0.5750
  433MPD2    H2 6513   3.127   1.039  10.460 -1.4686 -1.2854  0.3231
  433MPD2    H3 6514   3.167   1.282  10.525 -0.2340  1.0151  0.3943
  433MPD2     N 6515   3.094   1.195  10.961  0.4084  0.0102  0.5698
  433MPD2    H5 6516   3.083   1.123  11.031  0.7833  0.5138  1.1524
  433MPD2    N1 6517   3.065   0.843  10.619  0.7351  0.0215  0.8389
  433MPD2    H7 6518   3.104   0.825  10.527  0.3760 -0.3732  0.7665
  434TMC3    C1 6519   3.105   0.623  10.664  0.2963 -0.0985  0.5387
  434TMC3    C2 6520   3.152   0.556  10.777 -0.4919 -0.0198 -0.3090
  434TMC3    C3 6521   3.284   0.546  10.787 -0.2249  0.5754  0.5602
  434TMC3    C4 6522   3.180   0.631  10.550  0.0223 -0.2822 -0.5929
  434TMC3    C5 6523   3.307   0.591  10.562 -0.3069  0.6967  0.1980
  434TMC3    C6 6524   3.361   0.570  10.678 -0.4732  0.6606 -0.1456
  434TMC3     C 6525   3.027   0.741  10.700  0.7393  0.1066  0.5834
  434TMC3     O 6526   2.983   0.750  10.811  0.7805 -0.1343 -0.6059
  434TMC3     H 6527   3.083   0.555  10.861 -0.5253  0.9501 -0.3226
  434TMC3    H1 6528   3.142   0.670  10.456  1.0734  0.1265 -0.8461
  434TMC3    H2 6529   3.468   0.584  10.682 -0.5419  0.4070  2.6915
  434TMC3    C7 6530   3.394   0.605  10.450  0.0155 -0.0830 -0.6077
  434TMC3    C8 6531   3.339   0.500  10.915 -1.1137 -0.0493  0.5611
  434TMC3    O1 6532   3.364   0.693  10.366  0.8727  0.4675 -0.3923
  434TMC3    O2 6533   3.267   0.499  11.013 -0.2553 -0.4341 -0.3048
  435MPD2     C 6534   4.190   1.322  15.364 -0.2743  0.3119  0.8419
  435MPD2    C1 6535   4.178   1.400  15.481  0.2026 -0.3709 -0.6700
  435MPD2    C2 6536   4.284   1.405  15.568  0.3781  0.6089 -0.4122
  435MPD2    C3 6537   4.394   1.322  15.554 -0.0436  0.2632 -0.5651
  435MPD2    C4 6538   4.403   1.243  15.441 -0.1312  0.0678 -0.5611
  435MPD2    C5 6539   4.305   1.242  15.347  0.2173 -0.1220 -0.1117
  435MPD2     H 6540   4.278   1.479  15.647 -3.2147  1.7986 -1.8295
  435MPD2    H1 6541   4.482   1.170  15.427 -0.1680 -0.3592  1.4148
  435MPD2    H2 6542   4.107   1.323  15.294  0.7334  2.6496 -0.3272
  435MPD2    H3 6543   4.315   1.183  15.257  1.8661 -0.9896  0.6466
  435MPD2     N 6544   4.486   1.311  15.664  0.9585  0.8225  0.0891
  435MPD2    H5 6545   4.476   1.379  15.739  1.5303 -0.3080  1.1689
  435MPD2    N1 6546   4.062   1.480  15.518  0.3431  0.1829 -0.0364
  435MPD2    H7 6547   4.064   1.519  15.611 -2.4157 -0.2330  0.1933
  436TMC3    C1 6548   3.865   1.715  15.718 -0.0111  0.1073  0.1679
  436TMC3    C2 6549   3.934   1.681  15.604  0.6114  0.0605 -0.1147
  436TMC3    C3 6550   3.875   1.591  15.523 -0.6366  0.1503  0.7369
  436TMC3    C4 6551   3.737   1.667  15.740  0.5302 -0.2149  0.2560
  436TMC3    C5 6552   3.690   1.567  15.657 -0.1395  0.0718  0.0547
  436TMC3    C6 6553   3.759   1.532  15.545 -0.0897 -0.0840  0.3489
  436TMC3     C 6554   3.954   1.721  15.839 -0.6316 -0.1683  0.5524
  436TMC3     O 6555   4.073   1.708  15.818 -0.3081  0.3299 -0.1176
  436TMC3     H 6556   4.040   1.701  15.592  0.0929  2.3806 -0.9327
  436TMC3    H1 6557   3.686   1.691  15.832  0.5279 -0.1764  0.2449
  436TMC3    H2 6558   3.728   1.452  15.478 -0.0329  0.1588  0.0325
  436TMC3    C7 6559   3.616   1.459  15.726  0.3446  0.0673 -0.6437
  436TMC3    C8 6560   3.954   1.506  15.439 -0.0464 -0.5553  0.7710
  436TMC3    O1 6561   3.608   1.465  15.848  0.1410 -0.2040  0.3682
  436TMC3    O2 6562   3.920   1.472  15.325  0.5667 -0.3570 -0.2765
  437TMC3    C1 6563   3.926   2.908  12.107 -0.1482 -0.1775 -0.2753
  437TMC3    C2 6564   3.841   2.991  12.036 -0.3607  0.4584  0.1266
  437TMC3    C3 6565   3.898   3.069  11.941 -0.3122  0.6111 -0.3837
  437TMC3    C4 6566   4.060   2.913  12.076 -0.7438  0.3318 -0.1581
  437TMC3    C5 6567   4.111   3.001  11.980  0.5413 -0.0285  1.0430
  437TMC3    C6 6568   4.031   3.079  11.913 -0.0167  0.2493 -0.1115
  437TMC3     C 6569   3.883   2.828  12.214  0.4000  0.3015  0.3597
  437TMC3     O 6570   3.804   2.884  12.295  0.0085 -0.3882  0.1964
  437TMC3     H 6571   3.734   2.971  12.041 -0.3365  0.7998  2.1391
  437TMC3    H1 6572   4.126   2.859  12.142  0.4127  1.2785 -0.5425
  437TMC3    H2 6573   4.065   3.158  11.846  0.1750  0.0811 -0.2113
  437TMC3    C7 6574   4.255   3.027  11.976  0.1466  1.2556 -0.3040
  437TMC3    C8 6575   3.813   3.155  11.862  0.4789 -0.2184  0.1280
  437TMC3    O1 6576   4.309   3.046  11.866  0.2432  0.0412 -0.0304
  437TMC3    O2 6577   3.855   3.186  11.754 -0.1125  0.3457 -0.1149
  438MPD2     C 6578   0.478   4.026  16.909 -0.5317 -0.5456 -0.2317
  438MPD2    C1 6579   0.605   3.997  16.959 -0.6069 -0.1659 -0.4529
  438MPD2    C2 6580   0.626   3.979  17.096  0.1426  0.4845 -0.4767
  438MPD2    C3 6581   0.521   3.998  17.186  0.3991 -0.4560 -0.3382
  438MPD2    C4 6582   0.399   4.026  17.135 -0.0146  0.9643  0.0831
  438MPD2    C5 6583   0.381   4.040  16.997  0.3908 -0.1421  0.0893
  438MPD2     H 6584   0.728   3.973  17.133 -0.6469  0.6127  1.7442
  438MPD2    H1 6585   0.316   4.042  17.204 -0.5272  2.3469 -0.8441
  438MPD2    H2 6586   0.457   4.052  16.806  2.8280  1.9865 -0.3010
  438MPD2    H3 6587   0.282   4.067  16.963 -0.6410 -2.7000  0.9862
  438MPD2     N 6588   0.527   3.987  17.325  0.3407  0.6500  0.0869
  438MPD2    H5 6589   0.442   4.016  17.373 -0.3917 -2.6654  0.7456
  438MPD2    N1 6590   0.712   3.977  16.871  0.8819 -0.6208  0.2274
  438MPD2    H7 6591   0.797   3.945  16.916  1.5793  0.2618 -0.4573
  439TMC3    C1 6592   0.828   3.879  16.709 -0.2700 -0.1019 -0.3677
  439TMC3    C2 6593   0.805   3.762  16.652 -0.2114 -0.2653  0.4464
  439TMC3    C3 6594   0.874   3.651  16.701  0.3292 -0.9088  0.0094
  439TMC3    C4 6595   0.926   3.893  16.801  0.0977  0.2852 -0.1411
  439TMC3    C5 6596   1.008   3.791  16.832 -0.2376  0.3191  0.5587
  439TMC3    C6 6597   0.973   3.664  16.793 -0.3157 -0.0305  0.7228
  439TMC3     C 6598   0.709   3.957  16.735  0.3856  0.1283  0.0963
  439TMC3     O 6599   0.617   3.981  16.659 -0.1301  0.6350 -0.4976
  439TMC3     H 6600   0.717   3.753  16.588  0.5918 -1.6725 -0.4544
  439TMC3    H1 6601   0.954   3.985  16.853  0.3974  0.0004  0.2068
  439TMC3    H2 6602   1.033   3.582  16.830 -0.7700 -0.6533  0.0705
  439TMC3    C7 6603   1.135   3.804  16.903  0.7886  1.2414 -0.0212
  439TMC3    C8 6604   0.880   3.530  16.620 -0.8983 -0.3377 -0.2406
  439TMC3    O1 6605   1.176   3.716  16.974  0.1077  0.1326 -0.0176
  439TMC3    O2 6606   0.943   3.440  16.668 -0.4310  0.8929  0.0959
  440MPD2     C 6607   4.687   4.262  14.761  0.1507 -0.1242 -0.4312
  440MPD2    C1 6608   4.719   4.384  14.820 -0.1647  0.5847  0.6082
  440MPD2    C2 6609   0.109   4.408  14.853 -0.3939  0.1005 -0.9728
  440MPD2    C3 6610   0.210   4.315  14.828  0.8575 -0.1895  0.6457
  440MPD2    C4 6611   0.170   4.198  14.763  0.1695  0.1486  0.4392
  440MPD2    C5 6612   0.039   4.171  14.728 -0.3880  0.2152  0.3463
  440MPD2     H 6613   0.134   4.503  14.899 -0.6086 -0.2081 -0.2303
  440MPD2    H1 6614   0.236   4.115  14.743  2.1310  1.7312  0.3004
  440MPD2    H2 6615   4.581   4.242  14.755  0.0833  0.6528 -1.8860
  440MPD2    H3 6616   0.018   4.076  14.679  0.2169  0.0727  0.3556
  440MPD2     N 6617   0.347   4.323  14.866  0.3996 -0.3409  0.2590
  440MPD2    H5 6618   0.413   4.248  14.851 -1.3018 -1.4157 -1.8353
  440MPD2    N1 6619   4.623   4.481  14.855 -0.1140 -0.1800 -0.1517
  440MPD2    H7 6620   4.652   4.561  14.911 -0.7831  1.3796 -2.0467
  441TMC3    C1 6621   0.512   4.399  15.009 -0.4044 -0.1252 -0.3654
  441TMC3    C2 6622   0.578   4.510  15.063 -0.2638 -0.1288 -0.2206
  441TMC3    C3 6623   0.585   4.530  15.196  0.0420 -0.2354 -0.5793
  441TMC3    C4 6624   0.470   4.298  15.093 -0.0003 -0.1113  0.8320
  441TMC3    C5 6625   0.478   4.320  15.224 -1.0289  0.5679  0.1182
  441TMC3    C6 6626   0.523   4.439  15.274 -0.0424 -0.1707 -0.1332
  441TMC3     C 6627   0.401   4.433  14.930 -0.0482 -0.1431 -0.3584
  441TMC3     O 6628   0.352   4.540  14.963 -0.2380  0.5902 -0.0600
  441TMC3     H 6629   0.605   4.595  15.001  0.9411  0.0126  0.4970
  441TMC3    H1 6630   0.440   4.204  15.049  0.1928  0.1659  0.1051
  441TMC3    H2 6631   0.510   4.463  15.379  2.1094  2.3334 -0.4345
  441TMC3    C7 6632   0.367   4.274  15.295 -0.4344 -0.0241 -0.5029
  441TMC3    C8 6633   0.553   4.660  15.241 -0.1727 -0.1994 -0.1564
  441TMC3    O1 6634   0.382   4.244  15.409  0.0691 -0.3512 -0.4397
  441TMC3    O2 6635   0.630   4.719  15.313  0.0244  0.0817 -0.1385
  442MPD2     C 6636   2.861   0.214  16.783 -0.1753  0.3236  0.1006
  442MPD2    C1 6637   2.759   0.127  16.820  1.2745 -0.2179 -1.0610
  442MPD2    C2 6638   2.747   0.006  16.748 -0.1056  0.2604  0.1777
  442MPD2    C3 6639   2.851   4.703  16.663  0.0076 -0.3602  0.0879
  442MPD2    C4 6640   2.952   0.047  16.634  0.4671  0.1453 -0.0883
  442MPD2    C5 6641   2.957   0.177  16.691  0.4097  0.1117 -0.0380
  442MPD2     H 6642   2.657   4.688  16.762  1.3486 -1.6624  1.7318
  442MPD2    H1 6643   3.034   0.016  16.570  1.2293  0.1780  0.8790
  442MPD2    H2 6644   2.870   0.314  16.822 -1.7151 -0.2366  1.9122
  442MPD2    H3 6645   3.030   0.252  16.661  1.3212 -0.6753  0.2097
  442MPD2     N 6646   2.855   4.589  16.583  0.2699  0.0192  0.1589
  442MPD2    H5 6647   2.943   4.570  16.536 -0.8095 -3.3791 -0.5350
  442MPD2    N1 6648   2.658   0.177  16.909  0.6031 -0.3078  0.2823
  442MPD2    H7 6649   2.582   0.119  16.941 -0.7397  0.5550 -1.3116
  443TMC3    C1 6650   2.546   0.329  17.051 -0.1053  0.5105 -0.4400
  443TMC3    C2 6651   2.485   0.446  17.054 -0.0179 -0.0072 -0.0457
  443TMC3    C3 6652   2.364   0.453  17.114  0.2002 -0.1058 -0.3789
  443TMC3    C4 6653   2.504   0.220  17.121  0.2404  0.2266  0.5359
  443TMC3    C5 6654   2.385   0.234  17.187 -0.8627 -0.6610  0.1717
  443TMC3    C6 6655   2.313   0.348  17.190 -0.1405  0.0888  0.5737
  443TMC3     C 6656   2.648   0.313  16.952 -0.5229 -0.0571 -0.3522
  443TMC3     O 6657   2.696   0.413  16.903 -0.1235  0.1184 -0.0565
  443TMC3     H 6658   2.516   0.514  16.975 -2.5190 -2.0016 -2.7650
  443TMC3    H1 6659   2.569   0.137  17.145  1.8756  0.9562 -1.4532
  443TMC3    H2 6660   2.210   0.348  17.225 -0.7372  0.0300 -1.2116
  443TMC3    C7 6661   2.330   0.120  17.259  0.0391 -0.5489  0.1454
  443TMC3    C8 6662   2.274   0.560  17.067  0.0430  0.0760 -0.4312
  443TMC3    O1 6663   2.353   0.008  17.206 -0.0784 -0.0514  0.5835
  443TMC3    O2 6664   2.328   0.670  17.055  0.2001 -0.0788  0.5061
  444MPD2     C 6665   2.917   4.532  17.012 -0.3477  0.4989  0.2077
  444MPD2    C1 6666   2.831   4.425  17.023  1.1475 -0.1237 -0.5094
  444MPD2    C2 6667   2.854   4.316  16.934 -0.3191  0.1238 -0.7077
  444MPD2    C3 6668   2.947   4.314  16.839 -0.6123  0.2986 -0.0882
  444MPD2    C4 6669   3.025   4.433  16.823 -0.2862  0.3025  0.0658
  444MPD2    C5 6670   3.007   4.538  16.908  0.5021 -0.4599 -0.2238
  444MPD2     H 6671   2.801   4.222  16.947 -0.3988 -0.1016 -2.6626
  444MPD2    H1 6672   3.100   4.441  16.746 -1.5420  2.2499 -0.9588
  444MPD2    H2 6673   2.909   4.614  17.081  2.4627 -0.9368  2.2145
  444MPD2    H3 6674   3.072   4.624  16.899  0.7456 -0.7476 -1.2119
  444MPD2     N 6675   2.958   4.201  16.753 -0.1332  0.4281  0.4326
  444MPD2    H5 6676   2.902   4.120  16.775 -1.3008  1.0005 -0.4226
  444MPD2    N1 6677   2.751   4.402  17.134 -0.1877 -0.0799 -0.1215
  444MPD2    H7 6678   2.709   4.309  17.137  2.0038 -1.0483  0.0949
  445TMC3    C1 6679   3.064   4.051  16.597 -0.2033  0.1851 -0.0965
  445TMC3    C2 6680   2.948   3.984  16.573 -0.6762 -0.5051 -0.5472
  445TMC3    C3 6681   2.971   3.858  16.516  0.7340  0.3041  0.5961
  445TMC3    C4 6682   3.188   4.009  16.569  0.3889 -0.7372 -0.4608
  445TMC3    C5 6683   3.207   3.886  16.519  0.0388 -0.0948  0.3141
  445TMC3    C6 6684   3.098   3.797  16.494  0.5200 -0.2480  0.4001
  445TMC3     C 6685   3.049   4.187  16.650  0.8941  0.5577 -0.3327
  445TMC3     O 6686   3.132   4.263  16.600  0.0255  0.4943  0.1814
  445TMC3     H 6687   2.854   4.039  16.572 -0.5587 -0.2574  1.2169
  445TMC3    H1 6688   3.273   4.073  16.585 -0.9038  0.8408  0.1482
  445TMC3    H2 6689   3.110   3.694  16.462  0.6198  0.6118 -2.3423
  445TMC3    C7 6690   3.349   3.843  16.498  0.8190  0.3524 -1.2245
  445TMC3    C8 6691   2.851   3.785  16.479  1.1287 -0.5628  0.0142
  445TMC3    O1 6692   3.442   3.913  16.539  0.1476  0.4395 -0.7613
  445TMC3    O2 6693   2.743   3.818  16.530 -0.0789  0.5665  1.0469
  446MPD2     C 6694   2.819   0.521  11.358 -0.3001  0.1595 -0.1158
  446MPD2    C1 6695   2.864   0.460  11.238  0.0460  0.1711 -0.0167
  446MPD2    C2 6696   2.971   0.520  11.168  0.3513 -0.2366 -0.8704
  446MPD2    C3 6697   3.020   0.646  11.195 -0.3402 -0.2747 -0.3674
  446MPD2    C4 6698   2.963   0.710  11.308  0.2505  0.3203  0.5160
  446MPD2    C5 6699   2.870   0.647  11.389 -0.6405  0.1905  0.0991
  446MPD2     H 6700   3.021   0.462  11.091 -1.0638 -1.1197 -1.1141
  446MPD2    H1 6701   2.996   0.809  11.337  1.7156  0.5598 -1.9580
  446MPD2    H2 6702   2.735   0.478  11.410 -1.5908  2.2199 -0.4985
  446MPD2    H3 6703   2.823   0.704  11.469  1.5280 -0.3669  1.7828
  446MPD2     N 6704   3.122   0.711  11.120  0.2985 -0.7237 -0.0010
  446MPD2    H5 6705   3.185   0.655  11.062  2.2251  1.0509  0.3620
  446MPD2    N1 6706   2.797   0.350  11.169 -0.1764  0.9892 -0.1597
  446MPD2    H7 6707   2.844   0.306  11.090 -0.4583 -0.0415  0.2474
  447TMC3    C1 6708   3.273   0.874  11.059  0.1483  0.5064 -0.4470
  447TMC3    C2 6709   3.316   0.889  10.928 -0.0199  0.4629  0.0362
  447TMC3    C3 6710   3.452   0.904  10.918 -0.0064 -0.0214 -0.3834
  447TMC3    C4 6711   3.354   0.864  11.172 -0.2985  0.3221  0.3192
  447TMC3    C5 6712   3.486   0.872  11.148  0.3968 -0.0253  0.0800
  447TMC3    C6 6713   3.536   0.897  11.026 -0.2220 -0.0538  0.2294
  447TMC3     C 6714   3.134   0.847  11.104  0.4195  0.0295  0.5743
  447TMC3     O 6715   3.068   0.941  11.138 -0.6269  0.3411 -0.1906
  447TMC3     H 6716   3.251   0.896  10.841  0.7346 -0.3899 -0.5954
  447TMC3    H1 6717   3.311   0.824  11.263 -1.3846 -0.4577 -0.5422
  447TMC3    H2 6718   3.639   0.922  11.007 -0.0463 -0.7860  0.2206
  447TMC3    C7 6719   3.589   0.842  11.246  0.2720 -0.1144  0.3498
  447TMC3    C8 6720   3.515   0.855  10.795  0.0284 -0.3615 -0.8864
  447TMC3    O1 6721   3.696   0.809  11.196 -0.3223 -0.0250  0.0309
  447TMC3    O2 6722   3.459   0.879  10.689  0.0857 -0.2344 -0.1769
  448TMC3    C1 6723   0.456   0.624  16.765  0.2456 -0.1983 -0.3835
  448TMC3    C2 6724   0.437   0.500  16.711  0.3140  0.2822 -0.0098
  448TMC3    C3 6725   0.506   0.396  16.771 -0.8836  0.7564 -0.1209
  448TMC3    C4 6726   0.519   0.640  16.884  0.1142 -0.0819  0.3453
  448TMC3    C5 6727   0.577   0.537  16.944  0.3683 -0.8454  0.1596
  448TMC3    C6 6728   0.572   0.413  16.888 -0.6118 -0.7409  0.1355
  448TMC3     C 6729   0.424   0.735  16.688 -0.1740  0.5815 -0.3694
  448TMC3     O 6730   0.371   0.837  16.737 -0.4851 -0.0992 -0.4580
  448TMC3     H 6731   0.387   0.484  16.616  2.2295  0.5520 -1.0786
  448TMC3    H1 6732   0.541   0.738  16.925 -3.8862  1.1870 -0.5204
  448TMC3    H2 6733   0.630   0.330  16.927 -0.7438 -1.6101 -1.5324
  448TMC3    C7 6734   0.674   0.556  17.046 -0.1458  0.1293 -0.4008
  448TMC3    C8 6735   0.556   0.284  16.686 -0.9859 -0.2050  1.0553
  448TMC3    O1 6736   0.696   0.674  17.066 -0.2633  0.1839  0.3681
  448TMC3    O2 6737   0.645   0.209  16.732  0.3013  0.8900 -0.0403
  449MPD2     C 6738   2.760   3.443  14.387  0.0113  0.2344  0.1211
  449MPD2    C1 6739   2.693   3.536  14.315 -0.2326 -0.2346 -0.3340
  449MPD2    C2 6740   2.558   3.544  14.327 -0.1045  0.4596  0.2500
  449MPD2    C3 6741   2.492   3.463  14.423 -0.4275  0.5606  0.3029
  449MPD2    C4 6742   2.560   3.368  14.489  0.1652  0.3079  0.2675
  449MPD2    C5 6743   2.694   3.361  14.472 -0.3262 -0.8217  0.5722
  449MPD2     H 6744   2.498   3.619  14.277  0.3959  1.2793  0.8695
  449MPD2    H1 6745   2.520   3.298  14.561  1.9694 -1.5535 -0.5210
  449MPD2    H2 6746   2.868   3.433  14.384 -0.0200  0.6377 -2.1628
  449MPD2    H3 6747   2.758   3.299  14.534  2.1873  1.3352  0.1346
  449MPD2     N 6748   2.357   3.481  14.439 -0.1851 -0.2903 -0.0409
  449MPD2    H5 6749   2.307   3.537  14.370  0.2821 -1.2555 -1.1689
  449MPD2    N1 6750   2.742   3.624  14.219 -0.1594 -0.0441 -0.5665
  449MPD2    H7 6751   2.679   3.696  14.185 -0.8680  0.5287  2.0220
  450TMC3    C1 6752   2.866   3.740  14.059  0.0872 -0.4592 -0.0061
  450TMC3    C2 6753   2.912   3.707  13.936  0.0877  0.1843 -0.0645
  450TMC3    C3 6754   2.842   3.769  13.833 -1.6594  0.6859  0.7931
  450TMC3    C4 6755   2.784   3.844  14.078  0.0824  0.1138 -0.1906
  450TMC3    C5 6756   2.702   3.893  13.978  0.3841 -0.8377  0.2575
  450TMC3    C6 6757   2.724   3.849  13.851 -0.7533  0.0751  0.4267
  450TMC3     C 6758   2.869   3.641  14.164  0.0452  0.0855  0.5059
  450TMC3     O 6759   2.959   3.561  14.175  0.1445  0.3644  0.5545
  450TMC3     H 6760   2.995   3.638  13.926 -2.7512 -3.0184 -1.4435
  450TMC3    H1 6761   2.773   3.873  14.182  1.7490  0.3435 -0.0753
  450TMC3    H2 6762   2.678   3.894  13.764  1.1947  0.9956 -0.1402
  450TMC3    C7 6763   2.569   3.895  14.030 -0.0637 -0.2319  0.5742
  450TMC3    C8 6764   2.885   3.759  13.693 -0.3221 -0.2142 -0.6000
  450TMC3    O1 6765   2.561   3.826  14.129 -0.7270 -0.6095 -0.0428
  450TMC3    O2 6766   2.793   3.763  13.612 -0.3034  0.0700 -0.0680
  451MPD2     C 6767   3.504   2.177   0.918  0.0805  0.0755 -0.1551
  451MPD2    C1 6768   3.589   2.276   0.871 -0.2271  0.1145 -0.1983
  451MPD2    C2 6769   3.704   2.235   0.816 -0.0640  0.4065 -0.2571
  451MPD2    C3 6770   3.736   2.100   0.799 -0.4471 -0.2969 -0.7389
  451MPD2    C4 6771   3.660   2.001   0.856  0.5370 -0.4962  0.2081
  451MPD2    C5 6772   3.541   2.043   0.909 -0.5254  0.1128 -0.0175
  451MPD2     H 6773   3.782   2.307   0.796  1.4846  0.0334  4.5654
  451MPD2    H1 6774   3.683   1.895   0.845 -0.7612 -0.5609 -1.9878
  451MPD2    H2 6775   3.412   2.213   0.962 -0.9358 -1.1737 -1.2642
  451MPD2    H3 6776   3.483   1.963   0.954  0.2429 -1.0597 -1.1131
  451MPD2     N 6777   3.842   2.056   0.724  1.0459 -0.1342 -0.7700
  451MPD2    H5 6778   3.869   1.958   0.728  0.8112 -0.2459 -1.9856
  451MPD2    N1 6779   3.543   2.414   0.883 -1.0756  0.1277  0.5060
  451MPD2    H7 6780   3.443   2.429   0.893 -1.2691 -0.3864 -0.6957
  452TMC3    C1 6781   4.029   2.056   0.578 -0.0065  0.4447  0.2123
  452TMC3    C2 6782   3.992   1.937   0.526  0.3664  0.4380 -0.1858
  452TMC3    C3 6783   4.050   1.896   0.410  0.4029 -0.4089  0.3357
  452TMC3    C4 6784   4.118   2.139   0.517  0.2320  0.8631  0.0024
  452TMC3    C5 6785   4.177   2.088   0.406  0.0811 -0.5547 -0.0621
  452TMC3    C6 6786   4.151   1.970   0.352  0.1720  1.3196  0.0275
  452TMC3     C 6787   3.924   2.133   0.644 -0.3607  0.6446  0.3043
  452TMC3     O 6788   3.929   2.254   0.620 -0.3734  0.1497 -0.3233
  452TMC3     H 6789   3.933   1.874   0.591  0.2369  1.9322  1.1693
  452TMC3    H1 6790   4.149   2.235   0.555 -2.1070  1.8052 -0.5018
  452TMC3    H2 6791   4.199   1.942   0.259 -1.2143 -0.4575 -0.1553
  452TMC3    C7 6792   4.266   2.169   0.332  0.2550  0.0189  0.1356
  452TMC3    C8 6793   4.028   1.767   0.358 -0.6492 -0.4828 -0.5293
  452TMC3    O1 6794   4.241   2.166   0.209  0.0185  0.4618  0.2813
  452TMC3    O2 6795   4.123   1.736   0.291  0.5298 -0.1586  0.1008
  453TMC3    C1 6796   0.996   4.563  11.848 -0.2506 -0.7410 -0.3787
  453TMC3    C2 6797   0.917   4.457  11.813 -0.2888  0.1236  0.0307
  453TMC3    C3 6798   0.903   4.438  11.679  0.2687  0.6681  0.7773
  453TMC3    C4 6799   1.038   4.658  11.762  0.3815 -0.0526 -0.1059
  453TMC3    C5 6800   1.026   4.630  11.628  0.3304  0.1511  0.0216
  453TMC3    C6 6801   0.966   4.516  11.584  0.0781  0.1684  0.1793
  453TMC3     C 6802   1.032   4.580  11.988  0.0405 -0.6954 -0.0569
  453TMC3     O 6803   1.053   4.697  12.011  0.0718  0.3112 -0.0161
  453TMC3     H 6804   0.851   4.405  11.881 -0.1291  1.7382  1.4289
  453TMC3    H1 6805   1.083   0.012  11.792  2.2223 -0.7467 -0.7064
  453TMC3    H2 6806   0.941   4.501  11.480 -1.9773 -0.4971  0.7807
  453TMC3    C7 6807   1.088   4.715  11.532 -0.7002  0.5440  0.6157
  453TMC3    C8 6808   0.848   4.314  11.635  0.0826  0.5270  0.1616
  453TMC3    O1 6809   1.128   0.083  11.575  0.1655 -0.2033  0.4135
  453TMC3    O2 6810   0.841   4.300  11.514  0.0555 -0.2242  0.4213
  454MPD2     C 6811   3.824   3.788  16.017  0.5939  0.5171  0.1407
  454MPD2    C1 6812   3.769   3.906  15.985 -0.4637  0.1007  0.0337
  454MPD2    C2 6813   3.772   4.011  16.074  0.5731 -0.5924 -0.2100
  454MPD2    C3 6814   3.816   3.993  16.204  0.5743  0.3213  0.0558
  454MPD2    C4 6815   3.864   3.866  16.239  0.1062 -0.4306 -0.0029
  454MPD2    C5 6816   3.876   3.768  16.143  0.2942  0.3490 -0.0489
  454MPD2     H 6817   3.741   4.106  16.032  2.8120  0.0432 -0.4275
  454MPD2    H1 6818   3.901   3.854  16.340  0.5095  0.3456 -0.0549
  454MPD2    H2 6819   3.807   3.698  15.957  0.9191  1.3538 -1.2084
  454MPD2    H3 6820   3.908   3.671  16.181  1.4917  0.0929 -1.6595
  454MPD2     N 6821   3.793   4.077  16.311 -0.1938  0.0049 -0.1015
  454MPD2    H5 6822   3.810   4.038  16.403  1.9544  1.8317  0.2898
  454MPD2    N1 6823   3.707   3.937  15.860 -0.1337 -0.7629  0.6471
  454MPD2    H7 6824   3.674   4.032  15.850  3.1514  0.3429  0.6006
  455TMC3    C1 6825   3.651   4.236  16.383  0.2290 -0.6669 -0.2705
  455TMC3    C2 6826   3.624   4.374  16.365  0.3768 -0.3550  0.3997
  455TMC3    C3 6827   3.496   4.407  16.328 -0.5809 -0.0334 -0.0770
  455TMC3    C4 6828   3.551   4.147  16.360  0.3616  0.7593 -0.6766
  455TMC3    C5 6829   3.426   4.184  16.318 -0.1707 -0.7369  0.0088
  455TMC3    C6 6830   3.402   4.320  16.306  0.4411  0.1528  0.8662
  455TMC3     C 6831   3.755   4.208  16.297  0.1315 -0.1851  0.1217
  455TMC3     O 6832   3.764   4.268  16.191  0.3363 -0.2703  0.3395
  455TMC3     H 6833   3.693   4.453  16.393  1.9997 -1.1338 -1.3321
  455TMC3    H1 6834   3.571   4.042  16.377 -3.1339 -0.1012 -1.9369
  455TMC3    H2 6835   3.303   4.360  16.284  0.9760  1.6690  1.2045
  455TMC3    C7 6836   3.344   4.104  16.227  0.1240  0.1622 -0.4412
  455TMC3    C8 6837   3.472   4.552  16.327  0.4036  0.2877  0.0415
  455TMC3    O1 6838   3.223   4.126  16.217  0.1921  0.6755 -0.5386
  455TMC3    O2 6839   3.513   4.617  16.230 -0.1664  0.6176 -0.2740
  456MPD2     C 6840   1.154   3.820  16.026  0.5699  0.3507  0.4393
  456MPD2    C1 6841   1.234   3.860  16.134  0.1328 -0.4283  1.0272
  456MPD2    C2 6842   1.178   3.931  16.243 -0.4407 -0.6598 -0.5095
  456MPD2    C3 6843   1.051   3.987  16.228 -0.3831  0.1626  0.4999
  456MPD2    C4 6844   0.970   3.953  16.118  0.2007  0.2805  0.0038
  456MPD2    C5 6845   1.031   3.877  16.021 -0.7507 -0.0841  0.4663
  456MPD2     H 6846   1.243   3.958  16.326 -0.2903  0.6911 -1.0691
  456MPD2    H1 6847   0.869   3.985  16.097  0.7993  1.2877 -1.3568
  456MPD2    H2 6848   1.196   3.766  15.941  0.2323  1.8822 -0.6993
  456MPD2    H3 6849   0.981   3.852  15.928  0.1721  0.6004 -0.2126
  456MPD2     N 6850   1.013   4.081  16.320  0.2555  0.2292 -1.3365
  456MPD2    H5 6851   1.078   4.114  16.391  1.0114 -1.0817 -1.4276
  456MPD2    N1 6852   1.368   3.816  16.123 -0.3755  0.0939  0.4129
  456MPD2    H7 6853   1.390   3.767  16.038  2.5125  2.7813 -0.3699
  457TMC3    C1 6854   0.890   4.236  16.434 -0.1215  0.0477 -0.4546
  457TMC3    C2 6855   0.799   4.340  16.422  0.2117 -0.4499 -0.2768
  457TMC3    C3 6856   0.798   4.430  16.521  0.1243 -0.1839 -0.8636
  457TMC3    C4 6857   0.954   4.214  16.546 -0.0087  0.3820 -0.1975
  457TMC3    C5 6858   0.943   4.305  16.646 -0.0289  0.3575 -0.2043
  457TMC3    C6 6859   0.867   4.418  16.638 -0.1868  0.2550 -0.3577
  457TMC3     C 6860   0.887   4.141  16.330 -0.1877 -0.4167  0.4611
  457TMC3     O 6861   0.786   4.123  16.265 -0.6103 -0.0276 -0.0528
  457TMC3     H 6862   0.733   4.357  16.338 -2.6173 -1.0722  1.8395
  457TMC3    H1 6863   1.013   4.126  16.564 -2.3740 -1.2633 -0.5177
  457TMC3    H2 6864   0.880   4.497  16.711 -0.5393  1.2395 -1.3713
  457TMC3    C7 6865   0.984   4.260  16.777  0.2854 -0.2494  0.0868
  457TMC3    C8 6866   0.734   4.561  16.523 -0.3647  0.0333  0.0263
  457TMC3    O1 6867   1.065   4.169  16.776 -0.4299 -0.2956 -0.1413
  457TMC3    O2 6868   0.708   4.596  16.634 -0.0897 -0.1036  0.5553
  458MPD2     C 6869   4.597   3.356  12.182 -0.2429  0.2038 -0.5387
  458MPD2    C1 6870   4.511   3.327  12.279  0.1272 -0.9825  0.6110
  458MPD2    C2 6871   4.411   3.233  12.251 -0.2998  0.4071 -0.4793
  458MPD2    C3 6872   4.405   3.172  12.123 -0.1571 -0.0701  0.5564
  458MPD2    C4 6873   4.497   3.207  12.024 -0.1313 -0.1064 -0.2720
  458MPD2    C5 6874   4.603   3.290  12.063  0.4058 -0.3883 -0.8959
  458MPD2     H 6875   4.330   3.219  12.322 -0.3113  0.5886 -0.4565
  458MPD2    H1 6876   4.499   3.161  11.926 -1.4461  3.2441 -1.8661
  458MPD2    H2 6877   4.670   3.435  12.197 -0.2000  0.3055 -1.2774
  458MPD2    H3 6878   4.674   3.329  11.992  2.0429 -0.4551  0.6932
  458MPD2     N 6879   4.292   3.085  12.096  0.0279  0.0302  0.4690
  458MPD2    H5 6880   4.224   3.082  12.171 -0.0913 -1.5019  0.2955
  458MPD2    N1 6881   4.529   3.387  12.404  0.5870 -0.2514 -0.2605
  458MPD2    H7 6882   4.585   3.472  12.408 -0.3973  0.3892 -0.0123
  459TMC3    C1 6883   4.475   3.464  12.621 -0.1244  0.0439 -0.3514
  459TMC3    C2 6884   4.530   3.588  12.595 -0.0898 -0.2857 -0.7242
  459TMC3    C3 6885   4.578   3.657  12.705  0.0547  0.4134  0.1013
  459TMC3    C4 6886   4.448   3.417  12.744  0.2242  0.1968  0.0268
  459TMC3    C5 6887   4.492   3.494  12.851  0.3274  0.4247 -0.3726
  459TMC3    C6 6888   4.556   3.610  12.835 -0.5985 -0.2728  0.2011
  459TMC3     C 6889   4.452   3.364  12.516  0.4435 -0.3636 -0.7973
  459TMC3     O 6890   4.364   3.288  12.545 -0.5468 -0.8373  0.0821
  459TMC3     H 6891   4.536   3.622  12.493  0.4739 -0.7171 -0.8397
  459TMC3    H1 6892   4.406   3.317  12.754  3.6200 -1.2962 -0.7917
  459TMC3    H2 6893   4.590   3.655  12.928 -0.5473 -1.9147  0.9861
  459TMC3    C7 6894   4.454   3.447  12.982  0.6719  1.1750 -0.0412
  459TMC3    C8 6895   4.664   3.773  12.685  0.0407  0.1905  0.2955
  459TMC3    O1 6896   4.465   3.331  13.018  0.4819  0.3114 -0.0256
  459TMC3    O2 6897   4.733   3.806  12.782  0.1728 -0.1321  0.1266
  460MPD2     C 6898   3.832   0.664  10.806 -0.6106  0.5478 -0.0213
  460MPD2    C1 6899   3.728   0.729  10.746 -0.0280  0.1445 -0.0965
  460MPD2    C2 6900   3.739   0.747  10.610  0.9441 -0.0810 -0.5894
  460MPD2    C3 6901   3.841   0.692  10.535  0.0225 -0.1818  0.1024
  460MPD2    C4 6902   3.947   0.648  10.605  0.0456 -0.0709  0.9270
  460MPD2    C5 6903   3.943   0.626  10.736  0.1181 -0.5921  0.3218
  460MPD2     H 6904   3.647   0.782  10.565  1.2676  2.1694  0.4699
  460MPD2    H1 6905   4.035   0.606  10.557 -1.7321 -1.0215 -1.4874
  460MPD2    H2 6906   3.836   0.628  10.908  0.8373 -0.5495 -0.4742
  460MPD2    H3 6907   4.026   0.571  10.779  1.2201 -0.1237 -1.1751
  460MPD2     N 6908   3.837   0.691  10.391 -0.7638  0.3064  0.3794
  460MPD2    H5 6909   3.756   0.725  10.339 -0.6546 -0.6238 -0.3856
  460MPD2    N1 6910   3.620   0.772  10.829  0.2228  0.2100  0.4689
  460MPD2    H7 6911   3.640   0.756  10.927  0.1564 -0.6537  0.3427
  461TMC3    C1 6912   3.902   0.597  10.181 -0.1097 -1.0177  0.3500
  461TMC3    C2 6913   3.940   0.479  10.140 -0.1048  0.3752 -0.3343
  461TMC3    C3 6914   3.933   0.451  10.006  0.1505  0.3271 -0.9840
  461TMC3    C4 6915   3.858   0.697  10.102 -0.2460 -0.5811  0.8293
  461TMC3    C5 6916   3.851   0.667   9.966  0.1882 -0.1410  0.6504
  461TMC3    C6 6917   3.888   0.543   9.910 -0.1297  0.0824  0.3216
  461TMC3     C 6918   3.944   0.635  10.314 -0.5075  0.6253  0.8509
  461TMC3     O 6919   4.049   0.578  10.341 -0.1827 -0.0500  0.3362
  461TMC3     H 6920   3.968   0.400  10.209 -1.2567 -0.1950 -0.5239
  461TMC3    H1 6921   3.829   0.794  10.141  3.3373  0.2356  1.4180
  461TMC3    H2 6922   3.873   0.517   9.805 -2.1985 -1.1786  0.9263
  461TMC3    C7 6923   3.812   0.775   9.878 -1.1541  0.4701  0.2023
  461TMC3    C8 6924   3.975   0.318   9.967  0.3959 -0.3874 -1.3855
  461TMC3    O1 6925   3.769   0.873   9.937  0.1075  0.2646  0.1875
  461TMC3    O2 6926   3.998   0.234  10.049  0.1397  0.3076  0.0491
  462TMC3    C1 6927   3.044   2.565   0.150  0.6345 -0.0987 -0.2720
  462TMC3    C2 6928   3.148   2.480   0.136 -0.1496  0.2939  0.5864
  462TMC3    C3 6929   3.112   2.356   0.096 -0.0326 -1.2298  0.2490
  462TMC3    C4 6930   2.919   2.528   0.129  0.2270  0.0018 -0.7135
  462TMC3    C5 6931   2.884   2.403   0.103 -0.2086 -0.0157  0.9905
  462TMC3    C6 6932   2.983   2.316   0.069 -0.3639  0.4018  0.0551
  462TMC3     C 6933   3.060   2.703   0.190  1.0048  0.3628 -0.1766
  462TMC3     O 6934   2.955   2.768   0.218 -0.3356  0.2236 -0.0529
  462TMC3     H 6935   3.252   2.508   0.150 -1.1370  4.3496 -0.1575
  462TMC3    H1 6936   2.844   2.607   0.127 -0.2421 -0.4249  0.1658
  462TMC3    H2 6937   2.957   2.213   0.046  1.8656 -0.4272  1.2571
  462TMC3    C7 6938   2.750   2.341   0.126 -0.6401  1.0534  0.8952
  462TMC3    C8 6939   3.214   2.250   0.126  0.0392 -0.4086  0.1430
  462TMC3    O1 6940   2.721   2.234   0.078  0.3340 -0.0527  0.1459
  462TMC3    O2 6941   3.302   2.278   0.211 -0.1401 -0.2362 -0.2317
  463MPD2     C 6942   4.311   0.869   1.656 -0.4144  0.5366 -0.2358
  463MPD2    C1 6943   4.251   0.756   1.606  0.0257 -0.1534 -0.0305
  463MPD2    C2 6944   4.333   0.648   1.563 -0.3135 -0.2702  0.5919
  463MPD2    C3 6945   4.471   0.651   1.574 -0.6901 -0.4987  0.5997
  463MPD2    C4 6946   4.522   0.768   1.622 -0.2115  0.0544  0.2330
  463MPD2    C5 6947   4.446   0.879   1.660 -0.2427 -0.0145  0.0451
  463MPD2     H 6948   4.294   0.553   1.529  1.1330  0.1564 -2.2856
  463MPD2    H1 6949   4.630   0.770   1.632 -0.2021  1.4881 -0.0856
  463MPD2    H2 6950   4.250   0.934   1.718 -2.5335 -1.1748 -0.5207
  463MPD2    H3 6951   4.496   0.962   1.708 -0.5891  0.2299 -0.0157
  463MPD2     N 6952   4.566   0.554   1.538 -0.3739  0.0791 -0.1481
  463MPD2    H5 6953   4.662   0.577   1.560  0.9904 -4.6715 -1.1589
  463MPD2    N1 6954   4.111   0.736   1.594 -0.0651 -0.2489  0.1207
  463MPD2    H7 6955   4.079   0.654   1.545  0.3242 -0.4410  0.1852
  464TMC3    C1 6956   3.886   0.810   1.556 -0.3658  0.1264  0.7450
  464TMC3    C2 6957   3.832   0.905   1.478  0.4212  0.3720 -1.0897
  464TMC3    C3 6958   3.714   0.870   1.418  0.1528 -0.3273  0.5575
  464TMC3    C4 6959   3.832   0.689   1.575 -0.0909  0.2689  0.3192
  464TMC3    C5 6960   3.717   0.655   1.505  0.1841 -0.0827  0.5880
  464TMC3    C6 6961   3.649   0.747   1.430  0.3527 -0.3640 -0.7075
  464TMC3     C 6962   4.022   0.836   1.602 -1.6499  0.7137  1.1346
  464TMC3     O 6963   4.043   0.952   1.637  0.0802 -0.2113 -0.3156
  464TMC3     H 6964   3.866   1.007   1.469 -1.7611  1.3278  1.4964
  464TMC3    H1 6965   3.878   0.627   1.651  2.1368 -0.2867 -1.4678
  464TMC3    H2 6966   3.545   0.735   1.402  0.8753 -0.5295 -2.5846
  464TMC3    C7 6967   3.677   0.517   1.516  0.4608  0.1487  0.0407
  464TMC3    C8 6968   3.624   0.985   1.397 -0.1430  0.2720 -0.3129
  464TMC3    O1 6969   3.757   0.441   1.577 -0.2221 -0.0269 -0.3659
  464TMC3    O2 6970   3.550   0.970   1.303 -0.0123  0.1891 -0.5180
  465MPD2     C 6971   0.407   4.500  16.960 -0.7080  0.5845 -0.6477
  465MPD2    C1 6972   0.296   4.419  16.962  0.4727 -1.0873 -0.3980
  465MPD2    C2 6973   0.244   4.363  16.842  0.0644 -0.4412  0.1855
  465MPD2    C3 6974   0.302   4.399  16.725  0.4752  0.0725  0.1963
  465MPD2    C4 6975   0.414   4.479  16.718 -0.6054  0.4641 -0.1700
  465MPD2    C5 6976   0.471   4.527  16.838  0.5008 -0.6827 -0.7370
  465MPD2     H 6977   0.158   4.296  16.850  1.4161 -2.1553  0.4815
  465MPD2    H1 6978   0.481   4.501  16.635 -0.8131 -1.2232 -0.7899
  465MPD2    H2 6979   0.456   4.541  17.047 -0.0027 -2.0811  0.2210
  465MPD2    H3 6980   0.564   4.581  16.840  2.0420 -3.3563 -0.3881
  465MPD2     N 6981   0.226   4.350  16.613 -0.3816 -0.3844 -0.6012
  465MPD2    H5 6982   0.138   4.300  16.627 -1.2379  1.3574  0.2048
  465MPD2    N1 6983   0.233   4.382  17.083  0.3666 -0.4953  0.4365
  465MPD2    H7 6984   0.171   4.301  17.088  1.0929 -1.0232  0.8089
  466TMC3    C1 6985   4.662   4.305  16.373 -0.0988 -0.0683 -0.3083
  466TMC3    C2 6986   4.661   4.398  16.278 -0.0806  0.1392  0.1822
  466TMC3    C3 6987   0.033   4.465  16.232 -0.1540 -0.3495  0.4921
  466TMC3    C4 6988   0.043   4.282  16.434  0.3387 -0.3378 -0.7648
  466TMC3    C5 6989   0.152   4.343  16.391 -0.0537 -0.5416 -0.6500
  466TMC3    C6 6990   0.150   4.432  16.279 -0.2822 -1.0806  0.4329
  466TMC3     C 6991   4.558   4.320  16.471 -0.2585  0.6683  0.2878
  466TMC3     O 6992   4.584   4.269  16.580 -0.3622  0.2507  1.1426
  466TMC3     H 6993   4.571   4.423  16.223 -1.5806 -0.9233  2.1594
  466TMC3    H1 6994   0.042   4.202  16.507  1.7793 -2.0364 -2.6014
  466TMC3    H2 6995   0.235   4.489  16.242 -2.2730  2.2677  1.0021
  466TMC3    C7 6996   0.265   4.372  16.482  0.3778 -0.3565  0.1110
  466TMC3    C8 6997   0.019   4.601  16.186  0.2261  0.5250  0.4007
  466TMC3    O1 6998   0.364   4.427  16.439  0.8350  0.1208  0.6322
  466TMC3    O2 6999   0.086   4.642  16.092  0.2792 -0.2279  0.1478
  467TMC3    C1 7000   1.730   2.755  13.903  1.0569 -0.0147  0.5569
  467TMC3    C2 7001   1.762   2.814  13.782  0.5635 -0.2500 -0.3231
  467TMC3    C3 7002   1.664   2.878  13.716  0.2050 -0.7233  0.0254
  467TMC3    C4 7003   1.603   2.745  13.949 -0.0526 -0.2192  0.5433
  467TMC3    C5 7004   1.513   2.821  13.885 -0.1833  0.1130  0.1968
  467TMC3    C6 7005   1.538   2.892  13.769 -0.3475  0.1277 -0.2362
  467TMC3     C 7006   1.833   2.776  13.997 -0.8184  0.7227 -0.6098
  467TMC3     O 7007   1.922   2.692  14.000 -0.0363 -0.2862  0.4545
  467TMC3     H 7008   1.868   2.820  13.758  0.3901  1.1181 -0.7127
  467TMC3    H1 7009   1.601   2.719  14.054  0.7157 -1.7196  0.1899
  467TMC3    H2 7010   1.463   2.954  13.721 -0.0412  0.9170  0.2941
  467TMC3    C7 7011   1.378   2.795  13.909  0.2893 -0.5801  0.5865
  467TMC3    C8 7012   1.702   2.975  13.613  0.2031  0.3656 -0.2635
  467TMC3    O1 7013   1.298   2.884  13.898 -0.4366 -0.2457  0.4105
  467TMC3    O2 7014   1.655   3.087  13.614 -0.0443  0.0307 -0.1219
  468MPD2     C 7015   1.090   0.714  11.034  0.4362  0.3296  0.0253
  468MPD2    C1 7016   1.072   0.662  11.159 -1.2436  0.3910  0.6853
  468MPD2    C2 7017   1.043   0.528  11.173  1.4373  0.3056  0.0186
  468MPD2    C3 7018   1.021   0.439  11.066 -0.3785  0.4720  0.1341
  468MPD2    C4 7019   1.040   0.499  10.941  0.7356 -0.3318  0.7047
  468MPD2    C5 7020   1.081   0.628  10.926  0.5936 -0.0499  0.1791
  468MPD2     H 7021   1.033   0.491  11.274  0.3616  3.2380  0.9855
  468MPD2    H1 7022   1.044   0.448  10.846 -0.8758  0.1606  0.3687
  468MPD2    H2 7023   1.124   0.816  11.019  2.0001 -0.2875 -0.7421
  468MPD2    H3 7024   1.097   0.666  10.826  4.0111 -0.9949  0.3901
  468MPD2     N 7025   0.979   0.305  11.081  0.1613  0.1054 -0.6814
  468MPD2    H5 7026   0.979   0.246  10.998 -2.1573  0.7058 -1.1163
  468MPD2    N1 7027   1.069   0.744  11.274  0.0393 -0.3582  0.0567
  468MPD2    H7 7028   1.062   0.694  11.362  2.7230 -0.2737  0.3330
  469TMC3    C1 7029   1.034   0.924  11.407 -0.3040 -0.5437  0.7177
  469TMC3    C2 7030   1.095   0.840  11.497 -0.0826 -0.1196 -0.4565
  469TMC3    C3 7031   1.040   0.830  11.623  0.1192 -0.3290  0.4818
  469TMC3    C4 7032   0.921   0.992  11.444  0.4576  0.5657  0.5835
  469TMC3    C5 7033   0.873   0.988  11.568  0.2133  0.1160 -0.3053
  469TMC3    C6 7034   0.929   0.901  11.658 -0.7088  0.2858  0.9024
  469TMC3     C 7035   1.046   0.879  11.272  0.1117  0.9505 -0.3702
  469TMC3     O 7036   1.010   0.951  11.178  1.0712  0.1230 -0.0195
  469TMC3     H 7037   1.192   0.798  11.477 -0.3007 -0.1996 -1.3589
  469TMC3    H1 7038   0.875   1.055  11.368  1.0837 -0.6635 -0.8154
  469TMC3    H2 7039   0.888   0.881  11.757 -1.3470 -2.0156  0.1712
  469TMC3    C7 7040   0.744   1.040  11.593  0.4069  0.1151  0.7853
  469TMC3    C8 7041   1.086   0.718  11.692  0.0107  0.3501  0.1507
  469TMC3    O1 7042   0.672   1.059  11.492 -0.4027  0.1867 -0.2446
  469TMC3    O2 7043   1.148   0.628  11.636  0.0134  0.4885  0.5321
  470TMC3    C1 7044   1.976   2.238   0.655 -0.7990 -0.1206  0.7279
  470TMC3    C2 7045   2.027   2.364   0.642  0.0036  0.1823 -0.0179
  470TMC3    C3 7046   2.135   2.389   0.726 -0.1704  0.2425  0.4646
  470TMC3    C4 7047   2.026   2.133   0.732 -0.7804 -0.6745 -0.2266
  470TMC3    C5 7048   2.135   2.165   0.810 -0.8028  0.6818  0.2483
  470TMC3    C6 7049   2.187   2.291   0.806  0.6940  0.2146  0.4855
  470TMC3     C 7050   1.873   2.188   0.566  0.8312 -0.4906 -0.8307
  470TMC3     O 7051   1.857   2.069   0.538 -0.5080 -0.2094  0.6261
  470TMC3     H 7052   1.983   2.437   0.575 -0.3007  0.4190  0.4410
  470TMC3    H1 7053   1.979   2.035   0.735  0.1269 -1.1810 -2.6681
  470TMC3    H2 7054   2.277   2.313   0.864 -0.1873 -0.5823  2.1711
  470TMC3    C7 7055   2.178   2.072   0.902  0.5160  0.6947 -0.0602
  470TMC3    C8 7056   2.159   2.519   0.772  0.7605  0.8966 -0.3673
  470TMC3    O1 7057   2.277   2.108   0.958 -0.2603  0.7118 -0.2934
  470TMC3    O2 7058   2.274   2.548   0.811 -0.4724  1.2872  0.2931
  471MPD2     C 7059   2.508   3.356  17.043 -0.4668  0.1650 -0.6139
  471MPD2    C1 7060   2.570   3.392  16.923  0.1102 -0.5757 -0.8689
  471MPD2    C2 7061   2.704   3.422  16.922  0.2168  1.0134 -0.1009
  471MPD2    C3 7062   2.782   3.418  17.039 -0.2582  0.3786  0.1936
  471MPD2    C4 7063   2.717   3.395  17.157  0.0689  0.0488  0.6794
  471MPD2    C5 7064   2.576   3.381  17.159  0.0629  0.1799  0.4308
  471MPD2     H 7065   2.751   3.430  16.825  0.0017 -2.6144 -0.5062
  471MPD2    H1 7066   2.777   3.395  17.247  1.6338 -0.5988 -0.3674
  471MPD2    H2 7067   2.403   3.331  17.047 -0.2904 -0.1767  2.2620
  471MPD2    H3 7068   2.533   3.358  17.255 -2.2763  0.5324 -0.5266
  471MPD2     N 7069   2.922   3.416  17.041 -0.2028  0.6950 -0.1414
  471MPD2    H5 7070   2.972   3.396  17.127  0.2856  0.0302 -0.5719
  471MPD2    N1 7071   2.503   3.384  16.798  0.2177 -0.0652  0.2700
  471MPD2    H7 7072   2.557   3.426  16.722 -2.2749  0.8313 -1.0076
  472TMC3    C1 7073   2.327   3.386  16.632 -0.4513  0.3681  0.0642
  472TMC3    C2 7074   2.191   3.390  16.609 -0.3107 -0.2687  0.2179
  472TMC3    C3 7075   2.152   3.357  16.480 -0.0508 -0.4680 -0.0653
  472TMC3    C4 7076   2.418   3.351  16.535  0.4117  1.0382 -0.3687
  472TMC3    C5 7077   2.371   3.317  16.410 -0.0144 -0.1595  0.0861
  472TMC3    C6 7078   2.240   3.315  16.387 -0.6284 -0.7648 -0.1349
  472TMC3     C 7079   2.374   3.351  16.766  0.2134  0.1370 -0.0473
  472TMC3     O 7080   2.286   3.316  16.846  0.4122 -0.3752 -0.3883
  472TMC3     H 7081   2.126   3.419  16.691 -0.0935 -1.1087  0.6873
  472TMC3    H1 7082   2.524   3.343  16.556  0.1708  0.6416  0.7009
  472TMC3    H2 7083   2.192   3.267  16.303 -0.2516  0.0437 -0.8067
  472TMC3    C7 7084   2.425   3.187  16.395 -0.5803  0.0289  0.1235
  472TMC3    C8 7085   2.024   3.300  16.464 -0.6488  0.4248  0.1733
  472TMC3    O1 7086   2.354   3.093  16.416  0.6555  0.0127 -0.0346
  472TMC3    O2 7087   1.962   3.343  16.368  0.0496 -0.3634  0.0277
  473MPD2     C 7088   2.821   0.274  14.024  0.6033  0.1465 -0.2561
  473MPD2    C1 7089   2.789   0.402  13.984  0.0265 -0.6305  0.1133
  473MPD2    C2 7090   2.782   0.496  14.087 -0.1651  1.2689  0.5504
  473MPD2    C3 7091   2.806   0.467  14.220 -0.4060  0.2622 -0.4632
  473MPD2    C4 7092   2.863   0.345  14.248 -0.8975  0.2723  0.1652
  473MPD2    C5 7093   2.862   0.246  14.154 -0.7822  0.1806  0.2073
  473MPD2     H 7094   2.745   0.593  14.058 -1.1310  1.0965  1.1885
  473MPD2    H1 7095   2.906   0.326  14.345  0.0914 -0.6676 -0.4495
  473MPD2    H2 7096   2.843   0.191  13.958 -1.0006 -0.8119  0.4077
  473MPD2    H3 7097   2.910   0.154  14.184  0.0453  1.0278  1.4428
  473MPD2     N 7098   2.800   0.555  14.332  0.2152  0.0684  0.1700
  473MPD2    H5 7099   2.826   0.513  14.421 -0.0583 -2.0388 -0.7664
  473MPD2    N1 7100   2.762   0.443  13.851  0.2080 -0.0310 -0.1494
  473MPD2    H7 7101   2.766   0.543  13.836  0.8727 -0.2932 -1.7154
  474TMC3    C1 7102   2.726   0.746  14.452  0.0018  0.0067 -0.2737
  474TMC3    C2 7103   2.625   0.837  14.458 -0.2007  0.1318  0.0452
  474TMC3    C3 7104   2.634   0.943  14.543  0.0586 -0.3100  0.2102
  474TMC3    C4 7105   2.835   0.767  14.533 -0.0910  0.2618 -0.0042
  474TMC3    C5 7106   2.840   0.871  14.616 -0.2353 -0.0036  0.0853
  474TMC3    C6 7107   2.738   0.963  14.626  0.1774 -0.0812  0.3693
  474TMC3     C 7108   2.744   0.676  14.322 -0.0087  0.3527  0.2499
  474TMC3     O 7109   2.679   0.723  14.228  0.1078 -0.7080 -0.2879
  474TMC3     H 7110   2.536   0.814  14.400 -0.5932  0.2917  0.5865
  474TMC3    H1 7111   2.926   0.711  14.516 -0.1965 -0.8132  3.0533
  474TMC3    H2 7112   2.749   1.053  14.686  0.1958 -1.6468  2.7241
  474TMC3    C7 7113   2.975   0.918  14.664 -0.3897  0.4043 -0.1297
  474TMC3    C8 7114   2.554   1.055  14.492  0.2105 -0.1498  1.0907
  474TMC3    O1 7115   3.069   0.882  14.595  0.9172  0.3718 -0.0060
  474TMC3    O2 7116   2.475   1.014  14.413 -0.1223  0.0058 -0.9275
  475MPD2     C 7117   1.135   3.086  11.517 -0.0628  0.5286 -0.0629
  475MPD2    C1 7118   1.232   3.065  11.422  0.1255  0.0647 -0.4332
  475MPD2    C2 7119   1.207   3.116  11.297  0.0792 -0.1629 -0.0689
  475MPD2    C3 7120   1.083   3.184  11.274 -0.0945  0.3916 -0.0854
  475MPD2    C4 7121   0.995   3.198  11.379 -0.3257  0.0933 -0.2162
  475MPD2    C5 7122   1.022   3.163  11.504 -0.5934 -0.1881  0.6542
  475MPD2     H 7123   1.285   3.114  11.222  1.0695 -1.2887  0.9997
  475MPD2    H1 7124   0.903   3.256  11.370 -1.0261 -0.8081  1.1974
  475MPD2    H2 7125   1.155   3.041  11.614 -1.2082 -3.7746 -1.8057
  475MPD2    H3 7126   0.957   3.189  11.587 -0.4355  2.4360 -0.0516
  475MPD2     N 7127   1.054   3.246  11.151 -0.5155 -0.2766 -0.5052
  475MPD2    H5 7128   1.128   3.259  11.083  0.9996 -1.8270  0.8434
  475MPD2    N1 7129   1.346   2.996  11.457 -0.0972 -0.2093  0.7396
  475MPD2    H7 7130   1.360   2.956  11.549 -0.3830  0.6763  1.1646
  476TMC3    C1 7131   1.575   2.946  11.451 -0.6721  0.1759 -0.1534
  476TMC3    C2 7132   1.693   2.935  11.380 -0.7414 -0.5367  0.4099
  476TMC3    C3 7133   1.802   2.974  11.447 -0.0599 -0.2912 -0.5503
  476TMC3    C4 7134   1.570   2.975  11.589 -0.1703  0.0140  0.0998
  476TMC3    C5 7135   1.686   3.019  11.646 -0.4183 -0.0106  0.0402
  476TMC3    C6 7136   1.799   3.020  11.577  0.8635  0.0077 -0.2243
  476TMC3     C 7137   1.451   2.964  11.375 -0.6726  0.5175 -0.1285
  476TMC3     O 7138   1.453   2.967  11.252 -0.1469 -0.4138 -0.0494
  476TMC3     H 7139   1.698   2.924  11.272  1.0125 -1.3157  0.5856
  476TMC3    H1 7140   1.485   3.004  11.649  0.8143  1.0011  1.0095
  476TMC3    H2 7141   1.893   3.036  11.628 -0.2429  2.3964  1.0685
  476TMC3    C7 7142   1.658   3.138  11.714  0.7693 -0.0636  0.0452
  476TMC3    C8 7143   1.920   3.012  11.375  0.3592  0.2131  0.1014
  476TMC3    O1 7144   1.558   3.154  11.779  0.1713 -0.7628 -0.0472
  476TMC3    O2 7145   1.976   3.108  11.423  0.5695 -0.0902 -0.8064
  477MPD2     C 7146   4.093   0.393  12.038 -0.6892  0.0416 -0.1017
  477MPD2    C1 7147   3.966   0.334  12.045 -0.2091  0.3422  0.0152
  477MPD2    C2 7148   3.956   0.235  12.145  0.4046  0.4537  0.3071
  477MPD2    C3 7149   4.067   0.182  12.206 -0.4979  0.3731 -0.1407
  477MPD2    C4 7150   4.193   0.240  12.176  0.5203  0.1592  0.3231
  477MPD2    C5 7151   4.200   0.357  12.108 -0.1607  0.2364 -0.4822
  477MPD2     H 7152   3.860   0.190  12.168  1.2251 -1.1763  0.5992
  477MPD2    H1 7153   4.279   0.205  12.232  1.0305  1.4701  0.3553
  477MPD2    H2 7154   4.108   0.479  11.974 -2.0959  0.3228 -0.0577
  477MPD2    H3 7155   4.299   0.398  12.092  0.7115 -1.0258  1.6957
  477MPD2     N 7156   4.039   0.081  12.296 -0.7879  0.4459  0.3792
  477MPD2    H5 7157   3.945   0.046  12.306 -0.1747 -1.4154 -0.4071
  477MPD2    N1 7158   3.857   0.377  11.973 -0.6985 -0.0049 -0.9070
  477MPD2    H7 7159   3.873   0.457  11.912 -2.2903 -0.2256 -1.6093
  478TMC3    C1 7160   3.654   0.363  11.851  0.5909 -0.6315  0.0379
  478TMC3    C2 7161   3.528   0.425  11.873  0.0016  0.6935  0.4211
  478TMC3    C3 7162   3.466   0.484  11.766 -0.1597 -0.1582  0.8890
  478TMC3    C4 7163   3.707   0.369  11.723  0.3192  0.7497  0.1955
  478TMC3    C5 7164   3.637   0.418  11.612  0.0611  0.0279  0.8771
  478TMC3    C6 7165   3.519   0.484  11.638  0.0369  0.1196 -0.0301
  478TMC3     C 7166   3.734   0.321  11.965  0.0053 -0.2319  0.2791
  478TMC3     O 7167   3.675   0.258  12.052 -0.4873 -0.0267 -0.3616
  478TMC3     H 7168   3.491   0.430  11.975 -0.1684 -3.0251  0.5704
  478TMC3    H1 7169   3.795   0.307  11.708 -0.1318  0.2424 -0.3760
  478TMC3    H2 7170   3.467   0.538  11.559  0.2117 -0.9446 -0.8692
  478TMC3    C7 7171   3.691   0.419  11.474  1.0950  0.5752 -0.1389
  478TMC3    C8 7172   3.332   0.535  11.784  0.5066  0.6782  0.1921
  478TMC3    O1 7173   3.797   0.358  11.468  0.5016 -0.0424  0.6747
  478TMC3    O2 7174   3.271   0.509  11.891  0.0924  0.5189 -0.7001
  479MPD2     C 7175   2.467   2.735  15.291 -0.0460 -0.3493  0.4123
  479MPD2    C1 7176   2.414   2.688  15.407 -0.3322  0.1865  0.0893
  479MPD2    C2 7177   2.497   2.690  15.523  0.1393  0.1419  0.1010
  479MPD2    C3 7178   2.617   2.757  15.517 -0.4437  0.6323 -0.7012
  479MPD2    C4 7179   2.669   2.796  15.396 -0.0591 -0.1256 -0.2724
  479MPD2    C5 7180   2.594   2.784  15.282 -0.1468 -0.2733 -0.4496
  479MPD2     H 7181   2.452   2.654  15.615  0.4290  1.9469  0.9639
  479MPD2    H1 7182   2.760   2.855  15.393  0.3355 -0.7777 -1.0469
  479MPD2    H2 7183   2.406   2.743  15.202 -0.4094  0.3875  0.7270
  479MPD2    H3 7184   2.627   2.822  15.186  1.5020  0.3222  0.3532
  479MPD2     N 7185   2.695   2.786  15.635 -0.2071 -0.1286 -0.2257
  479MPD2    H5 7186   2.795   2.787  15.614  0.0753  0.7781  1.1549
  479MPD2    N1 7187   2.286   2.632  15.392  0.1900  0.4218 -0.2048
  479MPD2    H7 7188   2.248   2.636  15.298  0.1879  0.8982 -0.1863
  480TMC3    C1 7189   2.335   2.766  15.947  0.3601 -0.2329  0.2661
  480TMC3    C2 7190   2.252   2.833  15.867 -0.5627  0.1792 -0.2886
  480TMC3    C3 7191   2.298   2.902  15.758  0.4867  0.0763 -0.3343
  480TMC3    C4 7192   2.472   2.756  15.922  0.4339  0.0434 -0.0036
  480TMC3    C5 7193   2.516   2.812  15.808  0.0350  0.5650  0.8335
  480TMC3    C6 7194   2.435   2.897  15.732 -0.0288 -0.2149  0.1460
  480TMC3     C 7195   2.283   2.675  16.049 -0.7484  0.2209  0.0009
  480TMC3     O 7196   2.166   2.637  16.029  0.2733  0.3551 -0.2438
  480TMC3     H 7197   2.148   2.834  15.898 -0.3345 -1.2827  0.5475
  480TMC3    H1 7198   2.541   2.702  15.985  1.1166  2.5677  1.4212
  480TMC3    H2 7199   2.479   2.950  15.649  1.6345  2.0757  2.4745
  480TMC3    C7 7200   2.653   2.779  15.767  0.9077 -0.0697 -0.2351
  480TMC3    C8 7201   2.194   2.949  15.667 -0.1125 -0.5539 -0.1555
  480TMC3    O1 7202   2.732   2.777  15.859 -1.5233 -0.0947  0.0190
  480TMC3    O2 7203   2.081   2.904  15.685  0.2822 -0.1954  0.2007
  481MPD2     C 7204   4.213   2.127  14.313 -0.1624  0.5717  0.0359
  481MPD2    C1 7205   4.091   2.059  14.329 -0.5505  0.6518  0.4455
  481MPD2    C2 7206   4.072   1.988  14.447  0.1544 -0.4604 -0.6114
  481MPD2    C3 7207   4.175   1.977  14.544  0.2148  0.2053 -0.5641
  481MPD2    C4 7208   4.293   2.050  14.522 -0.7023  0.0182  0.2795
  481MPD2    C5 7209   4.313   2.126  14.409  0.5651  0.0355  0.3864
  481MPD2     H 7210   3.980   1.936  14.475 -0.0983 -0.0709 -0.7239
  481MPD2    H1 7211   4.367   2.074  14.598 -0.8089 -1.4118  0.8302
  481MPD2    H2 7212   4.231   2.191  14.228 -0.9521  0.8174  0.0488
  481MPD2    H3 7213   4.399   2.192  14.399 -0.3588  1.4023  1.3857
  481MPD2     N 7214   4.164   1.911  14.667  0.1589  0.3672  0.4383
  481MPD2    H5 7215   4.247   1.896  14.724  0.1094 -0.9755  0.1369
  481MPD2    N1 7216   3.985   2.073  14.238 -0.1736  0.1691 -0.4344
  481MPD2    H7 7217   3.894   2.030  14.256  0.3611 -0.5208  0.6239
  482TMC3    C1 7218   3.853   2.178  14.064  0.1158 -0.0135  0.2229
  482TMC3    C2 7219   3.776   2.067  14.045 -0.3039  0.5397  0.1659
  482TMC3    C3 7220   3.660   2.083  13.974  0.7339  0.0623 -0.7270
  482TMC3    C4 7221   3.835   2.298  14.002  0.6128  0.4175 -0.3746
  482TMC3    C5 7222   3.713   2.310  13.935 -0.1326 -0.3599 -0.3054
  482TMC3    C6 7223   3.627   2.198  13.910  0.3851  0.7461  0.2561
  482TMC3     C 7224   3.980   2.161  14.132 -0.3453  0.3404  0.3181
  482TMC3     O 7225   4.060   2.250  14.107 -0.0008 -0.5260 -0.2936
  482TMC3     H 7226   3.798   1.975  14.098 -0.2013  0.1904 -0.4958
  482TMC3    H1 7227   3.884   2.389  14.035  0.0002  1.1411 -1.4522
  482TMC3    H2 7228   3.521   2.214  13.898  0.2735  0.4275  0.8159
  482TMC3    C7 7229   3.720   2.424  13.851  0.2522 -0.0460 -0.0374
  482TMC3    C8 7230   3.595   1.960  13.937  0.3961  0.6415  0.9529
  482TMC3    O1 7231   3.833   2.469  13.827 -0.6043  0.3136 -0.2902
  482TMC3    O2 7232   3.597   1.861  14.008 -0.0588  0.4148 -0.3340
  483TMC3    C1 7233   1.541   0.918   0.914  1.0054 -0.4645  0.5127
  483TMC3    C2 7234   1.603   1.017   0.850 -0.9774 -0.5904 -0.8359
  483TMC3    C3 7235   1.725   0.990   0.788 -0.1831 -0.3862 -0.5614
  483TMC3    C4 7236   1.582   0.788   0.916 -0.2692  0.4660 -0.0786
  483TMC3    C5 7237   1.705   0.764   0.858  0.7307  0.4605  0.1021
  483TMC3    C6 7238   1.775   0.861   0.788 -0.3341  0.1385  0.1637
  483TMC3     C 7239   1.401   0.942   0.931  1.2163 -0.3360 -0.5850
  483TMC3     O 7240   1.362   1.056   0.955 -0.0362  0.3570 -0.1029
  483TMC3     H 7241   1.554   1.109   0.819 -2.3388 -1.4905 -1.3765
  483TMC3    H1 7242   1.549   0.714   0.988  0.3257 -0.5407 -0.8424
  483TMC3    H2 7243   1.870   0.854   0.737 -0.7166 -1.1274 -0.3513
  483TMC3    C7 7244   1.741   0.620   0.852 -0.6729 -0.1137 -0.1155
  483TMC3    C8 7245   1.815   1.095   0.758 -0.5672 -0.0959 -1.2219
  483TMC3    O1 7246   1.654   0.539   0.891  0.2539 -0.4489  0.4050
  483TMC3    O2 7247   1.910   1.064   0.693  0.0987  0.8645  0.2414
  484MPD2     C 7248   4.717   3.988  12.398 -0.5798 -0.4057  0.3411
  484MPD2    C1 7249   0.014   3.910  12.503  0.2423  0.0221  0.2472
  484MPD2    C2 7250   0.147   3.915  12.547 -0.5006 -0.8379 -0.2885
  484MPD2    C3 7251   0.239   4.003  12.493 -0.1334 -0.5818 -0.2898
  484MPD2    C4 7252   0.197   4.074  12.385  0.6374 -0.1885 -0.0005
  484MPD2    C5 7253   0.073   4.066  12.338 -0.6002  0.3995  0.1727
  484MPD2     H 7254   0.177   3.858  12.635  1.8728  1.1652  0.1921
  484MPD2    H1 7255   0.253   4.154  12.339 -0.2073 -0.5050 -1.5839
  484MPD2    H2 7256   4.614   3.997  12.366 -0.3474 -0.6163 -0.4517
  484MPD2    H3 7257   0.050   4.142  12.264 -1.0599  0.4206  0.3399
  484MPD2     N 7258   0.368   4.024  12.538  0.1106 -0.2486  0.4003
  484MPD2    H5 7259   0.413   4.102  12.493  2.2209 -1.1094  1.0297
  484MPD2    N1 7260   4.658   3.829  12.564  0.3082 -0.4278 -0.4704
  484MPD2    H7 7261   4.573   3.808  12.513 -0.7535  1.3175  0.5702
  485TMC3    C1 7262   0.583   3.973  12.637  0.1227 -0.1060 -0.2565
  485TMC3    C2 7263   0.650   3.907  12.735 -0.4232 -0.6994 -0.4206
  485TMC3    C3 7264   0.778   3.956  12.752  0.6388 -0.2485 -0.3730
  485TMC3    C4 7265   0.633   4.070  12.557  0.2539  0.2725 -0.0140
  485TMC3    C5 7266   0.760   4.108  12.579  0.4999 -0.2508 -0.4881
  485TMC3    C6 7267   0.835   4.059  12.682  0.2364 -0.1436 -0.1596
  485TMC3     C 7268   0.444   3.929  12.610  0.0407 -0.2114  0.1203
  485TMC3     O 7269   0.407   3.820  12.659  0.3652  0.0029 -0.3311
  485TMC3     H 7270   0.597   3.830  12.790  1.1227 -1.2446  0.3098
  485TMC3    H1 7271   0.578   4.108  12.472  0.2048  0.8053  0.2561
  485TMC3    H2 7272   0.937   4.091  12.701  0.1041 -0.6338  1.3451
  485TMC3    C7 7273   0.844   4.109  12.461  0.4578 -0.0606 -0.1189
  485TMC3    C8 7274   0.882   3.858  12.780 -0.7610  0.3876  0.5771
  485TMC3    O1 7275   0.791   4.144  12.356 -0.5313  0.2937 -0.4448
  485TMC3    O2 7276   0.990   3.877  12.727  0.7080  0.2755  0.2619
  486MPD2     C 7277   1.994   2.367  13.179  0.8817  0.7060 -0.4616
  486MPD2    C1 7278   2.101   2.407  13.098  0.5027 -0.0733  0.1047
  486MPD2    C2 7279   2.104   2.536  13.049 -0.0073 -0.4268  0.1950
  486MPD2    C3 7280   2.001   2.627  13.079  0.2399 -0.3493 -0.4724
  486MPD2    C4 7281   1.900   2.588  13.158  0.4948  0.3328 -0.0688
  486MPD2    C5 7282   1.903   2.462  13.208  0.1455  0.4474  0.3197
  486MPD2     H 7283   2.185   2.555  12.979 -0.4253 -0.8830 -0.4160
  486MPD2    H1 7284   1.824   2.661  13.183  1.8634  2.2320 -1.4661
  486MPD2    H2 7285   1.992   2.270  13.226  0.8502  0.4066 -1.0762
  486MPD2    H3 7286   1.822   2.437  13.275 -0.6628  1.1622 -0.3954
  486MPD2     N 7287   2.004   2.746  13.013  0.0482  0.0872 -0.1140
  486MPD2    H5 7288   2.086   2.754  12.954  0.8075 -0.4508  0.8584
  486MPD2    N1 7289   2.195   2.314  13.063 -0.3230  0.4085 -0.6250
  486MPD2    H7 7290   2.162   2.219  13.076 -0.3608  0.4167 -0.6623
  487TMC3    C1 7291   2.377   2.197  12.990 -0.3126  0.4720  0.3307
  487TMC3    C2 7292   2.287   2.096  12.964  1.1209 -0.1443 -0.1869
  487TMC3    C3 7293   2.291   1.978  13.033 -0.0721  0.0453  0.1608
  487TMC3    C4 7294   2.468   2.166  13.086  0.2058  0.5438  0.3868
  487TMC3    C5 7295   2.470   2.049  13.156 -0.1214  0.1800 -0.2924
  487TMC3    C6 7296   2.391   1.947  13.129  0.3791 -0.1458 -0.6816
  487TMC3     C 7297   2.314   2.332  13.008  0.2785 -0.1863  0.1119
  487TMC3     O 7298   2.398   2.425  13.006 -0.1316 -0.0362  0.1118
  487TMC3     H 7299   2.211   2.119  12.889 -0.3662 -1.7401  0.8301
  487TMC3    H1 7300   2.541   2.239  13.120 -1.4240  2.2172  0.2829
  487TMC3    H2 7301   2.371   1.872  13.206  4.2493 -0.9525 -0.4660
  487TMC3    C7 7302   2.520   2.062  13.291  0.3972 -0.3281  0.3519
  487TMC3    C8 7303   2.157   1.941  13.078 -0.6699 -0.1368  0.0420
  487TMC3    O1 7304   2.512   2.168  13.350  0.4664 -0.0502  0.0144
  487TMC3    O2 7305   2.076   2.030  13.094 -0.0060 -0.0772 -0.7126
  488MPD2     C 7306   2.164   4.162  16.641 -0.4993  0.0454  0.6512
  488MPD2    C1 7307   2.197   4.262  16.724 -0.5529  0.0329  0.3474
  488MPD2    C2 7308   2.177   4.260  16.859  0.5898 -0.0233 -0.3430
  488MPD2    C3 7309   2.083   4.167  16.904 -0.3808  0.2201  0.1009
  488MPD2    C4 7310   2.038   4.069  16.822 -0.5393  0.3072  0.1330
  488MPD2    C5 7311   2.085   4.060  16.693  0.7659 -0.0161  0.2403
  488MPD2     H 7312   2.205   4.339  16.927 -2.6899 -0.2380  1.2680
  488MPD2    H1 7313   1.975   3.989  16.859 -0.6613 -0.3960 -1.5978
  488MPD2    H2 7314   2.213   4.148  16.545 -0.6946 -0.9595  0.6965
  488MPD2    H3 7315   2.068   3.971  16.632 -2.7629 -0.6733  2.1806
  488MPD2     N 7316   2.054   4.171  17.040  0.1152  0.1070  0.2804
  488MPD2    H5 7317   2.103   4.246  17.087 -0.7894 -0.2441  1.7735
  488MPD2    N1 7318   2.277   4.373  16.679  0.3077 -0.1919 -0.0854
  488MPD2    H7 7319   2.304   4.433  16.756 -0.4464  0.6420 -0.4667
  489TMC3    C1 7320   1.950   4.143  17.250 -0.6934  0.3083 -0.0032
  489TMC3    C2 7321   2.058   4.209  17.298 -0.0076 -0.4584  0.0941
  489TMC3    C3 7322   2.051   4.264  17.422 -0.4096 -0.4402  0.1223
  489TMC3    C4 7323   1.831   4.131  17.316  0.3305  0.7198  0.4174
  489TMC3    C5 7324   1.826   4.194  17.438 -0.0727  0.2416 -0.1280
  489TMC3    C6 7325   1.935   4.255  17.492  0.5336 -0.3867  1.0689
  489TMC3     C 7326   1.946   4.107  17.105  0.0627 -0.3276  0.5460
  489TMC3     O 7327   1.859   4.036  17.070  0.5737 -0.2156  0.4741
  489TMC3     H 7328   2.153   4.214  17.246 -0.1401  1.4036  0.0392
  489TMC3    H1 7329   1.743   4.091  17.267  1.5334  0.2882 -1.3947
  489TMC3    H2 7330   1.924   4.292  17.593  0.6268 -0.3950  1.0824
  489TMC3    C7 7331   1.712   4.274  17.476 -0.1144  0.5692  0.6416
  489TMC3    C8 7332   2.131   4.382  17.437  0.1573  0.1943  0.0953
  489TMC3    O1 7333   1.737   4.375  17.544 -0.6799 -0.1122 -0.2069
  489TMC3    O2 7334   2.222   4.394  17.354  0.3771  0.0755  0.0721
  490MPD2     C 7335   3.056   3.647  17.313 -0.5934  0.6927  0.8211
  490MPD2    C1 7336   3.094   3.624  17.446  0.4791  0.2380 -0.0194
  490MPD2    C2 7337   3.157   3.721  17.520  0.2003  0.4907  0.5515
  490MPD2    C3 7338   3.182   3.840  17.466  0.1397 -0.0084  0.8925
  490MPD2    C4 7339   3.150   3.864  17.331  0.2723 -0.0669  0.5384
  490MPD2    C5 7340   3.082   3.766  17.255 -0.0485  0.1031  0.2032
  490MPD2     H 7341   3.194   3.701  17.620  1.8573  2.5485  0.3474
  490MPD2    H1 7342   3.173   3.963  17.293 -2.0058  0.3540  0.2672
  490MPD2    H2 7343   3.000   3.580  17.250  0.3588  1.8197 -1.2051
  490MPD2    H3 7344   3.051   3.790  17.154 -2.5979 -0.0600  0.9586
  490MPD2     N 7345   3.263   3.939  17.534  0.0769 -0.3448  0.2704
  490MPD2    H5 7346   3.307   4.001  17.466  0.7876 -0.1933  0.8687
  490MPD2    N1 7347   3.067   3.500  17.515  0.1148 -0.4147 -0.3024
  490MPD2    H7 7348   3.119   3.488  17.602 -0.7300  1.2727  0.4288
  491TMC3    C1 7349   3.004   3.267  17.532 -0.0349  0.6498 -0.5092
  491TMC3    C2 7350   2.960   3.273  17.654 -0.2663  0.8549  0.8831
  491TMC3    C3 7351   2.905   3.160  17.712 -0.6979 -0.1875  0.1400
  491TMC3    C4 7352   2.992   3.154  17.448  0.1805 -0.1229  0.8619
  491TMC3    C5 7353   2.940   3.046  17.507 -0.6013 -0.4490 -0.2092
  491TMC3    C6 7354   2.905   3.044  17.640  0.2318 -0.6086 -1.8029
  491TMC3     C 7355   3.018   3.387  17.450  0.6902  0.1222 -0.2876
  491TMC3     O 7356   2.993   3.373  17.331  0.2625  0.4070 -0.2481
  491TMC3     H 7357   2.958   3.367  17.708  1.2768  0.5070  1.5378
  491TMC3    H1 7358   3.038   3.151  17.350  0.5642  1.8286  1.0005
  491TMC3    H2 7359   2.855   2.953  17.668 -0.6663  0.8482  1.3180
  491TMC3    C7 7360   2.840   2.994  17.422  0.1682  0.3634  0.2696
  491TMC3    C8 7361   2.815   3.162   0.060 -0.1966  0.3265  0.6493
  491TMC3    O1 7362   2.740   2.961  17.478  0.4166 -0.5219  0.2467
  491TMC3    O2 7363   2.731   3.078   0.076 -0.1287 -0.0336  0.0524
  492MPD2     C 7364   3.490   3.326  11.138 -0.4848  0.2487 -0.5538
  492MPD2    C1 7365   3.395   3.228  11.113  0.5730 -0.0104 -0.2308
  492MPD2    C2 7366   3.363   3.138  11.210 -0.2667 -0.0428  0.0363
  492MPD2    C3 7367   3.423   3.141  11.334  0.0780 -0.3908  0.5330
  492MPD2    C4 7368   3.511   3.243  11.361  0.0570 -0.0840  0.3179
  492MPD2    C5 7369   3.543   3.337  11.268 -0.2579  0.8328  0.0553
  492MPD2     H 7370   3.286   3.065  11.189  0.4728 -0.2083 -2.0402
  492MPD2    H1 7371   3.550   3.249  11.462 -0.5960  0.1659  0.5570
  492MPD2    H2 7372   3.528   3.393  11.062  1.4828  0.4279  0.5772
  492MPD2    H3 7373   3.605   3.421  11.296 -2.1511  1.8909  1.0988
  492MPD2     N 7374   3.390   3.049  11.436 -0.2774  0.0626 -0.5953
  492MPD2    H5 7375   3.426   3.075  11.527 -1.0303  2.1490 -0.8890
  492MPD2    N1 7376   3.351   3.222  10.980 -0.1218 -0.3975  0.0761
  492MPD2    H7 7377   3.372   3.302  10.922  3.0335 -1.5564 -0.3783
  493TMC3    C1 7378   3.222   3.136  10.799 -0.0332  0.1661 -0.0095
  493TMC3    C2 7379   3.262   3.233  10.710  0.5892 -0.4603  0.1206
  493TMC3    C3 7380   3.173   3.255  10.604 -0.2618 -0.2680 -0.1096
  493TMC3    C4 7381   3.108   3.060  10.772  0.5104  0.3267 -0.2693
  493TMC3    C5 7382   3.040   3.075  10.656 -0.2968 -0.2779 -1.1057
  493TMC3    C6 7383   3.065   3.175  10.575 -1.0327  0.4380 -1.0773
  493TMC3     C 7384   3.277   3.111  10.930  0.4868 -0.0470  0.4817
  493TMC3     O 7385   3.264   2.996  10.969 -1.0809  0.2558  0.3653
  493TMC3     H 7386   3.347   3.296  10.738  0.2172 -0.1273  0.5114
  493TMC3    H1 7387   3.074   2.977  10.833  0.4229 -1.2502 -2.4618
  493TMC3    H2 7388   3.021   3.181  10.477  0.1751 -1.3207 -1.7224
  493TMC3    C7 7389   2.898   3.036  10.662  0.0053  0.4788 -0.6635
  493TMC3    C8 7390   3.175   3.383  10.524 -0.0681  0.1501  0.3372
  493TMC3    O1 7391   2.853   3.036  10.773  0.3036  0.0295  0.8718
  493TMC3    O2 7392   3.098   3.390  10.430 -0.4359  0.3985 -0.1832
  494TMC3    C1 7393   3.240   0.901   0.461  0.6958 -0.0456 -0.8910
  494TMC3    C2 7394   3.226   0.767   0.453  0.7293 -0.3001 -0.4459
  494TMC3    C3 7395   3.278   0.702   0.341  0.3220  0.4558 -0.5055
  494TMC3    C4 7396   3.294   0.981   0.357  0.0924  0.0114  0.1575
  494TMC3    C5 7397   3.333   0.913   0.244 -0.6459 -0.0795 -0.0754
  494TMC3    C6 7398   3.336   0.775   0.241  0.5546  0.0765 -0.3336
  494TMC3     C 7399   3.179   0.971   0.577 -0.2840 -0.3167 -0.2310
  494TMC3     O 7400   3.155   0.904   0.676  0.2489 -0.5526  0.5932
  494TMC3     H 7401   3.184   0.710   0.535  0.6015  1.9202  1.0402
  494TMC3    H1 7402   3.321   1.085   0.370  0.3848  0.1429 -1.5029
  494TMC3    H2 7403   3.395   0.727   0.164  2.4806  0.6147  0.8081
  494TMC3    C7 7404   3.432   0.980   0.151 -0.1615 -0.1401  0.1852
  494TMC3    C8 7405   3.314   0.561   0.353  0.0459  0.2035  0.0449
  494TMC3    O1 7406   3.520   0.914   0.094  0.2924  0.4040 -0.5361
  494TMC3    O2 7407   3.338   0.512   0.466  0.3484  0.0088  0.0934
  495TMC3    C1 7408   2.644   2.950  14.778 -0.2727  0.8989 -0.4875
  495TMC3    C2 7409   2.567   2.994  14.670 -0.4004  0.2506 -0.5235
  495TMC3    C3 7410   2.443   3.044  14.689  0.7229  0.2237  0.6073
  495TMC3    C4 7411   2.604   2.973  14.905  0.2358  0.5555 -0.8629
  495TMC3    C5 7412   2.480   3.038  14.919  0.0227  0.2683  0.1318
  495TMC3    C6 7413   2.395   3.067  14.817  0.1354  0.3561  0.8859
  495TMC3     C 7414   2.657   2.807  14.767  0.6336  0.9493 -0.0068
  495TMC3     O 7415   2.594   2.754  14.855 -0.3406 -0.4302  0.3136
  495TMC3     H 7416   2.611   2.980  14.571  0.8031  0.0934  0.0286
  495TMC3    H1 7417   2.671   2.945  14.985 -0.3443  0.0506 -0.5500
  495TMC3    H2 7418   2.298   3.107  14.845 -1.3083 -0.9143 -2.3089
  495TMC3    C7 7419   2.439   3.044  15.055 -0.0137 -0.0511  0.1539
  495TMC3    C8 7420   2.346   3.011  14.589  0.1283 -0.2697 -0.0483
  495TMC3    O1 7421   2.514   3.061  15.152  0.6230  0.2162 -0.4823
  495TMC3    O2 7422   2.225   3.032  14.607 -0.1067 -0.5585  0.3987
  496MPD2     C 7423   4.676   2.947  15.372  0.7716 -0.0066  0.1820
  496MPD2    C1 7424   4.605   2.830  15.382  0.4828  0.2120 -0.4250
  496MPD2    C2 7425   4.522   2.811  15.492  0.1107 -0.4365  0.6164
  496MPD2    C3 7426   4.512   2.904  15.597  0.3660  0.3716  0.1359
  496MPD2    C4 7427   4.586   3.022  15.581 -0.1320 -0.6716 -0.4783
  496MPD2    C5 7428   4.667   3.048  15.469 -0.6766  0.9446 -0.0583
  496MPD2     H 7429   4.466   2.719  15.500  1.3851 -1.3850 -1.3182
  496MPD2    H1 7430   4.584   3.103  15.653  0.4851 -2.7735  1.8763
  496MPD2    H2 7431   0.010   2.967  15.296  1.1591 -1.5608  0.1657
  496MPD2    H3 7432   4.721   3.142  15.466  0.4942  0.3056  1.6253
  496MPD2     N 7433   4.426   2.874  15.709  0.2689 -0.4702 -0.1594
  496MPD2    H5 7434   4.357   2.801  15.699  0.7289 -1.0745  1.0834
  496MPD2    N1 7435   4.623   2.733  15.280  0.6676  0.2036  0.1174
  496MPD2    H7 7436   4.669   2.756  15.193  0.6753  2.4338  0.6954
  497TMC3    C1 7437   4.314   2.899  15.920 -0.5818 -0.4055 -0.2532
  497TMC3    C2 7438   4.191   2.863  15.875  0.3392 -0.8216 -0.5927
  497TMC3    C3 7439   4.098   2.813  15.962  0.4298  0.1678 -0.5284
  497TMC3    C4 7440   4.343   2.893  16.052 -0.3841 -0.0981 -0.3557
  497TMC3    C5 7441   4.245   2.839  16.139 -0.8054 -0.5148  0.6261
  497TMC3    C6 7442   4.124   2.795  16.093 -0.1731  0.4078  0.0259
  497TMC3     C 7443   4.420   2.945  15.830  0.0693  0.2249 -0.0210
  497TMC3     O 7444   4.510   3.016  15.874 -0.3160 -0.2645  0.5577
  497TMC3     H 7445   4.168   2.887  15.772  1.3273  0.2517 -0.5601
  497TMC3    H1 7446   4.437   2.932  16.090 -0.1080  0.0917 -1.2254
  497TMC3    H2 7447   4.044   2.761  16.157 -0.0934  0.6538  0.2578
  497TMC3    C7 7448   4.267   2.825  16.283  0.1192  0.1393  0.5324
  497TMC3    C8 7449   3.966   2.777  15.900  0.2344  0.0359 -0.4261
  497TMC3    O1 7450   4.215   2.732  16.347  0.3731 -0.3101 -0.5442
  497TMC3    O2 7451   3.878   2.757  15.983 -0.0062  0.7184 -0.2060
  498MPD2     C 7452   1.369   3.659  10.083  0.3486 -0.0883  0.4285
  498MPD2    C1 7453   1.282   3.680  10.186  0.0468 -0.3798 -0.6138
  498MPD2    C2 7454   1.221   3.576  10.246 -0.1800  0.3963  0.2215
  498MPD2    C3 7455   1.268   3.448  10.228 -0.7241  0.4833  0.2439
  498MPD2    C4 7456   1.360   3.428  10.129 -0.2976  0.0748  0.8748
  498MPD2    C5 7457   1.413   3.530  10.059  0.0337  0.0281  0.1524
  498MPD2     H 7458   1.139   3.609  10.308  1.2697  0.8671  1.8804
  498MPD2    H1 7459   1.399   3.332  10.098 -1.7712 -0.9625  2.2201
  498MPD2    H2 7460   1.423   3.742  10.038 -2.6022  2.1871  1.0898
  498MPD2    H3 7461   1.488   3.507   9.984  1.0436  1.9043  0.5576
  498MPD2     N 7462   1.213   3.348  10.310 -0.1792 -0.1158  0.2101
  498MPD2    H5 7463   1.126   3.377  10.352 -0.0190  1.0490 -0.2379
  498MPD2    N1 7464   1.241   3.806  10.237  0.6472  0.1199  0.6538
  498MPD2    H7 7465   1.178   3.805  10.316 -0.5778  0.2649 -0.3259
  499TMC3    C1 7466   1.225   4.039  10.250  0.1419 -0.4253  0.4083
  499TMC3    C2 7467   1.086   4.033  10.248 -0.0083  0.2319  0.1164
  499TMC3    C3 7468   1.019   4.155  10.240 -0.5122  0.1991  0.3903
  499TMC3    C4 7469   1.291   4.161  10.255 -0.9532 -0.2778 -0.0079
  499TMC3    C5 7470   1.225   4.280  10.258 -0.2843  0.3358  0.1065
  499TMC3    C6 7471   1.088   4.277  10.241 -0.2830  0.7057  0.3870
  499TMC3     C 7472   1.303   3.929  10.202  0.3059 -0.1394 -0.5210
  499TMC3     O 7473   1.412   3.948  10.146  0.2297  0.8485  0.2505
  499TMC3     H 7474   1.022   3.945  10.253  0.7344 -0.2926  0.3072
  499TMC3    H1 7475   1.398   4.153  10.267 -0.8618  0.8157 -0.0540
  499TMC3    H2 7476   1.039   4.370  10.270  0.4408  1.7536 -1.7609
  499TMC3    C7 7477   1.298   4.400  10.215  0.2732 -0.1018 -0.6177
  499TMC3    C8 7478   0.872   4.142  10.206 -0.3826  0.6000 -0.9937
  499TMC3    O1 7479   1.417   4.386  10.177 -0.4476 -0.1137  0.8816
  499TMC3    O2 7480   0.819   4.037  10.237  0.3174 -0.0591 -0.0623
  500MPD2     C 7481   2.946   4.311  10.101 -0.1334 -0.1377 -0.1503
  500MPD2    C1 7482   2.893   4.307  10.229  0.0135  0.7414 -0.9488
  500MPD2    C2 7483   2.761   4.260  10.247  0.5292  0.3545 -0.2563
  500MPD2    C3 7484   2.692   4.225  10.133 -0.2836  0.0056  0.1433
  500MPD2    C4 7485   2.741   4.238  10.002 -0.6045  0.5023  0.4311
  500MPD2    C5 7486   2.873   4.283   9.994 -1.0370  1.0813  0.4207
  500MPD2     H 7487   2.710   4.251  10.342  4.0926 -0.7283  1.5679
  500MPD2    H1 7488   2.692   4.210   9.910  0.2661  1.1033 -0.2212
  500MPD2    H2 7489   3.052   4.331  10.089  0.0493 -0.3527  1.0735
  500MPD2    H3 7490   2.915   4.305   9.896 -1.5203 -0.2423 -0.0748
  500MPD2     N 7491   2.551   4.190  10.140  0.1992  0.0399  0.3714
  500MPD2    H5 7492   2.514   4.173  10.047  0.4739 -1.1657  0.4878
  500MPD2    N1 7493   2.962   4.355  10.344 -0.5372  0.1255 -0.0885
  500MPD2    H7 7494   2.924   4.307  10.425  0.8456 -2.4605 -0.9458
  501TMC3    C1 7495   3.089   4.500  10.464 -0.4218  0.4485 -0.4045
  501TMC3    C2 7496   3.116   4.637  10.469 -0.3719  0.5109 -0.3045
  501TMC3    C3 7497   3.202   4.685  10.561  0.1951  0.3334  0.1223
  501TMC3    C4 7498   3.128   4.412  10.555  0.0153  0.7680 -0.6229
  501TMC3    C5 7499   3.201   4.465  10.654 -0.0420 -0.0418 -0.5579
  501TMC3    C6 7500   3.248   4.598  10.660  0.1087  0.1099 -0.2719
  501TMC3     C 7501   3.061   4.451  10.339 -0.0848  0.8607 -0.1970
  501TMC3     O 7502   3.095   4.526  10.246  0.3050  0.5746 -0.3351
  501TMC3     H 7503   3.085   4.705  10.390  1.0182  0.8400 -0.5746
  501TMC3    H1 7504   3.098   4.307  10.558  1.0372  0.4964  0.2874
  501TMC3    H2 7505   3.315   4.627  10.739 -0.7043 -1.0806  0.8522
  501TMC3    C7 7506   3.265   4.381  10.752 -0.3095  0.2999 -0.2919
  501TMC3    C8 7507   3.260   0.076  10.540  0.3534 -1.0054 -0.0065
  501TMC3    O1 7508   3.288   4.422  10.863 -0.2034 -0.4904 -0.3334
  501TMC3    O2 7509   3.214   0.142  10.451  0.0207  0.3810  0.9315
  502TMC3    C1 7510   1.959   3.688  15.497  0.3056  0.3472 -0.4937
  502TMC3    C2 7511   1.963   3.816  15.454 -0.4895  0.2821  0.5854
  502TMC3    C3 7512   1.844   3.874  15.413 -0.5028  0.3059 -0.8353
  502TMC3    C4 7513   1.853   3.609  15.481  0.4659 -0.6251  0.4239
  502TMC3    C5 7514   1.733   3.665  15.437  0.1494 -0.0083  0.5470
  502TMC3    C6 7515   1.726   3.798  15.406 -0.1776 -0.2989 -0.4086
  502TMC3     C 7516   2.035   3.663  15.615  0.4656  0.5092  0.5060
  502TMC3     O 7517   2.145   3.716  15.623  0.1253  0.2460 -0.0450
  502TMC3     H 7518   2.042   3.885  15.482  1.4923 -2.2199  1.1493
  502TMC3    H1 7519   1.855   3.503  15.505 -2.7358 -1.0687 -1.4174
  502TMC3    H2 7520   1.634   3.837  15.363 -0.4136  1.2136  1.5126
  502TMC3    C7 7521   1.625   3.570  15.455 -0.0277  0.6683 -0.1564
  502TMC3    C8 7522   1.852   4.012  15.372  0.3992 -0.3409  0.1448
  502TMC3    O1 7523   1.651   3.453  15.454 -0.0347 -0.0759 -0.4392
  502TMC3    O2 7524   1.966   4.060  15.383  0.0272 -0.3236  0.3973
  503MPD2     C 7525   3.633   4.324  16.811  0.7706  0.8079  0.4323
  503MPD2    C1 7526   3.691   4.353  16.930  0.2447 -0.4417 -0.4296
  503MPD2    C2 7527   3.728   4.249  17.003 -0.1366  0.2587 -0.0942
  503MPD2    C3 7528   3.732   4.119  16.956 -0.1952 -0.4274 -0.1160
  503MPD2    C4 7529   3.681   4.093  16.833 -0.7510 -1.0703 -0.1417
  503MPD2    C5 7530   3.617   4.193  16.767 -0.5625 -0.0775 -0.4231
  503MPD2     H 7531   3.772   4.271  17.100 -2.6438  0.8070  0.9229
  503MPD2    H1 7532   3.675   3.997  16.783  1.0138 -1.4238  0.3086
  503MPD2    H2 7533   3.594   4.397  16.740  1.4812  0.6730 -0.0897
  503MPD2    H3 7534   3.585   4.176  16.665  2.2649 -1.5966 -1.0581
  503MPD2     N 7535   3.799   4.022  17.037  0.2977  0.4615 -0.1104
  503MPD2    H5 7536   3.824   4.057  17.128  1.4271  0.7489 -0.5386
  503MPD2    N1 7537   3.721   4.479  16.979 -0.5409 -0.5235  0.2913
  503MPD2    H7 7538   3.749   4.487  17.076  1.1706  0.8186 -0.3073
  504TMC3    C1 7539   3.889   3.834  17.124  0.1048 -0.4127  0.2150
  504TMC3    C2 7540   3.844   3.841  17.247  0.3259  0.6754  0.0617
  504TMC3    C3 7541   3.938   3.814  17.341 -0.2541  0.2783 -0.0695
  504TMC3    C4 7542   4.023   3.817  17.092 -0.2065  0.4358 -0.2929
  504TMC3    C5 7543   4.116   3.811  17.184  0.2355 -0.2516 -0.8249
  504TMC3    C6 7544   4.077   3.802  17.317 -0.2759  0.3891  0.2845
  504TMC3     C 7545   3.831   3.898  17.008 -0.4370 -0.0610 -0.5395
  504TMC3     O 7546   3.838   3.842  16.897  0.2177 -0.7340 -0.6758
  504TMC3     H 7547   3.739   3.858  17.271 -0.1699 -1.6851 -0.4368
  504TMC3    H1 7548   4.050   3.818  16.987 -2.7320  0.0687 -0.9334
  504TMC3    H2 7549   4.144   3.794  17.402 -2.9315 -4.5672  1.9467
  504TMC3    C7 7550   4.262   3.825  17.155  0.4986  0.2956  0.6736
  504TMC3    C8 7551   3.882   3.810  17.479 -0.3420 -0.0348 -0.5266
  504TMC3    O1 7552   4.291   3.810  17.037  0.1496 -0.3200 -0.2309
  504TMC3    O2 7553   3.775   3.867  17.485  0.1778  0.5315 -0.2113
  505MPD2     C 7554   0.847   2.751  11.466  0.3745  0.1130  0.0449
  505MPD2    C1 7555   0.794   2.633  11.430 -0.4435  0.0245 -0.2853
  505MPD2    C2 7556   0.877   2.525  11.399  0.5045  0.8045  0.3232
  505MPD2    C3 7557   1.011   2.545  11.397  0.0565  0.2161  0.5450
  505MPD2    C4 7558   1.068   2.671  11.412 -0.4759  0.1969  0.6149
  505MPD2    C5 7559   0.982   2.772  11.449 -0.6181 -0.1842 -0.4767
  505MPD2     H 7560   0.845   2.425  11.373  1.6081  0.5624 -0.1338
  505MPD2    H1 7561   1.172   2.693  11.393  0.2957 -0.9935  3.3183
  505MPD2    H2 7562   0.784   2.836  11.486  0.0704 -0.5570  1.9599
  505MPD2    H3 7563   1.016   2.872  11.474 -1.7841 -0.3042  1.5536
  505MPD2     N 7564   1.084   2.433  11.344 -0.1291 -0.1773 -0.2224
  505MPD2    H5 7565   1.033   2.347  11.325  1.2002 -0.2029 -3.8110
  505MPD2    N1 7566   0.653   2.634  11.409  0.9894  0.5304 -0.1298
  505MPD2    H7 7567   0.607   2.721  11.429  2.4109  1.2403  0.0727
  506TMC3    C1 7568   0.452   2.594  11.309  0.1416 -0.2547  0.2595
  506TMC3    C2 7569   0.473   2.702  11.228 -0.0666  0.1705  0.0038
  506TMC3    C3 7570   0.389   2.709  11.123 -0.0118 -0.5992 -0.0143
  506TMC3    C4 7571   0.371   2.495  11.267  0.0463  0.2579  0.2946
  506TMC3    C5 7572   0.306   2.494  11.150 -0.3966  0.2316  0.0133
  506TMC3    C6 7573   0.300   2.614  11.085  0.1997  0.1111  0.4318
  506TMC3     C 7574   0.575   2.535  11.362  0.3420 -0.0395 -0.4025
  506TMC3     O 7575   0.603   2.417  11.331  0.1248 -0.0571 -0.3293
  506TMC3     H 7576   0.557   2.769  11.237 -0.0518  0.2172 -0.5157
  506TMC3    H1 7577   0.370   2.403  11.325  0.3235  0.2430  0.2738
  506TMC3    H2 7578   0.243   2.628  10.994 -0.6870  0.9089  1.1113
  506TMC3    C7 7579   0.325   2.374  11.076 -0.8272  0.0076  0.7025
  506TMC3    C8 7580   0.396   2.819  11.025 -0.1243  0.7824 -0.1143
  506TMC3    O1 7581   0.256   2.366  10.976 -0.4123  0.0887 -0.2185
  506TMC3    O2 7582   0.289   2.871  10.999 -0.1918 -0.5907 -0.3860
  507TMC3    C1 7583   0.901   4.354  14.683  0.1720 -0.1333 -1.1310
  507TMC3    C2 7584   0.922   4.298  14.563  0.6799 -0.2526 -0.2910
  507TMC3    C3 7585   0.898   4.382  14.456  0.1625 -0.8725 -0.0246
  507TMC3    C4 7586   0.829   4.473  14.704 -0.2525  0.6176  0.1257
  507TMC3    C5 7587   0.794   4.543  14.599 -0.3510  0.6441  0.7879
  507TMC3    C6 7588   0.830   4.496  14.476 -0.0117  0.7256 -0.0450
  507TMC3     C 7589   0.871   4.261  14.788 -0.5887  0.5224  0.0031
  507TMC3     O 7590   0.756   4.257  14.830  0.0547  0.0399  0.6585
  507TMC3     H 7591   0.937   4.192  14.549 -0.7371 -0.6793  1.3808
  507TMC3    H1 7592   0.781   4.488  14.801 -0.3794 -0.9294  0.3107
  507TMC3    H2 7593   0.817   4.559  14.389  1.6972 -0.5017 -1.1770
  507TMC3    C7 7594   0.662   4.592  14.591  0.0043  0.1630 -0.0417
  507TMC3    C8 7595   0.822   4.293  14.371 -0.5331 -0.3170 -0.0460
  507TMC3    O1 7596   0.616   4.574  14.480  0.2703 -0.8489 -0.7045
  507TMC3    O2 7597   0.873   4.197  14.318  0.1336 -0.3208  0.7192
  508MPD2     C 7598   0.663   1.416  16.065  0.1926 -0.2284  0.6118
  508MPD2    C1 7599   0.790   1.448  16.040 -0.1658  0.8033  0.3134
  508MPD2    C2 7600   0.820   1.543  15.938  0.4339  0.5634  0.2157
  508MPD2    C3 7601   0.728   1.597  15.854  0.5119  0.5564 -1.0526
  508MPD2    C4 7602   0.601   1.555  15.880  0.4711 -0.1067 -1.1185
  508MPD2    C5 7603   0.569   1.468  15.976 -1.0059 -0.0617  0.3090
  508MPD2     H 7604   0.924   1.569  15.921  0.2898 -0.3488 -2.0231
  508MPD2    H1 7605   0.510   1.579  15.826  0.3833  1.2309 -0.3739
  508MPD2    H2 7606   0.639   1.349  16.147 -0.8439  1.4045  1.6356
  508MPD2    H3 7607   0.463   1.445  15.986 -0.3807 -1.5119  3.4864
  508MPD2     N 7608   0.767   1.680  15.747  0.0871  0.4667 -0.0803
  508MPD2    H5 7609   0.866   1.703  15.753 -0.2799  2.1937 -0.6455
  508MPD2    N1 7610   0.891   1.386  16.120  0.1039  0.1176  0.0984
  508MPD2    H7 7611   0.860   1.318  16.189 -0.6354 -0.0526 -0.3978
  509TMC3    C1 7612   0.691   2.028  15.509 -0.1301  0.2902 -0.3129
  509TMC3    C2 7613   0.827   2.068  15.529 -0.2211 -0.0515 -0.0684
  509TMC3    C3 7614   0.919   1.971  15.562  0.5528 -0.3942  0.1661
  509TMC3    C4 7615   0.651   1.899  15.519  0.0122 -0.8028  0.2428
  509TMC3    C5 7616   0.748   1.806  15.545 -0.0633 -0.7906 -0.2684
  509TMC3    C6 7617   0.879   1.844  15.557 -0.8304 -0.5149 -0.6128
  509TMC3     C 7618   0.590   2.134  15.480 -0.4113  0.7365  0.1855
  509TMC3     O 7619   0.471   2.102  15.484 -0.1271  0.3015  0.0452
  509TMC3     H 7620   0.856   2.173  15.527  0.1194 -0.2074 -2.5954
  509TMC3    H1 7621   0.547   1.874  15.496 -0.0423  2.0337 -2.5630
  509TMC3    H2 7622   0.955   1.774  15.588  0.3068  0.9139 -0.1644
  509TMC3    C7 7623   0.688   1.710  15.633 -0.5280 -0.1089  0.2398
  509TMC3    C8 7624   0.998   2.002  15.684 -0.0026  0.2494  0.0614
  509TMC3    O1 7625   0.577   1.666  15.602 -0.3527 -0.5666  0.2984
  509TMC3    O2 7626   1.034   1.915  15.764 -0.1032 -0.6569 -0.1949
  510MPD2     C 7627   3.824   3.214  14.550 -0.4582 -0.6619 -0.1947
  510MPD2    C1 7628   3.909   3.190  14.655 -0.6821  0.1744 -0.1892
  510MPD2    C2 7629   4.050   3.181  14.637  1.0787 -0.0744  0.0940
  510MPD2    C3 7630   4.100   3.224  14.511 -0.6963 -0.1371 -0.4000
  510MPD2    C4 7631   4.013   3.245  14.409 -0.2834 -0.2153 -0.3830
  510MPD2    C5 7632   3.880   3.235  14.429  0.6968  0.6026 -0.2993
  510MPD2     H 7633   4.106   3.169  14.729  0.6545 -0.2474  0.3311
  510MPD2    H1 7634   4.043   3.253  14.305 -3.5070 -0.5638 -1.3378
  510MPD2    H2 7635   3.717   3.195  14.549 -0.2964 -1.6348  2.3814
  510MPD2    H3 7636   3.817   3.246  14.342 -0.6585 -1.3302  0.4429
  510MPD2     N 7637   4.243   3.226  14.492  0.0747  0.3251 -0.0692
  510MPD2    H5 7638   4.289   3.185  14.572  0.4336 -0.7951 -0.8557
  510MPD2    N1 7639   3.848   3.162  14.781 -0.3667  0.1140  0.3928
  510MPD2    H7 7640   3.907   3.116  14.850  0.5177  1.4086  0.5112
  511TMC3    C1 7641   3.679   3.140  14.953 -0.5547 -0.5052 -0.0063
  511TMC3    C2 7642   3.573   3.196  15.015  0.2101 -0.8234 -0.3403
  511TMC3    C3 7643   3.512   3.119  15.103  0.0711 -0.2305  0.4876
  511TMC3    C4 7644   3.714   3.005  14.975  1.0458  0.1867  0.1363
  511TMC3    C5 7645   3.646   2.926  15.069 -0.7324 -0.1232  0.0882
  511TMC3    C6 7646   3.539   2.987  15.128  1.0841 -0.3317  0.2223
  511TMC3     C 7647   3.722   3.203  14.830  0.0269  0.2692 -0.4752
  511TMC3     O 7648   3.648   3.289  14.780 -0.1184  0.3081 -0.6414
  511TMC3     H 7649   3.536   3.295  14.989  0.2633 -0.5704  0.5245
  511TMC3    H1 7650   3.797   2.961  14.921  1.5217  0.5143  0.5933
  511TMC3    H2 7651   3.474   2.929  15.192 -1.0131  1.5973 -0.1318
  511TMC3    C7 7652   3.635   2.788  15.039 -0.0324 -0.7536 -0.1845
  511TMC3    C8 7653   3.377   3.148  15.114  0.0724  0.5048  0.0862
  511TMC3    O1 7654   3.731   2.741  14.984 -0.0109 -0.4416  0.4318
  511TMC3    O2 7655   3.305   3.050  15.113 -0.2967 -0.6323 -0.4692
  512TMC3    C1 7656   3.115   1.995  13.779 -0.4940  1.0453  0.8377
  512TMC3    C2 7657   3.177   2.064  13.882 -0.3792 -0.0266  0.3799
  512TMC3    C3 7658   3.168   2.011  14.006 -0.0476 -0.0919 -0.1324
  512TMC3    C4 7659   3.032   1.880  13.804 -0.5003  0.0370  0.0013
  512TMC3    C5 7660   3.037   1.828  13.934 -0.7172 -0.6840 -0.1288
  512TMC3    C6 7661   3.107   1.889  14.033  0.5585  0.0943  0.4385
  512TMC3     C 7662   3.077   2.088  13.678  0.4573 -0.8422 -0.3728
  512TMC3     O 7663   3.109   2.209  13.679  0.2590  0.7062 -0.3288
  512TMC3     H 7664   3.233   2.154  13.859  0.2887 -0.8717 -1.3057
  512TMC3    H1 7665   2.968   1.833  13.730 -0.1115 -0.5428  0.0350
  512TMC3    H2 7666   3.106   1.837  14.128  3.4568 -1.7511 -0.5659
  512TMC3    C7 7667   2.966   1.697  13.965  0.7300  0.5723  0.2330
  512TMC3    C8 7668   3.247   2.063  14.112 -0.1979 -0.2262 -0.2092
  512TMC3    O1 7669   2.962   1.667  14.082  0.0959 -0.2156 -0.4975
  512TMC3    O2 7670   3.281   1.987  14.201 -0.2523  0.0068  0.1183
  513MPD2     C 7671   0.408   3.221  13.416 -0.2245  0.6294 -0.1030
  513MPD2    C1 7672   0.336   3.101  13.405 -0.1036 -1.0536  0.1526
  513MPD2    C2 7673   0.375   3.000  13.491 -0.1179  0.6513  0.4364
  513MPD2    C3 7674   0.464   3.021  13.590 -0.3254 -0.2457  0.1135
  513MPD2    C4 7675   0.524   3.142  13.605  0.7826  0.8581 -0.0789
  513MPD2    C5 7676   0.500   3.246  13.515 -0.4276 -0.0216  1.1390
  513MPD2     H 7677   0.320   2.907  13.485  1.8295 -0.4126 -1.3330
  513MPD2    H1 7678   0.591   3.163  13.687  1.4709  1.6205 -0.8393
  513MPD2    H2 7679   0.394   3.307  13.351 -0.4049  0.7818  0.1385
  513MPD2    H3 7680   0.559   3.337  13.519 -0.2950  0.0013 -1.0951
  513MPD2     N 7681   0.470   2.921  13.684 -0.7183 -0.2723  0.0409
  513MPD2    H5 7682   0.407   2.842  13.676  0.4110 -0.9746 -1.9278
  513MPD2    N1 7683   0.237   3.078  13.307  0.5401  0.9025  0.6183
  513MPD2    H7 7684   0.192   2.988  13.309  1.0736  0.5427 -2.6261
  514TMC3    C1 7685   0.118   3.078  13.110 -0.6792 -0.1611 -0.4589
  514TMC3    C2 7686   0.204   3.041  13.010 -0.0713 -0.1302 -0.0820
  514TMC3    C3 7687   0.187   2.916  12.955  0.3547 -0.1067  0.6190
  514TMC3    C4 7688   0.049   2.974  13.170 -0.1202 -1.4311  0.2358
  514TMC3    C5 7689   0.050   2.846  13.127  0.2922  0.2258 -0.0228
  514TMC3    C6 7690   0.126   2.811  13.025  0.4801 -0.0049  0.3360
  514TMC3     C 7691   0.198   3.156  13.203 -0.4822  0.3869  0.3874
  514TMC3     O 7692   0.241   3.260  13.153  0.8334 -0.4479 -0.6296
  514TMC3     H 7693   0.279   3.111  12.976 -2.7748  2.2056 -1.2232
  514TMC3    H1 7694   4.717   3.002  13.247  0.4683  0.1407  0.2241
  514TMC3    H2 7695   0.127   2.716  12.974 -1.2627  0.7429 -1.0904
  514TMC3    C7 7696   0.072   2.766  13.252 -0.7338  0.2019  0.4257
  514TMC3    C8 7697   0.211   2.895  12.815 -0.8807  0.1254 -0.1829
  514TMC3    O1 7698   0.128   2.825  13.346  0.6413 -0.1436  0.1970
  514TMC3    O2 7699   0.154   2.800  12.768  0.0389  0.3842  0.4792
  515MPD2     C 7700   3.086   3.773  15.103 -0.9857 -0.6190  0.2783
  515MPD2    C1 7701   2.979   3.832  15.043 -0.4232 -0.3013  0.6257
  515MPD2    C2 7702   2.945   3.956  15.085 -0.1992  0.3238 -0.1847
  515MPD2    C3 7703   3.012   4.024  15.185  0.1042  0.5476 -0.0803
  515MPD2    C4 7704   3.117   3.960  15.249  0.6150  0.0214 -0.6149
  515MPD2    C5 7705   3.142   3.831  15.212 -0.0515  0.7998 -0.5883
  515MPD2     H 7706   2.856   3.997  15.039 -0.2595 -1.1369 -1.3730
  515MPD2    H1 7707   3.170   4.014  15.326 -1.6862  1.1639  0.1795
  515MPD2    H2 7708   3.118   3.672  15.081 -0.0637 -0.7938  2.4222
  515MPD2    H3 7709   3.220   3.770  15.256  0.5498  1.6184 -0.5345
  515MPD2     N 7710   2.978   4.153  15.226 -0.0365  0.2404  0.0469
  515MPD2    H5 7711   3.028   4.192  15.306 -2.4969 -0.1319  1.7943
  515MPD2    N1 7712   2.907   3.778  14.935  0.3435 -0.6016 -0.9718
  515MPD2    H7 7713   2.836   3.840  14.897 -0.5058  0.8126  2.9292
  516TMC3    C1 7714   2.799   3.619  14.798 -0.6141 -0.9079 -0.1793
  516TMC3    C2 7715   2.730   3.721  14.734 -0.1301 -0.7260  0.4684
  516TMC3    C3 7716   2.597   3.703  14.700 -0.7613 -0.7896  0.6123
  516TMC3    C4 7717   2.731   3.503  14.831  0.0434 -0.0996 -0.1665
  516TMC3    C5 7718   2.595   3.496  14.803  0.6742 -0.6942 -0.0312
  516TMC3    C6 7719   2.526   3.592  14.732 -0.6969  0.3976 -0.0715
  516TMC3     C 7720   2.921   3.650  14.875 -0.0445 -1.1787  0.2560
  516TMC3     O 7721   3.016   3.572  14.877 -0.4288 -0.0373  0.0689
  516TMC3     H 7722   2.787   3.811  14.716 -0.7132 -0.0959  1.7311
  516TMC3    H1 7723   2.797   3.441  14.890 -2.0521  0.6286  2.9571
  516TMC3    H2 7724   2.420   3.585  14.712 -0.4803  0.4983 -1.2826
  516TMC3    C7 7725   2.526   3.419  14.910  0.5604  0.3325  0.0272
  516TMC3    C8 7726   2.533   3.805  14.620 -0.5161 -0.3147  0.1560
  516TMC3    O1 7727   2.597   3.373  14.999 -0.5570 -0.0470  0.1423
  516TMC3    O2 7728   2.411   3.785  14.589 -0.0814 -0.4882 -0.0495
  517MPD2     C 7729   2.637   1.046   0.267 -0.2102  0.4239  0.9588
  517MPD2    C1 7730   2.537   1.076   0.175 -0.4184  0.0113  0.7698
  517MPD2    C2 7731   2.471   1.198   0.179  0.3487 -0.0408 -0.0740
  517MPD2    C3 7732   2.506   1.284   0.283 -0.1265 -0.0950  0.3105
  517MPD2    C4 7733   2.602   1.255   0.375  0.0051  1.0188 -0.4345
  517MPD2    C5 7734   2.665   1.135   0.368  0.3158  0.1789  0.4939
  517MPD2     H 7735   2.402   1.225   0.100  0.8130 -2.1036 -1.1741
  517MPD2    H1 7736   2.647   1.322   0.447  1.4643  0.1112 -0.4778
  517MPD2    H2 7737   2.680   0.947   0.277 -0.8867  0.0993  0.6707
  517MPD2    H3 7738   2.739   1.115   0.445  0.7966  0.4050  0.0921
  517MPD2     N 7739   2.450   1.410   0.296  0.3191  0.0518  0.0495
  517MPD2    H5 7740   2.482   1.471   0.370  2.3691 -0.4509 -0.4293
  517MPD2    N1 7741   2.507   0.983   0.070  0.1909  0.4063 -0.6401
  517MPD2    H7 7742   2.439   1.022   0.006 -0.6779 -0.4749 -0.2422
  518TMC3    C1 7743   2.491   0.784  17.700  0.2762  0.0257  0.8965
  518TMC3    C2 7744   2.446   0.656  17.717  0.1079 -0.0486 -0.4557
  518TMC3    C3 7745   2.415   0.582  17.610 -0.2017  0.3908 -0.3288
  518TMC3    C4 7746   2.505   0.838  17.578 -0.0456  0.4537 -0.4873
  518TMC3    C5 7747   2.468   0.761  17.466  0.1292 -1.1841  0.0171
  518TMC3    C6 7748   2.425   0.639  17.490 -0.6852 -0.6564  0.5224
  518TMC3     C 7749   2.557   0.850   0.049 -0.5236  0.6117  0.3275
  518TMC3     O 7750   2.605   0.777   0.131  0.4028  0.0956  1.2726
  518TMC3     H 7751   2.458   0.610   0.057 -0.4934  1.9405  0.5540
  518TMC3    H1 7752   2.550   0.936  17.574  0.0041  0.5213  2.2581
  518TMC3    H2 7753   2.404   0.584  17.399  0.4061 -0.8274  0.3729
  518TMC3    C7 7754   2.585   0.772  17.380  0.8864  0.0795  0.0581
  518TMC3    C8 7755   2.417   0.433  17.608  0.3550 -0.4083 -0.2148
  518TMC3    O1 7756   2.627   0.884  17.369 -0.0371 -0.3402  0.0096
  518TMC3    O2 7757   2.434   0.380  17.496 -0.3480  0.6087 -0.0905
  519MPD2     C 7758   4.097   3.809  14.557 -0.5251  0.7103  0.7600
  519MPD2    C1 7759   4.052   3.853  14.437 -0.6811  0.8104 -0.2476
  519MPD2    C2 7760   4.042   3.763  14.334  0.4255 -0.4062 -0.1007
  519MPD2    C3 7761   4.072   3.627  14.351  0.2146 -0.2122 -0.2004
  519MPD2    C4 7762   4.125   3.584  14.474  0.2842  0.2278 -0.1368
  519MPD2    C5 7763   4.136   3.677  14.574 -0.7072 -0.2100 -0.1495
  519MPD2     H 7764   4.021   3.796  14.233  1.6179  0.3506 -0.0912
  519MPD2    H1 7765   4.161   3.483  14.490 -2.0393 -0.8633 -1.9035
  519MPD2    H2 7766   4.102   3.874  14.643  0.8351  0.9429  0.5023
  519MPD2    H3 7767   4.171   3.639  14.669 -1.6488  1.4005  0.8507
  519MPD2     N 7768   4.070   3.542  14.236  0.7783  0.1432  0.0130
  519MPD2    H5 7769   4.134   3.463  14.234 -0.5275 -0.9519  1.0749
  519MPD2    N1 7770   4.007   3.985  14.425 -0.2207  0.2579  0.2795
  519MPD2    H7 7771   3.995   4.042  14.508  2.2127  2.3634 -0.8117
  520TMC3    C1 7772   4.095   3.558  14.001 -0.8214 -0.6341  0.1840
  520TMC3    C2 7773   4.046   3.637  13.895 -0.4117 -0.3634 -0.0794
  520TMC3    C3 7774   4.134   3.682  13.799  0.0794  0.2413 -0.2581
  520TMC3    C4 7775   4.230   3.539  14.020 -0.2492  0.4089  0.1367
  520TMC3    C5 7776   4.310   3.605  13.930 -0.6715  0.0857  0.4669
  520TMC3    C6 7777   4.267   3.667  13.817  0.7657  0.4838  1.1128
  520TMC3     C 7778   4.006   3.576  14.114  1.0065 -0.1403  0.4406
  520TMC3     O 7779   3.906   3.650  14.105 -0.3487  0.2455  0.1037
  520TMC3     H 7780   3.939   3.654  13.886 -0.2925  0.5633  0.1555
  520TMC3    H1 7781   4.272   3.473  14.095  1.7120  0.6689 -0.7280
  520TMC3    H2 7782   4.334   3.694  13.736 -0.7316 -0.2294 -0.3835
  520TMC3    C7 7783   4.450   3.614  13.967 -0.1116  0.0130 -0.1125
  520TMC3    C8 7784   4.091   3.775  13.690 -0.1449 -1.0082 -0.4355
  520TMC3    O1 7785   4.475   3.522  14.049 -0.4290 -0.4673 -0.1667
  520TMC3    O2 7786   4.178   3.820  13.615 -0.3486 -0.5763  0.2061
  521MPD2     C 7787   4.419   1.650  17.205  0.3712 -0.3408  0.3589
  521MPD2    C1 7788   4.458   1.731  17.103 -0.4346 -0.6979  0.2789
  521MPD2    C2 7789   4.590   1.732  17.062 -0.2794  0.0084  0.4836
  521MPD2    C3 7790   4.684   1.651  17.120 -1.0879 -0.1762 -0.0741
  521MPD2    C4 7791   4.649   1.578  17.232  0.5513  0.3229 -0.4104
  521MPD2    C5 7792   4.514   1.580  17.275 -0.4794  0.5267 -0.1625
  521MPD2     H 7793   4.615   1.793  16.976 -0.6880  0.3625  0.6180
  521MPD2    H1 7794   4.723   1.514  17.279 -2.2119 -0.9040  2.3239
  521MPD2    H2 7795   4.317   1.640  17.240  0.5629  0.1878  1.0672
  521MPD2    H3 7796   4.483   1.530  17.365  0.9462 -0.3563 -0.1528
  521MPD2     N 7797   0.070   1.636  17.060 -0.1371  0.7536  0.4474
  521MPD2    H5 7798   0.079   1.677  16.968  0.6567  1.2540  0.7527
  521MPD2    N1 7799   4.359   1.811  17.038 -0.0057 -0.0383  0.0696
  521MPD2    H7 7800   4.262   1.792  17.061  0.5117 -1.5938  0.9984
  522TMC3    C1 7801   0.257   1.532  16.982 -0.6720 -0.9760  0.5341
  522TMC3    C2 7802   0.303   1.406  16.954  0.2414 -0.0022  0.0884
  522TMC3    C3 7803   0.405   1.393  16.865 -0.0740 -0.3978  0.5258
  522TMC3    C4 7804   0.283   1.641  16.902 -0.6524 -0.0627  0.1117
  522TMC3    C5 7805   0.375   1.617  16.810 -0.3960 -0.6706  0.0553
  522TMC3    C6 7806   0.447   1.500  16.793  0.3721  0.0748 -0.4160
  522TMC3     C 7807   0.163   1.540  17.086  0.6879 -0.0786  0.1412
  522TMC3     O 7808   0.164   1.449  17.168  0.1608 -0.7158  0.3221
  522TMC3     H 7809   0.262   1.312  16.990  1.6202  0.0874  1.8733
  522TMC3    H1 7810   0.232   1.735  16.916  1.5252  0.9342  1.3425
  522TMC3    H2 7811   0.536   1.500  16.732  1.5799  1.5542  1.3539
  522TMC3    C7 7812   0.442   1.735  16.755 -0.5539 -1.0535 -0.4843
  522TMC3    C8 7813   0.462   1.265  16.853  0.3976  0.4901  0.5111
  522TMC3    O1 7814   0.554   1.721  16.715  0.3693  0.0254 -0.2054
  522TMC3    O2 7815   0.410   1.169  16.900  0.8242  0.0337  0.1523
  523MPD2     C 7816   3.762   0.757   9.514 -0.2887 -0.1790 -0.4326
  523MPD2    C1 7817   3.758   0.814   9.640  0.3937 -0.0327 -0.1175
  523MPD2    C2 7818   3.684   0.931   9.654 -0.1300 -0.1828  0.1037
  523MPD2    C3 7819   3.639   1.011   9.549  0.1234 -0.6974 -0.0647
  523MPD2    C4 7820   3.642   0.952   9.425  0.8183 -0.1950 -0.2226
  523MPD2    C5 7821   3.707   0.829   9.409 -0.1788  0.8755  0.0245
  523MPD2     H 7822   3.677   0.967   9.756 -1.3566 -1.0246  0.3164
  523MPD2    H1 7823   3.594   1.005   9.344 -0.0405 -0.0813  0.3672
  523MPD2    H2 7824   3.799   0.655   9.501 -0.4648  0.0042 -2.3933
  523MPD2    H3 7825   3.721   0.792   9.308 -1.3282 -0.7452  0.4707
  523MPD2     N 7826   3.591   1.143   9.566 -0.2732 -0.4161  0.3482
  523MPD2    H5 7827   3.574   1.197   9.482  2.0663  2.9667  2.0413
  523MPD2    N1 7828   3.802   0.734   9.746  0.9650 -0.5275 -0.1203
  523MPD2    H7 7829   3.841   0.642   9.725  1.0205 -0.4742 -0.2503
  524TMC3    C1 7830   3.534   1.340   9.676  0.7811  0.3832  0.3067
  524TMC3    C2 7831   3.585   1.410   9.572  0.2651  0.0988  0.2860
  524TMC3    C3 7832   3.547   1.545   9.572 -0.6544 -0.6754  0.7089
  524TMC3    C4 7833   3.430   1.387   9.762 -0.6838  0.2240 -0.1887
  524TMC3    C5 7834   3.403   1.521   9.753  0.1245 -0.4437  0.3476
  524TMC3    C6 7835   3.461   1.602   9.660  0.0254 -0.2346  0.0644
  524TMC3     C 7836   3.547   1.200   9.682  0.4305  0.2118  0.0417
  524TMC3     O 7837   3.528   1.147   9.792  0.3035 -0.1439 -0.0563
  524TMC3     H 7838   3.668   1.381   9.509 -0.8090  1.7021 -1.8717
  524TMC3    H1 7839   3.376   1.329   9.836 -2.4131 -0.4073 -1.9373
  524TMC3    H2 7840   3.412   1.698   9.643  0.0933 -0.3341 -0.7052
  524TMC3    C7 7841   3.309   1.582   9.844  0.2783 -0.9389 -0.1826
  524TMC3    C8 7842   3.590   1.626   9.459 -0.6424 -0.6706  0.4309
  524TMC3    O1 7843   3.224   1.505   9.891 -0.7845  0.2197 -0.0285
  524TMC3    O2 7844   3.607   1.743   9.485  0.3965  0.1725  0.1618
  525MPD2     C 7845   0.915   3.801  14.475  0.1138 -0.3478  0.1641
  525MPD2    C1 7846   0.992   3.745  14.577  0.3021  0.1744  0.4535
  525MPD2    C2 7847   1.123   3.797  14.591 -0.3001 -0.5137  0.0980
  525MPD2    C3 7848   1.172   3.907  14.516  0.7706  0.5369 -0.6386
  525MPD2    C4 7849   1.096   3.956  14.423 -0.5365  0.0967 -0.6908
  525MPD2    C5 7850   0.965   3.909  14.406 -0.2071 -0.3260  0.4152
  525MPD2     H 7851   1.179   3.758  14.675 -0.0627  0.9499  0.6202
  525MPD2    H1 7852   1.133   4.035  14.359  1.8962 -0.4513  0.0429
  525MPD2    H2 7853   0.813   3.778  14.445  0.1702 -0.5350  0.1135
  525MPD2    H3 7854   0.904   3.938  14.322  1.5074  4.6105  0.8594
  525MPD2     N 7855   1.297   3.968  14.544  0.3951 -0.4315  0.0293
  525MPD2    H5 7856   1.330   4.051  14.497  0.4994 -1.2947 -1.4063
  525MPD2    N1 7857   0.957   3.634  14.650 -0.2571 -0.8069  0.2881
  525MPD2    H7 7858   1.029   3.600  14.713 -1.3946  2.0845  3.1538
  526TMC3    C1 7859   0.810   3.472  14.742  0.2753  0.2945  0.5420
  526TMC3    C2 7860   0.696   3.467  14.817 -1.0049  0.2053  0.1750
  526TMC3    C3 7861   0.698   3.360  14.904  0.4373 -0.1837 -0.6454
  526TMC3    C4 7862   0.914   3.379  14.742  0.3332  0.9096 -0.2333
  526TMC3    C5 7863   0.901   3.278  14.827 -0.1588  0.1692 -0.3140
  526TMC3    C6 7864   0.798   3.260  14.912 -0.3141  0.2710  0.1186
  526TMC3     C 7865   0.827   3.594  14.667 -0.4957 -0.1150  0.5847
  526TMC3     O 7866   0.732   3.654  14.628  0.2760 -0.1403 -0.0470
  526TMC3     H 7867   0.634   3.556  14.822  0.1275  0.9941  0.0763
  526TMC3    H1 7868   1.000   3.396  14.677  1.2864 -1.9406  0.2807
  526TMC3    H2 7869   0.787   3.175  14.978 -1.8715 -0.4586 -1.0875
  526TMC3    C7 7870   1.019   3.217  14.877  0.0143  0.4477  0.2373
  526TMC3    C8 7871   0.622   3.368  15.026  0.2346 -0.4919 -0.1078
  526TMC3    O1 7872   1.026   3.213  15.000  0.3788 -0.4740 -0.1076
  526TMC3    O2 7873   0.685   3.324  15.121 -0.2331 -0.8032 -0.6992
  527MPD2     C 7874   2.929   1.746   1.030 -0.1162  0.0011  0.0775
  527MPD2    C1 7875   2.972   1.699   0.906  0.2352 -0.1196 -0.0917
  527MPD2    C2 7876   3.072   1.606   0.901 -0.2098 -0.0867  0.0618
  527MPD2    C3 7877   3.122   1.537   1.013 -0.4122  0.1714 -0.0267
  527MPD2    C4 7878   3.070   1.575   1.137 -0.8299  0.1118 -0.5939
  527MPD2    C5 7879   2.968   1.675   1.143 -0.1096 -0.1585  0.6732
  527MPD2     H 7880   3.099   1.568   0.803 -1.1168 -1.2532  0.2590
  527MPD2    H1 7881   3.097   1.516   1.224  1.3551  1.5716 -0.2864
  527MPD2    H2 7882   2.867   1.834   1.041 -0.0488  0.1158 -0.4422
  527MPD2    H3 7883   2.934   1.699   1.243  0.3047 -0.3801  0.8650
  527MPD2     N 7884   3.217   1.434   0.990  0.6236  0.0487 -0.3367
  527MPD2    H5 7885   3.236   1.408   0.893  4.5087 -0.0710  0.4633
  527MPD2    N1 7886   2.917   1.735   0.780 -0.9707 -0.1075  0.3960
  527MPD2    H7 7887   2.964   1.680   0.709  1.5617  1.3272  0.9568
  528TMC3    C1 7888   2.807   1.848   0.605  0.5930  0.2438 -0.6427
  528TMC3    C2 7889   2.815   1.977   0.559  0.2378  0.0937 -0.1374
  528TMC3    C3 7890   2.818   1.999   0.420 -0.3260 -0.0346 -0.3392
  528TMC3    C4 7891   2.803   1.746   0.517 -0.0474 -0.3376  0.2962
  528TMC3    C5 7892   2.803   1.768   0.387 -0.8323 -0.1181  0.1965
  528TMC3    C6 7893   2.818   1.891   0.330  1.0343 -0.0367 -0.2759
  528TMC3     C 7894   2.820   1.829   0.748 -0.1732 -0.4457 -0.0499
  528TMC3     O 7895   2.760   1.907   0.817  0.0131 -0.6213  0.2160
  528TMC3     H 7896   2.819   2.054   0.635  2.1858  0.8147 -0.9808
  528TMC3    H1 7897   2.798   1.646   0.557 -2.3440  0.2107  1.3908
  528TMC3    H2 7898   2.845   1.912   0.227  1.8203 -2.1217 -0.4960
  528TMC3    C7 7899   2.777   1.655   0.302 -0.2041 -1.0022  0.5148
  528TMC3    C8 7900   2.899   2.113   0.374 -0.6778  0.0693 -0.4339
  528TMC3    O1 7901   2.823   1.546   0.339  0.6447 -0.6794  0.3997
  528TMC3    O2 7902   2.975   2.107   0.282  0.0491  0.3595  0.3567
  529MPD2     C 7903   0.823   4.576   0.815 -0.1155  0.1167  0.8942
  529MPD2    C1 7904   0.873   4.520   0.704 -0.7738  0.5791  0.1195
  529MPD2    C2 7905   0.861   4.588   0.582 -0.0546  0.0978 -0.5887
  529MPD2    C3 7906   0.774   4.699   0.571  0.0126  0.1029 -0.7956
  529MPD2    C4 7907   0.719   0.007   0.688  0.0334 -0.9129  0.2899
  529MPD2    C5 7908   0.748   4.692   0.806  0.3505 -0.0487  0.1993
  529MPD2     H 7909   0.909   4.542   0.496 -0.2501 -0.6022 -0.3227
  529MPD2    H1 7910   0.656   0.095   0.685  1.1991 -0.1061 -0.2814
  529MPD2    H2 7911   0.839   4.535   0.914  0.3387  0.5966  1.0229
  529MPD2    H3 7912   0.710   4.725   0.902 -0.5889 -1.1505  0.1972
  529MPD2     N 7913   0.738   0.026   0.454  0.0874 -0.0499 -0.1835
  529MPD2    H5 7914   0.683   0.109   0.474  0.5648 -0.0933  1.2698
  529MPD2    N1 7915   0.956   4.400   0.715  0.2914  0.5752  0.0434
  529MPD2    H7 7916   1.004   4.374   0.631  0.6786  0.1444  0.4011
  530TMC3    C1 7917   1.031   4.187   0.799 -1.2485 -0.4285  0.5699
  530TMC3    C2 7918   1.163   4.213   0.777  0.2813 -0.0091  0.5496
  530TMC3    C3 7919   1.252   4.105   0.776  0.0522 -0.2252  0.5152
  530TMC3    C4 7920   0.984   4.066   0.847 -0.4657  0.0500 -0.1079
  530TMC3    C5 7921   1.076   3.970   0.864  0.5837  0.1255 -0.0744
  530TMC3    C6 7922   1.199   3.986   0.809 -0.5523  0.1643  0.7832
  530TMC3     C 7923   0.945   4.304   0.823  0.8354  0.4307  0.2705
  530TMC3     O 7924   0.872   4.296   0.922 -1.0341  0.0195  0.2515
  530TMC3     H 7925   1.199   4.312   0.751  0.3941 -0.0617  0.5055
  530TMC3    H1 7926   0.876   4.050   0.842 -0.3245 -0.3414 -1.8846
  530TMC3    H2 7927   1.278   3.915   0.831 -0.0267  0.8547  1.1376
  530TMC3    C7 7928   1.034   3.844   0.916 -0.3013 -0.1565  1.1103
  530TMC3    C8 7929   1.382   4.114   0.840 -0.4975 -0.4668 -0.2572
  530TMC3    O1 7930   1.107   3.745   0.900 -0.8295  0.1269  0.0711
  530TMC3    O2 7931   1.473   4.046   0.807  0.2966 -0.3661 -0.3477
  531MPD2     C 7932   0.132   2.321  13.495  0.4023  0.6827 -0.0715
  531MPD2    C1 7933   0.165   2.446  13.533 -0.3190 -0.4789 -0.0433
  531MPD2    C2 7934   0.127   2.551  13.451  0.1851  0.7137  0.2106
  531MPD2    C3 7935   0.052   2.529  13.334 -0.6281 -0.0353  0.2836
  531MPD2    C4 7936   0.000   2.403  13.313  0.4176 -0.1927 -0.2084
  531MPD2    C5 7937   0.054   2.304  13.394  0.9046  0.3116 -0.8604
  531MPD2     H 7938   0.166   2.652  13.454 -0.5683  1.0465 -0.8690
  531MPD2    H1 7939   4.683   2.366  13.228 -2.3530 -2.5561  2.7146
  531MPD2    H2 7940   0.170   2.227  13.534 -0.8727  0.4515  0.5925
  531MPD2    H3 7941   0.036   2.199  13.378 -1.0651  0.7135 -1.3052
  531MPD2     N 7942   0.021   2.635  13.242 -0.2578 -0.0930  0.3133
  531MPD2    H5 7943   4.706   2.609  13.161 -0.2430  1.7475 -0.2954
  531MPD2    N1 7944   0.232   2.470  13.657 -0.1026  0.2495 -0.1826
  531MPD2    H7 7945   0.273   2.390  13.704  0.2273 -0.2058 -1.2547
  532TMC3    C1 7946   0.387   2.603  13.794  0.4968  0.5317 -0.7146
  532TMC3    C2 7947   0.417   2.727  13.852 -0.9262  0.0109  0.1132
  532TMC3    C3 7948   0.545   2.775  13.855  0.3490  0.5157  0.2035
  532TMC3    C4 7949   0.493   2.519  13.772  0.1767  0.6316 -0.6031
  532TMC3    C5 7950   0.624   2.559  13.800  0.0639 -1.2467  0.7382
  532TMC3    C6 7951   0.651   2.681  13.838 -0.0398  0.4110  0.1393
  532TMC3     C 7952   0.270   2.595  13.705 -0.5826 -0.6594  0.0534
  532TMC3     O 7953   0.217   2.706  13.689  0.1363 -0.1947  0.1256
  532TMC3     H 7954   0.331   2.790  13.873 -2.7353 -2.7910  1.1284
  532TMC3    H1 7955   0.473   2.426  13.719 -0.1108 -0.9970  2.3515
  532TMC3    H2 7956   0.755   2.709  13.842 -0.2398  1.1001  0.6251
  532TMC3    C7 7957   0.725   2.456  13.812  0.3215  0.3318 -0.1275
  532TMC3    C8 7958   0.560   2.903  13.790  0.1672  0.6706  0.2930
  532TMC3    O1 7959   0.840   2.488  13.826 -0.3847  0.2898 -0.1907
  532TMC3    O2 7960   0.670   2.959  13.804 -0.1751 -0.2383  0.3745
  533TMC3    C1 7961   1.477   4.021  14.681  0.4410  0.5099  0.4645
  533TMC3    C2 7962   1.499   4.125  14.591  0.2213 -0.1341 -0.5635
  533TMC3    C3 7963   1.526   4.254  14.639 -0.0751 -0.0907  0.1732
  533TMC3    C4 7964   1.475   4.047  14.820  0.3276 -0.3670 -0.9705
  533TMC3    C5 7965   1.478   4.176  14.865  0.0140  0.2942 -0.3587
  533TMC3    C6 7966   1.497   4.279  14.770 -0.6800 -0.0711 -0.2392
  533TMC3     C 7967   1.382   3.921  14.644  0.2818  0.7221  0.6067
  533TMC3     O 7968   1.379   3.816  14.708  0.0314  0.2568  0.1557
  533TMC3     H 7969   1.539   4.100  14.493 -1.4731  0.2888 -1.3665
  533TMC3    H1 7970   1.454   3.969  14.892 -0.0603  0.4012 -0.2504
  533TMC3    H2 7971   1.503   4.381  14.807 -2.5220  0.4582 -1.3848
  533TMC3    C7 7972   1.395   4.197  14.979 -0.7101 -0.1027  0.4699
  533TMC3    C8 7973   1.614   4.340  14.569  0.4904  0.3833  0.3027
  533TMC3    O1 7974   1.411   4.117  15.074  0.2685 -0.2071  0.4803
  533TMC3    O2 7975   1.615   4.336  14.445 -0.1702  0.3451  0.4374
  534MPD2     C 7976   3.505   0.290   1.577  0.0600  0.6431  0.3125
  534MPD2    C1 7977   3.470   0.384   1.475  0.3578  0.5131  0.4794
  534MPD2    C2 7978   3.359   0.379   1.397  0.3434 -0.3073 -0.2482
  534MPD2    C3 7979   3.271   0.264   1.423  0.7365 -0.6524 -0.5461
  534MPD2    C4 7980   3.300   0.175   1.525  0.2431 -0.7388 -0.6671
  534MPD2    C5 7981   3.406   0.200   1.609  0.4668 -1.1881  1.4502
  534MPD2     H 7982   3.352   0.452   1.317 -0.5899  0.8886  0.9229
  534MPD2    H1 7983   3.234   0.093   1.551 -0.3592  0.5424  1.8778
  534MPD2    H2 7984   3.591   0.283   1.642  0.9594  0.9001 -0.8461
  534MPD2    H3 7985   3.420   0.127   1.688 -0.8811 -1.2444  1.6346
  534MPD2     N 7986   3.147   0.236   1.351 -0.1795  0.3635  0.0158
  534MPD2    H5 7987   3.086   0.160   1.378 -0.8306  0.3904 -1.3528
  534MPD2    N1 7988   3.549   0.494   1.453 -0.4379 -0.2587 -0.0330
  534MPD2    H7 7989   3.530   0.571   1.389 -0.8225 -3.6871 -4.0647
  535TMC3    C1 7990   2.970   0.279   1.204 -0.9247  0.1191  0.2371
  535TMC3    C2 7991   2.873   0.255   1.295 -0.0779 -0.8014  0.5649
  535TMC3    C3 7992   2.743   0.238   1.254 -0.5413 -0.0046  0.3337
  535TMC3    C4 7993   2.944   0.293   1.075 -0.2736  0.0954 -0.3190
  535TMC3    C5 7994   2.814   0.297   1.039  0.5069  0.4047  0.9722
  535TMC3    C6 7995   2.716   0.251   1.118 -0.1540  0.1136  0.1376
  535TMC3     C 7996   3.102   0.313   1.245  0.7688 -0.3411 -0.3770
  535TMC3     O 7997   3.165   0.388   1.168 -0.0438 -0.2269 -0.5783
  535TMC3     H 7998   2.904   0.235   1.397  2.3286  2.1155  0.4089
  535TMC3    H1 7999   3.016   0.333   1.005  1.0628  0.3321  1.1988
  535TMC3    H2 8000   2.611   0.239   1.093 -0.2257 -0.0554  0.5245
  535TMC3    C7 8001   2.781   0.299   0.896  0.6315 -0.3901  0.2092
  535TMC3    C8 8002   2.639   0.241   1.352  0.6570 -0.3247 -0.1639
  535TMC3    O1 8003   2.878   0.291   0.818  0.2242  0.0043  0.3600
  535TMC3    O2 8004   2.663   0.288   1.462 -0.7238  0.1034 -0.1504
  536MPD2     C 8005   2.074   3.581  16.941  0.3869  0.0393 -0.1128
  536MPD2    C1 8006   1.999   3.470  16.941  0.6604  0.3911 -0.4606
  536MPD2    C2 8007   1.908   3.456  16.842  0.2227 -0.3361  0.0791
  536MPD2    C3 8008   1.894   3.554  16.746 -0.5817 -0.3069 -0.0773
  536MPD2    C4 8009   1.969   3.668  16.753  0.2463  0.4500  0.4511
  536MPD2    C5 8010   2.058   3.687  16.851  0.5020 -0.1272 -0.1681
  536MPD2     H 8011   1.858   3.361  16.832  1.7399 -1.0408 -0.8229
  536MPD2    H1 8012   1.965   3.744  16.676 -0.7686  0.9241  0.9671
  536MPD2    H2 8013   2.154   3.594  17.014 -0.5873 -0.1113  0.9747
  536MPD2    H3 8014   2.117   3.777  16.868  1.1136 -0.5125 -0.2472
  536MPD2     N 8015   1.817   3.535  16.630 -0.6113  0.4953 -0.2266
  536MPD2    H5 8016   1.837   3.603  16.557 -4.6664  0.7714 -1.0774
  536MPD2    N1 8017   2.016   3.371  17.039 -0.1328 -0.5574  0.2378
  536MPD2    H7 8018   2.087   3.384  17.111 -0.0734 -1.4052  0.3358
  537TMC3    C1 8019   2.015   3.152  17.132  0.2970  0.4901 -0.4869
  537TMC3    C2 8020   2.145   3.153  17.151 -0.3261  0.3186 -0.4935
  537TMC3    C3 8021   2.196   3.060  17.236 -0.4895 -0.4451 -1.0396
  537TMC3    C4 8022   1.937   3.047  17.180  0.1952  0.4153 -0.0660
  537TMC3    C5 8023   1.990   2.970  17.276  0.7781 -0.0155  0.0396
  537TMC3    C6 8024   2.120   2.974  17.309 -0.1081  1.0394 -0.6084
  537TMC3     C 8025   1.955   3.247  17.039  0.9902 -0.7824  0.0147
  537TMC3     O 8026   1.847   3.213  16.995 -0.0312  0.1936 -0.0269
  537TMC3     H 8027   2.204   3.225  17.097 -0.6056  2.5314  2.1414
  537TMC3    H1 8028   1.834   3.031  17.152  0.6935 -1.7066 -0.6059
  537TMC3    H2 8029   2.167   2.890  17.360  1.0330  0.9802 -1.7616
  537TMC3    C7 8030   1.910   2.855  17.319 -0.0674  0.0464  0.5363
  537TMC3    C8 8031   2.341   3.044  17.243 -0.2209 -0.1521 -0.0530
  537TMC3    O1 8032   1.815   2.826  17.245  0.0604 -0.2248  0.0678
  537TMC3    O2 8033   2.395   3.050  17.355  0.6837  0.2998  0.2471
  538TMC3    C1 8034   3.907   1.098  11.093  0.2385  0.0214 -0.9650
  538TMC3    C2 8035   4.041   1.108  11.117  0.6217 -0.6813 -0.5185
  538TMC3    C3 8036   4.130   1.080  11.020 -0.3561  0.3046 -1.1564
  538TMC3    C4 8037   3.868   1.072  10.966 -0.1445 -0.5817 -0.4792
  538TMC3    C5 8038   3.956   1.054  10.863  0.5799  0.1237 -1.0987
  538TMC3    C6 8039   4.092   1.048  10.892  0.4412 -0.3171  0.1072
  538TMC3     C 8040   3.810   1.142  11.184  0.8023 -0.0096 -0.2006
  538TMC3     O 8041   3.709   1.198  11.140 -0.2019 -0.1391  0.4623
  538TMC3     H 8042   4.085   1.139  11.211 -0.4806  0.0302 -0.2278
  538TMC3    H1 8043   3.762   1.081  10.946  0.1969 -0.2560 -2.1113
  538TMC3    H2 8044   4.168   1.008  10.826  0.2935 -1.4397  0.6030
  538TMC3    C7 8045   3.905   1.060  10.733  0.0407  0.4330  0.5099
  538TMC3    C8 8046   4.272   1.095  11.048  0.2830 -0.2175  0.1031
  538TMC3    O1 8047   3.791   1.097  10.724 -0.2122  0.8458  0.7615
  538TMC3    O2 8048   4.289   1.086  11.170 -0.3617 -0.2713 -0.5392
  539MPD2     C 8049   3.094   0.708  11.785 -0.3911 -0.5302 -0.1869
  539MPD2    C1 8050   3.197   0.727  11.695 -0.7062 -0.5680 -0.0413
  539MPD2    C2 8051   3.186   0.823  11.597 -0.4892  0.2729  0.0955
  539MPD2    C3 8052   3.087   0.921  11.607 -0.3618 -0.5040 -0.0076
  539MPD2    C4 8053   2.982   0.902  11.702  0.0416 -0.7695  0.1394
  539MPD2    C5 8054   2.989   0.797  11.790  0.6467  0.2218 -0.1424
  539MPD2     H 8055   3.267   0.830  11.526 -0.0194  0.1245  0.6126
  539MPD2    H1 8056   2.905   0.978  11.714  0.6135 -0.6788  3.3322
  539MPD2    H2 8057   3.082   0.630  11.859 -0.0441  0.7550  1.2072
  539MPD2    H3 8058   2.911   0.790  11.865  2.1046 -1.6698  1.2054
  539MPD2     N 8059   3.072   1.028  11.518 -0.5689 -0.2566 -0.4096
  539MPD2    H5 8060   2.989   1.085  11.526  2.0303  3.1738  1.9154
  539MPD2    N1 8061   3.306   0.639  11.692  0.1411  0.4446  0.3153
  539MPD2    H7 8062   3.377   0.669  11.627  1.1278 -1.7978  0.3430
  540TMC3    C1 8063   3.116   1.177  11.346 -0.3914 -0.3232  0.8674
  540TMC3    C2 8064   3.163   1.197  11.222  0.0474  0.6215 -0.0475
  540TMC3    C3 8065   3.128   1.315  11.158 -0.0603  0.0778  0.1133
  540TMC3    C4 8066   3.025   1.260  11.404  0.0538 -0.1521 -0.6455
  540TMC3    C5 8067   3.015   1.384  11.351  0.2807  0.0315 -0.1730
  540TMC3    C6 8068   3.058   1.415  11.224 -0.4585  0.7358  0.1412
  540TMC3     C 8069   3.165   1.063  11.424  0.4457 -0.5452 -0.2485
  540TMC3     O 8070   3.272   1.019  11.395 -0.6455  0.2884  0.3998
  540TMC3     H 8071   3.226   1.126  11.169  1.1624  0.9068  0.9139
  540TMC3    H1 8072   2.993   1.248  11.508 -1.1436 -2.1790 -1.2459
  540TMC3    H2 8073   3.009   1.491  11.164 -3.0481 -2.0265 -1.2485
  540TMC3    C7 8074   2.939   1.476  11.423 -1.2931  0.6131 -0.0208
  540TMC3    C8 8075   3.128   1.312  11.015 -0.7010 -0.8838  0.4463
  540TMC3    O1 8076   2.840   1.440  11.487 -0.5090  0.0607 -0.4733
  540TMC3    O2 8077   3.136   1.422  10.962  0.5666 -0.5383  0.7893
  541MPD2     C 8078   1.511   2.528  13.443  0.2046  0.6525  0.0171
  541MPD2    C1 8079   1.534   2.419  13.355  0.1809 -0.2340 -1.1084
  541MPD2    C2 8080   1.554   2.447  13.223 -0.0406  0.5562 -0.1365
  541MPD2    C3 8081   1.546   2.577  13.177 -0.3520  0.3939  0.2301
  541MPD2    C4 8082   1.530   2.680  13.269 -0.4421 -0.0474  0.1878
  541MPD2    C5 8083   1.513   2.656  13.400 -0.3711 -0.3062  0.3262
  541MPD2     H 8084   1.573   2.368  13.151  0.5420  0.7575 -0.2049
  541MPD2    H1 8085   1.511   2.777  13.224  0.6042  0.7787  1.5530
  541MPD2    H2 8086   1.497   2.511  13.549  1.5674  2.4042  0.4786
  541MPD2    H3 8087   1.471   2.728  13.470 -0.4335  0.1005 -0.1277
  541MPD2     N 8088   1.560   2.610  13.041 -0.1315 -0.8374  0.1015
  541MPD2    H5 8089   1.546   2.708  13.016  1.7658 -0.9881 -1.5017
  541MPD2    N1 8090   1.527   2.281  13.395  0.5399 -0.0712 -1.0338
  541MPD2    H7 8091   1.551   2.216  13.320 -1.0131  0.3311 -1.8868
  542TMC3    C1 8092   1.579   2.599  12.809 -0.6506 -0.6915  0.2020
  542TMC3    C2 8093   1.584   2.517  12.699  0.3577  0.5527  0.0192
  542TMC3    C3 8094   1.517   2.567  12.592  0.4165  0.0208 -0.4711
  542TMC3    C4 8095   1.530   2.731  12.809 -0.8688  0.2857  0.1037
  542TMC3    C5 8096   1.487   2.775  12.689 -1.2352 -0.0782  0.0742
  542TMC3    C6 8097   1.470   2.690  12.581  0.0933  0.0039  0.3400
  542TMC3     C 8098   1.585   2.523  12.935 -0.1433  0.2294 -0.5131
  542TMC3     O 8099   1.627   2.407  12.938  0.2563 -0.3129  0.2688
  542TMC3     H 8100   1.629   2.419  12.700  2.3370  1.4230 -2.7139
  542TMC3    H1 8101   1.539   2.800  12.892  1.2363  2.5111 -1.9530
  542TMC3    H2 8102   1.427   2.726  12.488 -1.8731 -3.2112 -0.0170
  542TMC3    C7 8103   1.492   2.917  12.662  0.1895  0.0462 -1.4514
  542TMC3    C8 8104   1.453   2.462  12.513 -0.1038  0.3589  0.1566
  542TMC3    O1 8105   1.478   2.981  12.763  0.3705 -0.0390  0.3810
  542TMC3    O2 8106   1.484   2.452  12.395  0.6464 -0.1539  0.3038
  543TMC3    C1 8107   0.625   3.967  17.526  0.1664 -1.0047 -0.6618
  543TMC3    C2 8108   0.650   3.856  17.595 -0.0786  0.3157 -0.4002
  543TMC3    C3 8109   0.614   3.849  17.726 -0.1202 -0.1891  0.0715
  543TMC3    C4 8110   0.560   4.075  17.572  0.2718  0.2717  0.3080
  543TMC3    C5 8111   0.530   4.067  17.708  0.0261 -0.3695 -0.1361
  543TMC3    C6 8112   0.562   3.958   0.029  0.3602  0.5530 -0.0641
  543TMC3     C 8113   0.640   3.945  17.388 -0.4091 -0.1959 -0.5662
  543TMC3     O 8114   0.748   3.910  17.347  0.3765  0.6737 -0.3488
  543TMC3     H 8115   0.694   3.768  17.549 -0.7966 -0.8575  1.1462
  543TMC3    H1 8116   0.533   4.158  17.508 -1.8409 -0.2582  0.4976
  543TMC3    H2 8117   0.508   3.943   0.123  2.9577 -0.2288  1.3149
  543TMC3    C7 8118   0.477   4.181   0.013 -0.4019  0.0211 -0.0021
  543TMC3    C8 8119   0.606   3.715   0.023  0.3097 -0.5560  0.4718
  543TMC3    O1 8120   0.446   4.160   0.127 -0.3413  0.4266 -0.1020
  543TMC3    O2 8121   0.604   3.623  17.703 -0.4499  0.0184 -0.2464
  544MPD2     C 8122   0.508   3.366   0.419  0.0423  1.2216  0.2610
  544MPD2    C1 8123   0.549   3.350   0.288 -0.0579 -0.0466 -0.2701
  544MPD2    C2 8124   0.567   3.455   0.195 -0.0244 -0.6374 -0.9720
  544MPD2    C3 8125   0.551   3.589   0.235  0.3868  0.4452  0.1673
  544MPD2    C4 8126   0.525   3.605   0.367 -0.7760 -0.0715 -0.3298
  544MPD2    C5 8127   0.497   3.501   0.454 -0.2544 -0.5889  0.5930
  544MPD2     H 8128   0.592   3.433   0.092  3.1140  0.6226 -0.4624
  544MPD2    H1 8129   0.518   3.703   0.413 -1.9926 -1.5586  2.6907
  544MPD2    H2 8130   0.497   3.288   0.493  2.8913 -0.3463 -0.9816
  544MPD2    H3 8131   0.457   3.532   0.549 -0.2573  2.0702 -0.2760
  544MPD2     N 8132   0.578   3.703   0.161  0.4379  0.3279 -0.4392
  544MPD2    H5 8133   0.584   3.794   0.207  0.0620 -0.1857  0.6314
  544MPD2    N1 8134   0.568   3.220   0.251  0.4039  0.4365 -0.1716
  544MPD2    H7 8135   0.567   3.158   0.330 -0.7683  1.9048  0.9758
  545TMC3    C1 8136   0.639   3.032   0.127 -0.1125 -0.6707 -0.0768
  545TMC3    C2 8137   0.726   2.989   0.228  0.0648 -0.4516 -0.0699
  545TMC3    C3 8138   0.759   2.851   0.236  0.1556  0.5893 -0.5095
  545TMC3    C4 8139   0.567   2.938   0.060  0.0968  0.2930  0.7328
  545TMC3    C5 8140   0.590   2.806   0.075 -0.8425 -0.0819  0.1254
  545TMC3    C6 8141   0.684   2.763   0.166 -0.4342 -0.2324 -0.3872
  545TMC3     C 8142   0.593   3.168   0.125  0.0703  0.2062  0.6302
  545TMC3     O 8143   0.587   3.221   0.015 -0.0996 -0.0046  0.3795
  545TMC3     H 8144   0.790   3.057   0.283 -0.1802 -1.0047  0.8939
  545TMC3    H1 8145   0.501   2.977  17.741 -2.0705 -2.5129  1.1829
  545TMC3    H2 8146   0.716   2.660   0.173 -0.4563 -0.0956  1.6733
  545TMC3    C7 8147   0.480   2.714   0.043  0.2747  0.4120  0.6129
  545TMC3    C8 8148   0.834   2.800   0.350  0.2179  0.1191 -0.2225
  545TMC3    O1 8149   0.392   2.761  17.735  0.0187  0.5206 -0.1275
  545TMC3    O2 8150   0.796   2.692   0.381 -0.2899 -0.1268 -0.0374
  546MPD2     C 8151   2.247   3.741  17.636  1.1418 -0.0170 -0.6444
  546MPD2    C1 8152   2.225   3.776  17.504 -0.1884 -0.4019  0.2974
  546MPD2    C2 8153   2.298   3.888  17.452 -0.5196  0.1654 -0.1378
  546MPD2    C3 8154   2.395   3.946  17.527  0.0195  0.0600  0.1711
  546MPD2    C4 8155   2.412   3.906  17.659 -0.3720  0.4499  0.3481
  546MPD2    C5 8156   2.336   3.807  17.716  0.1861 -0.5684 -0.6963
  546MPD2     H 8157   2.269   3.927  17.355  0.5889 -2.5631 -1.5669
  546MPD2    H1 8158   2.488   3.951  17.723 -0.8961 -0.7909  1.8264
  546MPD2    H2 8159   2.185   3.668  17.686  1.0445  2.2066  2.4390
  546MPD2    H3 8160   2.359   3.777   0.060 -3.1802 -2.3256 -0.4410
  546MPD2     N 8161   2.466   4.061  17.495  0.7782 -0.3783  0.0660
  546MPD2    H5 8162   2.537   4.099  17.556 -0.2329  1.4724  0.0978
  546MPD2    N1 8163   2.120   3.714  17.434  0.3646 -0.0741  0.0030
  546MPD2    H7 8164   2.080   3.634  17.482 -0.6456  0.4681  0.0684
  547TMC3    C1 8165   1.953   3.663  17.266  0.1243  0.5531 -0.5162
  547TMC3    C2 8166   1.864   3.722  17.179 -0.0918  0.9814  0.2083
  547TMC3    C3 8167   1.743   3.663  17.161  0.3414 -0.7779 -1.3226
  547TMC3    C4 8168   1.927   3.552  17.341 -0.3211  0.3781 -0.3825
  547TMC3    C5 8169   1.809   3.494  17.304 -0.0115 -0.4729 -0.4728
  547TMC3    C6 8170   1.715   3.547  17.219  0.0429 -0.0133 -0.2556
  547TMC3     C 8171   2.064   3.750  17.312 -0.5869  0.0316  0.4455
  547TMC3     O 8172   2.093   3.843  17.240  0.0526  0.1389  0.1174
  547TMC3     H 8173   1.889   3.813  17.126  0.2995  0.7223 -0.0547
  547TMC3    H1 8174   2.001   3.497  17.397 -2.9079 -3.4748 -0.7370
  547TMC3    H2 8175   1.622   3.499  17.189  1.1109 -1.6878 -0.8930
  547TMC3    C7 8176   1.784   3.361  17.349  0.3064 -0.3967 -0.0327
  547TMC3    C8 8177   1.654   3.715  17.055  0.1866  0.5300 -0.0419
  547TMC3    O1 8178   1.845   3.320  17.445  0.2869  0.1669 -0.0593
  547TMC3    O2 8179   1.590   3.630  16.999 -0.0573 -0.0290  0.0227
  548MPD2     C 8180   2.609   4.250  12.952 -0.1433  0.3780  0.2402
  548MPD2    C1 8181   2.527   4.141  12.925 -0.4676  0.2568 -0.3347
  548MPD2    C2 8182   2.580   4.015  12.900  0.1170  0.0358 -0.3953
  548MPD2    C3 8183   2.713   3.993  12.917  0.3329  0.1836 -0.4498
  548MPD2    C4 8184   2.802   4.097  12.952 -0.0183  0.4673  0.1666
  548MPD2    C5 8185   2.747   4.223  12.966  0.0574 -0.2446 -0.0218
  548MPD2     H 8186   2.517   3.934  12.866 -0.3238 -0.5287  1.7879
  548MPD2    H1 8187   2.911   4.090  12.953 -0.0464 -0.0621 -0.4838
  548MPD2    H2 8188   2.569   4.350  12.965  0.8310  0.7228  0.5959
  548MPD2    H3 8189   2.814   4.305  12.990  0.3829 -0.6856  0.5682
  548MPD2     N 8190   2.746   3.856  12.896 -0.5352  0.5776 -0.0798
  548MPD2    H5 8191   2.664   3.799  12.878 -0.4988  1.1625 -2.0911
  548MPD2    N1 8192   2.383   4.172  12.905  0.3306  0.1579 -0.6945
  548MPD2    H7 8193   2.346   4.265  12.923 -0.5686 -0.1932 -0.7350
  549TMC3    C1 8194   2.156   4.129  12.874  0.2384  0.4315 -0.0717
  549TMC3    C2 8195   2.137   4.257  12.827 -0.6342  0.1973 -0.1264
  549TMC3    C3 8196   2.008   4.290  12.801 -0.1952 -0.3496  0.4633
  549TMC3    C4 8197   2.051   4.041  12.897  0.3369  0.2204 -0.5921
  549TMC3    C5 8198   1.920   4.077  12.864 -0.0693 -0.5477 -0.5861
  549TMC3    C6 8199   1.900   4.203  12.825 -1.5763 -0.5914  0.0278
  549TMC3     C 8200   2.289   4.075  12.868 -0.6498 -0.0336  0.2525
  549TMC3     O 8201   2.293   3.955  12.869  0.8040 -0.0166  0.4750
  549TMC3     H 8202   2.219   4.312  12.782 -1.4137  2.3225  1.0621
  549TMC3    H1 8203   2.068   3.945  12.944 -0.7368  0.3379  0.0383
  549TMC3    H2 8204   1.796   4.233  12.819 -1.0330  1.2890 -0.1736
  549TMC3    C7 8205   1.805   3.990  12.890 -0.4793  0.2396 -0.1183
  549TMC3    C8 8206   1.967   4.425  12.779 -0.1575 -0.4735 -0.4146
  549TMC3    O1 8207   1.699   4.042  12.896 -0.1135 -0.2797  0.3466
  549TMC3    O2 8208   1.848   4.437  12.791  0.0357  0.3484 -0.3408
  550TMC3    C1 8209   0.886   2.120  12.436  0.3823  0.8012  0.1030
  550TMC3    C2 8210   0.906   2.186  12.552 -0.0524 -0.6968  0.3141
  550TMC3    C3 8211   0.919   2.319  12.545 -0.7559 -0.1714  0.0186
  550TMC3    C4 8212   0.890   2.181  12.313  0.7087  0.0213 -0.0574
  550TMC3    C5 8213   0.892   2.319  12.308 -0.2351 -0.2468  0.0480
  550TMC3    C6 8214   0.898   2.389  12.427 -0.2140  0.5645 -0.2045
  550TMC3     C 8215   0.891   1.972  12.441  0.3022 -0.2675  0.2702
  550TMC3     O 8216   0.861   1.922  12.546  0.0396  0.0510  0.3297
  550TMC3     H 8217   0.928   2.142  12.649 -0.0409  0.3668  0.8006
  550TMC3    H1 8218   0.874   2.119  12.226 -0.6726  0.1949  0.0747
  550TMC3    H2 8219   0.894   2.497  12.431 -0.2168  0.5966 -1.0428
  550TMC3    C7 8220   0.794   2.380  12.220  0.0950  0.0205  0.3642
  550TMC3    C8 8221   0.929   2.392  12.671 -0.4668  1.0873 -0.9472
  550TMC3    O1 8222   0.718   2.457  12.285 -0.1834  0.4580 -0.2524
  550TMC3    O2 8223   0.970   2.505  12.666 -0.4140 -0.1615  0.4137
  551TMC3    C1 8224   3.311   4.725  13.367  0.2904 -0.0758 -0.6964
  551TMC3    C2 8225   3.435   4.682  13.392  0.0521 -0.1309  0.1539
  551TMC3    C3 8226   3.524   0.022  13.457 -0.4964 -0.1105  0.4431
  551TMC3    C4 8227   3.267   0.112  13.405  0.3865  0.9582  0.4633
  551TMC3    C5 8228   3.361   0.185  13.469  0.3194 -0.1437 -0.3100
  551TMC3    C6 8229   3.490   0.146  13.502 -0.4370  0.0471 -0.3651
  551TMC3     C 8230   3.237   4.673  13.258  0.1058 -0.1717  0.1030
  551TMC3     O 8231   3.125   4.717  13.241 -0.8355  0.0178 -0.1822
  551TMC3     H 8232   3.459   4.584  13.353  1.2100  0.2660 -0.1340
  551TMC3    H1 8233   3.170   0.147  13.374  0.6618  0.3237 -1.1202
  551TMC3    H2 8234   3.561   0.221  13.533 -1.7350  1.1547 -0.0735
  551TMC3    C7 8235   3.303   0.294  13.541 -0.5761  0.1010 -0.0369
  551TMC3    C8 8236   3.655   0.006  13.395  0.1003  0.4717  0.3754
  551TMC3    O1 8237   3.233   0.375  13.479 -0.1343  0.1705 -0.4508
  551TMC3    O2 8238   3.671   4.647  13.321 -0.0593  0.8919  0.5716
  552MPD2     C 8239   0.390   2.173  14.281 -0.2865  0.7996 -0.1852
  552MPD2    C1 8240   0.360   2.066  14.366  0.2184 -0.6967 -0.6021
  552MPD2    C2 8241   0.470   1.990  14.418 -0.3395 -0.2739  0.1488
  552MPD2    C3 8242   0.594   2.010  14.373  0.5088  0.0014  0.0877
  552MPD2    C4 8243   0.619   2.115  14.282  0.2975  0.6064  0.0131
  552MPD2    C5 8244   0.515   2.188  14.231  0.8072 -0.6710  0.4225
  552MPD2     H 8245   0.448   1.911  14.489 -1.3899  1.7176  2.0570
  552MPD2    H1 8246   0.725   2.134  14.266  1.2281 -3.7900  0.8105
  552MPD2    H2 8247   0.314   2.233  14.231  1.1891  2.2172 -0.7417
  552MPD2    H3 8248   0.521   2.270  14.160  0.3692  0.3225  1.5299
  552MPD2     N 8249   0.705   1.951  14.435  0.1322 -0.1228  0.3520
  552MPD2    H5 8250   0.795   1.965  14.389 -0.0904  3.4291  1.0008
  552MPD2    N1 8251   0.233   2.031  14.408  0.6352  0.2786  0.0678
  552MPD2    H7 8252   0.227   1.936  14.444 -0.7009 -0.7877 -2.9517
  553TMC3    C1 8253   4.736   2.031  14.411 -0.8602  0.2953  0.2881
  553TMC3    C2 8254   4.637   2.055  14.319  0.4297 -0.1192 -0.8619
  553TMC3    C3 8255   4.569   1.946  14.267 -0.7426 -1.0391  0.3865
  553TMC3    C4 8256   0.024   1.904  14.458  0.4509  0.0662  0.3340
  553TMC3    C5 8257   4.707   1.797  14.395 -0.0576 -0.1820 -0.6346
  553TMC3    C6 8258   4.602   1.820  14.304  0.2501  0.5412  0.1682
  553TMC3     C 8259   0.119   2.107  14.392  0.2669 -0.6067  0.0524
  553TMC3     O 8260   0.100   2.218  14.339  0.2667  0.2555 -0.2976
  553TMC3     H 8261   4.629   2.151  14.269  0.8224 -1.2581 -3.1169
  553TMC3    H1 8262   0.108   1.893  14.524 -1.5859 -0.5939  2.8297
  553TMC3    H2 8263   4.560   1.730  14.260  1.3601  0.0006  0.2268
  553TMC3    C7 8264   0.058   1.708  14.336  0.0503 -0.0862 -0.6944
  553TMC3    C8 8265   4.572   1.974  14.126 -0.1285 -0.8537  0.3476
  553TMC3    O1 8266   0.031   1.689  14.216  0.0498  0.0250  0.0926
  553TMC3    O2 8267   4.511   2.068  14.077  0.6559  0.2053 -0.2124
  554TMC3    C1 8268   2.754   1.201  10.934  0.0504  0.4393  0.9248
  554TMC3    C2 8269   2.718   1.084  10.873 -0.7917  0.4027 -0.1599
  554TMC3    C3 8270   2.703   1.090  10.731 -0.8476 -0.7302 -0.2271
  554TMC3    C4 8271   2.784   1.315  10.869  0.4480 -0.6109 -0.3171
  554TMC3    C5 8272   2.756   1.321  10.738  0.4310  0.2057 -0.0188
  554TMC3    C6 8273   2.714   1.207  10.668 -0.3278 -0.3136 -0.3986
  554TMC3     C 8274   2.747   1.213  11.081  0.8058 -0.5747  0.1310
  554TMC3     O 8275   2.790   1.316  11.127  0.1760 -0.0394 -0.4615
  554TMC3     H 8276   2.694   0.994  10.928  0.1919  0.6539  0.6655
  554TMC3    H1 8277   2.832   1.398  10.919 -0.0041 -0.8239  0.4801
  554TMC3    H2 8278   2.696   1.216  10.561 -3.4265  0.7033  0.2225
  554TMC3    C7 8279   2.837   1.413  10.656  0.3076 -0.5259 -0.0865
  554TMC3    C8 8280   2.700   0.968  10.651 -1.0309  0.0847 -0.5096
  554TMC3    O1 8281   2.857   1.373  10.546 -0.2079  0.1475 -0.1615
  554TMC3    O2 8282   2.683   0.978  10.532 -0.4879  0.2181  0.2647
  555TMC3    C1 8283   1.202   0.921  15.565 -0.0395  0.4134 -0.5085
  555TMC3    C2 8284   1.251   0.932  15.690 -0.4556  0.1643  0.0754
  555TMC3    C3 8285   1.310   0.819  15.748 -0.2286 -0.4175 -0.5239
  555TMC3    C4 8286   1.210   0.806  15.490  0.8274 -0.4091 -0.5970
  555TMC3    C5 8287   1.250   0.695  15.555 -0.2016  0.6397 -0.2585
  555TMC3    C6 8288   1.301   0.699  15.682 -0.7761  0.8542 -0.6379
  555TMC3     C 8289   1.206   1.041  15.482  0.0867  0.3064  0.9178
  555TMC3     O 8290   1.285   1.128  15.516 -0.0132 -0.1158 -0.3231
  555TMC3     H 8291   1.252   1.032  15.731 -1.5504  0.3281 -0.3085
  555TMC3    H1 8292   1.172   0.804  15.388  1.6054 -0.3807 -0.8905
  555TMC3    H2 8293   1.338   0.606  15.725 -0.8984  1.2738  0.3699
  555TMC3    C7 8294   1.214   0.569  15.502 -0.3070 -0.2661  0.7026
  555TMC3    C8 8295   1.324   0.838  15.894  0.5759  0.0785  0.5737
  555TMC3    O1 8296   1.196   0.481  15.588 -0.2449  0.1753 -0.2351
  555TMC3    O2 8297   1.307   0.954  15.933 -0.5357 -0.0112  0.3025
  556MPD2     C 8298   0.156   2.073  10.719 -0.1488  0.5370  0.2679
  556MPD2    C1 8299   0.113   1.970  10.796  0.1474  0.0619  0.5320
  556MPD2    C2 8300   0.146   1.841  10.755 -0.9315  0.2104 -0.4439
  556MPD2    C3 8301   0.203   1.817  10.635  0.4838 -0.0596 -0.5191
  556MPD2    C4 8302   0.252   1.927  10.563  0.3860 -0.2121 -0.3418
  556MPD2    C5 8303   0.226   2.050  10.604 -0.1918 -0.3511  0.3200
  556MPD2     H 8304   0.129   1.756  10.822 -0.8460 -0.8335 -1.7522
  556MPD2    H1 8305   0.306   1.919  10.470 -0.4680 -0.8016 -0.7822
  556MPD2    H2 8306   0.141   2.177  10.744 -1.2433  0.1950  0.9847
  556MPD2    H3 8307   0.256   2.139  10.549 -1.1877  0.0959  0.5034
  556MPD2     N 8308   0.197   1.684  10.595 -0.3768 -0.2623  0.3876
  556MPD2    H5 8309   0.163   1.613  10.660 -2.1545  0.4370  0.1986
  556MPD2    N1 8310   0.045   2.001  10.913  0.0348  0.1068  0.5766
  556MPD2    H7 8311   0.034   2.098  10.941  2.5808  0.1445  1.4253
  557TMC3    C1 8312   0.209   1.493  10.449  0.1522 -0.1175  0.1509
  557TMC3    C2 8313   0.206   1.447  10.318 -0.8844  0.1195 -0.1735
  557TMC3    C3 8314   0.142   1.335  10.288  0.2298  0.7990 -0.5631
  557TMC3    C4 8315   0.141   1.426  10.546 -0.2171  0.4630 -0.6061
  557TMC3    C5 8316   0.075   1.314  10.508 -0.0151  0.1125  0.2428
  557TMC3    C6 8317   0.078   1.269  10.385  0.3698  0.2179 -0.2376
  557TMC3     C 8318   0.225   1.639  10.466  0.5950  0.3651  0.8176
  557TMC3     O 8319   0.267   1.702  10.372  0.3428 -0.4306  0.3765
  557TMC3     H 8320   0.258   1.498  10.237 -2.9400  2.3411 -0.1089
  557TMC3    H1 8321   0.127   1.462  10.647 -2.5656 -1.5757 -0.2108
  557TMC3    H2 8322   0.019   1.182  10.360 -0.5362  1.2447 -1.6706
  557TMC3    C7 8323   4.730   1.244  10.596 -0.0430 -0.4431  0.3548
  557TMC3    C8 8324   0.156   1.280  10.151  0.1858 -0.3089 -1.0387
  557TMC3    O1 8325   4.617   1.230  10.551 -0.2605  0.0126  0.0854
  557TMC3    O2 8326   0.145   1.364  10.063 -0.2825  0.3506  0.4316
  558TMC3    C1 8327   2.337   4.146  10.231 -0.1600 -0.3630 -0.5999
  558TMC3    C2 8328   2.253   4.098  10.330  0.8660  0.3586  0.1459
  558TMC3    C3 8329   2.120   4.089  10.294  0.0624  0.3811  0.7425
  558TMC3    C4 8330   2.294   4.188  10.104  0.7672  0.3400 -0.8795
  558TMC3    C5 8331   2.161   4.177  10.079 -0.0708  0.1802  0.5355
  558TMC3    C6 8332   2.080   4.119  10.163  0.2177  0.0940 -0.5688
  558TMC3     C 8333   2.476   4.169  10.254 -0.5153  0.2229 -0.2229
  558TMC3     O 8334   2.502   4.181  10.371  0.0962  0.6768 -0.1151
  558TMC3     H 8335   2.292   4.072  10.428 -1.5035 -1.8182  0.5157
  558TMC3    H1 8336   2.352   4.264  10.052 -1.3504  1.9184 -0.9718
  558TMC3    H2 8337   1.978   4.101  10.130 -0.5217  3.9089 -0.3760
  558TMC3    C7 8338   2.126   4.192   9.943 -0.7997 -0.8643 -0.0620
  558TMC3    C8 8339   2.039   3.995  10.368 -0.1500 -0.4947  0.4448
  558TMC3    O1 8340   2.219   4.180   9.863 -0.2090 -0.0493  0.2439
  558TMC3    O2 8341   1.955   3.936  10.299 -0.0071  0.7166  0.1329
  559MPD2     C 8342   2.273   0.104  10.384 -0.0868 -0.5914 -0.4534
  559MPD2    C1 8343   2.205   0.045  10.485  0.6718 -0.3029  0.5278
  559MPD2    C2 8344   2.273   0.031  10.607 -0.3639  0.4256  0.2776
  559MPD2    C3 8345   2.402   0.066  10.628  0.3225 -0.7823 -0.4212
  559MPD2    C4 8346   2.477   0.110  10.519  0.2840 -0.4664  0.2247
  559MPD2    C5 8347   2.409   0.116  10.398  0.3256 -0.8212  0.4597
  559MPD2     H 8348   2.217   0.006  10.696 -1.8036 -1.2225 -1.1132
  559MPD2    H1 8349   2.583   0.131  10.529 -0.0113  0.7496  0.7420
  559MPD2    H2 8350   2.231   0.126  10.286 -1.3125  0.7107  0.3741
  559MPD2    H3 8351   2.462   0.150  10.310 -1.8606 -2.5583 -1.5363
  559MPD2     N 8352   2.452   0.050  10.758 -0.6416 -0.7619  0.1150
  559MPD2    H5 8353   2.395   0.011  10.833 -1.5947  1.9254  0.8137
  559MPD2    N1 8354   2.061   0.030  10.471 -0.7573  0.2928 -0.3346
  559MPD2    H7 8355   2.024   0.060  10.381  2.2232 -0.7712 -1.8925
  560TMC3    C1 8356   2.611   0.060  10.932  0.1316 -0.6029  0.4648
  560TMC3    C2 8357   2.538   4.705  10.992 -0.1526  0.1050 -0.0864
  560TMC3    C3 8358   2.518   4.707  11.130 -0.1467  0.0477 -0.5417
  560TMC3    C4 8359   2.677   0.164  10.999  0.5872  0.5094 -0.1923
  560TMC3    C5 8360   2.656   0.167  11.133  0.4795  0.3411 -0.3105
  560TMC3    C6 8361   2.570   0.075  11.204  0.2955  0.0252 -0.4662
  560TMC3     C 8362   2.574   0.097  10.796  1.0669 -0.2307 -0.2953
  560TMC3     O 8363   2.644   0.180  10.742 -0.2608  0.3833 -0.4427
  560TMC3     H 8364   2.497   4.625  10.932 -0.0057  0.8470 -1.1774
  560TMC3    H1 8365   2.719   0.249  10.946 -0.6472 -0.0154 -2.0196
  560TMC3    H2 8366   2.548   0.089  11.309 -2.5643 -3.3324 -0.6041
  560TMC3    C7 8367   2.680   0.288  11.207  0.0117  0.2336 -0.3930
  560TMC3    C8 8368   2.454   4.599  11.196 -0.2526 -0.1454 -0.4129
  560TMC3    O1 8369   2.604   0.318  11.296 -0.3560  0.0682 -0.1412
  560TMC3    O2 8370   2.389   4.528  11.118 -0.5928 -0.2374 -0.1481
  561TMC3    C1 8371   0.141   4.119  11.623 -0.9674 -0.1184  0.1811
  561TMC3    C2 8372   0.088   4.069  11.743  0.0973  0.5813  0.5148
  561TMC3    C3 8373   0.033   4.149  11.835 -0.1017  0.0795  0.2140
  561TMC3    C4 8374   0.139   4.249  11.598  0.4003 -0.1164 -0.7708
  561TMC3    C5 8375   0.090   4.329  11.707  0.0833  0.0476  0.4051
  561TMC3    C6 8376   0.037   4.285  11.822 -0.4069 -0.7645  0.3834
  561TMC3     C 8377   0.191   4.024  11.525 -0.5172  0.1044 -0.0589
  561TMC3     O 8378   0.220   3.913  11.558  0.3741  0.6393  0.6626
  561TMC3     H 8379   0.086   3.964  11.769 -2.5613  0.8133  1.2333
  561TMC3    H1 8380   0.206   4.292  11.525 -0.2022  0.4926 -0.9661
  561TMC3    H2 8381   0.007   4.358  11.895  1.4566  2.5560 -2.1955
  561TMC3    C7 8382   0.101   4.472  11.706 -0.7533  0.1030  0.0933
  561TMC3    C8 8383   4.732   4.084  11.967  0.3335 -0.1977  0.1013
  561TMC3    O1 8384   0.030   4.539  11.772  0.7815 -0.2000 -0.1901
  561TMC3    O2 8385   0.043   3.976  11.995 -0.0734 -0.5692 -0.9205
  562TMC3    C1 8386   1.153   0.418  16.402  0.0389  0.3678  0.4784
  562TMC3    C2 8387   1.070   0.530  16.407 -0.6554  0.6650 -0.4332
  562TMC3    C3 8388   1.044   0.590  16.290  0.0398  0.5444  0.1876
  562TMC3    C4 8389   1.176   0.346  16.284  0.0037 -0.4454 -0.2730
  562TMC3    C5 8390   1.152   0.420  16.172  0.1843 -0.3810 -0.3275
  562TMC3    C6 8391   1.077   0.537  16.165 -0.2706 -0.6443  0.3930
  562TMC3     C 8392   1.181   0.349  16.528  0.0421  0.0483  0.8123
  562TMC3     O 8393   1.244   0.246  16.510  0.4476 -0.0890 -0.3993
  562TMC3     H 8394   1.063   0.596  16.493 -0.6027 -0.3421  0.3389
  562TMC3    H1 8395   1.237   0.257  16.278  0.2368 -0.3529  0.7567
  562TMC3    H2 8396   1.043   0.591  16.077  0.0224  2.4527  2.1864
  562TMC3    C7 8397   1.150   0.344  16.049  0.1319 -0.1107 -0.2368
  562TMC3    C8 8398   0.948   0.703  16.293 -0.5198  0.6168  0.8600
  562TMC3    O1 8399   1.159   0.410  15.948  0.1074  0.0092  0.0563
  562TMC3    O2 8400   0.888   0.704  16.398 -0.6113  0.4091  0.1693
  563MPD2     C 8401   3.318   2.295  15.394  0.2961  0.8929 -0.2197
  563MPD2    C1 8402   3.329   2.323  15.528  0.0851  0.8604 -0.2992
  563MPD2    C2 8403   3.448   2.316  15.585 -0.4790  0.2201 -0.9469
  563MPD2    C3 8404   3.561   2.274  15.513 -0.3858 -0.3046  0.6277
  563MPD2    C4 8405   3.552   2.267  15.378 -0.1421  0.9191 -0.2542
  563MPD2    C5 8406   3.426   2.265  15.317  0.0079  0.2312 -0.6867
  563MPD2     H 8407   3.449   2.323  15.693 -1.2380 -0.2233 -0.9156
  563MPD2    H1 8408   3.637   2.241  15.316 -0.6505  0.9576 -0.9681
  563MPD2    H2 8409   3.222   2.301  15.345 -0.3365 -1.4515  0.7088
  563MPD2    H3 8410   3.417   2.250  15.210 -0.0153 -1.5637 -0.4409
  563MPD2     N 8411   3.684   2.239  15.577  0.5961 -0.1223  0.0795
  563MPD2    H5 8412   3.682   2.222  15.677 -0.1044 -0.8529 -0.0553
  563MPD2    N1 8413   3.214   2.351  15.603  0.1004 -0.8487 -0.5394
  563MPD2    H7 8414   3.128   2.327  15.553  0.9730 -0.0985 -2.3852
  564TMC3    C1 8415   3.062   2.445  15.768  0.4585  0.1172  0.7323
  564TMC3    C2 8416   2.991   2.326  15.759 -0.5039 -0.1203 -0.9167
  564TMC3    C3 8417   2.875   2.320  15.832 -0.4254 -0.0415 -0.0364
  564TMC3    C4 8418   3.032   2.550  15.858 -0.6929 -0.1964  0.1196
  564TMC3    C5 8419   2.927   2.527  15.941 -0.7760 -0.4403  0.8626
  564TMC3    C6 8420   2.841   2.424  15.914 -0.0262 -0.1994 -0.0875
  564TMC3     C 8421   3.198   2.435  15.710 -0.0972 -0.3943 -0.8587
  564TMC3     O 8422   3.284   2.497  15.769  0.1538  0.1244  0.5984
  564TMC3     H 8423   3.032   2.233  15.721 -1.5605 -1.5987  1.5712
  564TMC3    H1 8424   3.100   2.633  15.871 -3.7271  2.6573 -2.3315
  564TMC3    H2 8425   2.753   2.410  15.976 -1.9752  1.4544 -2.4357
  564TMC3    C7 8426   2.991   2.508  16.076 -0.0275  0.2462  0.5077
  564TMC3    C8 8427   2.856   2.187  15.892 -0.1342 -0.0941 -0.5865
  564TMC3    O1 8428   3.100   2.564  16.086  0.5347  0.1345  0.4476
  564TMC3    O2 8429   2.740   2.178  15.931 -0.1953  0.2151 -0.8076
  565TMC3    C1 8430   4.716   3.754  10.266  0.0837  0.0199 -1.2862
  565TMC3    C2 8431   4.610   3.671  10.288 -0.3789  1.2867  0.3103
  565TMC3    C3 8432   4.498   3.690  10.207 -0.5953  0.1036 -0.2138
  565TMC3    C4 8433   4.724   3.846  10.174 -0.2824  0.0082  0.2123
  565TMC3    C5 8434   4.605   3.865  10.098  0.4420  0.4934 -0.4604
  565TMC3    C6 8435   4.494   3.785  10.108 -0.4601  0.1396 -0.3150
  565TMC3     C 8436   0.060   3.775  10.382  0.2003  0.1158  0.3695
  565TMC3     O 8437   0.178   3.800  10.363  0.2788  0.3282 -0.2777
  565TMC3     H 8438   4.609   3.593  10.363  1.8552 -0.1811 -1.2060
  565TMC3    H1 8439   0.068   3.915  10.178 -0.3261  0.0943 -0.4326
  565TMC3    H2 8440   4.398   3.811  10.065 -0.0697  1.2715 -0.5029
  565TMC3    C7 8441   4.589   3.982  10.011  0.2516 -0.3308 -0.1305
  565TMC3    C8 8442   4.389   3.591  10.209  0.9954 -0.2352  0.9818
  565TMC3    O1 8443   4.493   3.972   9.935  0.4586 -0.2093  0.7213
  565TMC3    O2 8444   4.391   3.497  10.290 -0.3258 -0.0060  0.4428
  566MPD2     C 8445   0.768   0.501  14.359 -0.3794 -0.2706  0.0055
  566MPD2    C1 8446   0.870   0.454  14.284  0.1999  0.4988 -0.3364
  566MPD2    C2 8447   0.847   0.399  14.162  0.0944 -0.0484 -0.4759
  566MPD2    C3 8448   0.717   0.385  14.117 -0.3033 -0.7784 -0.7657
  566MPD2    C4 8449   0.616   0.428  14.194  0.3627 -0.2623  0.0858
  566MPD2    C5 8450   0.637   0.489  14.317 -0.3045  0.4758  0.1868
  566MPD2     H 8451   0.925   0.368  14.095  0.1735 -2.1878  0.6252
  566MPD2    H1 8452   0.513   0.408  14.165  1.0158 -0.5748 -2.0334
  566MPD2    H2 8453   0.783   0.539  14.459  0.2334 -0.5144  0.0043
  566MPD2    H3 8454   0.550   0.510  14.379 -2.2026 -2.2557 -1.5504
  566MPD2     N 8455   0.697   0.352  13.980  0.1667 -0.7414 -0.2872
  566MPD2    H5 8456   0.764   0.299  13.925  1.6784  1.6899 -0.8006
  566MPD2    N1 8457   1.001   0.471  14.341 -0.2053  0.0771  0.0035
  566MPD2    H7 8458   1.010   0.520  14.429 -0.1163 -0.1712  0.1319
  567TMC3    C1 8459   1.237   0.449  14.369  0.2495 -0.4115  0.7599
  567TMC3    C2 8460   1.362   0.442  14.300 -0.0016  0.4979 -1.0035
  567TMC3    C3 8461   1.471   0.477  14.372 -0.4820  0.5010  0.2524
  567TMC3    C4 8462   1.222   0.493  14.501 -0.2709  0.1019  0.1994
  567TMC3    C5 8463   1.338   0.523  14.564  0.0955 -0.0753 -0.4461
  567TMC3    C6 8464   1.467   0.517  14.504 -0.7000  0.2201 -0.1411
  567TMC3     C 8465   1.122   0.414  14.293 -0.0103 -0.1250 -0.5006
  567TMC3     O 8466   1.135   0.345  14.192 -0.4417  0.1853  0.4820
  567TMC3     H 8467   1.373   0.383  14.210 -0.0001  0.0284 -0.6947
  567TMC3    H1 8468   1.126   0.493  14.552 -0.2468  1.3847  0.2551
  567TMC3    H2 8469   1.554   0.541  14.564  0.8682  1.4438 -2.9243
  567TMC3    C7 8470   1.334   0.603  14.687 -0.0824  0.5549  0.2351
  567TMC3    C8 8471   1.592   0.511  14.306 -0.1874  0.1208  0.5144
  567TMC3    O1 8472   1.432   0.639  14.749  0.0472 -0.1944  0.6422
  567TMC3    O2 8473   1.682   0.553  14.375  0.5292 -0.2313  0.7617
  568MPD2     C 8474   2.934   0.910  16.599  0.6656 -0.3125  0.7160
  568MPD2    C1 8475   2.993   1.030  16.579 -0.5539  0.1300  0.3421
  568MPD2    C2 8476   2.927   1.128  16.506  0.5960 -0.2835 -0.2183
  568MPD2    C3 8477   2.794   1.110  16.485  0.0166  0.3409 -0.3564
  568MPD2    C4 8478   2.726   1.000  16.530 -0.5805  0.2433 -0.4711
  568MPD2    C5 8479   2.798   0.899  16.583  0.6351 -0.3137 -0.1534
  568MPD2     H 8480   2.985   1.212  16.470 -0.5377 -0.0302 -1.4483
  568MPD2    H1 8481   2.624   0.978  16.499 -0.3615  0.8775 -1.6283
  568MPD2    H2 8482   2.991   0.831  16.648  0.1181  0.4900  2.6642
  568MPD2    H3 8483   2.747   0.804  16.594  0.9065 -0.5839 -1.1456
  568MPD2     N 8484   2.733   1.221  16.424  0.0806 -0.1528 -0.3180
  568MPD2    H5 8485   2.788   1.299  16.389 -1.8989  1.1208 -0.6432
  568MPD2    N1 8486   3.123   1.031  16.624  0.1599 -0.3534  0.4881
  568MPD2    H7 8487   3.159   0.940  16.652  1.3584  0.4776  1.6504
  569TMC3    C1 8488   2.563   1.364  16.346 -0.4137 -0.1539 -0.4186
  569TMC3    C2 8489   2.460   1.437  16.385 -0.5415 -0.2010 -0.2591
  569TMC3    C3 8490   2.450   1.567  16.335  0.0189 -0.4511 -0.1281
  569TMC3    C4 8491   2.656   1.402  16.253 -0.6169 -0.1644 -0.3489
  569TMC3    C5 8492   2.649   1.530  16.209  0.2595 -0.0360  0.1747
  569TMC3    C6 8493   2.549   1.613  16.250  0.3849  0.4561 -0.3584
  569TMC3     C 8494   2.596   1.241  16.416 -0.0955  0.4452 -0.2808
  569TMC3     O 8495   2.512   1.181  16.473 -0.7035 -0.0919  0.2290
  569TMC3     H 8496   2.407   1.400  16.472 -0.2214 -0.3220 -0.1201
  569TMC3    H1 8497   2.733   1.333  16.219 -1.4523 -2.6018  2.6448
  569TMC3    H2 8498   2.555   1.719  16.232 -3.5246  0.8433  0.6254
  569TMC3    C7 8499   2.777   1.590  16.175 -0.1200  0.2376  1.6003
  569TMC3    C8 8500   2.380   1.658  16.421  0.4094  0.5257 -0.0710
  569TMC3    O1 8501   2.872   1.513  16.169 -0.2973  0.0909  0.7304
  569TMC3    O2 8502   2.260   1.641  16.435 -0.4825 -0.4284 -0.2005
  570TMC3    C1 8503   2.348   4.549  16.551  0.9892 -0.1718 -0.0720
  570TMC3    C2 8504   2.424   4.592  16.445 -0.3926 -0.2732 -0.1861
  570TMC3    C3 8505   2.480   4.715  16.447 -0.2599  0.4322 -0.7707
  570TMC3    C4 8506   2.318   4.631  16.654  0.4090 -0.4319  0.4634
  570TMC3    C5 8507   2.363   0.020  16.652 -0.1222 -0.7668  0.6629
  570TMC3    C6 8508   2.452   0.064  16.553  0.0493 -0.7851 -0.2872
  570TMC3     C 8509   2.313   4.408  16.552 -0.6694 -0.8263  0.0902
  570TMC3     O 8510   2.285   4.361  16.444  0.1615 -0.2920  0.6646
  570TMC3     H 8511   2.464   4.508  16.389  1.6022  1.7943 -1.8279
  570TMC3    H1 8512   2.252   4.595  16.731  0.4994 -2.8025 -0.5731
  570TMC3    H2 8513   2.493   0.164  16.556 -3.4256  0.7643 -4.2842
  570TMC3    C7 8514   2.314   0.122  16.740 -0.3492 -0.9232 -0.3454
  570TMC3    C8 8515   2.583   0.015  16.354  0.4008  0.3513  0.3022
  570TMC3    O1 8516   2.393   0.211  16.764 -1.0263  0.1944 -0.3945
  570TMC3    O2 8517   2.643   0.123  16.359 -0.5769  0.2356 -0.0130
  571MPD2     C 8518   4.434   1.767   0.292 -0.0012 -0.4362  0.2717
  571MPD2    C1 8519   4.444   1.721   0.423  0.1160 -0.6044 -0.2022
  571MPD2    C2 8520   4.517   1.795   0.511 -0.7376  0.0270 -0.3617
  571MPD2    C3 8521   4.572   1.916   0.479 -0.7895 -0.1101  0.4451
  571MPD2    C4 8522   4.559   1.964   0.353  0.6691  0.4701 -0.0758
  571MPD2    C5 8523   4.482   1.893   0.263  0.2362  0.6047  0.3264
  571MPD2     H 8524   4.528   1.761   0.614  0.7470 -1.3135 -0.9661
  571MPD2    H1 8525   4.608   2.055   0.320 -1.8201  1.2170 -1.6564
  571MPD2    H2 8526   4.385   1.712   0.213 -0.1155  0.1165 -0.0364
  571MPD2    H3 8527   4.476   1.914   0.157 -2.1382  0.5671  0.4437
  571MPD2     N 8528   4.649   2.000   0.568 -0.6074 -0.0683 -0.6571
  571MPD2    H5 8529   4.695   2.078   0.524  1.0227  0.2147  1.5518
  571MPD2    N1 8530   4.376   1.603   0.465  0.2263 -0.4687 -0.2258
  571MPD2    H7 8531   4.330   1.547   0.394 -0.9639  1.9929 -1.3960
  572TMC3    C1 8532   0.042   2.064   0.756  0.3287  0.2595  0.2978
  572TMC3    C2 8533   0.134   2.011   0.844 -0.0938  0.1228 -0.4908
  572TMC3    C3 8534   0.222   2.098   0.906 -0.8183 -0.8241  0.8726
  572TMC3    C4 8535   0.066   2.183   0.697  0.0963 -0.1958  0.0151
  572TMC3    C5 8536   0.153   2.266   0.761  0.8233 -0.4892  0.2821
  572TMC3    C6 8537   0.235   2.221   0.862  0.0048  0.3061  0.1140
  572TMC3     C 8538   4.678   1.977   0.702  0.9640 -0.0834  0.4146
  572TMC3     O 8539   4.638   1.887   0.779  0.1113  0.0115  0.0369
  572TMC3     H 8540   0.117   1.913   0.888 -0.4006  0.0393 -0.7950
  572TMC3    H1 8541   4.739   2.220   0.620 -0.8679 -1.0704  0.4482
  572TMC3    H2 8542   0.301   2.285   0.920 -3.1321  2.7392  1.0094
  572TMC3    C7 8543   0.181   2.388   0.693 -0.2497 -0.5966  0.5936
  572TMC3    C8 8544   0.342   2.048   0.967 -0.4376  0.1829 -0.3536
  572TMC3    O1 8545   0.086   2.451   0.654 -0.1851  0.2603  0.2264
  572TMC3    O2 8546   0.444   2.106   0.931  0.5808 -0.1628  0.1216
  573MPD2     C 8547   1.029   1.805   0.721 -0.3741 -0.8797 -0.1424
  573MPD2    C1 8548   0.968   1.923   0.774  0.0037  0.5721 -0.3435
  573MPD2    C2 8549   0.837   1.938   0.754 -0.6406 -0.1693 -0.1660
  573MPD2    C3 8550   0.771   1.836   0.677  0.7020 -0.0455 -0.0945
  573MPD2    C4 8551   0.834   1.721   0.627  0.3404  0.2362 -0.4434
  573MPD2    C5 8552   0.962   1.704   0.656 -0.1138 -0.3893 -0.1751
  573MPD2     H 8553   0.792   2.031   0.789 -3.0242 -1.0873 -0.7983
  573MPD2    H1 8554   0.781   1.660   0.555  2.4663 -2.2726  0.1391
  573MPD2    H2 8555   1.134   1.781   0.732 -0.0097  0.6485 -0.2539
  573MPD2    H3 8556   1.016   1.616   0.621 -1.7654 -0.4873 -2.5219
  573MPD2     N 8557   0.637   1.851   0.649  0.1442 -0.0369 -0.3921
  573MPD2    H5 8558   0.594   1.766   0.613  1.1131 -0.3078 -0.9212
  573MPD2    N1 8559   1.045   2.008   0.853 -0.0500 -0.3232 -0.2670
  573MPD2    H7 8560   1.131   1.966   0.888 -1.0721 -2.8653 -0.8137
  574TMC3    C1 8561   0.428   1.946   0.624 -0.6932  0.6257 -0.2085
  574TMC3    C2 8562   0.374   2.058   0.566  0.0964  0.2514 -0.0455
  574TMC3    C3 8563   0.266   2.036   0.483 -0.1545  0.3047  0.3273
  574TMC3    C4 8564   0.361   1.830   0.635  0.8915  0.2384  0.0198
  574TMC3    C5 8565   0.242   1.822   0.563  0.1976 -0.2852 -0.0155
  574TMC3    C6 8566   0.201   1.917   0.475 -0.1074 -0.4706  0.2788
  574TMC3     C 8567   0.564   1.966   0.657  0.0210  0.0546 -0.0408
  574TMC3     O 8568   0.610   2.078   0.660 -0.0077 -0.4976 -0.4942
  574TMC3     H 8569   0.415   2.158   0.567 -0.9306  0.6686  1.2420
  574TMC3    H1 8570   0.401   1.742   0.684  0.9554  1.0144  1.3443
  574TMC3    H2 8571   0.111   1.903   0.416 -1.4040  0.3521  2.0544
  574TMC3    C7 8572   0.154   1.712   0.604 -1.2000  1.0311 -0.0856
  574TMC3    C8 8573   0.204   2.139   0.403  0.6976  0.2167 -0.0888
  574TMC3    O1 8574   0.188   1.659   0.706 -0.0356 -0.4741 -0.0230
  574TMC3    O2 8575   0.078   2.139   0.388  0.5127 -0.9194  0.5568
  575TMC3    C1 8576   3.902   2.960  10.582  0.2389 -0.6807  0.2094
  575TMC3    C2 8577   3.900   2.852  10.501  0.4858  0.3051  0.1366
  575TMC3    C3 8578   3.899   2.878  10.365 -0.3451 -0.1867 -0.5359
  575TMC3    C4 8579   3.908   3.088  10.535 -0.1019 -0.5961 -0.0120
  575TMC3    C5 8580   3.916   3.107  10.396  0.6187  0.1929  0.0169
  575TMC3    C6 8581   3.908   3.004  10.309  0.0803 -0.6143 -0.1099
  575TMC3     C 8582   3.892   2.939  10.727  0.0101  0.2654 -0.2398
  575TMC3     O 8583   3.938   3.031  10.791  0.4857 -0.1092 -0.2863
  575TMC3     H 8584   3.892   2.749  10.536  1.3511  0.3391  0.4176
  575TMC3    H1 8585   3.918   3.174  10.601 -0.8247 -0.7780  0.3357
  575TMC3    H2 8586   3.905   3.012  10.201 -0.1693  0.1819 -0.0488
  575TMC3    C7 8587   3.995   3.210  10.348  0.7028  0.7497  0.3558
  575TMC3    C8 8588   3.929   2.770  10.273  0.1539  0.0386 -0.2996
  575TMC3    O1 8589   4.095   3.239  10.410  0.2387 -0.1311 -0.0301
  575TMC3    O2 8590   3.872   2.784  10.160  0.5723 -0.0871 -0.5420
  576MPD2     C 8591   3.586   4.559  12.781  0.0700  0.3390 -0.5183
  576MPD2    C1 8592   3.688   4.647  12.757  0.3876  0.3021  0.2165
  576MPD2    C2 8593   3.690   0.035  12.815 -0.0355  0.3555 -0.2367
  576MPD2    C3 8594   3.594   0.063  12.912 -0.0952  0.1554  0.0544
  576MPD2    C4 8595   3.491   4.711  12.931 -0.2519  1.2777  0.0134
  576MPD2    C5 8596   3.486   4.591  12.867 -0.1369  0.3449  0.7499
  576MPD2     H 8597   3.768   0.106  12.789 -0.1931  0.7310  0.3172
  576MPD2    H1 8598   3.416   4.729  13.007  1.1255 -0.0288  1.6835
  576MPD2    H2 8599   3.578   4.464  12.730  0.8011  0.3622 -0.6734
  576MPD2    H3 8600   3.403   4.525  12.891  0.7032 -1.2050 -0.6479
  576MPD2     N 8601   3.606   0.191  12.982  0.2885 -0.3466 -0.3618
  576MPD2    H5 8602   3.673   0.257  12.945 -0.4085  0.3155 -0.4542
  576MPD2    N1 8603   3.800   4.607  12.682  0.1758  0.1115 -0.3337
  576MPD2    H7 8604   3.872   4.679  12.690  0.4373 -0.1248 -0.5943
  577TMC3    C1 8605   3.938   4.494  12.529  0.1724  0.5912  0.3652
  577TMC3    C2 8606   4.011   4.379  12.526 -0.0793  0.4769 -0.2017
  577TMC3    C3 8607   4.128   4.385  12.451 -0.0007 -0.4186 -0.1980
  577TMC3    C4 8608   3.967   4.608  12.463  0.4902 -0.2394  0.6692
  577TMC3    C5 8609   4.090   4.606  12.399 -0.3698  0.2533 -0.5784
  577TMC3    C6 8610   4.181   4.501  12.400  0.2350 -0.3390 -0.0683
  577TMC3     C 8611   3.820   4.493  12.611 -0.2073 -0.3691 -0.1813
  577TMC3     O 8612   3.757   4.391  12.629 -0.0661 -0.8093 -0.3308
  577TMC3     H 8613   3.967   4.289  12.568  0.8717  0.4528  0.7597
  577TMC3    H1 8614   3.906   4.697  12.467  0.2404 -0.2963 -1.9260
  577TMC3    H2 8615   4.281   4.503  12.361 -0.2678 -1.9264 -1.4554
  577TMC3    C7 8616   4.139   4.738  12.340 -0.1952  0.3478 -0.3634
  577TMC3    C8 8617   4.175   4.255  12.405  0.3935  0.6781  0.0039
  577TMC3    O1 8618   4.254   0.001  12.321  0.0997 -0.6479  0.3913
  577TMC3    O2 8619   4.167   4.157  12.484  0.5174  0.0990  0.3066
  578MPD2     C 8620   1.101   0.104   1.249  0.1282 -0.1836  0.1477
  578MPD2    C1 8621   1.161   0.075   1.126 -0.2464  0.4490 -0.7309
  578MPD2    C2 8622   1.284   0.016   1.129 -0.3137  0.1351  0.0680
  578MPD2    C3 8623   1.350   4.724   1.248  0.3227 -0.0780  0.1247
  578MPD2    C4 8624   1.295   0.026   1.369 -0.4642 -0.1264 -0.6795
  578MPD2    C5 8625   1.171   0.086   1.370  0.5172  0.7534 -0.0634
  578MPD2     H 8626   1.325   4.727   1.033 -0.9487 -0.1756 -0.1042
  578MPD2    H1 8627   1.336   0.014   1.468  3.5521  0.0360 -2.3231
  578MPD2    H2 8628   0.999   0.139   1.255  0.1859 -0.3037  1.8314
  578MPD2    H3 8629   1.121   0.115   1.462  0.5563  1.7065 -0.3422
  578MPD2     N 8630   1.474   4.664   1.246  0.6711  0.3420 -0.2311
  578MPD2    H5 8631   1.519   4.660   1.336  0.0966  3.7831  0.2212
  578MPD2    N1 8632   1.091   0.113   1.004  0.1145  0.5603 -0.2429
  578MPD2    H7 8633   1.002   0.161   1.007  1.2015  2.4664  1.1641
  579TMC3    C1 8634   1.684   4.569   1.161 -0.3612 -0.6435 -0.5690
  579TMC3    C2 8635   1.750   4.632   1.255 -0.6458  0.6879 -0.2309
  579TMC3    C3 8636   1.889   4.623   1.251 -0.5857 -0.1974 -0.0284
  579TMC3    C4 8637   1.744   4.489   1.063 -0.6600  0.5981 -0.3842
  579TMC3    C5 8638   1.881   4.475   1.071  0.0890  0.3125  0.3068
  579TMC3    C6 8639   1.956   4.550   1.157  0.1774  0.4272  0.5570
  579TMC3     C 8640   1.541   4.607   1.142  0.6868 -0.2068  0.2307
  579TMC3     O 8641   1.495   4.582   1.030  0.7837  0.8856  0.5695
  579TMC3     H 8642   1.702   4.702   1.322 -0.7544  0.8332 -0.4613
  579TMC3    H1 8643   1.683   4.431   0.995  0.1686  0.1279 -0.7252
  579TMC3    H2 8644   2.059   4.524   1.177 -0.2634 -1.4064  0.4847
  579TMC3    C7 8645   1.955   4.367   1.003 -0.3459 -0.4065  0.5720
  579TMC3    C8 8646   1.963   4.701   1.345 -0.0875  0.3578 -0.0891
  579TMC3    O1 8647   2.077   4.363   1.011  0.4515  0.0445 -0.1440
  579TMC3    O2 8648   1.899   4.725   1.448 -0.2813  0.3707  0.1323
  580TMC3    C1 8649   2.554   4.016  12.551  0.1880  0.3711 -0.0356
  580TMC3    C2 8650   2.643   4.014  12.451 -0.1877  0.2852  0.2395
  580TMC3    C3 8651   2.661   3.906  12.376 -0.2425  0.3989 -0.4351
  580TMC3    C4 8652   2.472   3.909  12.577  0.0184  0.3235 -0.7780
  580TMC3    C5 8653   2.504   3.792  12.511 -0.6101  0.4099 -0.5454
  580TMC3    C6 8654   2.592   3.793  12.405  0.2263  0.4271 -0.3655
  580TMC3     C 8655   2.498   4.147  12.542 -0.1208  0.6234  0.0831
  580TMC3     O 8656   2.570   4.243  12.555 -0.2479 -0.4123  0.3941
  580TMC3     H 8657   2.684   4.109  12.417 -2.3586  0.2552 -2.3798
  580TMC3    H1 8658   2.392   3.918  12.649  1.1138  0.3547  0.4225
  580TMC3    H2 8659   2.616   3.703  12.350  0.7279 -0.4708  1.3466
  580TMC3    C7 8660   2.470   3.664  12.571  0.3328 -0.4936  0.0765
  580TMC3    C8 8661   2.704   3.924  12.235 -0.1875 -1.4435  0.3049
  580TMC3    O1 8662   2.382   3.669  12.655 -0.2248 -0.7117  0.0079
  580TMC3    O2 8663   2.640   3.850  12.163  0.0608  0.0194  0.7069
  581MPD2     C 8664   4.422   3.661  15.157  0.6648  0.1849 -0.1913
  581MPD2    C1 8665   4.323   3.562  15.174  1.2542 -0.1530  0.1293
  581MPD2    C2 8666   4.195   3.569  15.107 -0.4425  0.5478 -0.2485
  581MPD2    C3 8667   4.183   3.667  15.014  0.1220  0.1367 -0.4387
  581MPD2    C4 8668   4.291   3.754  14.979 -0.0392 -0.6361 -0.6453
  581MPD2    C5 8669   4.402   3.753  15.056 -0.5762 -0.2536 -0.8509
  581MPD2     H 8670   4.121   3.495  15.136  1.7600 -1.0778  1.2622
  581MPD2    H1 8671   4.285   3.815  14.889  0.1310 -0.5644 -0.6086
  581MPD2    H2 8672   4.518   3.667  15.207 -0.5976  2.3882  1.9527
  581MPD2    H3 8673   4.485   3.819  15.032  0.3829 -0.8113  0.9572
  581MPD2     N 8674   4.059   3.699  14.950  0.5927  0.2670 -0.2712
  581MPD2    H5 8675   4.044   3.780  14.891 -1.2453  1.2373  1.5302
  581MPD2    N1 8676   4.365   3.455  15.261 -0.5080 -0.4064  0.0010
  581MPD2    H7 8677   4.449   3.472  15.315  0.0297 -1.5366 -0.4674
  582TMC3    C1 8678   4.342   3.251  15.386  0.2595 -0.1376 -0.4383
  582TMC3    C2 8679   4.384   3.302  15.506  0.0847 -0.2786 -0.6753
  582TMC3    C3 8680   4.340   3.231  15.617 -0.7545 -0.6005  0.7801
  582TMC3    C4 8681   4.282   3.129  15.367 -0.0330 -0.5525  0.4203
  582TMC3    C5 8682   4.228   3.071  15.480  0.7661 -0.4380 -0.6716
  582TMC3    C6 8683   4.254   3.122  15.604 -0.4375  0.2026 -0.6734
  582TMC3     C 8684   4.301   3.335  15.273 -0.0033 -0.2377 -0.1863
  582TMC3     O 8685   4.188   3.312  15.231 -0.5886 -0.6591  0.7106
  582TMC3     H 8686   4.418   3.404  15.518  1.2473 -0.6931 -0.4140
  582TMC3    H1 8687   4.258   3.096  15.267  2.2798  1.6708 -0.8580
  582TMC3    H2 8688   4.209   3.081  15.695 -3.0034  1.5097 -1.3544
  582TMC3    C7 8689   4.086   3.030  15.482 -0.2420 -0.8594  0.4612
  582TMC3    C8 8690   4.347   3.287  15.756  0.0649  0.3545 -0.2188
  582TMC3    O1 8691   4.041   2.975  15.584 -0.2641 -0.0399  0.4292
  582TMC3    O2 8692   4.256   3.257  15.833 -0.3790 -0.7983  0.1528
  583MPD2     C 8693   4.034   0.425  16.843  0.4575 -0.6116 -0.1702
  583MPD2    C1 8694   3.980   0.524  16.763 -0.0742 -0.0879 -0.2721
  583MPD2    C2 8695   3.922   0.632  16.827  0.4208  0.5643  0.0330
  583MPD2    C3 8696   3.926   0.637  16.966  0.0635 -0.0547 -0.4229
  583MPD2    C4 8697   3.965   0.524  17.038  0.0240 -0.0182 -0.2807
  583MPD2    C5 8698   4.025   0.423  16.978 -0.0005 -0.0591  0.0545
  583MPD2     H 8699   3.898   0.721  16.770 -0.2737 -0.0219 -0.5966
  583MPD2    H1 8700   3.973   0.513  17.146 -1.6126 -2.6548 -0.4505
  583MPD2    H2 8701   4.082   0.340  16.797  1.0305 -0.0548 -0.5903
  583MPD2    H3 8702   4.075   0.353  17.044  0.2810 -0.9192 -1.0768
  583MPD2     N 8703   3.885   0.761  17.027 -0.0207 -0.3968  0.4385
  583MPD2    H5 8704   3.828   0.823  16.971  1.3476  0.5584  0.1016
  583MPD2    N1 8705   3.996   0.528  16.621  0.1062 -0.2056  0.0846
  583MPD2    H7 8706   3.966   0.614  16.577 -2.4878 -1.2960 -0.2643
  584TMC3    C1 8707   3.838   0.921  17.189  0.1981  0.5561 -0.9521
  584TMC3    C2 8708   3.783   0.999  17.089 -0.2325 -0.2651 -0.0854
  584TMC3    C3 8709   3.744   1.122  17.122  0.2880 -0.3817 -0.7454
  584TMC3    C4 8710   3.843   0.960  17.317 -0.0354 -0.1466 -0.1953
  584TMC3    C5 8711   3.800   1.086  17.351 -0.3551  0.3878  0.2529
  584TMC3    C6 8712   3.753   1.169  17.252  0.5579 -0.0390  0.4196
  584TMC3     C 8713   3.895   0.793  17.159  0.4929  0.3563 -0.1282
  584TMC3     O 8714   3.956   0.741  17.245  0.0498  0.5797  0.0266
  584TMC3     H 8715   3.757   0.961  16.991 -2.0763 -1.1919  0.7584
  584TMC3    H1 8716   3.865   0.889  17.396 -1.4284  1.3413  1.5412
  584TMC3    H2 8717   3.728   1.273  17.272 -2.4537 -0.8436  0.8333
  584TMC3    C7 8718   3.753   1.104  17.483 -0.2353 -0.3037  1.3280
  584TMC3    C8 8719   3.732   1.200  17.000  0.4025  0.8603 -0.4498
  584TMC3    O1 8720   3.750   1.005  17.554 -0.5725 -0.4221 -0.1510
  584TMC3    O2 8721   3.703   1.146  16.895  0.6225  0.3290 -0.2718
  585MPD2     C 8722   3.042   4.635   0.377 -0.1327  0.6551 -0.7626
  585MPD2    C1 8723   2.981   4.624   0.255  0.9310  0.2212 -0.2916
  585MPD2    C2 8724   3.049   4.533   0.166  0.8589  0.7520 -0.0851
  585MPD2    C3 8725   3.156   4.455   0.198 -0.0670  0.3477  0.2523
  585MPD2    C4 8726   3.203   4.466   0.328  0.0114 -0.5364  0.1171
  585MPD2    C5 8727   3.150   4.557   0.413  0.0679 -0.0820 -0.4142
  585MPD2     H 8728   3.012   4.519   0.065 -0.4869  0.5681  0.4295
  585MPD2    H1 8729   3.285   4.403   0.360 -1.3421 -3.5656 -2.3954
  585MPD2    H2 8730   3.009   4.705   0.452 -0.9819  0.8134 -1.2838
  585MPD2    H3 8731   3.194   4.551   0.512  0.1865  0.7198 -0.4220
  585MPD2     N 8732   3.229   4.380   0.099 -0.3277 -0.1989  0.4864
  585MPD2    H5 8733   3.298   4.310   0.124 -3.2088 -2.8865  0.8037
  585MPD2    N1 8734   2.882   4.714   0.221  0.8074 -0.0122 -0.1216
  585MPD2    H7 8735   2.861   0.043   0.293  2.0777  0.7016 -0.4169
  586TMC3    C1 8736   3.265   4.287  17.644 -0.2318 -0.0484 -0.0369
  586TMC3    C2 8737   3.330   4.301  17.529 -0.1269  0.3381 -0.1376
  586TMC3    C3 8738   3.423   4.202  17.497  0.1920 -0.6568  0.5113
  586TMC3    C4 8739   3.281   4.164  17.714 -0.1591 -0.3534  0.2149
  586TMC3    C5 8740   3.364   4.067  17.677 -0.7666  0.3688  0.0071
  586TMC3    C6 8741   3.448   4.089  17.568  0.3077  0.6310  0.2385
  586TMC3     C 8742   3.221   4.405  17.719 -0.2015  0.0026  0.7716
  586TMC3     O 8743   3.197   4.509  17.663  0.0960  0.3336  0.5021
  586TMC3     H 8744   3.344   4.393  17.474  1.6467 -0.7425 -1.5099
  586TMC3    H1 8745   3.204   4.153   0.032 -0.7992  0.5628 -0.2930
  586TMC3    H2 8746   3.517   4.010  17.540  0.3155  1.0598 -0.9173
  586TMC3    C7 8747   3.288   3.951  17.665  0.3886  0.1873  0.4576
  586TMC3    C8 8748   3.465   4.190  17.362 -0.1233 -0.9712 -0.4510
  586TMC3    O1 8749   3.256   3.891   0.007 -0.4249  0.6392  0.3166
  586TMC3    O2 8750   3.563   4.123  17.351  0.2232  0.2847 -0.9404
  587TMC3    C1 8751   1.260   3.156  16.704  0.0588 -0.0242 -0.6483
  587TMC3    C2 8752   1.197   3.244  16.789  0.6714 -0.8336  0.1431
  587TMC3    C3 8753   1.203   3.214  16.928  0.7353  0.3373 -0.5651
  587TMC3    C4 8754   1.326   3.040  16.747  0.3759  0.3659 -0.6863
  587TMC3    C5 8755   1.314   3.013  16.882 -0.6234  0.4473 -0.2538
  587TMC3    C6 8756   1.270   3.098  16.977 -0.0833  0.4338 -0.7875
  587TMC3     C 8757   1.190   3.126  16.579  0.0704  0.4194  0.3270
  587TMC3     O 8758   1.250   3.045  16.503 -0.3700  0.5030  0.2782
  587TMC3     H 8759   1.151   3.335  16.753 -0.1414 -2.0913 -1.9428
  587TMC3    H1 8760   1.379   2.977  16.676  0.7569  2.2139 -2.0679
  587TMC3    H2 8761   1.272   3.068  17.081 -2.7070  0.7668 -0.6298
  587TMC3    C7 8762   1.322   2.872  16.919 -0.3096  0.0745 -0.6388
  587TMC3    C8 8763   1.124   3.288  17.028  0.4464  0.4682 -0.4842
  587TMC3    O1 8764   1.288   2.837  17.030 -0.3617 -0.1301  0.8617
  587TMC3    O2 8765   1.156   3.265  17.143  0.2496 -0.1997 -0.0473
  588TMC3    C1 8766   4.473   0.164  10.206 -0.2351  0.1052  0.3280
  588TMC3    C2 8767   4.395   0.060  10.170  0.3838  0.2182 -0.0556
  588TMC3    C3 8768   4.324   4.736  10.270 -0.4646 -0.0876  0.3222
  588TMC3    C4 8769   4.488   0.208  10.333 -0.7591 -0.8329  0.0349
  588TMC3    C5 8770   4.419   0.145  10.429 -0.0938 -0.3929  0.7197
  588TMC3    C6 8771   4.335   0.041  10.399 -0.3915  0.4644  0.0272
  588TMC3     C 8772   4.518   0.238  10.091 -0.1730  0.2693  0.5284
  588TMC3     O 8773   4.501   0.205   9.972  0.1157 -0.0167 -0.1411
  588TMC3     H 8774   4.388   0.027  10.067 -3.0271 -0.6290  0.4395
  588TMC3    H1 8775   4.559   0.282  10.369 -0.9933 -0.7361  0.2978
  588TMC3    H2 8776   4.270   0.000  10.476 -0.0184 -2.0153 -0.9712
  588TMC3    C7 8777   4.383   0.231  10.543 -0.0703  0.5705 -0.0684
  588TMC3    C8 8778   4.226   4.644  10.223  0.1353  0.2175 -0.0516
  588TMC3    O1 8779   4.413   0.185  10.654 -0.6550 -0.3310  0.1754
  588TMC3    O2 8780   4.207   4.641  10.100  0.5997 -0.0229 -0.0322
  589TMC3    C1 8781   2.398   3.305   1.169  0.9356 -0.3243 -0.6941
  589TMC3    C2 8782   2.508   3.275   1.238  0.1999  0.7449 -0.2168
  589TMC3    C3 8783   2.577   3.166   1.197  0.6127 -0.0707 -0.6964
  589TMC3    C4 8784   2.347   3.217   1.067  0.3502 -0.1105  0.3839
  589TMC3    C5 8785   2.423   3.106   1.040  0.6480  0.1670 -0.0736
  589TMC3    C6 8786   2.531   3.075   1.107 -0.1681  0.2483  0.8049
  589TMC3     C 8787   2.305   3.407   1.213  0.6497  0.5683  0.0891
  589TMC3     O 8788   2.196   3.393   1.154  0.0916 -0.0244  0.1882
  589TMC3     H 8789   2.544   3.352   1.306  1.2374  0.4134 -0.3777
  589TMC3    H1 8790   2.266   3.239   0.999  1.3765  0.6739 -0.5899
  589TMC3    H2 8791   2.582   2.983   1.081  0.1914  0.4848  0.6656
  589TMC3    C7 8792   2.360   2.989   0.984  0.2262  0.2389  0.0689
  589TMC3    C8 8793   2.695   3.140   1.271  1.3500  0.8394  0.0749
  589TMC3    O1 8794   2.417   2.882   0.982  0.1693  0.1103 -0.1979
  589TMC3    O2 8795   2.708   3.196   1.381 -0.0853  0.3343  0.2971
  590MPD2     C 8796   1.620   1.332  16.629 -0.0123 -0.6341 -0.0115
  590MPD2    C1 8797   1.595   1.366  16.501  0.4851  0.0900  0.1188
  590MPD2    C2 8798   1.667   1.468  16.443  0.2257 -0.2051 -0.4710
  590MPD2    C3 8799   1.755   1.544  16.512  0.1612 -0.1254  0.5222
  590MPD2    C4 8800   1.777   1.505  16.643  0.4762 -0.4039 -0.1010
  590MPD2    C5 8801   1.713   1.395  16.708  0.2077  0.5692  0.1354
  590MPD2     H 8802   1.668   1.485  16.336  0.6820  0.6344 -0.3400
  590MPD2    H1 8803   1.843   1.566  16.704  0.1716  0.3116 -0.4874
  590MPD2    H2 8804   1.569   1.248  16.675 -0.2823 -0.0989  0.6544
  590MPD2    H3 8805   1.722   1.364  16.812  3.8498 -2.3093 -1.0320
  590MPD2     N 8806   1.826   1.653  16.448 -0.7690  0.4844 -0.1295
  590MPD2    H5 8807   1.820   1.672  16.348 -1.9366  1.4049  0.1100
  590MPD2    N1 8808   1.481   1.305  16.446  0.2058  0.8402  0.1316
  590MPD2    H7 8809   1.448   1.229  16.505 -0.0554 -0.0218 -1.1311
  591TMC3    C1 8810   1.962   1.847  16.423 -0.1039 -0.2052 -0.1804
  591TMC3    C2 8811   2.021   1.796  16.312 -0.1063 -0.2479  1.0858
  591TMC3    C3 8812   2.102   1.879  16.238  0.2172 -0.0235 -1.0049
  591TMC3    C4 8813   1.996   1.975  16.466  0.6942 -0.5879 -0.3102
  591TMC3    C5 8814   2.073   2.058  16.387  0.1109  0.6546 -0.2625
  591TMC3    C6 8815   2.131   2.008  16.277 -0.7941 -0.0589 -0.4366
  591TMC3     C 8816   1.879   1.762  16.511  0.9572 -0.6703  0.1525
  591TMC3     O 8817   1.864   1.788  16.629 -0.0618 -0.4306  0.1640
  591TMC3     H 8818   1.998   1.693  16.285  1.9270 -0.3000 -0.4834
  591TMC3    H1 8819   1.960   2.022  16.557 -2.3108 -0.9308 -1.3367
  591TMC3    H2 8820   2.202   2.067  16.220 -0.2688 -0.2091  0.0568
  591TMC3    C7 8821   2.103   2.189  16.439  0.2228 -0.4319 -0.5393
  591TMC3    C8 8822   2.195   1.813  16.152 -0.2548 -0.4682  0.0289
  591TMC3    O1 8823   2.084   2.224  16.558  0.0963 -0.3994  0.4022
  591TMC3    O2 8824   2.195   1.693  16.150  0.1895 -0.3252 -0.0595
  592MPD2     C 8825   2.697   2.908  11.992 -0.9261  0.5456 -0.4185
  592MPD2    C1 8826   2.721   2.972  12.109 -0.3875  0.1811 -0.5168
  592MPD2    C2 8827   2.672   2.917  12.227 -1.2001 -0.2373  0.0972
  592MPD2    C3 8828   2.605   2.792  12.226  0.4693  0.0405 -0.0278
  592MPD2    C4 8829   2.589   2.724  12.102 -0.3117  0.4378 -0.1062
  592MPD2    C5 8830   2.634   2.791  11.987 -0.4171  0.7595  0.2451
  592MPD2     H 8831   2.672   2.977  12.318 -1.6046  0.2761 -0.2354
  592MPD2    H1 8832   2.532   2.633  12.086 -0.3285  0.4279  0.0155
  592MPD2    H2 8833   2.723   2.951  11.896  1.0221  1.8316  0.6851
  592MPD2    H3 8834   2.624   2.751  11.887 -0.6619 -1.9832  1.3691
  592MPD2     N 8835   2.554   2.754  12.352  0.2229 -0.1838 -0.5479
  592MPD2    H5 8836   2.586   2.808  12.433 -1.8040 -1.5531  1.1577
  592MPD2    N1 8837   2.789   3.088  12.096  0.1448  0.0596 -0.1451
  592MPD2    H7 8838   2.814   3.116  12.001  2.4532 -0.3992  0.3341
  593TMC3    C1 8839   2.871   3.310  12.167  0.3546 -0.3248 -0.2081
  593TMC3    C2 8840   2.872   3.399  12.269  0.0145 -0.5181  0.7683
  593TMC3    C3 8841   2.913   3.524  12.236 -0.8154 -0.7070  0.1410
  593TMC3    C4 8842   2.902   3.340  12.037 -0.3339 -0.1001 -0.2482
  593TMC3    C5 8843   2.958   3.464  12.020 -0.3514  0.0730 -0.3786
  593TMC3    C6 8844   2.953   3.560  12.111  0.3660 -0.0190  0.0338
  593TMC3     C 8845   2.831   3.173  12.204  0.2245  0.1111 -0.3536
  593TMC3     O 8846   2.827   3.146  12.323 -0.0459  0.2248 -0.2597
  593TMC3     H 8847   2.870   3.372  12.374  2.1833 -0.9317  0.6909
  593TMC3    H1 8848   2.920   3.257  11.970 -1.3421  0.1923 -0.8895
  593TMC3    H2 8849   2.978   3.663  12.088  1.7792 -0.5382 -0.7983
  593TMC3    C7 8850   2.984   3.511  11.887 -0.3954 -0.3092  0.2130
  593TMC3    C8 8851   2.925   3.613  12.348 -0.7704  0.0931 -0.4589
  593TMC3    O1 8852   2.987   3.635  11.872 -0.0650 -0.2574 -0.5808
  593TMC3    O2 8853   2.843   3.616  12.435 -0.0819 -0.0515 -0.2418
  594MPD2     C 8854   1.304   2.015  14.240  0.2345  0.4068  0.7079
  594MPD2    C1 8855   1.281   2.059  14.367  1.0395  0.2922  0.3586
  594MPD2    C2 8856   1.350   2.172  14.410  0.4073  0.2633  0.6181
  594MPD2    C3 8857   1.435   2.240  14.322 -0.4922  0.1914 -0.3706
  594MPD2    C4 8858   1.457   2.186  14.192 -0.2114 -0.1049  0.9661
  594MPD2    C5 8859   1.390   2.075  14.151 -0.4223 -0.1939  0.3382
  594MPD2     H 8860   1.326   2.224  14.502  0.2703  1.4910 -0.1065
  594MPD2    H1 8861   1.515   2.234  14.114 -1.1496 -0.4863  0.0386
  594MPD2    H2 8862   1.232   1.943  14.204 -0.5090  0.3205  2.3470
  594MPD2    H3 8863   1.406   2.023  14.056 -0.1978 -1.6456  1.1664
  594MPD2     N 8864   1.492   2.365  14.364 -0.3744 -0.1210 -0.4230
  594MPD2    H5 8865   1.468   2.405  14.454 -1.1189 -0.7079 -0.3520
  594MPD2    N1 8866   1.184   2.000  14.442 -0.0603 -0.3432  0.5388
  594MPD2    H7 8867   1.110   1.944  14.401 -0.1488 -1.0242  1.6416
  595TMC3    C1 8868   1.761   2.751  14.381  1.0867 -0.6000 -0.0598
  595TMC3    C2 8869   1.724   2.633  14.319  0.2905 -0.2372 -0.2333
  595TMC3    C3 8870   1.604   2.571  14.348  1.1162  0.3475  0.2039
  595TMC3    C4 8871   1.664   2.817  14.454 -0.3914 -0.4402 -0.5814
  595TMC3    C5 8872   1.535   2.760  14.466 -0.5567  0.1771  0.9997
  595TMC3    C6 8873   1.505   2.631  14.421  0.0209 -0.1307 -0.1746
  595TMC3     C 8874   1.896   2.791  14.400  0.0630  0.1704  0.2229
  595TMC3     O 8875   1.911   2.859  14.500 -0.3232  0.0395 -0.6259
  595TMC3     H 8876   1.803   2.572  14.276 -1.1290 -1.9660 -0.4245
  595TMC3    H1 8877   1.686   2.909  14.506 -1.2356 -0.9272  0.6488
  595TMC3    H2 8878   1.402   2.598  14.417  0.2705 -0.9462  0.1831
  595TMC3    C7 8879   1.431   2.836  14.531 -0.2255 -0.4621 -0.1180
  595TMC3    C8 8880   1.574   2.444  14.288  0.1380 -1.1664 -0.0555
  595TMC3    O1 8881   1.316   2.826  14.490  0.1794 -0.2396  0.2032
  595TMC3    O2 8882   1.639   2.424  14.185  0.3208  0.3501  0.1275
  596MPD2     C 8883   0.097   0.386  16.611 -0.3518  0.3717  0.0780
  596MPD2    C1 8884   0.082   0.518  16.573  0.7864  0.2696 -0.3275
  596MPD2    C2 8885   0.097   0.551  16.436 -0.0499  0.1185 -0.8069
  596MPD2    C3 8886   0.125   0.453  16.337  0.2126 -0.0995  0.0856
  596MPD2    C4 8887   0.151   0.327  16.388  0.2085 -0.5853  0.5577
  596MPD2    C5 8888   0.134   0.292  16.520  0.2131 -0.0558  0.1840
  596MPD2     H 8889   0.090   0.652  16.396  0.4623  1.4285  2.4334
  596MPD2    H1 8890   0.177   0.239  16.331 -0.9529 -1.8518  1.9913
  596MPD2    H2 8891   0.092   0.357  16.716 -0.4578  0.7834  0.1870
  596MPD2    H3 8892   0.158   0.189  16.545 -1.4025 -0.2881  0.7396
  596MPD2     N 8893   0.114   0.475  16.197 -0.3093 -0.4019 -0.2533
  596MPD2    H5 8894   0.144   0.399  16.136  0.2774 -0.6327  0.3239
  596MPD2    N1 8895   0.043   0.627  16.655  0.1666 -0.6304  0.4649
  596MPD2    H7 8896   0.039   0.713  16.603  0.9865 -1.6927 -1.3386
  597TMC3    C1 8897   0.001   0.757  16.838  0.1681 -0.0830 -0.1540
  597TMC3    C2 8898   0.064   0.864  16.781  0.0544  0.1976 -0.7594
  597TMC3    C3 8899   0.017   0.988  16.818 -0.5129 -0.2860 -0.3347
  597TMC3    C4 8900   4.638   0.772  16.932  0.6574 -0.3063  0.4437
  597TMC3    C5 8901   4.593   0.896  16.964  0.9093  0.1619  0.8192
  597TMC3    C6 8902   4.656   1.006  16.907 -0.5164 -0.9164 -0.1676
  597TMC3     C 8903   0.032   0.623  16.789  0.3929 -0.0453  0.4811
  597TMC3     O 8904   0.027   0.535  16.874  0.3793  0.3913  0.1057
  597TMC3     H 8905   0.120   0.856  16.688  2.7315 -0.0812  0.9091
  597TMC3    H1 8906   4.606   0.680  16.981  0.2346  1.1036  2.8046
  597TMC3    H2 8907   4.628   1.109  16.927 -2.0040 -1.5774  1.1482
  597TMC3    C7 8908   4.507   0.900  17.085 -0.0449  0.5514 -0.2397
  597TMC3    C8 8909   0.054   1.099  16.740 -0.0949  0.3763  0.8514
  597TMC3    O1 8910   4.435   0.808  17.106  0.2035  0.1016  0.6452
  597TMC3    O2 8911   4.705   1.173  16.707  0.2009  0.5337  0.5618
  598TMC3    C1 8912   2.878   2.176  15.260  0.0955  0.3801  0.4986
  598TMC3    C2 8913   2.811   2.071  15.200 -0.0447  0.4471 -0.4419
  598TMC3    C3 8914   2.835   2.049  15.067  0.1207 -0.1213  0.0062
  598TMC3    C4 8915   2.969   2.252  15.187 -0.3823  1.1473  0.5199
  598TMC3    C5 8916   2.996   2.225  15.053  0.2486  0.4538 -0.1356
  598TMC3    C6 8917   2.928   2.122  14.993  0.2184 -0.1156 -0.0651
  598TMC3     C 8918   2.932   2.152  15.393  0.5880 -0.3285  0.6871
  598TMC3     O 8919   3.008   2.230  15.449 -0.6762 -0.7128  0.5938
  598TMC3     H 8920   2.743   2.013  15.261 -2.7034  1.7352 -2.1521
  598TMC3    H1 8921   3.014   2.338  15.236  1.0578  0.9951 -0.5208
  598TMC3    H2 8922   2.958   2.092  14.893 -0.2413  1.7356 -0.7756
  598TMC3    C7 8923   3.108   2.279  14.983  0.3773 -0.4990  0.3676
  598TMC3    C8 8924   2.800   1.926  15.003  0.0851 -0.5387 -0.2406
  598TMC3    O1 8925   3.124   2.243  14.868  1.0864  0.2574 -0.2914
  598TMC3    O2 8926   2.883   1.871  14.928  0.4703 -0.4172  0.1019
  599MPD2     C 8927   3.316   4.397  15.897  0.1059  0.0390 -0.3170
  599MPD2    C1 8928   3.244   4.285  15.894  0.0908  0.4064 -0.5783
  599MPD2    C2 8929   3.137   4.261  15.982  0.2897 -0.7398  0.3334
  599MPD2    C3 8930   3.111   4.362  16.075  0.0807  0.4865  0.7248
  599MPD2    C4 8931   3.184   4.481  16.070  0.3600  0.8496  0.4662
  599MPD2    C5 8932   3.289   4.495  15.983  0.3878  0.0160  0.5360
  599MPD2     H 8933   3.075   4.172  15.973  2.1480 -1.9803 -0.2510
  599MPD2    H1 8934   3.147   4.557  16.138 -0.7160  0.9629 -0.2565
  599MPD2    H2 8935   3.398   4.411  15.828 -0.1372  1.5444 -0.2961
  599MPD2    H3 8936   3.361   4.576  15.986  2.0482 -1.4080 -1.0192
  599MPD2     N 8937   3.005   4.364  16.154  0.0882  0.4297  0.0135
  599MPD2    H5 8938   2.999   4.448  16.211  0.0077  0.2702  0.2413
  599MPD2    N1 8939   3.296   4.195  15.797 -0.0294 -0.2354  0.2459
  599MPD2    H7 8940   3.389   4.223  15.770 -0.3915 -1.0273 -1.8642
  600TMC3    C1 8941   2.814   4.271  16.277 -0.1547 -0.0491  0.1123
  600TMC3    C2 8942   2.725   4.172  16.311  0.1632  0.3248  0.3250
  600TMC3    C3 8943   2.655   4.171  16.435 -0.0827  0.0831  0.7693
  600TMC3    C4 8944   2.826   4.375  16.366 -0.2374 -0.4230 -0.0122
  600TMC3    C5 8945   2.762   4.371  16.493 -0.3727  0.0250 -0.0738
  600TMC3    C6 8946   2.672   4.273  16.524  0.0616 -0.1328 -0.2058
  600TMC3     C 8947   2.912   4.259  16.177  0.7718  0.1637  0.2845
  600TMC3     O 8948   2.913   4.148  16.120  0.5112  0.0205 -0.3794
  600TMC3     H 8949   2.713   4.092  16.239  0.1763  0.7531 -0.1469
  600TMC3    H1 8950   2.884   4.464  16.343  2.2218 -2.1490 -0.4673
  600TMC3    H2 8951   2.621   4.271  16.620 -0.3156  1.6949 -0.3585
  600TMC3    C7 8952   2.759   4.486  16.592 -0.5529  0.0757  0.3262
  600TMC3    C8 8953   2.568   4.066  16.481  0.6044 -0.3516 -0.0153
  600TMC3    O1 8954   2.656   4.487  16.659 -0.5693 -0.2424  0.1596
  600TMC3    O2 8955   2.563   4.046  16.600 -0.9796 -0.3883  0.7124
  601MPD2     C 8956   0.481   2.773   0.526  0.1805 -0.5344  0.4740
  601MPD2    C1 8957   0.357   2.742   0.488 -0.2960 -0.1405 -0.4718
  601MPD2    C2 8958   0.297   2.621   0.542 -0.0079 -0.1268 -0.0397
  601MPD2    C3 8959   0.364   2.542   0.633 -0.2884 -0.3830  0.4102
  601MPD2    C4 8960   0.494   2.574   0.670  0.3670 -0.2811  0.6658
  601MPD2    C5 8961   0.549   2.687   0.613 -0.6126 -0.7575  0.0781
  601MPD2     H 8962   0.199   2.590   0.508 -0.1664 -2.3355  2.4339
  601MPD2    H1 8963   0.547   2.516   0.744  0.0231  1.1571  2.0342
  601MPD2    H2 8964   0.545   2.851   0.486 -1.8973  1.2999  0.7203
  601MPD2    H3 8965   0.647   2.727   0.639 -0.3637 -0.6356 -1.0276
  601MPD2     N 8966   0.316   2.427   0.691 -0.4950  0.6012  0.2117
  601MPD2    H5 8967   0.384   2.367   0.735  0.0134 -0.8517 -2.5143
  601MPD2    N1 8968   0.285   2.825   0.397  0.5731  0.3812  0.3605
  601MPD2    H7 8969   0.184   2.816   0.390  0.4255  2.6792 -0.2422
  602TMC3    C1 8970   0.219   2.985   0.249  0.0308  0.0465  0.0583
  602TMC3    C2 8971   0.220   3.115   0.199  0.1327  0.2971  0.3244
  602TMC3    C3 8972   0.136   3.152   0.098  0.4706  0.3164  0.3683
  602TMC3    C4 8973   0.146   2.892   0.178  0.9565  0.4218 -0.3080
  602TMC3    C5 8974   0.080   2.937   0.067  0.3062  0.0035  0.7125
  602TMC3    C6 8975   0.078   3.060   0.019  1.1508  0.2203 -0.1256
  602TMC3     C 8976   0.329   2.933   0.334  0.1285 -0.7853  0.0246
  602TMC3     O 8977   0.431   2.997   0.349  0.2131  0.1519 -0.1309
  602TMC3     H 8978   0.278   3.187   0.255 -0.4572  0.4172  0.7831
  602TMC3    H1 8979   0.137   2.787   0.205 -0.2143  0.2126 -1.5222
  602TMC3    H2 8980   4.728   3.088  17.722  1.9314  0.2472 -1.4144
  602TMC3    C7 8981   0.018   2.837  17.740  0.4395 -0.3039 -0.5332
  602TMC3    C8 8982   0.161   3.282   0.027  0.1140 -0.6512  0.6808
  602TMC3    O1 8983   4.693   2.747   0.033 -0.6514  0.5206 -0.0741
  602TMC3    O2 8984   0.182   3.381   0.095 -0.3652  0.7622  0.2672
  603TMC3    C1 8985   3.498   2.719  10.996 -0.1756  0.1675 -0.4626
  603TMC3    C2 8986   3.506   2.694  11.131 -0.2182  0.0482  1.2373
  603TMC3    C3 8987   3.560   2.782  11.217  1.3455  0.4853  0.0428
  603TMC3    C4 8988   3.551   2.835  10.945  0.6450  0.2901  0.7808
  603TMC3    C5 8989   3.595   2.929  11.035 -0.9959 -1.0046 -0.5276
  603TMC3    C6 8990   3.599   2.902  11.169 -0.2992 -0.5369  0.1361
  603TMC3     C 8991   3.456   2.622  10.903  0.2357 -0.4471 -0.3413
  603TMC3     O 8992   3.495   2.634  10.788  0.3876 -0.2606 -0.3655
  603TMC3     H 8993   3.503   2.590  11.159  0.6963 -0.3276 -0.0696
  603TMC3    H1 8994   3.551   2.845  10.837  3.2838 -1.9598  0.5606
  603TMC3    H2 8995   3.622   2.990  11.228 -1.3439  0.5750 -1.1184
  603TMC3    C7 8996   3.666   3.040  10.978 -0.3282  0.6866 -0.2116
  603TMC3    C8 8997   3.637   2.723  11.324  0.2501  0.2410 -0.5019
  603TMC3    O1 8998   3.750   3.095  11.048  0.0205 -0.5487  0.2353
  603TMC3    O2 8999   3.593   2.616  11.369 -0.0831  0.2448 -0.1433
  604MPD2     C 9000   4.045   2.031  16.218 -0.2231 -0.5566 -0.0441
  604MPD2    C1 9001   3.916   1.993  16.241 -0.4404  0.5658  0.5707
  604MPD2    C2 9002   3.869   1.893  16.152 -0.6341 -0.0175  0.3839
  604MPD2    C3 9003   3.956   1.845  16.057  0.2930 -0.0587 -0.3342
  604MPD2    C4 9004   4.092   1.879  16.055  0.2327 -0.1910 -0.2991
  604MPD2    C5 9005   4.133   1.978  16.133 -0.3872 -0.5860 -0.7194
  604MPD2     H 9006   3.768   1.856  16.163 -0.4805 -1.4245 -2.8593
  604MPD2    H1 9007   4.165   1.838  15.986  0.5013 -0.5586  0.2020
  604MPD2    H2 9008   4.090   2.099  16.290 -1.1325  0.4957 -0.4790
  604MPD2    H3 9009   4.237   2.009  16.136 -0.8698  0.9104  0.6993
  604MPD2     N 9010   3.890   1.776  15.945 -0.0863  0.0532 -0.0402
  604MPD2    H5 9011   3.789   1.781  15.945 -0.0388  1.0927 -3.0065
  604MPD2    N1 9012   3.851   2.060  16.343 -0.5350  0.0019 -0.2083
  604MPD2    H7 9013   3.904   2.131  16.393  0.4682 -0.0377 -1.2141
  605TMC3    C1 9014   3.651   2.129  16.473  0.2788 -0.4759 -0.3074
  605TMC3    C2 9015   3.730   2.209  16.556  0.1508 -0.2266 -0.7617
  605TMC3    C3 9016   3.675   2.331  16.592 -0.2901 -0.7551 -0.0569
  605TMC3    C4 9017   3.526   2.163  16.435  0.5640 -1.0143 -0.2484
  605TMC3    C5 9018   3.480   2.287  16.481  0.1950  0.5158  0.2237
  605TMC3    C6 9019   3.549   2.374  16.555 -0.1661  0.0884  0.2085
  605TMC3     C 9020   3.717   2.037  16.378  0.0485 -0.7637 -0.0861
  605TMC3     O 9021   3.643   1.949  16.331 -0.3828  0.2849 -0.2955
  605TMC3     H 9022   3.820   2.166  16.599  0.1150  2.0020  1.5033
  605TMC3    H1 9023   3.466   2.097  16.374  0.3398 -0.4711 -0.6213
  605TMC3    H2 9024   3.499   2.454  16.609  0.6216 -1.7169  3.5533
  605TMC3    C7 9025   3.344   2.314  16.454 -0.0646  0.0584  0.1036
  605TMC3    C8 9026   3.739   2.400  16.697  0.9527 -1.2319 -0.0988
  605TMC3    O1 9027   3.303   2.424  16.481  0.6846 -0.1377  0.1545
  605TMC3    O2 9028   3.674   2.465  16.781  0.3950  0.1512  0.3080
  606TMC3    C1 9029   4.651   0.473  17.342 -1.1720 -0.2079 -1.4545
  606TMC3    C2 9030   4.626   0.424  17.475 -0.0205 -0.0518  0.5047
  606TMC3    C3 9031   4.647   0.291  17.494  0.1072  0.4795  0.3010
  606TMC3    C4 9032   4.697   0.396  17.235 -0.0410 -0.7329 -0.4721
  606TMC3    C5 9033   4.686   0.258  17.262 -0.0625 -0.0481  0.5520
  606TMC3    C6 9034   4.672   0.207  17.392 -0.7397  0.1426  0.0624
  606TMC3     C 9035   4.671   0.614  17.325  0.0267  0.0948 -0.2845
  606TMC3     O 9036   4.599   0.679  17.399  0.2029  0.1574  0.3328
  606TMC3     H 9037   4.617   0.492  17.558  1.1633  0.7545 -0.0351
  606TMC3    H1 9038   4.698   0.441  17.136  0.4085  0.9909  0.3213
  606TMC3    H2 9039   4.692   0.102  17.411  1.1628  0.5598  0.3788
  606TMC3    C7 9040   4.664   0.176  17.147  0.4983 -0.3515  0.1016
  606TMC3    C8 9041   4.720   0.239  17.613 -0.2507 -0.0255 -0.6362
  606TMC3    O1 9042   4.698   0.210  17.036  0.4466  0.0570  0.1641
  606TMC3    O2 9043   0.052   0.143  17.594 -0.2035 -0.4109  0.2903
  607MPD2     C 9044   2.843   2.415  11.774  0.3090 -0.1548  0.4221
  607MPD2    C1 9045   2.884   2.527  11.845  0.2732  0.1702  0.7063
  607MPD2    C2 9046   2.857   2.539  11.982  0.2867  0.1316  0.8269
  607MPD2    C3 9047   2.823   2.432  12.054  0.7194  0.5073  0.3554
  607MPD2    C4 9048   2.776   2.320  11.985 -0.2984 -0.8626 -0.2694
  607MPD2    C5 9049   2.792   2.313  11.847  0.1813 -0.3159  0.0984
  607MPD2     H 9050   2.893   2.630  12.028 -2.2376  1.2750  0.5068
  607MPD2    H1 9051   2.736   2.228  12.028  0.5635 -1.1132 -0.0080
  607MPD2    H2 9052   2.862   2.411  11.667 -2.1976  0.8903 -0.0640
  607MPD2    H3 9053   2.773   2.221  11.794  1.6456 -1.8987  2.3010
  607MPD2     N 9054   2.831   2.438  12.195  0.4446  0.1606 -0.3344
  607MPD2    H5 9055   2.866   2.526  12.230  0.4051 -0.9563  2.4676
  607MPD2    N1 9056   2.950   2.642  11.791 -0.5567  0.2749  0.6868
  607MPD2    H7 9057   2.975   2.714  11.858 -0.7767  0.3539  0.6831
  608TMC3    C1 9058   3.050   2.792  11.651  0.2676  0.4606  0.0967
  608TMC3    C2 9059   3.037   2.886  11.748  0.3724 -0.3716  0.0397
  608TMC3    C3 9060   3.130   2.982  11.758 -0.2490 -0.5020 -0.0636
  608TMC3    C4 9061   3.143   2.805  11.552 -0.3536  0.2130 -0.4462
  608TMC3    C5 9062   3.215   2.924  11.550 -0.5673 -0.8213 -0.4987
  608TMC3    C6 9063   3.223   3.005  11.664  0.1845 -0.6537 -0.7219
  608TMC3     C 9064   2.980   2.662  11.657 -0.0799 -0.0900 -0.1123
  608TMC3     O 9065   2.970   2.593  11.557 -0.4786 -0.2733 -0.5438
  608TMC3     H 9066   2.959   2.880  11.823  1.5264 -0.6660  1.2135
  608TMC3    H1 9067   3.140   2.737  11.467  2.1134  0.8301 -1.0170
  608TMC3    H2 9068   3.297   3.084  11.672  0.6497 -1.0298 -1.4464
  608TMC3    C7 9069   3.292   2.952  11.423 -0.0724 -0.0526  0.1191
  608TMC3    C8 9070   3.154   3.037  11.888  0.6832 -0.0669 -0.2522
  608TMC3    O1 9071   3.236   2.904  11.326  0.1207  0.1146  0.2989
  608TMC3    O2 9072   3.134   3.157  11.898 -0.7284 -0.1632  0.1486
  609TMC3    C1 9073   1.989   2.377   9.778  0.0918  0.6019 -0.4869
  609TMC3    C2 9074   2.060   2.479   9.729 -0.0259  0.6057  0.5233
  609TMC3    C3 9075   2.105   2.463   9.601  0.5178  0.4511 -0.4882
  609TMC3    C4 9076   1.941   2.267   9.708 -0.4951  0.3622  0.3280
  609TMC3    C5 9077   1.976   2.272   9.571 -0.3847 -0.6207 -0.2418
  609TMC3    C6 9078   2.067   2.362   9.516  0.5743 -0.4918 -0.2315
  609TMC3     C 9079   1.935   2.375   9.907 -0.3734 -0.3351  0.1009
  609TMC3     O 9080   1.818   2.346   9.917 -0.1776 -0.7121  0.0726
  609TMC3     H 9081   2.103   2.556   9.792 -0.1937  2.0631 -1.1321
  609TMC3    H1 9082   1.883   2.188   9.755 -1.5300  0.3638 -0.9513
  609TMC3    H2 9083   2.092   2.361   9.411  0.6413  1.0819 -0.2223
  609TMC3    C7 9084   1.970   2.155   9.487  0.2384 -0.4730  0.4968
  609TMC3    C8 9085   2.218   2.547   9.563 -0.2502 -0.2194  0.1830
  609TMC3    O1 9086   2.072   2.122   9.433 -0.2140 -0.1296  0.8764
  609TMC3    O2 9087   2.249   2.646   9.631  0.3300  0.4336 -0.1631
  610TMC3    C1 9088   3.520   3.094  12.511 -0.6240  0.1081  0.5783
  610TMC3    C2 9089   3.536   3.085  12.377  0.4039  0.1419  0.2650
  610TMC3    C3 9090   3.497   2.969  12.321  0.4048  0.7042 -0.7285
  610TMC3    C4 9091   3.461   2.997  12.587  0.2058 -0.4256 -0.6427
  610TMC3    C5 9092   3.424   2.882  12.523  0.9066 -0.5864 -0.3322
  610TMC3    C6 9093   3.435   2.872  12.388 -0.3545 -0.2334  0.6491
  610TMC3     C 9094   3.575   3.205  12.579  0.4071  0.5170  0.1293
  610TMC3     O 9095   3.685   3.236  12.533 -0.4900 -0.0045  0.3409
  610TMC3     H 9096   3.563   3.172  12.319  0.0523 -0.0152 -0.1306
  610TMC3    H1 9097   3.466   2.996  12.696 -1.4877 -1.7579 -0.5875
  610TMC3    H2 9098   3.396   2.788  12.332 -0.1251  1.1227 -1.5865
  610TMC3    C7 9099   3.435   2.765  12.607 -0.0364 -0.0318 -0.4401
  610TMC3    C8 9100   3.499   2.960  12.178  0.5265 -0.7233 -0.1639
  610TMC3    O1 9101   3.391   2.782  12.720  0.7644  0.1597  0.1794
  610TMC3    O2 9102   3.546   3.063  12.127  0.5805 -0.3932  0.5060
  611MPD2     C 9103   3.445   2.511  10.431 -0.4087 -0.0836  0.2084
  611MPD2    C1 9104   3.341   2.600  10.452 -0.3421 -0.0804  0.6733
  611MPD2    C2 9105   3.333   2.720  10.384  0.0061 -0.2270 -0.7901
  611MPD2    C3 9106   3.433   2.751  10.294  0.3769 -1.0246  1.0767
  611MPD2    C4 9107   3.540   2.663  10.284  0.1307  0.0332 -0.9098
  611MPD2    C5 9108   3.549   2.545  10.356 -0.1211 -0.6885  0.9408
  611MPD2     H 9109   3.239   2.775  10.391 -1.3359 -2.5152 -0.8214
  611MPD2    H1 9110   3.618   2.682  10.211  1.7425  0.4727  0.9433
  611MPD2    H2 9111   3.454   2.420  10.490 -0.3599  0.2423  0.7076
  611MPD2    H3 9112   3.623   2.469  10.334 -1.4381 -0.6043 -3.9189
  611MPD2     N 9113   3.448   2.874  10.225 -0.1615  0.4518 -0.1233
  611MPD2    H5 9114   3.531   2.876  10.167 -0.2719  1.0625 -0.2553
  611MPD2    N1 9115   3.250   2.583  10.555 -0.2179 -0.4281 -0.3554
  611MPD2    H7 9116   3.235   2.491  10.595 -2.6726 -0.3207 -1.0603
  612TMC3    C1 9117   3.379   3.100  10.180 -0.3431 -0.0126  0.3052
  612TMC3    C2 9118   3.505   3.157  10.216  0.2993 -1.0467 -0.4264
  612TMC3    C3 9119   3.513   3.290  10.202 -0.0238  0.5371 -0.0680
  612TMC3    C4 9120   3.273   3.170  10.132  0.5521 -0.0076 -0.7749
  612TMC3    C5 9121   3.291   3.301  10.128 -1.0258  0.2154 -0.4972
  612TMC3    C6 9122   3.410   3.364  10.164 -0.7361 -0.0708 -0.0609
  612TMC3     C 9123   3.345   2.963  10.220  0.2306 -1.1273 -0.1431
  612TMC3     O 9124   3.228   2.950  10.232  0.5545 -0.1156  0.7423
  612TMC3     H 9125   3.596   3.106  10.245 -0.5166 -1.6592  1.0593
  612TMC3    H1 9126   3.188   3.111  10.101  0.3902 -0.3567  0.3356
  612TMC3    H2 9127   3.416   3.472  10.156 -1.5373 -0.2826 -3.5845
  612TMC3    C7 9128   3.179   3.389  10.096  0.1975  0.1956 -0.1974
  612TMC3    C8 9129   3.591   3.343  10.319 -0.2563  0.1737 -0.1205
  612TMC3    O1 9130   3.196   3.498  10.050 -0.3044  0.4420  0.0218
  612TMC3    O2 9131   3.649   3.451  10.304 -0.3469  0.3782  0.1902
  613MPD2     C 9132   1.428   4.542  16.744  0.0054  0.0192  0.4578
  613MPD2    C1 9133   1.514   4.565  16.634 -0.3246 -0.2273 -0.1200
  613MPD2    C2 9134   1.521   4.481  16.525 -0.4926  0.0420 -0.2652
  613MPD2    C3 9135   1.435   4.370  16.521 -0.1601 -0.5168  0.0252
  613MPD2    C4 9136   1.345   4.350  16.624  0.5841  0.3447  0.0784
  613MPD2    C5 9137   1.348   4.430  16.732 -0.2769 -0.4073  0.6098
  613MPD2     H 9138   1.598   4.496  16.450 -0.8308 -0.3923 -0.6991
  613MPD2    H1 9139   1.274   4.269  16.628  1.5897 -0.5371  0.2216
  613MPD2    H2 9140   1.422   4.604  16.833  2.1193 -1.3366  1.5659
  613MPD2    H3 9141   1.291   4.398  16.818 -2.2861 -2.9078 -1.6356
  613MPD2     N 9142   1.450   4.286  16.413 -1.0527 -0.6477  0.0907
  613MPD2    H5 9143   1.513   4.312  16.338 -1.3072 -0.2214  0.0231
  613MPD2    N1 9144   1.588   4.684  16.628 -0.0595  0.2823 -0.1197
  613MPD2    H7 9145   1.649   4.699  16.548  2.9478  0.9569  2.2940
  614TMC3    C1 9146   1.664   0.165  16.666  0.5876  0.2306  0.0334
  614TMC3    C2 9147   1.759   0.120  16.575 -0.3833  0.3306  0.3274
  614TMC3    C3 9148   1.761   0.169  16.446  0.2588  0.4488  0.0198
  614TMC3    C4 9149   1.573   0.262  16.627 -0.1267 -0.3567  0.2757
  614TMC3    C5 9150   1.582   0.318  16.501 -0.1060 -0.4731  0.8010
  614TMC3    C6 9151   1.678   0.276  16.415  0.0033  0.7672  0.7086
  614TMC3     C 9152   1.594   0.048  16.722  0.2044 -0.1496  0.2432
  614TMC3     O 9153   1.549   0.065  16.835 -0.6792  1.1356  0.2743
  614TMC3     H 9154   1.831   0.042  16.596 -0.1727  0.8284  1.4272
  614TMC3    H1 9155   1.491   0.283  16.694 -1.0356  1.0244 -1.2575
  614TMC3    H2 9156   1.667   0.303  16.310  0.7866 -0.7719  0.2377
  614TMC3    C7 9157   1.501   0.435  16.478 -0.4405 -0.2675 -0.0748
  614TMC3    C8 9158   1.751   0.059  16.351 -0.4962  0.7210 -0.0582
  614TMC3    O1 9159   1.468   0.499  16.575  1.0725  0.1253  0.3903
  614TMC3    O2 9160   1.739   4.686  16.399  0.0629  0.0022  0.2763
  615MPD2     C 9161   0.796   1.533  16.426  0.2290 -0.2907  0.1074
  615MPD2    C1 9162   0.887   1.618  16.361  0.2965 -0.1935 -0.0431
  615MPD2    C2 9163   0.847   1.695  16.249  0.4471 -0.6392 -0.5640
  615MPD2    C3 9164   0.714   1.712  16.222  0.6731 -0.1525 -0.4229
  615MPD2    C4 9165   0.630   1.635  16.287  0.1386  0.2269  0.1386
  615MPD2    C5 9166   0.665   1.547  16.387  0.0071 -0.4282  0.5387
  615MPD2     H 9167   0.927   1.739  16.191 -0.0933  0.2601 -0.6359
  615MPD2    H1 9168   0.524   1.651  16.268  0.1659  2.6217  1.9780
  615MPD2    H2 9169   0.821   1.466  16.507  0.0127  0.7039  1.0114
  615MPD2    H3 9170   0.586   1.493  16.437  0.4901 -2.7955 -1.2379
  615MPD2     N 9171   0.661   1.801  16.121 -0.2760 -0.6168  0.3818
  615MPD2    H5 9172   0.562   1.790  16.099 -0.5080  1.0359  0.6555
  615MPD2    N1 9173   1.023   1.623  16.394 -0.4683  0.2678 -0.4536
  615MPD2    H7 9174   1.074   1.703  16.358  2.4500 -0.3084  2.3997
  616TMC3    C1 9175   1.218   1.578  16.530  0.1913  0.4885  0.1207
  616TMC3    C2 9176   1.298   1.671  16.461  1.2002  0.2327  0.4471
  616TMC3    C3 9177   1.401   1.722  16.536 -0.1461 -0.1792  0.3105
  616TMC3    C4 9178   1.253   1.521  16.647 -0.2728  0.1093  0.0716
  616TMC3    C5 9179   1.365   1.578  16.712 -0.2096 -0.3932 -0.6289
  616TMC3    C6 9180   1.440   1.676  16.660 -0.8560 -0.6653  0.1254
  616TMC3     C 9181   1.091   1.536  16.473 -0.7474 -0.3160 -0.0682
  616TMC3     O 9182   1.058   1.423  16.513 -0.8173 -0.3962 -0.2796
  616TMC3     H 9183   1.270   1.706  16.362  3.1096 -0.6611 -0.4037
  616TMC3    H1 9184   1.205   1.431  16.683 -2.0131  0.3477 -1.5923
  616TMC3    H2 9185   1.537   1.701  16.702 -1.5748 -0.2096  1.4940
  616TMC3    C7 9186   1.390   1.536  16.852 -0.0546 -0.0577  0.1876
  616TMC3    C8 9187   1.483   1.832  16.479  0.0448  0.2550  0.3036
  616TMC3    O1 9188   1.341   1.426  16.886  0.4009  0.1981  0.0023
  616TMC3    O2 9189   1.496   1.826  16.360  0.2268  0.0975 -0.2883
  617MPD2     C 9190   4.054   4.693  13.831  0.5304  1.0016 -0.0722
  617MPD2    C1 9191   4.071   4.676  13.969 -0.0754 -0.5683 -0.2430
  617MPD2    C2 9192   3.957   4.695  14.043  0.4883 -0.5440 -0.1447
  617MPD2    C3 9193   3.827   4.694  13.985 -0.2829 -0.2977 -0.7700
  617MPD2    C4 9194   3.821   4.698  13.843 -0.5043  0.2117 -0.0725
  617MPD2    C5 9195   3.934   4.703  13.768  0.2770 -0.2791  0.3285
  617MPD2     H 9196   3.960   4.680  14.150 -0.0990  1.6685  0.1693
  617MPD2    H1 9197   3.732   4.712  13.783  0.0750 -1.0340 -1.2197
  617MPD2    H2 9198   4.138   4.676  13.765 -1.1543 -2.9764 -1.2187
  617MPD2    H3 9199   3.928   4.710  13.660 -2.1068 -1.2602  0.3848
  617MPD2     N 9200   3.703   4.691  14.050 -0.1944  0.5721 -0.5879
  617MPD2    H5 9201   3.617   4.681  13.998 -1.2140  1.2325  0.9558
  617MPD2    N1 9202   4.189   4.655  14.034  0.4641  0.3414  0.6501
  617MPD2    H7 9203   4.189   4.671  14.134 -1.6136  2.3644  0.3319
  618TMC3    C1 9204   4.428   4.645  14.040 -0.4761  0.1350 -0.4923
  618TMC3    C2 9205   4.529   4.558  13.999 -0.0717  0.3263 -0.0587
  618TMC3    C3 9206   4.659   4.584  14.030 -1.2114  0.4797  0.5013
  618TMC3    C4 9207   4.455   0.022  14.093  0.0272  0.2582 -0.2428
  618TMC3    C5 9208   4.589   0.053  14.113 -0.0612 -0.5169  0.3739
  618TMC3    C6 9209   4.691   4.707  14.082 -0.1800  0.1126 -0.7320
  618TMC3     C 9210   4.309   4.618  13.964 -0.0309  0.1333 -0.1995
  618TMC3     O 9211   4.320   4.543  13.866  0.6978  0.0637 -0.1989
  618TMC3     H 9212   4.494   4.456  13.990 -4.7361  1.7850  1.4644
  618TMC3    H1 9213   4.376   0.091  14.117  0.0229  0.1824 -0.0416
  618TMC3    H2 9214   0.056   4.730  14.095 -0.7126  1.9417  0.3349
  618TMC3    C7 9215   4.612   0.174  14.178 -0.4243  0.2767  0.1815
  618TMC3    C8 9216   0.015   4.507  13.959  0.5034 -0.6495 -0.3713
  618TMC3    O1 9217   4.583   0.181  14.297 -0.4334  0.0411 -0.0741
  618TMC3    O2 9218   0.133   4.540  13.982 -0.4712  0.4628  0.7006
  619MPD2     C 9219   0.371   1.251  14.309  0.6046 -0.3431  0.2312
  619MPD2    C1 9220   0.308   1.330  14.213  0.6949  0.3132  0.0358
  619MPD2    C2 9221   0.181   1.368  14.230 -0.0359  0.7172  0.7590
  619MPD2    C3 9222   0.106   1.316  14.339  0.0929  0.0073  0.3249
  619MPD2    C4 9223   0.165   1.217  14.422 -0.0744 -0.3202 -0.4102
  619MPD2    C5 9224   0.302   1.193  14.413 -0.0798 -0.9791 -0.1408
  619MPD2     H 9225   0.145   1.451  14.170 -1.2944 -1.4164 -1.4582
  619MPD2    H1 9226   0.108   1.169  14.501  1.6573  1.0007  1.6539
  619MPD2    H2 9227   0.476   1.223  14.307  1.1659  1.6225  1.6169
  619MPD2    H3 9228   0.359   1.137  14.486 -0.7823 -3.0814 -1.2057
  619MPD2     N 9229   4.709   1.332  14.347 -0.5361 -0.2303 -0.4296
  619MPD2    H5 9230   4.662   1.284  14.423  0.1315 -1.6187 -0.8927
  619MPD2    N1 9231   0.374   1.376  14.100  0.0305 -0.2030 -0.3623
  619MPD2    H7 9232   0.313   1.417  14.030 -0.4695 -0.0070  0.1806
  620TMC3    C1 9233   0.518   1.415  13.932  0.3650 -0.3940 -0.1298
  620TMC3    C2 9234   0.403   1.420  13.860 -0.3786  0.2016  0.0302
  620TMC3    C3 9235   0.389   1.520  13.771 -0.5260  0.0915  0.1484
  620TMC3    C4 9236   0.626   1.500  13.917 -0.6519 -0.5714  0.3476
  620TMC3    C5 9237   0.611   1.605  13.829 -0.3432  0.2582  0.4713
  620TMC3    C6 9238   0.492   1.610  13.755  0.5266 -0.2039  0.3582
  620TMC3     C 9239   0.503   1.357  14.067 -0.2383 -0.0583 -0.8794
  620TMC3     O 9240   0.590   1.295  14.127  0.4060  0.0362  0.9236
  620TMC3     H 9241   0.321   1.350  13.864  0.0238 -0.3517 -1.8321
  620TMC3    H1 9242   0.713   1.487  13.980  0.1128 -0.8587 -0.7727
  620TMC3    H2 9243   0.485   1.698  13.691 -0.3714 -1.9843 -2.0170
  620TMC3    C7 9244   0.713   1.709  13.828  0.8376  0.0477 -0.3730
  620TMC3    C8 9245   0.267   1.581  13.816 -0.2147 -0.1142 -0.1238
  620TMC3    O1 9246   0.827   1.680  13.855 -0.1727  0.3777  0.3452
  620TMC3    O2 9247   0.224   1.541  13.926 -0.1527 -0.5087 -0.0053
  621MPD2     C 9248   1.397   1.607  10.078 -0.2702 -0.3843 -0.2142
  621MPD2    C1 9249   1.502   1.517  10.051  0.7733 -0.7275 -0.6772
  621MPD2    C2 9250   1.621   1.567   9.993 -0.4740 -0.1818 -0.3364
  621MPD2    C3 9251   1.640   1.707   9.982 -0.2053  0.8910 -0.0399
  621MPD2    C4 9252   1.529   1.788  10.008 -0.0965 -0.8855 -1.3590
  621MPD2    C5 9253   1.409   1.738  10.053 -0.5124 -0.5404 -0.4236
  621MPD2     H 9254   1.701   1.499   9.964 -0.6571  0.8174 -3.1942
  621MPD2    H1 9255   1.527   1.893   9.983 -1.2750 -0.9796 -1.6525
  621MPD2    H2 9256   1.311   1.571  10.134 -1.2974  0.7710 -1.0501
  621MPD2    H3 9257   1.329   1.804  10.087  0.8494  0.2033  1.3292
  621MPD2     N 9258   1.764   1.758   9.952  0.2049  0.6563  0.4805
  621MPD2    H5 9259   1.837   1.688   9.940  0.7388  1.0123  1.6899
  621MPD2    N1 9260   1.491   1.375  10.067 -0.3448 -0.3231 -0.7785
  621MPD2    H7 9261   1.567   1.318  10.031  0.4108 -1.4614  2.6525
  622TMC3    C1 9262   1.390   1.164  10.130 -0.5110  0.5307 -0.3099
  622TMC3    C2 9263   1.307   1.099  10.221 -0.7226  0.1237  0.3745
  622TMC3    C3 9264   1.311   0.961  10.223  0.5113  0.0516 -0.3453
  622TMC3    C4 9265   1.459   1.094  10.034  0.1867  0.1372 -0.1626
  622TMC3    C5 9266   1.460   0.955  10.038 -0.5347 -0.3131 -0.2596
  622TMC3    C6 9267   1.381   0.891  10.130 -0.0758  0.6972 -0.6171
  622TMC3     C 9268   1.380   1.305  10.124  0.8309 -0.4645  1.0035
  622TMC3     O 9269   1.287   1.354  10.181  0.0586 -0.2473  0.4828
  622TMC3     H 9270   1.252   1.155  10.295  0.5454  1.6778  0.1565
  622TMC3    H1 9271   1.529   1.144   9.968 -0.4292 -0.1135 -1.0026
  622TMC3    H2 9272   1.388   0.783  10.144  1.1032  0.8884  0.2279
  622TMC3    C7 9273   1.498   0.879   9.914  0.8078 -0.1855  0.2416
  622TMC3    C8 9274   1.237   0.887  10.326  0.6030  0.3586  0.1775
  622TMC3    O1 9275   1.492   0.756   9.912  0.4980  0.6831 -0.0375
  622TMC3    O2 9276   1.223   0.763  10.312 -0.0068  0.3577 -0.6430
  623MPD2     C 9277   4.420   2.547  15.805 -0.8301  0.1210 -0.5663
  623MPD2    C1 9278   4.335   2.500  15.898 -0.7175 -0.6936 -0.3318
  623MPD2    C2 9279   4.368   2.517  16.033  0.0740 -0.0973 -0.1550
  623MPD2    C3 9280   4.495   2.566  16.067  0.6295  0.4870 -0.6202
  623MPD2    C4 9281   4.582   2.604  15.966  0.1331 -0.3464 -0.0256
  623MPD2    C5 9282   4.543   2.592  15.838  0.0786  0.3245 -0.0215
  623MPD2     H 9283   4.304   2.476  16.110  0.6876  0.5806  0.7231
  623MPD2    H1 9284   4.679   2.645  15.993 -0.4180 -0.0300  1.4504
  623MPD2    H2 9285   4.404   2.533  15.698  0.0575  0.4033 -0.7351
  623MPD2    H3 9286   4.609   2.634  15.763 -0.4308  2.0718  0.4986
  623MPD2     N 9287   4.528   2.548  16.199 -0.0709  0.1429  0.2162
  623MPD2    H5 9288   4.453   2.519  16.261 -0.2773  1.4734  0.5821
  623MPD2    N1 9289   4.210   2.428  15.872 -0.4871  0.3646  0.2433
  623MPD2    H7 9290   4.166   2.382  15.951 -2.8426  1.9328 -0.1544
  624TMC3    C1 9291   0.005   2.375  16.568 -0.3061 -0.0495 -0.3638
  624TMC3    C2 9292   4.623   2.385  16.634  0.7705  0.0753 -0.1134
  624TMC3    C3 9293   4.527   2.475  16.591  0.5168  0.1641  0.1903
  624TMC3    C4 9294   0.018   2.445  16.451  0.2473  0.3636  0.5996
  624TMC3    C5 9295   4.652   2.517  16.402 -0.3202 -0.3072 -0.1681
  624TMC3    C6 9296   4.541   2.534  16.473 -0.2121  0.8327  0.5654
  624TMC3     C 9297   0.105   2.277  16.631  0.5136  0.3640 -0.7522
  624TMC3     O 9298   0.064   2.208  16.719 -0.4433 -0.7869 -0.8867
  624TMC3     H 9299   4.600   2.332  16.726  2.6223 -0.4380  0.0578
  624TMC3    H1 9300   0.103   2.434  16.386  0.7206 -0.0931  1.2889
  624TMC3    H2 9301   4.465   2.605  16.443 -0.3434 -0.3727 -1.9126
  624TMC3    C7 9302   4.651   2.562  16.264 -0.0506 -0.0302 -0.3909
  624TMC3    C8 9303   4.380   2.449  16.620 -0.3703  0.2140 -1.4360
  624TMC3    O1 9304   0.020   2.596  16.221 -0.5782 -0.7008 -0.0677
  624TMC3    O2 9305   4.310   2.432  16.518 -0.5449 -0.1985 -0.0618
  625MPD2     C 9306   4.623   3.227   0.809  0.5199  0.7608 -0.5117
  625MPD2    C1 9307   4.633   3.363   0.821 -0.2751  1.0272 -0.5636
  625MPD2    C2 9308   4.706   3.423   0.922  0.3892  0.2137  0.1725
  625MPD2    C3 9309   0.031   3.336   1.012  0.0711 -0.2166  0.3132
  625MPD2    C4 9310   0.010   3.203   1.003 -0.0827  0.3069  0.7987
  625MPD2    C5 9311   4.674   3.144   0.910  0.3045  0.5946 -0.9325
  625MPD2     H 9312   4.719   3.530   0.936 -0.1610  0.4034 -0.7896
  625MPD2    H1 9313   0.056   3.132   1.070 -1.6559 -1.1511  0.3516
  625MPD2    H2 9314   4.565   3.183   0.729  0.3832 -0.3634  0.2108
  625MPD2    H3 9315   4.650   3.039   0.919 -0.9513  0.9249 -0.4187
  625MPD2     N 9316   0.117   3.397   1.106 -0.2419 -0.7208 -0.2563
  625MPD2    H5 9317   0.123   3.498   1.098 -1.5022 -0.8416 -2.7997
  625MPD2    N1 9318   4.578   3.452   0.723 -0.2386  0.2135 -0.5442
  625MPD2    H7 9319   4.602   3.550   0.740 -3.7608  1.3698 -2.3180
  626TMC3    C1 9320   4.446   3.542   0.549  0.1269  0.7932 -0.3862
  626TMC3    C2 9321   4.377   3.533   0.428 -0.2132 -0.5377  0.5596
  626TMC3    C3 9322   4.293   3.639   0.383  0.5183 -0.2763 -0.3804
  626TMC3    C4 9323   4.432   3.659   0.626 -0.4452 -0.4091  0.2195
  626TMC3    C5 9324   4.354   3.759   0.576 -0.1488 -0.3502  0.1129
  626TMC3    C6 9325   4.280   3.752   0.461 -0.0136 -0.1140  0.8512
  626TMC3     C 9326   4.498   3.423   0.616  0.2218  0.1121  0.0432
  626TMC3     O 9327   4.468   3.314   0.568  0.2300 -0.4382 -0.1177
  626TMC3     H 9328   4.394   3.457   0.353 -1.9785 -0.6511  0.2722
  626TMC3    H1 9329   4.476   3.662   0.725  0.7568  0.0616 -0.3230
  626TMC3    H2 9330   4.242   3.842   0.415 -0.1035 -0.6341 -0.0810
  626TMC3    C7 9331   4.348   3.870   0.669  0.4619 -0.1187  0.5976
  626TMC3    C8 9332   4.221   3.632   0.261  0.3249 -0.5095 -0.0102
  626TMC3    O1 9333   4.440   3.897   0.743  0.1203 -0.0875  0.7447
  626TMC3    O2 9334   4.278   3.595   0.158  0.2175 -0.9283  0.0761
  627MPD2     C 9335   3.631   3.512  14.338  0.6589 -0.3189  0.3864
  627MPD2    C1 9336   3.587   3.484  14.465  0.2052  0.1054  0.6522
  627MPD2    C2 9337   3.518   3.368  14.488  0.0897 -0.4038 -0.2474
  627MPD2    C3 9338   3.499   3.278  14.385  0.2626 -0.1115  0.8768
  627MPD2    C4 9339   3.545   3.309  14.254 -0.3611 -0.1387 -0.7828
  627MPD2    C5 9340   3.606   3.425  14.235  0.1236  0.1397 -0.3747
  627MPD2     H 9341   3.486   3.341  14.588  1.5749 -0.5266  0.1992
  627MPD2    H1 9342   3.540   3.252  14.162  0.6876  0.5937 -1.2903
  627MPD2    H2 9343   3.698   3.596  14.323 -3.2289  2.5598 -0.9456
  627MPD2    H3 9344   3.658   3.459  14.146 -2.3157  3.7691 -0.4221
  627MPD2     N 9345   3.420   3.165  14.415  0.3375  0.5503 -0.4619
  627MPD2    H5 9346   3.369   3.159  14.502  0.8958  2.7396  0.0117
  627MPD2    N1 9347   3.624   3.559  14.575 -0.7335  0.0801  0.2953
  627MPD2    H7 9348   3.597   3.520  14.665 -1.1584 -2.1226 -0.7776
  628TMC3    C1 9349   3.708   3.720  14.708  0.0804 -0.0365 -0.9821
  628TMC3    C2 9350   3.770   3.638  14.797  0.1259 -0.1239 -0.0829
  628TMC3    C3 9351   3.831   3.701  14.904  0.1509 -0.5609  0.4275
  628TMC3    C4 9352   3.698   3.854  14.728  0.5119  0.2335  0.2334
  628TMC3    C5 9353   3.761   3.908  14.838  0.5663  0.3080 -0.6127
  628TMC3    C6 9354   3.833   3.833  14.925 -0.2835  0.0436 -0.1021
  628TMC3     C 9355   3.699   3.679  14.566 -0.0126  0.0509  0.4750
  628TMC3     O 9356   3.726   3.751  14.473  0.2625  0.1409  0.3642
  628TMC3     H 9357   3.812   3.547  14.756  0.9806 -0.0873  0.7230
  628TMC3    H1 9358   3.644   3.914  14.655 -0.6158  3.4714  3.7397
  628TMC3    H2 9359   3.886   3.873  15.011 -1.4366  1.0624  0.1386
  628TMC3    C7 9360   3.755   4.049  14.876 -0.5812 -0.1016  0.3500
  628TMC3    C8 9361   3.940   3.626  14.962 -0.1391 -0.9410 -0.1524
  628TMC3    O1 9362   3.810   4.083  14.978 -0.1531  0.4331  0.5873
  628TMC3    O2 9363   3.912   3.515  15.003  0.5144 -0.3827 -0.0853
  629MPD2     C 9364   1.764   2.257  16.485  0.3200 -0.7515 -0.4104
  629MPD2    C1 9365   1.711   2.236  16.610  0.3183 -0.2982 -0.0865
  629MPD2    C2 9366   1.636   2.120  16.644  0.0118  0.4835  0.0420
  629MPD2    C3 9367   1.617   2.025  16.540  0.1223 -0.1682 -0.0516
  629MPD2    C4 9368   1.659   2.063  16.414 -0.5498 -0.2139 -0.4595
  629MPD2    C5 9369   1.733   2.171  16.382  0.0014 -0.6435 -0.0440
  629MPD2     H 9370   1.596   2.101  16.743  0.1634  1.9084  0.3756
  629MPD2    H1 9371   1.638   1.989  16.338  1.9898 -0.8532 -0.5505
  629MPD2    H2 9372   1.820   2.348  16.461 -1.3770  0.4917  0.3551
  629MPD2    H3 9373   1.763   2.186  16.279  0.6286  1.9450  0.5134
  629MPD2     N 9374   1.540   1.916  16.570  0.6412 -0.0753  0.3710
  629MPD2    H5 9375   1.516   1.905  16.668  0.5637 -2.0017  0.1506
  629MPD2    N1 9376   1.740   2.339  16.702 -0.6610 -0.2840  0.1844
  629MPD2    H7 9377   1.782   2.427  16.673  1.0169 -0.6198  1.5844
  630TMC3    C1 9378   1.788   2.439  16.913 -0.5128  0.5084  0.1837
  630TMC3    C2 9379   1.779   2.559  16.849 -0.5298  0.6546 -0.1671
  630TMC3    C3 9380   1.851   2.662  16.901  0.6124  0.1999  0.1738
  630TMC3    C4 9381   1.852   2.411  17.033 -0.5301  0.4526  0.2828
  630TMC3    C5 9382   1.923   2.522  17.081 -0.8720 -1.2915 -0.1283
  630TMC3    C6 9383   1.925   2.646  17.014  0.1927  0.2973  0.2546
  630TMC3     C 9384   1.733   2.322  16.839 -0.2815 -0.2780 -0.0292
  630TMC3     O 9385   1.709   2.223  16.911  0.0260 -0.0250  0.5741
  630TMC3     H 9386   1.734   2.579  16.753 -1.2494  1.3367  0.3051
  630TMC3    H1 9387   1.852   2.308  17.066  0.5148 -0.1867 -1.7092
  630TMC3    H2 9388   1.973   2.729  17.065 -0.4756  0.1236  1.1868
  630TMC3    C7 9389   2.028   2.494  17.180 -0.8964  0.0658  1.1969
  630TMC3    C8 9390   1.870   2.783  16.830  0.0886  0.0781  0.4683
  630TMC3    O1 9391   2.016   2.392  17.249 -0.0249  0.5774  0.1114
  630TMC3    O2 9392   1.965   2.849  16.861 -0.5254 -0.5301 -0.4200
  631MPD2     C 9393   4.640   1.989  15.503 -0.4948  0.6430  0.7481
  631MPD2    C1 9394   4.738   2.063  15.446 -0.1949  0.5450 -0.0574
  631MPD2    C2 9395   0.127   2.057  15.492 -0.8157  0.5473 -0.6213
  631MPD2    C3 9396   0.158   1.976  15.603  0.3033 -0.4514 -0.3510
  631MPD2    C4 9397   0.062   1.898  15.659 -0.3157 -0.3930 -0.2598
  631MPD2    C5 9398   4.675   1.908  15.608  0.1794  0.2404 -0.9023
  631MPD2     H 9399   0.207   2.115  15.447  0.7717 -1.4734 -0.4323
  631MPD2    H1 9400   0.074   1.827  15.740 -4.0483 -1.7765 -0.9110
  631MPD2    H2 9401   4.535   1.994  15.480 -0.3169  0.9503 -0.0245
  631MPD2    H3 9402   4.603   1.855  15.669 -0.8114 -1.0498 -3.1758
  631MPD2     N 9403   0.286   1.983  15.643  0.5203  0.0517  0.1159
  631MPD2    H5 9404   0.346   2.046  15.592 -0.2904  0.0012 -0.9139
  631MPD2    N1 9405   4.709   2.146  15.331  0.4734 -0.3770  0.1557
  631MPD2    H7 9406   4.610   2.162  15.312  0.0241  0.8818  3.5048
  632TMC3    C1 9407   4.725   2.305  15.152 -0.1127  0.1637  0.6020
  632TMC3    C2 9408   4.632   2.390  15.205 -0.4453  0.4870 -0.2582
  632TMC3    C3 9409   4.616   2.520  15.180  0.5172 -0.3348 -0.2093
  632TMC3    C4 9410   0.075   2.354  15.059  1.2751 -0.3434  0.1622
  632TMC3    C5 9411   0.056   2.484  15.020  0.2251  0.0490  0.2705
  632TMC3    C6 9412   4.698   2.564  15.076  0.0478  0.2418  0.0166
  632TMC3     C 9413   0.053   2.215  15.250 -0.3634 -0.8405 -0.6909
  632TMC3     O 9414   0.173   2.199  15.230  0.1939  0.4741  0.0949
  632TMC3     H 9415   4.562   2.359  15.282 -0.5625 -1.9623 -1.3793
  632TMC3    H1 9416   0.142   2.284  15.011  1.4457 -0.3458  0.3981
  632TMC3    H2 9417   4.681   2.664  15.037  1.0071  0.3693 -0.0745
  632TMC3    C7 9418   0.163   2.560  14.964  0.3631  0.2944  0.3700
  632TMC3    C8 9419   4.572   2.606  15.293 -1.1445  0.7412  0.2508
  632TMC3    O1 9420   0.138   2.668  14.923  0.0014  0.2695  0.0122
  632TMC3    O2 9421   4.520   2.544  15.387  0.0784  0.3428 -0.0134
  633MPD2     C 9422   4.345   0.242  17.331  0.1507 -0.2322  0.4030
  633MPD2    C1 9423   4.318   0.188  17.208 -0.7353 -0.0578  0.6527
  633MPD2    C2 9424   4.282   0.055  17.200 -0.0199  0.5245  0.1183
  633MPD2    C3 9425   4.249   4.722  17.319  0.0750  0.2971  0.5448
  633MPD2    C4 9426   4.270   0.047  17.436  0.4211 -0.8820  0.2298
  633MPD2    C5 9427   4.317   0.167  17.444 -0.2648 -0.0945  0.3631
  633MPD2     H 9428   4.280   0.010  17.102  0.7491  1.9434 -0.5590
  633MPD2    H1 9429   4.243   0.001  17.531  0.2963  0.4738  0.8493
  633MPD2    H2 9430   4.381   0.343  17.349 -2.3990  0.6888  0.2528
  633MPD2    H3 9431   4.327   0.216  17.541  0.5055 -1.5140  0.9991
  633MPD2     N 9432   4.178   4.605  17.320 -0.3173 -0.3414 -0.0765
  633MPD2    H5 9433   4.184   4.548  17.405  2.4463  1.6378  1.0349
  633MPD2    N1 9434   4.351   0.259  17.092  0.3457 -0.6995 -0.6407
  633MPD2    H7 9435   4.342   0.205  17.007 -1.4042 -1.6981  0.1642
  634TMC3    C1 9436   4.412   0.431  16.952  0.4394 -0.5233  0.1309
  634TMC3    C2 9437   4.436   0.346  16.845 -0.4755 -0.4583  0.5000
  634TMC3    C3 9438   4.411   0.378  16.709  0.4988 -0.0581  0.0943
  634TMC3    C4 9439   4.355   0.551  16.916  0.3947  0.1471  0.8131
  634TMC3    C5 9440   4.343   0.592  16.787 -0.1545  0.4706  0.3580
  634TMC3    C6 9441   4.371   0.510  16.679 -0.4308 -0.1157 -0.0702
  634TMC3     C 9442   4.397   0.386  17.086  0.2645 -0.3485  0.0857
  634TMC3     O 9443   4.395   0.474  17.171  0.1993 -0.1175  0.0134
  634TMC3     H 9444   4.484   0.253  16.874 -0.1625 -0.5065 -0.1651
  634TMC3    H1 9445   4.314   0.615  16.993 -1.8796  1.8320 -1.7917
  634TMC3    H2 9446   4.343   0.532  16.576 -0.6557 -0.5562 -0.1033
  634TMC3    C7 9447   4.282   0.721  16.756 -0.4346 -1.4506 -0.4888
  634TMC3    C8 9448   4.457   0.282  16.607 -0.1439  0.3348 -0.0569
  634TMC3    O1 9449   4.274   0.750  16.636  0.4224  0.5015  0.0368
  634TMC3    O2 9450   4.467   0.169  16.649  0.7984 -0.2293  0.2093
  635TMC3    C1 9451   4.269   1.456   0.605 -1.2952 -0.4370 -0.1737
  635TMC3    C2 9452   4.295   1.358   0.512 -0.8430  0.7151  0.3465
  635TMC3    C3 9453   4.223   1.235   0.522 -0.1644 -0.3735 -0.3268
  635TMC3    C4 9454   4.165   1.436   0.697 -0.0962  0.5237 -0.6990
  635TMC3    C5 9455   4.087   1.322   0.696  0.3461  0.1230 -0.0182
  635TMC3    C6 9456   4.121   1.215   0.616  0.0172 -0.5502 -0.6630
  635TMC3     C 9457   4.348   1.571   0.593 -0.5578  0.2109  0.1893
  635TMC3     O 9458   4.367   1.633   0.700 -0.2564 -0.2030  0.3593
  635TMC3     H 9459   4.385   1.353   0.453 -0.2572  1.2415  1.1939
  635TMC3    H1 9460   4.134   1.528   0.746  2.1124  0.1778  1.3327
  635TMC3    H2 9461   4.076   1.117   0.627  0.1882 -0.6040 -0.4435
  635TMC3    C7 9462   3.946   1.339   0.731 -0.0683  0.3515 -0.3471
  635TMC3    C8 9463   4.270   1.125   0.445  0.2478  0.1243  0.5988
  635TMC3    O1 9464   3.873   1.261   0.670 -0.2711  0.2584 -0.8857
  635TMC3    O2 9465   4.260   1.013   0.491  0.5293 -0.1546 -0.5696
  636MPD2     C 9466   1.113   0.111  15.849  0.2194  1.0175  0.3693
  636MPD2    C1 9467   1.148   0.098  15.982 -0.3470 -0.1488  0.3341
  636MPD2    C2 9468   1.167   4.718  16.049  0.2028 -0.2081 -0.0553
  636MPD2    C3 9469   1.169   4.601  15.971  0.6049  0.7464  0.5384
  636MPD2    C4 9470   1.131   4.611  15.841  0.1132 -0.0899  0.3233
  636MPD2    C5 9471   1.103   4.731  15.784  0.1591 -0.5458  0.4790
  636MPD2     H 9472   1.189   4.719  16.155  0.6519 -1.9294 -0.1410
  636MPD2    H1 9473   1.118   4.523  15.779  3.1095  0.3780 -0.9734
  636MPD2    H2 9474   1.085   0.201  15.796  1.9353  2.6616  2.2692
  636MPD2    H3 9475   1.085   4.735  15.677  3.2377 -1.3917 -0.0449
  636MPD2     N 9476   1.218   4.483  16.025  0.9263  0.1506  0.4977
  636MPD2    H5 9477   1.253   4.485  16.120 -0.2004 -0.0937  0.9158
  636MPD2    N1 9478   1.150   0.205  16.071 -0.1350 -0.0909  0.1216
  636MPD2    H7 9479   1.147   0.180  16.169  0.6779  0.0545  0.1860
  637TMC3    C1 9480   1.327   4.277  16.033 -0.2458 -0.7185  0.3850
  637TMC3    C2 9481   1.285   4.231  16.148  0.3392  0.3131  0.6254
  637TMC3    C3 9482   1.377   4.176  16.229 -0.5676 -0.2675  0.1406
  637TMC3    C4 9483   1.451   4.269  15.985  0.8138  0.5879  0.0404
  637TMC3    C5 9484   1.546   4.218  16.070 -0.3384 -0.4676  0.3007
  637TMC3    C6 9485   1.509   4.174  16.196  0.4992  0.1512  0.2717
  637TMC3     C 9486   1.247   4.369  15.956 -0.1863 -0.4168  0.3755
  637TMC3     O 9487   1.255   4.355  15.833 -0.2615 -0.7827 -0.3891
  637TMC3     H 9488   1.180   4.238  16.174  0.5498  2.0722  1.0000
  637TMC3    H1 9489   1.464   4.305  15.883  1.1591  1.5813  0.4272
  637TMC3    H2 9490   1.576   4.117  16.260  0.6224 -0.8041 -0.7025
  637TMC3    C7 9491   1.638   4.319  16.097 -0.4101  0.3795 -0.3924
  637TMC3    C8 9492   1.353   4.203  16.369 -0.4917 -0.4854 -0.0370
  637TMC3    O1 9493   1.649   4.341  16.217  0.4211 -0.0016  0.0319
  637TMC3    O2 9494   1.240   4.207  16.410 -0.8076 -0.5388  0.2332
  638MPD2     C 9495   1.126   4.454  15.014  0.0883  0.3136  0.0795
  638MPD2    C1 9496   1.195   4.331  15.029  0.3406 -0.3631  0.3786
  638MPD2    C2 9497   1.137   4.236  15.103  0.8610 -0.3940  0.5513
  638MPD2    C3 9498   1.007   4.250  15.157  0.7471 -0.9206  0.2663
  638MPD2    C4 9499   0.942   4.371  15.145  0.2296 -0.1353 -0.2047
  638MPD2    C5 9500   1.010   4.472  15.084  0.1188  0.5562 -0.5949
  638MPD2     H 9501   1.191   4.142  15.110  3.6226  1.0719 -1.0840
  638MPD2    H1 9502   0.848   4.408  15.184  0.3905 -0.6667  0.6967
  638MPD2    H2 9503   1.164   4.539  14.959  1.0273  0.9878  1.7592
  638MPD2    H3 9504   0.965   4.570  15.073 -2.1825 -0.3852  0.5593
  638MPD2     N 9505   0.945   4.137  15.216  0.5596 -0.3552 -0.5245
  638MPD2    H5 9506   1.007   4.057  15.209  0.1799 -0.6596 -0.3662
  638MPD2    N1 9507   1.315   4.310  14.967  0.2763  0.5327 -0.5188
  638MPD2    H7 9508   1.348   4.387  14.909  0.4363  0.2691 -0.7830
  639TMC3    C1 9509   0.777   3.995  15.284  0.6552 -0.1378 -0.3315
  639TMC3    C2 9510   0.652   3.966  15.245 -0.0669  0.7623 -0.5527
  639TMC3    C3 9511   0.612   3.831  15.237  0.1312 -0.4183 -0.5616
  639TMC3    C4 9512   0.863   3.902  15.326  0.1239 -0.1461  0.1605
  639TMC3    C5 9513   0.823   3.775  15.313 -0.3812  0.1471 -0.3775
  639TMC3    C6 9514   0.702   3.741  15.270 -0.3796 -0.4264  0.0593
  639TMC3     C 9515   0.816   4.128  15.253 -0.2913  0.2034  0.2237
  639TMC3     O 9516   0.735   4.220  15.265 -0.1855 -0.0693 -0.7127
  639TMC3     H 9517   0.588   4.042  15.203 -0.2909 -0.9799 -3.4028
  639TMC3    H1 9518   0.960   3.933  15.363  1.3761 -1.2293 -2.2420
  639TMC3    H2 9519   0.691   3.634  15.262  1.5133 -0.6879  0.8276
  639TMC3    C7 9520   0.903   3.656  15.360  0.5857 -0.4589  0.3055
  639TMC3    C8 9521   0.533   3.799  15.117  0.2482  0.7465  0.2807
  639TMC3    O1 9522   0.846   3.544  15.380 -0.8900 -0.5440 -0.4341
  639TMC3    O2 9523   0.590   3.744  15.024 -0.1183  0.1913 -0.1277
  640MPD2     C 9524   2.955   2.631  10.274 -0.9007 -0.0000 -1.0451
  640MPD2    C1 9525   2.857   2.564  10.212 -0.2530  0.3472 -0.5387
  640MPD2    C2 9526   2.734   2.568  10.267  0.0007 -0.3663  0.2039
  640MPD2    C3 9527   2.708   2.642  10.381 -0.0044 -0.5908  0.4311
  640MPD2    C4 9528   2.815   2.698  10.452  0.1780  0.1783 -0.6300
  640MPD2    C5 9529   2.936   2.696  10.394 -0.3118  0.1334  0.2257
  640MPD2     H 9530   2.652   2.526  10.210 -0.3152 -0.1820  0.5255
  640MPD2    H1 9531   2.798   2.752  10.545  3.9018  1.0230 -0.4344
  640MPD2    H2 9532   3.052   2.648  10.228  0.0585 -0.3094  0.8346
  640MPD2    H3 9533   3.012   2.762  10.435  0.8474 -1.0595 -0.0056
  640MPD2     N 9534   2.581   2.651  10.444  0.4757 -0.2258 -0.1631
  640MPD2    H5 9535   2.581   2.703  10.531  0.9907  0.7174 -0.7243
  640MPD2    N1 9536   2.886   2.486  10.092 -0.2666  0.2159 -0.6105
  640MPD2    H7 9537   2.983   2.490  10.064  0.0048 -1.6505  0.0652
  641TMC3    C1 9538   2.881   2.338   9.920 -0.2031  0.0617 -0.0424
  641TMC3    C2 9539   2.833   2.220   9.872 -0.1217  0.0012 -0.1767
  641TMC3    C3 9540   2.917   2.144   9.794  0.4480  0.0840  0.3022
  641TMC3    C4 9541   2.996   2.398   9.878  0.6126 -0.1496 -0.1514
  641TMC3    C5 9542   3.072   2.317   9.790 -0.2798 -0.4250 -0.4372
  641TMC3    C6 9543   3.039   2.190   9.753  0.0438 -0.0924 -0.8960
  641TMC3     C 9544   2.796   2.422  10.007 -0.9550  0.1817  0.1074
  641TMC3     O 9545   2.675   2.393  10.019  0.5595 -0.0042 -0.1194
  641TMC3     H 9546   2.743   2.175   9.913 -1.1949  1.1043 -1.3517
  641TMC3    H1 9547   3.017   2.501   9.904  1.3831 -0.3547  0.0409
  641TMC3    H2 9548   3.099   2.136   9.682 -0.5599 -1.2440 -0.5328
  641TMC3    C7 9549   3.185   2.372   9.726 -0.6061  0.2199 -0.1081
  641TMC3    C8 9550   2.866   2.026   9.736  0.1212  0.3362 -0.4328
  641TMC3    O1 9551   3.268   2.296   9.678 -0.4302  0.4566 -0.8943
  641TMC3    O2 9552   2.743   2.019   9.709 -0.1981 -0.1567 -0.6102
  642TMC3    C1 9553   2.893   3.672  12.851 -0.3319  0.4938  1.0675
  642TMC3    C2 9554   3.006   3.663  12.763  0.3175 -0.0331 -0.5389
  642TMC3    C3 9555   3.030   3.544  12.702  0.5382 -0.6575  0.9568
  642TMC3    C4 9556   2.796   3.576  12.862  1.0959 -0.2655 -0.2164
  642TMC3    C5 9557   2.821   3.462  12.788 -0.2804  0.2790  0.1868
  642TMC3    C6 9558   2.938   3.444  12.715 -0.3550 -0.0388 -0.3070
  642TMC3     C 9559   2.875   3.814  12.898  0.6135  0.1797  0.2189
  642TMC3     O 9560   2.978   3.872  12.934 -0.1449  0.7883 -0.5160
  642TMC3     H 9561   3.061   3.754  12.744  0.5105  0.1536  0.8705
  642TMC3    H1 9562   2.706   3.600  12.918  1.0566  0.2376 -0.4964
  642TMC3    H2 9563   2.951   3.347  12.669 -0.0756  0.3089 -0.9610
  642TMC3    C7 9564   2.735   3.347  12.795  0.0858 -0.1124 -0.5070
  642TMC3    C8 9565   3.141   3.524  12.617 -0.3406  0.1576  0.4846
  642TMC3    O1 9566   2.752   3.252  12.720 -0.0096 -0.4396  0.1885
  642TMC3    O2 9567   3.126   3.423  12.547  0.2279  0.0462 -0.2193
  643TMC3    C1 9568   1.425   3.016   0.255  0.3632 -0.3655 -0.2855
  643TMC3    C2 9569   1.295   2.970   0.242 -0.5409 -0.4587 -0.2391
  643TMC3    C3 9570   1.243   2.930   0.118 -0.4075  0.1455 -0.2142
  643TMC3    C4 9571   1.512   3.011   0.150 -0.1161 -0.4893  0.0427
  643TMC3    C5 9572   1.462   2.963   0.033 -0.0633 -0.3025  0.4567
  643TMC3    C6 9573   1.335   2.926   0.011 -0.4311 -0.0212 -0.1799
  643TMC3     C 9574   1.460   3.085   0.380  0.6098 -1.0948 -0.2783
  643TMC3     O 9575   1.368   3.124   0.453  0.0280  0.6295  0.0090
  643TMC3     H 9576   1.223   2.981   0.321  0.3705 -0.3636  0.5741
  643TMC3    H1 9577   1.614   3.047   0.149 -0.0203 -0.7786 -0.7094
  643TMC3    H2 9578   1.306   2.906  17.666  0.6014 -1.0602 -0.2691
  643TMC3    C7 9579   1.523   3.031  17.676 -1.0457  0.7847 -0.6427
  643TMC3    C8 9580   1.125   3.009   0.094  0.9528 -0.1472 -0.3342
  643TMC3    O1 9581   1.516   3.153  17.670  0.1710  0.4584 -0.1440
  643TMC3    O2 9582   1.028   2.991   0.167  0.9064  0.2936  0.1232
  644MPD2     C 9583   3.355   3.013   9.799  0.3165  0.7986 -0.0910
  644MPD2    C1 9584   3.271   2.936   9.869 -0.2908 -0.1946 -0.0618
  644MPD2    C2 9585   3.137   2.975   9.888 -0.6002 -0.8667  0.0534
  644MPD2    C3 9586   3.092   3.087   9.825 -0.7165 -0.2493 -0.5160
  644MPD2    C4 9587   3.181   3.168   9.757  0.3845  0.0523  0.5265
  644MPD2    C5 9588   3.307   3.126   9.732 -0.6659  0.3534 -0.6894
  644MPD2     H 9589   3.071   2.910   9.944 -1.2659 -2.0319 -2.1130
  644MPD2    H1 9590   3.150   3.244   9.686  2.8160  0.8001  0.2774
  644MPD2    H2 9591   3.461   2.991   9.804  0.4131  0.6698 -3.1853
  644MPD2    H3 9592   3.367   3.188   9.667 -1.7913  0.2318 -1.8300
  644MPD2     N 9593   2.953   3.114   9.845  0.6690 -0.4987 -0.5924
  644MPD2    H5 9594   2.897   3.043   9.891  0.6506 -0.4528 -0.5444
  644MPD2    N1 9595   3.326   2.812   9.917  0.0605 -0.2362 -0.6591
  644MPD2    H7 9596   3.427   2.804   9.909  0.2372  0.2946  1.1265
  645TMC3    C1 9597   2.755   3.254   9.841  0.0294  0.4552  0.2278
  645TMC3    C2 9598   2.693   3.358   9.780 -0.3392 -0.3310  0.6143
  645TMC3    C3 9599   2.557   3.368   9.799  0.3335 -1.1324 -0.7507
  645TMC3    C4 9600   2.684   3.173   9.925  0.3247  0.5151 -0.0316
  645TMC3    C5 9601   2.551   3.192   9.947 -0.0201 -0.2509  0.4749
  645TMC3    C6 9602   2.485   3.289   9.880  0.1535 -0.7998  0.0812
  645TMC3     C 9603   2.895   3.233   9.807 -0.7287  0.4911 -0.3670
  645TMC3     O 9604   2.938   3.322   9.740  0.6713  0.2917  0.6873
  645TMC3     H 9605   2.739   3.438   9.724 -1.2769  0.8343  1.5073
  645TMC3    H1 9606   2.735   3.088   9.970  0.1544  0.0520 -0.7095
  645TMC3    H2 9607   2.377   3.292   9.886  0.1401 -1.9819  0.4240
  645TMC3    C7 9608   2.488   3.059   9.954  0.0062 -0.8092  0.3633
  645TMC3    C8 9609   2.496   3.496   9.763  0.0024 -0.1522  0.4256
  645TMC3    O1 9610   2.563   2.962   9.937 -0.2835 -0.2493  0.7209
  645TMC3    O2 9611   2.572   3.588   9.763 -0.1678 -0.0341 -0.7242
  646MPD2     C 9612   0.957   2.971  14.517  0.7929  0.3057  0.1427
  646MPD2    C1 9613   0.867   2.986  14.623 -0.1238 -0.6076 -0.3779
  646MPD2    C2 9614   0.758   3.072  14.612 -0.3470  0.4932  0.7655
  646MPD2    C3 9615   0.749   3.154  14.500 -0.0110  0.1341  0.2082
  646MPD2    C4 9616   0.851   3.148  14.406 -0.2279  0.9651  0.5881
  646MPD2    C5 9617   0.959   3.069  14.425 -0.3784 -0.1887 -0.3326
  646MPD2     H 9618   0.691   3.108  14.689  0.7573  0.9685  1.5040
  646MPD2    H1 9619   0.844   3.211  14.319  0.4898 -1.3091 -1.1222
  646MPD2    H2 9620   1.039   2.900  14.522 -1.0148 -1.7656  0.3532
  646MPD2    H3 9621   1.025   3.054  14.340 -1.5319 -0.3059 -1.2065
  646MPD2     N 9622   0.633   3.237  14.497  0.0929 -0.8970 -0.4435
  646MPD2    H5 9623   0.562   3.217  14.566  0.9358  0.4538  0.8200
  646MPD2    N1 9624   0.899   2.915  14.742  0.3238  0.3700 -0.5619
  646MPD2    H7 9625   0.991   2.872  14.746 -0.0791 -0.4252  0.2255
  647TMC3    C1 9626   0.895   2.846  14.972  1.0796 -0.1881  0.0627
  647TMC3    C2 9627   0.814   2.812  15.075 -1.0818 -0.7007 -1.3830
  647TMC3    C3 9628   0.875   2.793  15.199  0.3210 -0.7059  0.0571
  647TMC3    C4 9629   1.031   2.849  14.981  1.2502  0.3222 -0.4548
  647TMC3    C5 9630   1.087   2.829  15.106 -0.6163  0.5353  0.3877
  647TMC3    C6 9631   1.013   2.807  15.221 -0.1927 -0.0270 -0.9574
  647TMC3     C 9632   0.824   2.897  14.850 -0.5937 -0.2219 -0.2895
  647TMC3     O 9633   0.714   2.943  14.872 -0.2232 -0.2342  0.0061
  647TMC3     H 9634   0.706   2.814  15.070 -0.9836  2.9819 -1.7021
  647TMC3    H1 9635   1.089   2.886  14.897 -0.3946  1.1295 -1.2432
  647TMC3    H2 9636   1.061   2.781  15.315  0.8232  2.6315 -0.7433
  647TMC3    C7 9637   1.227   2.823  15.118  1.1771  0.5389  0.3269
  647TMC3    C8 9638   0.814   2.693  15.280 -0.2231 -0.2632  0.6846
  647TMC3    O1 9639   1.270   2.827  15.232  0.3381 -0.3851 -0.0872
  647TMC3    O2 9640   0.890   2.616  15.339  0.4622  0.2351 -0.0774
  648TMC3    C1 9641   0.006   0.569  15.999 -0.2506  0.1586  0.0587
  648TMC3    C2 9642   0.045   0.464  15.924  0.1349  0.1739  0.0354
  648TMC3    C3 9643   4.709   0.427  15.812 -0.8278 -0.5428 -1.1059
  648TMC3    C4 9644   4.638   0.648  15.974 -0.6509 -0.4511  0.2221
  648TMC3    C5 9645   4.560   0.602  15.865 -0.4050 -0.2508 -0.2263
  648TMC3    C6 9646   4.585   0.494  15.787 -0.7149 -0.6484 -0.2970
  648TMC3     C 9647   0.046   0.583  16.141  0.0005  0.2228  0.5858
  648TMC3     O 9648   4.728   0.675  16.203 -0.3999  0.6496 -0.4351
  648TMC3     H 9649   0.124   0.400  15.961  0.2638  0.7111  0.6678
  648TMC3    H1 9650   4.620   0.744  16.019 -2.3329 -0.5582 -0.2451
  648TMC3    H2 9651   4.521   0.467  15.704  0.1927 -0.4432 -1.0596
  648TMC3    C7 9652   4.486   0.708  15.802 -0.2254 -0.3754 -0.0895
  648TMC3    C8 9653   0.005   0.308  15.733 -0.0991 -0.5404 -0.1004
  648TMC3    O1 9654   4.496   0.718  15.683  0.3073  0.3118  0.4076
  648TMC3    O2 9655   4.659   0.263  15.656 -0.3344  0.6215  0.1073
  649TMC3    C1 9656   4.360   1.450  13.420  0.8971 -1.2299  0.5935
  649TMC3    C2 9657   4.372   1.583  13.403  0.6142 -0.0472  0.0760
  649TMC3    C3 9658   4.328   1.661  13.505  0.1841  0.0170  0.3617
  649TMC3    C4 9659   4.325   1.388  13.541  0.0157  0.5540  1.3705
  649TMC3    C5 9660   4.271   1.475  13.639  0.5101  0.0016 -0.4951
  649TMC3    C6 9661   4.261   1.611  13.621 -0.0858  0.2833 -0.2807
  649TMC3     C 9662   4.417   1.367  13.318 -0.4604 -0.1436 -0.4387
  649TMC3     O 9663   4.465   1.261  13.343  0.5331 -0.4498  0.1563
  649TMC3     H 9664   4.417   1.632  13.318 -1.9802  3.3066  0.6408
  649TMC3    H1 9665   4.310   1.281  13.536 -0.7784  0.6055  2.6865
  649TMC3    H2 9666   4.208   1.667  13.697  0.4978  1.0649 -0.4495
  649TMC3    C7 9667   4.154   1.426  13.700  0.4398 -0.0233 -0.6337
  649TMC3    C8 9668   4.336   1.801  13.494  0.2036  0.6697  0.1558
  649TMC3    O1 9669   4.053   1.486  13.669 -0.4516  0.3475 -0.0118
  649TMC3    O2 9670   4.386   1.842  13.390 -0.0279 -0.9308  0.2324
  650TMC3    C1 9671   1.909   2.938  12.908  0.6904 -0.4423 -1.0922
  650TMC3    C2 9672   1.818   3.038  12.934  0.4706  0.0912  0.0836
  650TMC3    C3 9673   1.843   3.163  12.888  0.1202  1.1926  0.2184
  650TMC3    C4 9674   2.023   2.955  12.835  0.3021 -0.4584  0.6012
  650TMC3    C5 9675   2.045   3.087  12.792  0.4628 -0.4334 -0.3556
  650TMC3    C6 9676   1.958   3.193  12.820  0.6050  0.1159  0.3255
  650TMC3     C 9677   1.890   2.826  12.992  0.3970 -0.1366  0.2445
  650TMC3     O 9678   1.774   2.821  13.031  0.2813 -0.0422  0.3285
  650TMC3     H 9679   1.728   3.026  12.994  0.8534  2.2390  1.0875
  650TMC3    H1 9680   2.097   2.878  12.815 -2.1362 -1.6465 -3.7051
  650TMC3    H2 9681   1.979   3.287  12.770 -1.0091  0.3848  0.1507
  650TMC3    C7 9682   2.141   3.101  12.686 -0.3294 -0.7962 -0.3401
  650TMC3    C8 9683   1.744   3.260  12.924 -0.2280 -0.0324 -0.1015
  650TMC3    O1 9684   2.168   2.996  12.631  0.2154  0.1206  0.3637
  650TMC3    O2 9685   1.630   3.218  12.949  0.0569 -0.4669 -0.2076
  651MPD2     C 9686   1.053   4.420  10.730 -0.5485  0.0125 -0.4829
  651MPD2    C1 9687   1.068   4.555  10.770  0.0515  0.1024 -0.7533
  651MPD2    C2 9688   1.190   4.616  10.739  0.1019  0.3049  0.1981
  651MPD2    C3 9689   1.282   4.563  10.653  0.3420 -0.4038  0.2779
  651MPD2    C4 9690   1.263   4.434  10.615 -0.6031  0.6014  0.1715
  651MPD2    C5 9691   1.149   4.362  10.651  0.1050 -0.1509 -0.2343
  651MPD2     H 9692   1.213   4.709  10.789 -1.5030 -1.0284  3.3885
  651MPD2    H1 9693   1.337   4.372  10.565  0.4383  4.0605 -2.5719
  651MPD2    H2 9694   0.962   4.364  10.751 -0.0624 -1.5085 -2.4243
  651MPD2    H3 9695   1.141   4.258  10.620 -1.1524  0.3394 -1.5482
  651MPD2     N 9696   1.397   4.640  10.622  0.1206  0.0729  0.1500
  651MPD2    H5 9697   1.400   4.735  10.656 -0.9877  0.7309 -1.5701
  651MPD2    N1 9698   0.987   4.622  10.858 -0.4143  0.2145 -0.6392
  651MPD2    H7 9699   1.009   4.715  10.892  0.4065 -0.4203  0.5858
  652TMC3    C1 9700   1.843   4.732  10.508  0.3589  0.5891  0.7641
  652TMC3    C2 9701   1.744   4.646  10.554 -0.0978  0.2710 -0.1913
  652TMC3    C3 9702   1.614   4.690  10.549  0.3998  0.1404  0.4153
  652TMC3    C4 9703   1.811   0.111  10.447 -0.1075 -0.8061  0.2667
  652TMC3    C5 9704   1.675   0.146  10.437 -0.0164 -0.2814  0.2166
  652TMC3    C6 9705   1.575   0.067  10.485 -0.3728 -0.0363  0.4347
  652TMC3     C 9706   1.974   4.718  10.563 -0.0963 -0.3116 -0.1012
  652TMC3     O 9707   1.992   4.651  10.662  0.2804  0.0676  0.0685
  652TMC3     H 9708   1.775   4.551  10.596 -1.5107 -0.0902  0.0210
  652TMC3    H1 9709   1.890   0.183  10.434 -1.7198  1.0327  0.6899
  652TMC3    H2 9710   1.470   0.094  10.482  0.2488  2.1389 -1.4214
  652TMC3    C7 9711   1.626   0.277  10.404  0.2192  0.6359 -0.3140
  652TMC3    C8 9712   1.514   4.589  10.571 -0.1463  0.6999 -0.1659
  652TMC3    O1 9713   1.503   0.304  10.410 -0.1511 -0.2084 -0.2043
  652TMC3    O2 9714   1.548   4.471  10.553 -0.0768  0.0825  0.4750
  653MPD2     C 9715   4.051   0.289  17.747  0.1807 -0.6134  0.5776
  653MPD2    C1 9716   4.017   0.386  17.652 -0.2254 -0.5051 -0.0655
  653MPD2    C2 9717   3.969   0.355  17.528  0.3555  0.0717  0.2903
  653MPD2    C3 9718   3.938   0.227  17.487  0.0045 -0.0587 -0.3075
  653MPD2    C4 9719   3.981   0.128  17.579 -0.0640 -0.0867  0.2845
  653MPD2    C5 9720   4.033   0.157  17.706 -0.3423  0.6021 -0.1535
  653MPD2     H 9721   3.946   0.439  17.462  0.6505 -0.0057  0.0906
  653MPD2    H1 9722   3.969   0.022  17.563  1.8625  0.1252 -2.5245
  653MPD2    H2 9723   4.108   0.303   0.080  1.8293 -1.6201 -0.3012
  653MPD2    H3 9724   4.069   0.076   0.012  1.2567  1.3279 -0.1115
  653MPD2     N 9725   3.878   0.198  17.358 -0.2697  0.1890 -0.6627
  653MPD2    H5 9726   3.856   0.279  17.301  2.7091  0.8077 -0.9197
  653MPD2    N1 9727   4.018   0.522  17.684  0.3543 -0.0033 -0.2345
  653MPD2    H7 9728   3.973   0.590  17.623 -0.2998 -0.8162 -0.6670
  654TMC3    C1 9729   3.772   0.080  17.185 -0.1216 -0.1962 -0.2017
  654TMC3    C2 9730   3.711   0.194  17.135 -0.6793  0.3164  0.3922
  654TMC3    C3 9731   3.660   0.193  17.010 -0.2832  0.1240  0.7905
  654TMC3    C4 9732   3.777   4.711  17.108  0.6052  0.6030  0.0690
  654TMC3    C5 9733   3.712   4.719  16.989  0.4061 -0.4154 -0.1987
  654TMC3    C6 9734   3.656   0.086  16.931 -0.2860 -0.3188  0.5864
  654TMC3     C 9735   3.841   0.075  17.312 -0.1742  0.4317 -0.3453
  654TMC3     O 9736   3.846   4.708  17.367 -0.4315  0.0959 -0.4131
  654TMC3     H 9737   3.691   0.281  17.195 -0.3819  1.3098 -0.9568
  654TMC3    H1 9738   3.839   4.625  17.134  1.6013  1.6427  1.1191
  654TMC3    H2 9739   3.595   0.073  16.842  1.6748  0.0497 -0.8094
  654TMC3    C7 9740   3.711   4.601  16.905  0.9596 -0.1582 -0.3453
  654TMC3    C8 9741   3.637   0.319  16.946 -0.1966  0.1156  0.0331
  654TMC3    O1 9742   3.679   4.611  16.792 -0.2745 -0.0126  0.6253
  654TMC3    O2 9743   3.636   0.414  17.023 -0.8164  0.0719  0.1794
  655MPD2     C 9744   0.494   0.939  15.856  0.0278  0.4848  0.5199
  655MPD2    C1 9745   0.410   0.978  15.751 -0.0212 -0.4040 -0.1136
  655MPD2    C2 9746   0.421   0.925  15.622  0.0860 -0.1763  0.2814
  655MPD2    C3 9747   0.512   0.830  15.594 -0.7005  1.4503 -0.5838
  655MPD2    C4 9748   0.607   0.803  15.690  0.7856  1.2975 -0.2470
  655MPD2    C5 9749   0.595   0.853  15.821  0.0018 -0.5620 -0.1504
  655MPD2     H 9750   0.361   0.955  15.537  0.4435 -1.8623 -0.5762
  655MPD2    H1 9751   0.690   0.736  15.671 -1.9628 -2.4081  0.6498
  655MPD2    H2 9752   0.478   0.976  15.956 -2.9748  1.3250 -0.2531
  655MPD2    H3 9753   0.665   0.819  15.896 -0.0953  0.6313  0.4852
  655MPD2     N 9754   0.527   0.774  15.469 -0.2521  0.0262 -0.7310
  655MPD2    H5 9755   0.598   0.702  15.461 -0.3023 -0.1007 -0.0463
  655MPD2    N1 9756   0.296   1.060  15.776  0.4812 -0.5116  0.5841
  655MPD2    H7 9757   0.231   1.063  15.698 -0.6916  0.4693  1.5924
  656TMC3    C1 9758   0.132   1.189  15.888  0.1188 -0.0255 -1.2404
  656TMC3    C2 9759   0.081   1.214  16.011 -0.6812 -0.8367 -0.3471
  656TMC3    C3 9760   4.701   1.269  16.015 -0.1468 -0.2325  0.6140
  656TMC3    C4 9761   0.067   1.207  15.769 -0.5558  0.7302  1.0629
  656TMC3    C5 9762   4.683   1.252  15.778  0.4991  0.3122  0.2778
  656TMC3    C6 9763   4.630   1.285  15.897  0.2999  0.0263  0.1222
  656TMC3     C 9764   0.265   1.129  15.890  0.7170  0.5417 -0.0709
  656TMC3     O 9765   0.316   1.120  16.004  0.5351 -0.3203 -0.1368
  656TMC3     H 9766   0.135   1.214  16.105 -1.3775 -3.3025  0.0394
  656TMC3    H1 9767   0.107   1.191  15.670  0.4154 -2.7222  1.9982
  656TMC3    H2 9768   4.523   1.301  15.903  0.2991  0.7485 -1.6822
  656TMC3    C7 9769   4.593   1.223  15.670  0.3911 -0.1956 -0.0521
  656TMC3    C8 9770   4.626   1.268  16.146 -0.2129 -0.3540  1.5735
  656TMC3    O1 9771   4.632   1.123  15.608  0.6328 -0.2298 -0.2400
  656TMC3    O2 9772   4.579   1.369  16.189 -0.4445 -0.2068  0.0436
  657TMC3    C1 9773   4.412   4.594  14.845 -0.0250 -0.2743  0.4768
  657TMC3    C2 9774   4.385   4.586  14.982 -0.3168  0.0753  0.1131
  657TMC3    C3 9775   4.264   4.643  15.022  0.2011  0.3742 -0.3563
  657TMC3    C4 9776   4.338   4.657  14.753 -0.1122  0.1859  0.0038
  657TMC3    C5 9777   4.221   4.709  14.796  0.2377  0.5777 -0.0634
  657TMC3    C6 9778   4.186   4.707  14.927  0.6080  0.7560 -0.6985
  657TMC3     C 9779   4.495   4.480  14.797  0.4051  0.1124 -0.5571
  657TMC3     O 9780   4.455   4.428  14.693  0.1932 -0.2743 -0.2204
  657TMC3     H 9781   4.453   4.526  15.042  1.1579 -0.0141 -1.6133
  657TMC3    H1 9782   4.367   4.669  14.649  1.2170 -0.8720  0.2581
  657TMC3    H2 9783   4.094   0.012  14.963 -0.6061 -0.8991 -1.7441
  657TMC3    C7 9784   4.140   0.040  14.699 -0.1719  0.6783 -0.4362
  657TMC3    C8 9785   4.227   4.637  15.161  0.1260  0.4604  0.1673
  657TMC3    O1 9786   4.171   0.020  14.582  0.0820 -0.7263  0.3779
  657TMC3    O2 9787   4.123   4.691  15.185  0.0962  0.4666  0.4062
  658MPD2     C 9788   1.078   0.813  15.081 -0.1412 -0.1743 -0.0629
  658MPD2    C1 9789   0.989   0.748  15.001  0.2105  0.3038 -0.8396
  658MPD2    C2 9790   1.034   0.691  14.885 -0.3395 -0.3127 -0.4262
  658MPD2    C3 9791   1.169   0.701  14.848 -0.3718  0.5417 -0.7050
  658MPD2    C4 9792   1.259   0.770  14.927  0.5886 -0.4098 -0.2891
  658MPD2    C5 9793   1.207   0.823  15.041  0.0818  0.2858 -0.1635
  658MPD2     H 9794   0.968   0.638  14.817 -1.2915 -2.5832  2.3093
  658MPD2    H1 9795   1.364   0.779  14.902  0.0233  0.9478 -2.1308
  658MPD2    H2 9796   1.062   0.856  15.180  0.4465  0.4645 -0.2460
  658MPD2    H3 9797   1.273   0.864  15.117 -0.9767  0.2832  0.7468
  658MPD2     N 9798   1.205   0.627  14.729  0.4506 -0.0395  0.1783
  658MPD2    H5 9799   1.127   0.607  14.667  1.6095 -0.5129 -1.1244
  658MPD2    N1 9800   0.855   0.746  15.045  0.4010 -0.7713  0.3826
  658MPD2    H7 9801   0.834   0.809  15.122 -1.2207  3.0192 -3.1555
  659TMC3    C1 9802   0.625   0.667  15.064  0.7223 -0.2841  0.2681
  659TMC3    C2 9803   0.608   0.730  15.185  0.1314 -0.4923  0.2234
  659TMC3    C3 9804   0.479   0.725  15.235  0.0921 -0.4776  1.2503
  659TMC3    C4 9805   0.517   0.616  14.993  0.0286 -0.0411 -0.1356
  659TMC3    C5 9806   0.386   0.641  15.034 -0.3402 -1.1826 -0.1362
  659TMC3    C6 9807   0.372   0.690  15.159  0.5250  0.2592  0.0830
  659TMC3     C 9808   0.758   0.657  15.001  0.7566 -0.6152  0.1681
  659TMC3     O 9809   0.773   0.569  14.914  0.1170  0.6306  0.4709
  659TMC3     H 9810   0.688   0.777  15.242 -3.3183  0.8303  3.9536
  659TMC3    H1 9811   0.541   0.549  14.911  1.0398  0.4268 -0.2185
  659TMC3    H2 9812   0.270   0.720  15.181  0.7575  0.2389  1.1939
  659TMC3    C7 9813   0.272   0.574  14.973  0.1169  0.4833  0.1591
  659TMC3    C8 9814   0.448   0.799  15.356 -0.1565  0.2839 -0.3039
  659TMC3    O1 9815   0.184   0.544  15.054 -0.7717  0.0345  0.1115
  659TMC3    O2 9816   0.352   0.875  15.339 -0.1378 -0.0382 -0.3474
  660MPD2     C 9817   4.066   3.716  12.684  0.1832  0.5740  0.3151
  660MPD2    C1 9818   3.972   3.798  12.736  0.1119  0.1805  0.4599
  660MPD2    C2 9819   3.933   3.780  12.867  0.4850 -0.2899  0.7405
  660MPD2    C3 9820   3.984   3.675  12.943 -0.2574 -0.2336 -0.5203
  660MPD2    C4 9821   4.079   3.592  12.893 -0.5919  0.0805  0.3945
  660MPD2    C5 9822   4.119   3.613  12.760 -0.1358  0.0478 -0.2646
  660MPD2     H 9823   3.847   3.834  12.905 -0.6793 -2.2708  0.9709
  660MPD2    H1 9824   4.110   3.494  12.927  1.4194  1.6161  2.9227
  660MPD2    H2 9825   4.101   3.733  12.583 -1.1252 -1.7725 -0.5280
  660MPD2    H3 9826   4.173   3.540  12.701 -1.8446 -2.5518  1.3394
  660MPD2     N 9827   3.936   3.631  13.071 -0.4147  0.2073  0.4870
  660MPD2    H5 9828   3.967   3.537  13.095  1.9435  0.4958 -1.3482
  660MPD2    N1 9829   3.914   3.896  12.650 -0.0632  0.0006 -0.2249
  660MPD2    H7 9830   3.924   3.877  12.551  1.0228 -0.8982  0.0541
  661TMC3    C1 9831   3.748   4.058  12.599 -0.0016  0.2870 -0.4688
  661TMC3    C2 9832   3.804   4.098  12.477 -0.0247 -0.1308 -0.2491
  661TMC3    C3 9833   3.716   4.162  12.396 -0.5510  0.1549 -0.1466
  661TMC3    C4 9834   3.620   4.077  12.640  0.0009 -0.5153 -0.2528
  661TMC3    C5 9835   3.537   4.130  12.546 -0.8034  0.0137 -0.3761
  661TMC3    C6 9836   3.584   4.168  12.430 -0.0642 -0.5189 -0.4623
  661TMC3     C 9837   3.835   3.995  12.697  0.4943 -0.4998 -0.4128
  661TMC3     O 9838   3.803   4.028  12.811  0.0373 -0.3826  0.4454
  661TMC3     H 9839   3.909   4.086  12.453 -0.1694 -1.0882 -0.4164
  661TMC3    H1 9840   3.575   4.028  12.725  0.6634  3.1349  2.1781
  661TMC3    H2 9841   3.516   4.227  12.369  1.2012  0.3164 -1.0685
  661TMC3    C7 9842   3.394   4.121  12.567  0.5303 -0.3829 -0.9329
  661TMC3    C8 9843   3.774   4.256  12.295  0.2001 -0.0539 -0.2475
  661TMC3    O1 9844   3.348   4.158  12.674  0.0918  0.3837  0.0685
  661TMC3    O2 9845   3.890   4.239  12.268  0.0319  0.4310 -0.2894
  662MPD2     C 9846   3.269   3.979  16.939  0.2773 -0.0056  0.0274
  662MPD2    C1 9847   3.370   3.932  17.018  0.0491  0.2628  0.0504
  662MPD2    C2 9848   3.400   4.004  17.135  0.2722  0.0701  0.4728
  662MPD2    C3 9849   3.338   4.120  17.163 -1.0874  0.1801  0.2303
  662MPD2    C4 9850   3.229   4.161  17.090  0.6039 -0.7421  0.0803
  662MPD2    C5 9851   3.206   4.092  16.972  0.0388  0.4435  0.2937
  662MPD2     H 9852   3.472   3.951  17.196  2.2645 -0.0082 -1.9094
  662MPD2    H1 9853   3.179   4.257  17.098 -1.2234 -1.8723  1.9606
  662MPD2    H2 9854   3.256   3.935  16.840 -0.7933 -0.8781  0.5588
  662MPD2    H3 9855   3.138   4.133  16.898 -1.1443  0.3649  1.3389
  662MPD2     N 9856   3.362   4.196  17.278  0.1720  0.2764 -0.2455
  662MPD2    H5 9857   3.283   4.258  17.291 -1.0706 -1.0936 -1.3513
  662MPD2    N1 9858   3.437   3.811  16.985 -0.5214  0.0885  0.5327
  662MPD2    H7 9859   3.507   3.773  17.049  0.6532  1.8428  0.2801
  663TMC3    C1 9860   3.507   3.617  16.863  0.5519  0.5503 -0.2168
  663TMC3    C2 9861   3.621   3.616  16.941  0.1546  0.3441  0.1682
  663TMC3    C3 9862   3.732   3.554  16.894  0.2485  0.3866  0.3753
  663TMC3    C4 9863   3.482   3.515  16.783 -0.6372 -0.2531 -0.0079
  663TMC3    C5 9864   3.578   3.425  16.777  0.5025 -0.8351 -0.0919
  663TMC3    C6 9865   3.703   3.451  16.815 -0.3889 -0.1325 -0.5066
  663TMC3     C 9866   3.409   3.732  16.876 -0.5223 -0.7730  0.2388
  663TMC3     O 9867   3.307   3.718  16.812  0.0019  0.2698 -0.5631
  663TMC3     H 9868   3.650   3.704  16.998  0.9578 -0.4028  0.9152
  663TMC3    H1 9869   3.386   3.508  16.734 -0.9935 -1.0547  0.8023
  663TMC3    H2 9870   3.784   3.380  16.800  0.3173  0.6640 -0.4831
  663TMC3    C7 9871   3.537   3.296  16.717 -0.1546 -0.2226 -0.4580
  663TMC3    C8 9872   3.826   3.524  16.993  0.3935  1.1206 -0.1614
  663TMC3    O1 9873   3.449   3.297  16.631 -0.3898 -0.4927 -0.0997
  663TMC3    O2 9874   3.943   3.524  16.962 -0.5564 -0.7579 -0.8276
  664MPD2     C 9875   2.069   1.801   0.099  0.2500 -0.5222  0.3794
  664MPD2    C1 9876   2.049   1.914   0.176 -0.3157 -0.0512 -0.5445
  664MPD2    C2 9877   1.958   1.915   0.285 -1.0039 -0.2818 -0.3624
  664MPD2    C3 9878   1.888   1.801   0.308 -0.1822 -0.3124  0.3271
  664MPD2    C4 9879   1.917   1.682   0.238  0.1285 -0.3141  0.8023
  664MPD2    C5 9880   2.008   1.682   0.130 -0.5251  0.9819  0.2041
  664MPD2     H 9881   1.932   2.012   0.325 -0.0805 -0.7771  1.4258
  664MPD2    H1 9882   1.863   1.591   0.257 -0.7730  0.0341 -0.1181
  664MPD2    H2 9883   2.114   1.803   0.001 -1.0801 -0.4589 -0.2273
  664MPD2    H3 9884   2.029   1.594   0.070  0.1728  0.8924  0.5737
  664MPD2     N 9885   1.787   1.818   0.411 -0.2132  0.1795  0.5417
  664MPD2    H5 9886   1.775   1.909   0.454  0.7113 -0.4702  2.1520
  664MPD2    N1 9887   2.114   2.038   0.152 -0.2161  0.7309 -0.6093
  664MPD2    H7 9888   2.087   2.113   0.216  0.8008 -1.2582  2.1583
  665TMC3    C1 9889   1.609   1.758   0.557 -0.1649  0.0233 -0.1633
  665TMC3    C2 9890   1.499   1.676   0.577  0.0231  0.5131 -0.2943
  665TMC3    C3 9891   1.413   1.706   0.681  0.5804  0.2245  0.1942
  665TMC3    C4 9892   1.634   1.861   0.643  0.1420  0.0268  0.0731
  665TMC3    C5 9893   1.534   1.891   0.738 -0.0226 -0.1664 -0.7477
  665TMC3    C6 9894   1.425   1.812   0.760  0.0477  0.7083 -0.4406
  665TMC3     C 9895   1.706   1.717   0.454  0.4563 -0.3826 -0.7037
  665TMC3     O 9896   1.678   1.613   0.395  0.3111  0.6324  0.2851
  665TMC3     H 9897   1.489   1.598   0.502  0.4505 -1.2119  1.4723
  665TMC3    H1 9898   1.714   1.934   0.638 -0.5981  0.8522  0.3381
  665TMC3    H2 9899   1.346   1.827   0.833 -0.9822  0.5723 -1.5276
  665TMC3    C7 9900   1.509   2.023   0.770  0.7724  0.6879 -0.0978
  665TMC3    C8 9901   1.332   1.600   0.732 -0.2304 -0.5478 -0.0349
  665TMC3    O1 9902   1.392   2.050   0.783  0.6371  0.6594 -0.1351
  665TMC3    O2 9903   1.314   1.599   0.854 -0.4624 -0.1620  0.3270
  666TMC3    C1 9904   1.942   1.905   9.911 -0.7178  0.9057  0.1758
  666TMC3    C2 9905   2.013   1.811   9.843  0.4736  0.1333 -0.0054
  666TMC3    C3 9906   2.152   1.808   9.850 -0.6369  0.5070 -0.0894
  666TMC3    C4 9907   2.010   2.002   9.985  0.4377  0.0544  0.4901
  666TMC3    C5 9908   2.154   1.996   9.986  0.3821 -0.0743 -0.1538
  666TMC3    C6 9909   2.219   1.899   9.922  0.2096 -0.5947  0.1421
  666TMC3     C 9910   1.795   1.893   9.935 -0.2308  0.1757  0.0913
  666TMC3     O 9911   1.733   1.996   9.959  0.0152 -0.0301  0.1529
  666TMC3     H 9912   1.964   1.751   9.768  1.4690 -0.9516  0.2255
  666TMC3    H1 9913   1.949   2.064  10.049 -0.7828 -0.4090 -0.2257
  666TMC3    H2 9914   2.327   1.900   9.913  0.1893 -0.7933 -0.1400
  666TMC3    C7 9915   2.203   2.013  10.118  0.1105  0.3315  0.0593
  666TMC3    C8 9916   2.204   1.675   9.856  0.0422  0.1169 -0.2340
  666TMC3    O1 9917   2.126   1.966  10.200 -0.1690  0.0287 -0.3678
  666TMC3    O2 9918   2.122   1.582   9.848 -0.4064  0.3206  0.0512
  667MPD2     C 9919   2.619   2.084  14.627 -1.2021  0.1073  0.1650
  667MPD2    C1 9920   2.565   2.121  14.743 -0.3201 -0.2196  0.7463
  667MPD2    C2 9921   2.473   2.039  14.801  0.4672  0.3246  0.2197
  667MPD2    C3 9922   2.443   1.914  14.751  0.0645 -0.4682  0.0836
  667MPD2    C4 9923   2.493   1.882  14.631 -0.4910  0.4139 -0.1394
  667MPD2    C5 9924   2.581   1.964  14.568 -0.0986  0.5202  0.6225
  667MPD2     H 9925   2.416   2.069  14.888  4.0962  3.3391  1.5344
  667MPD2    H1 9926   2.475   1.785  14.585 -0.0850  0.5316 -0.5466
  667MPD2    H2 9927   2.704   2.131  14.579  0.2327 -2.5724  0.0850
  667MPD2    H3 9928   2.633   1.915  14.487  0.3681  0.1298  1.1549
  667MPD2     N 9929   2.373   1.820  14.824 -0.2272  0.0017  0.4561
  667MPD2    H5 9930   2.362   1.728  14.782  0.7859  0.6646 -1.2528
  667MPD2    N1 9931   2.604   2.235  14.809  0.0362  0.1216 -0.4105
  667MPD2    H7 9932   2.541   2.262  14.885  3.2682  1.3077  1.8497
  668TMC3    C1 9933   2.733   2.416  14.880  0.1396 -0.0608  0.4974
  668TMC3    C2 9934   2.847   2.493  14.853 -0.7458  0.0678  0.2645
  668TMC3    C3 9935   2.882   2.579  14.960 -0.8680 -0.3921  0.2511
  668TMC3    C4 9936   2.676   2.402  15.002 -0.3569  0.3719 -0.8212
  668TMC3    C5 9937   2.705   2.497  15.098 -0.4204  0.2323  0.0794
  668TMC3    C6 9938   2.807   2.586  15.070 -0.8067 -0.5530 -0.6580
  668TMC3     C 9939   2.722   2.310  14.789  0.1564  0.6440  0.6443
  668TMC3     O 9940   2.817   2.299  14.712  0.2167  0.1721 -0.4612
  668TMC3     H 9941   2.904   2.511  14.763  2.2309 -2.6937  1.6058
  668TMC3    H1 9942   2.601   2.329  15.028  0.6636 -1.0152 -1.7802
  668TMC3    H2 9943   2.837   2.653  15.150  3.4519 -0.6773 -2.1340
  668TMC3    C7 9944   2.674   2.460  15.236 -0.4570  0.1066 -0.4883
  668TMC3    C8 9945   2.970   2.700  14.945 -0.0552  0.8642  0.5346
  668TMC3    O1 9946   2.749   2.498  15.325 -0.4586  0.1357  0.0958
  668TMC3    O2 9947   2.923   2.809  14.983 -0.0869  0.0075 -0.3734
  669TMC3    C1 9948   0.964   1.810  14.800  0.4752  0.8616 -0.7219
  669TMC3    C2 9949   0.856   1.798  14.724  0.7050 -0.2824 -0.4551
  669TMC3    C3 9950   0.841   1.881  14.616 -0.1130  0.1801  0.1690
  669TMC3    C4 9951   1.078   1.874  14.755 -0.3040 -1.0695  0.1965
  669TMC3    C5 9952   1.067   1.942  14.639 -0.1361  0.5330 -0.1560
  669TMC3    C6 9953   0.950   1.945  14.564 -0.7756  0.0431  0.2910
  669TMC3     C 9954   0.955   1.747  14.933 -0.1856 -0.1113 -0.1900
  669TMC3     O 9955   0.857   1.684  14.967 -0.2726 -0.4154 -0.2040
  669TMC3     H 9956   0.762   1.759  14.761  0.4909  0.6492 -0.0258
  669TMC3    H1 9957   1.174   1.884  14.806 -0.3294 -0.8132  0.1928
  669TMC3    H2 9958   0.948   2.011  14.478  0.2372 -0.8318 -0.3977
  669TMC3    C7 9959   1.186   1.996  14.582  0.1161 -0.2209  0.1533
  669TMC3    C8 9960   0.712   1.871  14.548 -0.2329 -0.3814 -0.4053
  669TMC3    O1 9961   1.282   2.023  14.656  0.3569  0.2633  0.2501
  669TMC3    O2 9962   0.619   1.810  14.599 -0.6484 -0.3911  0.5524
  670MPD2     C 9963   3.892   4.389  13.523  1.1021 -0.1895 -0.6265
  670MPD2    C1 9964   4.005   4.422  13.606 -0.6085 -0.2420 -0.1882
  670MPD2    C2 9965   3.998   4.391  13.745 -0.3411  0.0605 -0.3086
  670MPD2    C3 9966   3.880   4.346  13.800  0.3986  0.0052  0.0114
  670MPD2    C4 9967   3.774   4.302  13.718  0.7313  0.6979 -0.6902
  670MPD2    C5 9968   3.777   4.334  13.583 -0.5169  0.0247  1.3205
  670MPD2     H 9969   4.075   4.413  13.817 -0.9178  0.1701  0.2698
  670MPD2    H1 9970   3.689   4.243  13.750  2.3792 -0.1681  2.1019
  670MPD2    H2 9971   3.889   4.396  13.415 -0.6255 -0.3247 -0.5837
  670MPD2    H3 9972   3.698   4.296  13.518  1.5652 -0.7019 -0.8038
  670MPD2     N 9973   3.878   4.338  13.940 -0.3531  0.2987 -0.2396
  670MPD2    H5 9974   3.970   4.354  13.979 -0.3631 -1.7024  0.6117
  670MPD2    N1 9975   4.123   4.491  13.560  0.5283  0.1632  0.0232
  670MPD2    H7 9976   4.199   4.513  13.624  0.1964  2.1022 -0.2327
  671TMC3    C1 9977   3.794   4.286  14.167  0.5768  1.0326 -0.9712
  671TMC3    C2 9978   3.909   4.236  14.206  0.0374  0.1032  0.0275
  671TMC3    C3 9979   3.899   4.152  14.312 -0.7507  0.6519  0.3908
  671TMC3    C4 9980   3.681   4.288  14.238  0.0862 -0.9164  0.2569
  671TMC3    C5 9981   3.677   4.215  14.351  0.0834 -0.8062  0.1593
  671TMC3    C6 9982   3.784   4.142  14.389 -0.6594  0.2517  0.4068
  671TMC3     C 9983   3.767   4.305  14.022 -0.7889  0.3003  0.0214
  671TMC3     O 9984   3.650   4.297  13.997 -0.4780 -0.8095 -0.5047
  671TMC3     H 9985   3.990   4.219  14.137 -0.9868 -1.9441 -0.6949
  671TMC3    H1 9986   3.596   4.348  14.206  1.7579  0.3004 -1.9039
  671TMC3    H2 9987   3.771   4.069  14.468  1.8795 -1.1035 -0.4115
  671TMC3    C7 9988   3.554   4.145  14.376  0.1660  0.2237  0.1076
  671TMC3    C8 9989   3.993   4.041  14.302 -0.2405  0.6855 -0.2988
  671TMC3    O1 9990   3.545   4.075  14.476 -0.4156 -1.0706  0.4929
  671TMC3    O2 9991   4.043   4.015  14.197  0.0846  0.2817 -0.4386
  672MPD2     C 9992   3.648   0.116   1.048  0.0850  0.7401  0.5263
  672MPD2    C1 9993   3.765   0.087   0.986 -0.4588 -0.0018  0.1236
  672MPD2    C2 9994   3.876   0.158   1.038 -0.4626  0.1413 -0.5437
  672MPD2    C3 9995   3.868   0.251   1.138  0.0951 -0.5105 -0.1335
  672MPD2    C4 9996   3.748   0.268   1.202  0.5486  0.7761  0.6309
  672MPD2    C5 9997   3.640   0.193   1.157 -0.1135 -0.4170  0.0411
  672MPD2     H 9998   3.971   0.143   0.987  0.3745 -0.7925  1.3164
  672MPD2    H1 9999   3.738   0.337   1.285 -2.2376  0.0610  0.9146
  672MPD2    H210000   3.560   0.060   1.018  0.4823  0.3868  0.0171
  672MPD2    H310001   3.542   0.208   1.202 -0.0509 -1.9740  0.6941
  672MPD2     N10002   3.974   0.329   1.187 -0.1141  0.1574 -0.0590
  672MPD2    H510003   3.939   0.399   1.251 -0.3860 -0.9968  1.0381
  672MPD2    N110004   3.783   4.737   0.880  1.5153 -0.3849 -0.0151
  672MPD2    H710005   3.879   4.728   0.848  2.4077 -0.1201  2.5518
  673TMC3    C110006   3.720   4.627   0.687 -0.4535  0.2554  0.5160
  673TMC3    C210007   3.810   4.529   0.666 -0.4485 -0.2109  0.0793
  673TMC3    C310008   3.820   4.478   0.534  0.2595  0.3325  0.0621
  673TMC3    C410009   3.636   4.674   0.590  0.3099 -0.2969  0.3240
  673TMC3    C510010   3.644   4.624   0.464 -0.4209  0.4638  0.2648
  673TMC3    C610011   3.739   4.538   0.433 -0.1342 -0.2165  0.0408
  673TMC3     C10012   3.682   4.669   0.816 -0.3999  0.3374  0.5206
  673TMC3     O10013   3.562   4.671   0.844  0.3333 -0.2025  0.6901
  673TMC3     H10014   3.872   4.488   0.744 -0.5787  1.6313  1.1415
  673TMC3    H110015   3.572   0.021   0.602 -2.4635 -2.2268 -0.2870
  673TMC3    H210016   3.753   4.510   0.329 -2.6698 -0.8456 -0.1327
  673TMC3    C710017   3.576   4.689   0.354  0.2738 -0.2758 -0.5797
  673TMC3    C810018   3.917   4.376   0.504 -0.4569  0.4989 -0.7988
  673TMC3    O110019   3.596   4.635   0.246 -0.0475  0.1049  0.2445
  673TMC3    O210020   3.903   4.304   0.404 -0.2496  0.0497 -0.2707
  674MPD2     C10021   3.267   0.509  17.377  0.0600  0.4431 -0.6111
  674MPD2    C110022   3.273   0.377  17.422 -0.0836 -0.5821 -0.3225
  674MPD2    C210023   3.161   0.330  17.482 -0.0058 -0.1952  0.6317
  674MPD2    C310024   3.046   0.403  17.502 -0.1541 -0.5456  0.4011
  674MPD2    C410025   3.045   0.531  17.449  0.2554  0.2305 -0.1752
  674MPD2    C510026   3.152   0.583  17.383 -0.0549  0.3624 -0.3229
  674MPD2     H10027   3.169   0.241  17.544  0.0918 -1.3910 -1.0960
  674MPD2    H110028   2.961   0.598  17.463 -2.1049 -3.0090  1.1696
  674MPD2    H210029   3.355   0.542  17.323  0.5480 -1.1928 -0.8193
  674MPD2    H310030   3.146   0.679  17.333  0.9061  1.0340  0.8622
  674MPD2     N10031   2.938   0.346  17.577  0.0024 -0.1142 -0.1412
  674MPD2    H510032   2.947   0.248  17.598 -0.5881 -0.4781 -1.6029
  674MPD2    N110033   3.401   0.306  17.433  0.1068 -0.6323  0.1153
  674MPD2    H710034   3.488   0.356  17.414  0.2523 -0.0155  2.3772
  675TMC3    C110035   3.535   0.123  17.499  0.6020  0.0703 -0.0189
  675TMC3    C210036   3.529   4.724  17.513 -0.3660 -0.4905 -0.1157
  675TMC3    C310037   3.603   4.664  17.613 -0.3523  0.0978 -0.4750
  675TMC3    C410038   3.613   0.197  17.589 -0.3214 -0.0269  0.6709
  675TMC3    C510039   3.676   0.132  17.697  0.2157 -0.2783  0.1635
  675TMC3    C610040   3.681   4.736  17.700 -0.1142  0.1589  0.3842
  675TMC3     C10041   3.405   0.169  17.462  1.0009 -0.8087  0.2330
  675TMC3     O10042   3.316   0.088  17.459 -0.1766 -0.3673 -0.3321
  675TMC3     H10043   3.467   4.659  17.451 -0.2731  1.1234 -1.8878
  675TMC3    H110044   3.624   0.303  17.567  1.2037 -0.3006  0.1074
  675TMC3    H210045   3.751   4.680   0.003  2.5158  0.4051 -2.4813
  675TMC3    C710046   3.723   0.202   0.052  0.0837  0.7330 -0.0250
  675TMC3    C810047   3.596   4.522  17.625  0.5030 -0.1109  1.1227
  675TMC3    O110048   3.775   0.133   0.139  0.7760  0.4478 -0.1553
  675TMC3    O210049   3.614   4.464  17.520 -0.3054  0.0176  0.1404
  676MPD2     C10050   2.542   2.584  11.601 -0.0113  0.6148 -0.0060
  676MPD2    C110051   2.423   2.538  11.655 -0.1854  0.6152 -0.1016
  676MPD2    C210052   2.376   2.411  11.615 -0.1561  0.2225  0.6063
  676MPD2    C310053   2.440   2.342  11.515  0.1733 -0.0873  0.6074
  676MPD2    C410054   2.553   2.392  11.459 -0.4798 -0.3686  0.0728
  676MPD2    C510055   2.603   2.507  11.506 -0.0224 -0.4107  0.4596
  676MPD2     H10056   2.288   2.367  11.660  0.2414  0.1740  1.3425
  676MPD2    H110057   2.597   2.330  11.383  0.1208  0.3996 -0.2079
  676MPD2    H210058   2.597   2.672  11.632  0.2275  0.4641 -0.0037
  676MPD2    H310059   2.697   2.542  11.463 -0.5806  0.0671 -0.3693
  676MPD2     N10060   2.399   2.219  11.455 -0.0409  0.3836  0.5461
  676MPD2    H510061   2.450   2.188  11.373  2.0480 -1.4563  2.5526
  676MPD2    N110062   2.357   2.615  11.753  0.4343 -0.0605  0.2219
  676MPD2    H710063   2.283   2.567  11.803  0.7410 -2.2899 -1.4833
  677TMC3    C110064   2.312   2.802  11.885 -0.6594  0.1597  0.0572
  677TMC3    C210065   2.265   2.717  11.985 -0.1726 -0.0427 -0.6949
  677TMC3    C310066   2.227   2.788  12.096  0.4899  0.3512  0.3398
  677TMC3    C410067   2.333   2.938  11.901 -0.3294  0.0773 -0.3873
  677TMC3    C510068   2.308   2.997  12.022  0.2934 -0.3214 -0.1089
  677TMC3    C610069   2.244   2.922  12.121 -0.2527 -0.0291 -0.9778
  677TMC3     C10070   2.382   2.746  11.774  0.5699 -0.0010  0.0914
  677TMC3     O10071   2.447   2.824  11.704 -0.2161  0.6136 -0.4973
  677TMC3     H10072   2.255   2.609  11.980 -1.2665  0.0593 -0.7151
  677TMC3    H110073   2.366   2.998  11.817  0.5877 -0.6835 -0.5624
  677TMC3    H210074   2.222   2.969  12.216 -1.6487  0.6462 -1.6395
  677TMC3    C710075   2.346   3.132  12.047  0.0991  0.0177  0.4355
  677TMC3    C810076   2.164   2.704  12.204  0.7974 -0.0759 -0.5938
  677TMC3    O110077   2.308   3.179  12.155  0.0015 -0.3273 -0.4655
  677TMC3    O210078   2.185   2.585  12.198 -0.0545 -0.4970  0.2982
  678MPD2     C10079   3.169   2.931   1.284  0.3353 -0.0878  0.7563
  678MPD2    C110080   3.136   2.964   1.157 -0.4961  0.7104  1.1208
  678MPD2    C210081   3.017   3.033   1.129  0.2380  0.6402 -0.8487
  678MPD2    C310082   2.920   3.058   1.229  0.3742  0.2856 -1.0080
  678MPD2    C410083   2.959   3.034   1.360  0.1532  0.0548 -0.0756
  678MPD2    C510084   3.086   2.978   1.386 -0.0147  0.1788  1.1781
  678MPD2     H10085   2.993   3.050   1.025  0.8459 -2.9901 -1.5827
  678MPD2    H110086   2.886   3.051   1.438  2.8939  4.3728  1.5614
  678MPD2    H210087   3.265   2.886   1.307 -0.2677 -1.3300  0.7796
  678MPD2    H310088   3.109   2.960   1.490  0.1468 -0.1387  1.0868
  678MPD2     N10089   2.794   3.099   1.189  0.0436  0.4085  0.3622
  678MPD2    H510090   2.779   3.085   1.089 -0.5855  0.3325  0.4704
  678MPD2    N110091   3.212   2.925   1.044 -0.1308 -0.4663  0.4932
  678MPD2    H710092   3.176   2.952   0.953  0.3991 -3.1257 -0.5158
  679TMC3    C110093   3.555   2.657   0.865  0.0542 -0.4236 -0.1826
  679TMC3    C210094   3.440   2.665   0.938  0.1105  0.1607  0.0381
  679TMC3    C310095   3.375   2.788   0.934  0.6538 -0.6383  0.3883
  679TMC3    C410096   3.608   2.759   0.786  0.0549  0.2806  0.6602
  679TMC3    C510097   3.545   2.879   0.797  0.0116  0.3106  0.2379
  679TMC3    C610098   3.425   2.891   0.857 -0.2991  0.3084  0.5487
  679TMC3     C10099   3.627   2.525   0.864 -0.0470 -0.0318 -0.9967
  679TMC3     O10100   3.746   2.523   0.841 -0.0119 -0.2660  0.0578
  679TMC3     H10101   3.386   2.594   0.999 -3.2187  2.0197 -0.7230
  679TMC3    H110102   3.710   2.740   0.755  0.5894  1.1981  1.8373
  679TMC3    H210103   3.384   2.992   0.858 -1.2887 -0.0837 -0.8686
  679TMC3    C710104   3.584   2.992   0.706  0.2004 -0.7087  0.6033
  679TMC3    C810105   3.310   2.827   1.056  0.3679  0.3019 -0.5465
  679TMC3    O110106   3.515   3.092   0.695  0.5624  0.2672 -0.0342
  679TMC3    O210107   3.321   2.747   1.145 -0.6469  0.2571  0.0406
  680MPD2     C10108   3.370   1.715  13.546  0.3643 -0.1728  0.1732
  680MPD2    C110109   3.429   1.665  13.661  0.0406  0.2397 -0.2730
  680MPD2    C210110   3.496   1.751  13.745 -0.4930  0.1933 -0.2097
  680MPD2    C310111   3.476   1.888  13.731 -0.0969  0.5843  0.0332
  680MPD2    C410112   3.410   1.936  13.614  0.2986 -0.5867 -0.2990
  680MPD2    C510113   3.377   1.843  13.519  0.3801  0.0278 -0.0944
  680MPD2     H10114   3.552   1.712  13.830 -0.9421  0.1317  0.0562
  680MPD2    H110115   3.413   2.043  13.594  1.4137 -0.8929 -1.7367
  680MPD2    H210116   3.323   1.654  13.470  1.1694  1.4351 -1.6382
  680MPD2    H310117   3.338   1.883  13.426 -1.1280  1.7776  1.2851
  680MPD2     N10118   3.532   1.980  13.813 -0.2557 -0.2229  0.0903
  680MPD2    H510119   3.541   2.073  13.773  0.8118  0.7799  2.6631
  680MPD2    N110120   3.437   1.522  13.686  0.5734 -0.8085  0.9056
  680MPD2    H710121   3.489   1.490  13.767  2.0221 -0.9728 -0.0989
  681TMC3    C110122   3.357   1.313  13.700 -0.4510 -0.5257  0.7653
  681TMC3    C210123   3.241   1.235  13.706  0.4209 -0.3294 -0.0860
  681TMC3    C310124   3.256   1.105  13.746  0.2829  0.5866  0.5588
  681TMC3    C410125   3.486   1.262  13.726  0.2712 -0.1578  0.2619
  681TMC3    C510126   3.494   1.128  13.759  0.2272 -0.5155 -0.1353
  681TMC3    C610127   3.383   1.051  13.764 -0.2069  0.2891  0.3861
  681TMC3     C10128   3.341   1.440  13.638 -0.6915  1.0993 -0.1262
  681TMC3     O10129   3.228   1.470  13.591 -0.7587  0.2701 -0.4522
  681TMC3     H10130   3.144   1.278  13.686 -0.4954 -2.0325  0.6867
  681TMC3    H110131   3.576   1.317  13.703  2.0731 -3.2362 -0.1297
  681TMC3    H210132   3.392   0.945  13.783  1.9776  0.4832  0.3642
  681TMC3    C710133   3.617   1.065  13.788  0.3296 -0.7003 -0.4116
  681TMC3    C810134   3.160   1.062  13.841 -0.2743 -0.2193 -0.3505
  681TMC3    O110135   3.619   0.950  13.828  0.1869  0.0112  0.0864
  681TMC3    O210136   3.152   0.943  13.855  0.9199 -0.0138 -0.0996
  682MPD2     C10137   1.718   2.641  11.025  0.6179 -0.2345  0.1041
  682MPD2    C110138   1.795   2.577  11.122 -0.4650 -0.6601  0.0576
  682MPD2    C210139   1.738   2.566  11.251  0.3881  0.1900 -0.0241
  682MPD2    C310140   1.617   2.623  11.282 -0.6480  0.1203 -0.5485
  682MPD2    C410141   1.539   2.666  11.183  0.0577 -0.0697  0.2605
  682MPD2    C510142   1.588   2.667  11.057 -0.6794  0.9406 -0.1280
  682MPD2     H10143   1.796   2.521  11.331  0.2255  1.3665  0.7512
  682MPD2    H110144   1.437   2.702  11.194  0.0703 -0.0052  0.1689
  682MPD2    H210145   1.749   2.637  10.921  1.7490  0.2996  0.4126
  682MPD2    H310146   1.521   2.708  10.982  1.8513  0.1941 -2.7876
  682MPD2     N10147   1.544   2.613  11.411 -0.2322  0.4961 -0.5173
  682MPD2    H510148   1.443   2.620  11.408 -0.2490 -0.1731 -1.4351
  682MPD2    N110149   1.914   2.503  11.088  0.2759  0.3099 -0.0947
  682MPD2    H710150   1.939   2.427  11.150 -0.8531  1.0985  1.3284
  683TMC3    C110151   1.491   2.589  11.857 -0.2869  0.0331  0.3113
  683TMC3    C210152   1.388   2.491  11.843  0.0920 -0.1403  0.1143
  683TMC3    C310153   1.373   2.437  11.721  0.3636 -0.0525  0.0222
  683TMC3    C410154   1.567   2.624  11.748  0.6610  0.6293 -0.6930
  683TMC3    C510155   1.543   2.563  11.630 -0.3719 -0.0074 -0.5239
  683TMC3    C610156   1.446   2.475  11.608 -0.6891 -0.4801  0.1820
  683TMC3     C10157   1.469   2.691  11.955  0.2932  0.4626  0.0406
  683TMC3     O10158   1.496   2.807  11.927  0.1454  0.0818  0.0143
  683TMC3     H10159   1.307   2.474  11.913 -0.4850  0.1263 -0.4988
  683TMC3    H110160   1.625   2.716  11.746  0.1040  1.0066  0.5400
  683TMC3    H210161   1.435   2.420  11.516 -1.0918 -0.4255  0.2009
  683TMC3    C710162   1.619   2.605  11.524  0.1384 -0.2877 -0.0058
  683TMC3    C810163   1.248   2.376  11.697 -0.1129  0.3457  0.2794
  683TMC3    O110164   1.738   2.625  11.543 -0.2450  0.5973  0.1027
  683TMC3    O210165   1.151   2.425  11.756 -0.3032 -0.0346 -0.2032
  684MPD2     C10166   3.605   2.264  16.108  0.3312 -0.0918  0.0686
  684MPD2    C110167   3.720   2.326  16.066  0.0552 -0.2153 -0.1844
  684MPD2    C210168   3.730   2.457  16.077  0.2475 -0.3156 -1.0508
  684MPD2    C310169   3.633   2.539  16.126 -0.7771  0.4001 -0.0740
  684MPD2    C410170   3.510   2.480  16.160  0.5455 -0.4110  0.0059
  684MPD2    C510171   3.499   2.346  16.159  0.5955  0.1223  0.7746
  684MPD2     H10172   3.817   2.506  16.036  0.6045 -0.0636  0.0072
  684MPD2    H110173   3.432   2.537  16.210 -0.2006  0.1003 -1.7542
  684MPD2    H210174   3.583   2.159  16.099 -1.2591  0.2460 -0.0509
  684MPD2    H310175   3.404   2.299  16.181 -0.6789  2.5829  0.4473
  684MPD2     N10176   3.661   2.678  16.131  0.5608 -0.3801 -0.7976
  684MPD2    H510177   3.754   2.705  16.103  0.6181 -0.1389 -0.3822
  684MPD2    N110178   3.823   2.260  16.001 -1.0234 -0.1548 -0.5545
  684MPD2    H710179   3.908   2.313  15.986 -0.3036 -1.2775 -0.4152
  685TMC3    C110180   3.931   2.138  15.838 -0.1698  0.3116  0.2162
  685TMC3    C210181   3.875   2.112  15.715 -0.2884 -0.0032  0.1930
  685TMC3    C310182   3.911   2.185  15.605  0.3161  0.3851 -0.1450
  685TMC3    C410183   4.029   2.234  15.854  0.2614 -0.0656 -0.3091
  685TMC3    C510184   4.056   2.306  15.737 -0.2540  0.4341  0.6622
  685TMC3    C610185   3.998   2.288  15.619 -0.5456 -0.0461  0.9216
  685TMC3     C10186   3.820   2.146  15.936  0.6097 -0.2251 -0.2819
  685TMC3     O10187   3.728   2.065  15.936 -0.0150 -0.3487 -0.2158
  685TMC3     H10188   3.782   2.055  15.713  1.7657 -3.3530  0.0528
  685TMC3    H110189   4.097   2.218  15.937  1.8052 -0.8638 -1.7253
  685TMC3    H210190   4.030   2.332  15.525  0.0343 -0.6834  0.8177
  685TMC3    C710191   4.161   2.406  15.744  0.1406 -0.1814  0.3590
  685TMC3    C810192   3.804   2.222  15.515  0.3374 -0.2432  0.4188
  685TMC3    O110193   4.182   2.469  15.642 -0.4409 -0.3628 -0.0326
  685TMC3    O210194   3.832   2.276  15.407  0.3713 -0.0455 -0.4488
  686MPD2     C10195   0.185   2.453  15.929 -0.0278 -0.0821 -0.8239
  686MPD2    C110196   0.268   2.360  15.995  0.5538 -0.5479 -0.2188
  686MPD2    C210197   0.399   2.353  15.952 -0.5444  0.3399  0.1818
  686MPD2    C310198   0.431   2.421  15.829 -0.0544  0.6798  0.6906
  686MPD2    C410199   0.345   2.507  15.768  0.9677 -0.7432 -0.0118
  686MPD2    C510200   0.217   2.521  15.819 -0.5912 -0.0001  0.1165
  686MPD2     H10201   0.469   2.292  16.007  0.5410  1.0401 -0.4189
  686MPD2    H110202   0.373   2.572  15.685 -0.1842  1.6379  1.4452
  686MPD2    H210203   0.079   2.462  15.950  0.2183 -0.1112  0.4540
  686MPD2    H310204   0.137   2.581  15.779  0.4206  0.3012 -1.4474
  686MPD2     N10205   0.551   2.395  15.761 -0.0861  0.2590  0.2583
  686MPD2    H510206   0.574   2.470  15.695  0.3276  0.2521  0.3942
  686MPD2    N110207   0.209   2.289  16.102 -0.5440  0.1093  1.0844
  686MPD2    H710208   0.108   2.306  16.104 -1.1856 -3.3753 -2.1615
  687TMC3    C110209   0.602   2.177  15.845 -0.2807  0.1208  0.3566
  687TMC3    C210210   0.501   2.121  15.774 -0.3271  0.2596 -0.5654
  687TMC3    C310211   0.472   1.986  15.799 -0.2506  0.4288  0.0892
  687TMC3    C410212   0.676   2.108  15.933 -0.4191  0.1059 -0.2867
  687TMC3    C510213   0.638   1.981  15.970  0.4603  0.4730  1.5132
  687TMC3    C610214   0.537   1.916  15.897 -0.1655  0.0447 -0.6237
  687TMC3     C10215   0.652   2.303  15.791  0.0734  0.5377 -0.2991
  687TMC3     O10216   0.767   2.305  15.752 -0.3526 -0.1965 -0.0770
  687TMC3     H10217   0.438   2.169  15.700  1.0194  3.9645  0.6963
  687TMC3    H110218   0.771   2.145  15.970 -0.9310  0.6835  0.4470
  687TMC3    H210219   0.528   1.808  15.901  0.1570  0.0995  1.2657
  687TMC3    C710220   0.723   1.913  16.067 -0.2647 -0.9048  0.4185
  687TMC3    C810221   0.337   1.929  15.759 -0.7275  0.0801 -0.3060
  687TMC3    O110222   0.835   1.953  16.090  0.4686 -0.5337  0.2587
  687TMC3    O210223   0.284   1.861  15.844  0.3360 -0.0196  0.2656
  688MPD2     C10224   4.249   1.188  17.411 -0.0477 -0.4769 -0.1261
  688MPD2    C110225   4.269   1.053  17.412 -0.7611  0.1921 -0.6166
  688MPD2    C210226   4.355   1.001  17.318  0.3235  0.3227 -0.5002
  688MPD2    C310227   4.419   1.083  17.225  0.2640  0.1402 -0.0581
  688MPD2    C410228   4.403   1.220  17.224  0.2007  0.9376  0.1663
  688MPD2    C510229   4.318   1.271  17.322  1.0093 -0.6766 -0.1959
  688MPD2     H10230   4.373   0.894  17.317 -1.6181 -0.0336  1.7042
  688MPD2    H110231   4.445   1.286  17.149  0.1920  0.9242  0.1497
  688MPD2    H210232   4.199   1.248  17.485 -0.1782  0.9371 -1.3694
  688MPD2    H310233   4.304   1.377  17.339  1.9346 -0.4187 -1.0793
  688MPD2     N10234   4.504   1.026  17.128 -0.1917  0.9419  0.4250
  688MPD2    H510235   4.578   1.087  17.093 -1.1692  1.9769  0.1533
  688MPD2    N110236   4.191   0.978  17.503 -0.3415  0.5981  0.7476
  688MPD2    H710237   4.211   0.879  17.505 -0.4799  0.5214 -2.1515
  689TMC3    C110238   4.075   0.930  17.710 -0.0607 -1.0246 -0.0276
  689TMC3    C210239   4.051   0.988   0.074  0.0717  0.0497 -0.1627
  689TMC3    C310240   4.022   0.909   0.179 -0.2142 -0.4934 -0.0535
  689TMC3    C410241   4.073   0.797  17.684 -0.7195 -0.6223  0.2247
  689TMC3    C510242   4.053   0.724   0.046 -0.0020  0.3430  0.2533
  689TMC3    C610243   4.030   0.778   0.163  0.2337 -0.0693 -0.4785
  689TMC3     C10244   4.097   1.024  17.599 -1.3913 -0.1110 -1.0012
  689TMC3     O10245   4.043   1.134  17.623  0.6957 -0.3700  0.1860
  689TMC3     H10246   4.065   1.095   0.079 -0.4763 -0.0037  2.0963
  689TMC3    H110247   4.111   0.741  17.601  0.7469  0.5511  0.1120
  689TMC3    H210248   3.995   0.719   0.247  1.0901 -2.8733 -2.0931
  689TMC3    C710249   4.073   0.577   0.042  0.0431  0.5748 -0.8030
  689TMC3    C810250   3.938   0.967   0.283  0.3757  0.8108  0.5140
  689TMC3    O110251   4.119   0.530   0.147  0.3291 -0.7111  0.2692
  689TMC3    O210252   3.916   0.901   0.382 -0.0587  0.1521 -0.2555
  690MPD2     C10253   1.957   2.951  16.178  0.3858 -0.1987 -0.3318
  690MPD2    C110254   1.885   3.019  16.081  0.3499 -0.0916  0.1711
  690MPD2    C210255   1.962   3.112  16.016 -0.1088 -0.0125  0.1237
  690MPD2    C310256   2.099   3.134  16.043 -0.0248 -0.5826  0.8252
  690MPD2    C410257   2.164   3.054  16.125  0.8056  0.1638  0.0125
  690MPD2    C510258   2.093   2.956  16.189 -0.4551  0.1394 -0.1206
  690MPD2     H10259   1.914   3.194  15.963  2.0069  0.0883 -1.5880
  690MPD2    H110260   2.273   3.049  16.121  0.6835 -1.2208 -1.7665
  690MPD2    H210261   1.913   2.863  16.223 -1.4724  0.5771 -0.6228
  690MPD2    H310262   2.135   2.882  16.256 -0.3285 -3.2012 -3.9084
  690MPD2     N10263   2.156   3.219  15.947 -0.2724 -0.2392 -0.2920
  690MPD2    H510264   2.093   3.265  15.882  1.1342  1.5873 -0.3613
  690MPD2    N110265   1.751   2.991  16.049  0.1924  0.1193 -0.5045
  690MPD2    H710266   1.720   3.036  15.964 -1.3460 -0.2016 -0.1071
  691TMC3    C110267   1.561   2.844  16.003  0.0726  0.7057 -0.3451
  691TMC3    C210268   1.493   2.945  15.941 -0.0069 -0.3061 -0.4973
  691TMC3    C310269   1.390   2.894  15.865 -0.2110 -0.1788  0.2634
  691TMC3    C410270   1.525   2.718  16.004  0.2755  0.4788 -0.1021
  691TMC3    C510271   1.422   2.675  15.932  0.0338  0.0454 -0.6708
  691TMC3    C610272   1.353   2.766  15.857  0.2548  0.2247 -0.1815
  691TMC3     C10273   1.682   2.876  16.087 -0.6956  0.0823  0.1426
  691TMC3     O10274   1.734   2.777  16.134 -0.3042  0.4684  0.1730
  691TMC3     H10275   1.512   3.050  15.958  0.7299 -0.5762  0.3922
  691TMC3    H110276   1.589   2.646  16.054 -2.5354 -1.7583  0.2931
  691TMC3    H210277   1.267   2.739  15.797 -0.0123  3.5555 -1.3341
  691TMC3    C710278   1.363   2.547  15.968  0.2432  0.2065  0.4831
  691TMC3    C810279   1.306   2.995  15.812 -0.1777 -0.1053 -0.0294
  691TMC3    O110280   1.385   2.505  16.080  0.1355 -0.1610 -0.2257
  691TMC3    O210281   1.271   3.079  15.894  0.3359 -0.4577  0.3799
  692TMC3    C110282   3.333   3.980  15.697 -0.3263 -0.7721 -0.4401
  692TMC3    C210283   3.463   3.978  15.737 -0.1772 -0.8255 -0.4709
  692TMC3    C310284   3.562   3.903  15.681 -0.4002  0.2488 -0.4337
  692TMC3    C410285   3.291   3.895  15.601  0.0585 -0.5124  0.5070
  692TMC3    C510286   3.381   3.807  15.561 -0.2029  0.0148 -0.3203
  692TMC3    C610287   3.514   3.807  15.601  0.3378 -0.7581 -0.6758
  692TMC3     C10288   3.234   4.074  15.750  0.0359  0.0598  0.6555
  692TMC3     O10289   3.122   4.028  15.763  0.3087  0.8733 -0.0865
  692TMC3     H10290   3.488   4.041  15.821  0.7306  0.4908 -1.7295
  692TMC3    H110291   3.187   3.877  15.575 -0.1561 -0.1189  1.1061
  692TMC3    H210292   3.580   3.741  15.545  2.3930 -0.2511  1.1142
  692TMC3    C710293   3.331   3.672  15.554 -0.0183 -0.0711  0.2672
  692TMC3    C810294   3.661   3.845  15.771  0.4003  0.7026  0.1740
  692TMC3    O110295   3.229   3.649  15.489 -0.5718  0.6669 -0.0154
  692TMC3    O210296   3.679   3.722  15.758  0.1747  0.6573  0.6616
  693MPD2     C10297   3.933   1.048  10.227 -0.0118  0.3658  0.1264
  693MPD2    C110298   3.845   1.114  10.311 -0.1931 -0.3795 -0.5343
  693MPD2    C210299   3.871   1.109  10.446 -0.1772 -0.0200  0.0668
  693MPD2    C310300   3.965   1.024  10.500  0.7693  0.3950 -1.1815
  693MPD2    C410301   4.047   0.960  10.409  0.4821 -1.4010  0.4093
  693MPD2    C510302   4.025   0.962  10.277  0.2042  0.3271  0.2752
  693MPD2     H10303   3.808   1.161  10.517  1.5373 -1.1350  2.3948
  693MPD2    H110304   4.114   0.887  10.453  1.9787 -0.8790 -1.0066
  693MPD2    H210305   3.912   1.048  10.121 -2.0646  1.1454  0.5403
  693MPD2    H310306   4.100   0.912  10.216 -1.8619 -0.2732 -1.7623
  693MPD2     N10307   3.988   1.006  10.638  0.9773  0.1916  0.2951
  693MPD2    H510308   4.067   0.954  10.675 -0.8589 -1.5903  1.6896
  693MPD2    N110309   3.734   1.185  10.257  0.7620 -0.1316 -0.1584
  693MPD2    H710310   3.725   1.183  10.156 -1.7448  0.4333  0.0566
  694TMC3    C110311   3.569   1.353  10.222  0.0222 -0.3538  0.5310
  694TMC3    C210312   3.472   1.267  10.178 -0.1821 -0.1862 -1.0848
  694TMC3    C310313   3.345   1.318  10.138  0.1191 -0.2861 -0.9363
  694TMC3    C410314   3.530   1.480  10.245 -0.0553  0.1426 -0.0074
  694TMC3    C510315   3.404   1.527  10.218 -0.6287 -0.1581  0.0756
  694TMC3    C610316   3.309   1.447  10.162 -0.0196 -0.8100  0.1229
  694TMC3     C10317   3.661   1.286  10.316  0.3741 -1.0139 -0.4182
  694TMC3     O10318   3.661   1.316  10.436  0.5438 -0.3708  0.1024
  694TMC3     H10319   3.485   1.160  10.168 -1.3100 -0.4238  0.1117
  694TMC3    H110320   3.601   1.542  10.299 -1.3915  0.1817  1.6984
  694TMC3    H210321   3.212   1.487  10.134  1.1405  0.7838 -1.5589
  694TMC3    C710322   3.361   1.624  10.320 -0.5563 -0.0446 -0.7453
  694TMC3    C810323   3.241   1.217  10.105  0.6839  0.1141 -0.4188
  694TMC3    O110324   3.438   1.714  10.343  0.0418  0.6625 -0.1136
  694TMC3    O210325   3.271   1.095  10.114 -0.2723  0.5604  0.2001
  695MPD2     C10326   3.946   3.920  13.469  0.2794 -0.4910  0.1691
  695MPD2    C110327   3.889   3.878  13.593  0.2470  0.2336  0.0877
  695MPD2    C210328   3.757   3.912  13.622 -0.5579  0.0730  0.2740
  695MPD2    C310329   3.680   3.979  13.529  0.3992 -0.3099  0.7237
  695MPD2    C410330   3.738   4.018  13.412 -0.3615 -0.2989  0.3300
  695MPD2    C510331   3.872   3.994  13.391  0.2738 -0.2034 -0.4822
  695MPD2     H10332   3.713   3.879  13.715  0.6702  0.7757  1.0929
  695MPD2    H110333   3.685   4.083  13.343  1.5309 -0.1314 -0.9585
  695MPD2    H210334   4.049   3.895  13.444  0.0624 -2.0939  0.9449
  695MPD2    H310335   3.926   4.027  13.303 -0.6077  1.2696 -0.4628
  695MPD2     N10336   3.541   4.005  13.575  0.4022 -0.6021 -0.5239
  695MPD2    H510337   3.513   3.974  13.668  0.0664 -0.9063 -0.7270
  695MPD2    N110338   3.956   3.798  13.691  0.3535  0.0060  0.1328
  695MPD2    H710339   3.916   3.756  13.775 -0.1804 -0.2760 -0.2620
  696TMC3    C110340   3.322   4.072  13.546  0.1464  0.3841  0.5825
  696TMC3    C210341   3.280   3.999  13.654  0.1726 -0.2977  0.1395
  696TMC3    C310342   3.152   4.027  13.702  0.1254  0.3399  1.0154
  696TMC3    C410343   3.236   4.161  13.478 -0.3627 -0.2498  0.1543
  696TMC3    C510344   3.115   4.187  13.534 -0.1610 -0.1934 -0.7846
  696TMC3    C610345   3.075   4.125  13.646  0.2126  0.2161 -0.4450
  696TMC3     C10346   3.451   4.059  13.486 -0.1677 -0.7954  0.5167
  696TMC3     O10347   3.462   4.090  13.367  0.4419 -0.6041  0.1166
  696TMC3     H10348   3.337   3.919  13.698  1.8931  0.7473 -0.1918
  696TMC3    H110349   3.266   4.239  13.409  2.6332 -0.3571  1.3171
  696TMC3    H210350   2.972   4.135  13.678  1.2322  4.1448  1.5465
  696TMC3    C710351   3.094   4.328  13.551  0.2255 -0.6828 -1.3218
  696TMC3    C810352   3.119   3.992  13.835  0.8598 -0.2406 -0.1165
  696TMC3    O110353   3.123   4.402  13.461  0.2492 -0.2701  0.4114
  696TMC3    O210354   3.011   4.032  13.868  0.4014  0.8247 -0.1002
  697MPD2     C10355   2.966   0.916  16.088  0.5658  0.0376  1.0795
  697MPD2    C110356   3.000   0.855  15.969 -0.3032  0.3085 -0.0402
  697MPD2    C210357   3.017   0.938  15.855  0.1719 -0.5115 -0.2127
  697MPD2    C310358   2.993   1.074  15.861 -0.2183 -0.4076  0.2768
  697MPD2    C410359   2.970   1.141  15.977  0.5910  0.5793 -0.1181
  697MPD2    C510360   2.955   1.058  16.085 -0.5688  0.3330 -0.2087
  697MPD2     H10361   3.042   0.897  15.758 -0.7277  0.7283 -0.9563
  697MPD2    H110362   2.965   1.249  15.989  2.2579  0.9677 -2.7035
  697MPD2    H210363   2.959   0.866  16.184 -2.4126 -1.0860  0.2800
  697MPD2    H310364   2.921   1.107  16.176  0.9927 -0.5796  0.8488
  697MPD2     N10365   3.010   1.140  15.735  0.3876 -0.0225  0.7718
  697MPD2    H510366   3.054   1.091  15.658 -3.2815 -2.7008  0.3895
  697MPD2    N110367   3.033   0.720  15.948  0.6514  0.1533 -0.0948
  697MPD2    H710368   3.051   0.691  15.852 -0.8107  0.0302 -0.3325
  698TMC3    C110369   3.045   1.317  15.582  0.4696 -0.0267 -0.3123
  698TMC3    C210370   3.103   1.440  15.569  0.1363  0.5880  0.3373
  698TMC3    C310371   3.169   1.480  15.458  0.4222  0.3297 -0.0046
  698TMC3    C410372   3.052   1.223  15.483 -0.5182  0.0705 -0.0026
  698TMC3    C510373   3.113   1.269  15.373  0.1191 -0.4359  0.4191
  698TMC3    C610374   3.183   1.386  15.356  0.6069  0.5808  0.0016
  698TMC3     C10375   3.001   1.274  15.714 -0.3810 -0.3410 -0.1209
  698TMC3     O10376   2.958   1.362  15.788 -0.0250  0.3777  0.1923
  698TMC3     H10377   3.101   1.503  15.657  0.6539 -1.5176  1.8414
  698TMC3    H110378   3.023   1.118  15.485  0.9949 -0.3264  1.6245
  698TMC3    H210379   3.211   1.412  15.255  1.0783  1.0832  0.2619
  698TMC3    C710380   3.095   1.183  15.258 -0.2560 -0.3163  0.0441
  698TMC3    C810381   3.271   1.581  15.481  0.6075 -0.3657 -0.3272
  698TMC3    O110382   3.025   1.080  15.276 -0.3493  0.7192  0.5218
  698TMC3    O210383   3.291   1.609  15.600 -0.3493  0.5497  0.4530
  699TMC3    C110384   3.794   3.646  13.263 -0.0906  0.4392  0.1115
  699TMC3    C210385   3.878   3.564  13.328  0.3731  0.0876  1.3593
  699TMC3    C310386   3.830   3.509  13.445  0.4403 -0.5425 -0.0800
  699TMC3    C410387   3.662   3.669  13.292 -0.2447 -0.3100 -0.3831
  699TMC3    C510388   3.616   3.602  13.405  0.3058  0.3090  0.2564
  699TMC3    C610389   3.697   3.517  13.485 -0.3910 -0.5105 -0.0235
  699TMC3     C10390   3.845   3.705  13.143  0.1923 -0.3194 -0.1933
  699TMC3     O10391   3.793   3.813  13.114 -0.3043 -0.1172  0.0514
  699TMC3     H10392   3.982   3.556  13.298  0.0356  3.4667 -0.6848
  699TMC3    H110393   3.603   3.726  13.221 -1.2578 -1.8551 -0.7830
  699TMC3    H210394   3.669   3.461  13.574  0.9935  0.4597  1.0347
  699TMC3    C710395   3.480   3.615  13.447  0.7475 -0.0544  0.6968
  699TMC3    C810396   3.913   3.420  13.523 -0.0581  0.0742 -0.9772
  699TMC3    O110397   3.458   3.564  13.554 -0.1790 -0.6597  0.0262
  699TMC3    O210398   3.879   3.404  13.640 -0.0987 -0.8297 -0.0511
  700TMC3    C110399   2.500   1.739  17.253  0.2099  0.3286 -0.3471
  700TMC3    C210400   2.577   1.633  17.210 -0.1747  0.0655  0.3666
  700TMC3    C310401   2.697   1.626  17.275  0.1519 -0.1217 -0.3716
  700TMC3    C410402   2.537   1.830  17.343 -0.1369 -0.6886  0.2186
  700TMC3    C510403   2.659   1.830  17.393  0.1754  0.5580 -0.5601
  700TMC3    C610404   2.748   1.729  17.352  0.5869 -0.1550 -0.3288
  700TMC3     C10405   2.406   1.799  17.168 -0.1414 -0.6637 -0.2070
  700TMC3     O10406   2.340   1.724  17.101 -0.2120 -0.3740  0.6037
  700TMC3     H10407   2.536   1.559  17.143 -3.8416  1.4462  1.0670
  700TMC3    H110408   2.458   1.898  17.373 -0.5913 -1.4253  0.6976
  700TMC3    H210409   2.850   1.723  17.387  0.6274 -0.2645 -0.4674
  700TMC3    C710410   2.727   1.949  17.430  0.7631  0.7549  0.3259
  700TMC3    C810411   2.786   1.518  17.238  0.7105 -0.1772  0.1569
  700TMC3    O110412   2.848   1.939  17.437  0.9721 -0.7994  0.7153
  700TMC3    O210413   2.764   1.461  17.132  0.3444  0.7521  0.1420
  701TMC3    C110414   2.590   0.153  15.932  0.4436  0.1703  0.9436
  701TMC3    C210415   2.658   0.106  15.824  0.6376  0.2266  0.3093
  701TMC3    C310416   2.767   0.180  15.786 -0.4297  0.0497 -0.1517
  701TMC3    C410417   2.627   0.264  15.993  0.0578 -0.0059  0.0838
  701TMC3    C510418   2.742   0.327  15.952 -0.3683 -0.1138 -0.3022
  701TMC3    C610419   2.813   0.286  15.849 -0.2266  0.2748 -0.3573
  701TMC3     C10420   2.456   0.103  15.977  0.4315  0.7807  0.1022
  701TMC3     O10421   2.432   0.091  16.098 -0.0890 -0.3455  0.4539
  701TMC3     H10422   2.635   0.008  15.783  0.8727  1.0147 -1.7125
  701TMC3    H110423   2.575   0.299  16.082  0.7356 -0.9037  0.8227
  701TMC3    H210424   2.898   0.348  15.821  0.6482 -0.4973  0.5810
  701TMC3    C710425   2.736   0.473  15.961 -0.5504 -0.3703 -0.0487
  701TMC3    C810426   2.808   0.163  15.648 -0.7335  0.0144  0.0729
  701TMC3    O110427   2.771   0.538  15.864  0.0118 -0.8908  0.0326
  701TMC3    O210428   2.922   0.193  15.619  0.2734 -0.0176  0.1107
  702MPD2     C10429   2.507   1.953  10.786  0.9449  0.1763 -0.2231
  702MPD2    C110430   2.510   2.041  10.892  0.8453  0.2488  0.0538
  702MPD2    C210431   2.587   2.157  10.886  0.5505 -0.3306 -0.1599
  702MPD2    C310432   2.660   2.185  10.775  0.4286  0.4985 -0.5108
  702MPD2    C410433   2.656   2.100  10.672  0.3945 -0.4960 -0.0864
  702MPD2    C510434   2.579   1.990  10.672 -0.2632 -0.0543 -0.6542
  702MPD2     H10435   2.596   2.217  10.975  1.2974  1.1460 -1.2365
  702MPD2    H110436   2.704   2.119  10.577  1.4528 -0.3415  0.4780
  702MPD2    H210437   2.434   1.874  10.778  1.6312 -0.4086 -0.6397
  702MPD2    H310438   2.572   1.932  10.581 -3.6028 -1.3691  0.4311
  702MPD2     N10439   2.743   2.299  10.787  0.1299 -0.1125 -0.0081
  702MPD2    H510440   2.747   2.343  10.878 -0.1733  1.2329 -0.6580
  702MPD2    N110441   2.438   2.018  11.019 -0.3674 -0.0283  0.0215
  702MPD2    H710442   2.474   2.073  11.096  1.7179  1.1872 -1.8322
  703TMC3    C110443   2.898   2.463  10.724  0.4045 -0.5618  0.0274
  703TMC3    C210444   2.845   2.546  10.822  0.4437  0.0154 -0.0612
  703TMC3    C310445   2.907   2.662  10.854  0.3511 -0.0828  0.8926
  703TMC3    C410446   3.022   2.494  10.671 -0.2850 -0.4363  0.7350
  703TMC3    C510447   3.076   2.617  10.702  0.5341  0.1875 -0.2231
  703TMC3    C610448   3.027   2.700  10.794 -0.0214  0.2166 -0.3545
  703TMC3     C10449   2.829   2.343  10.690 -0.7330 -0.5509  0.2818
  703TMC3     O10450   2.856   2.295  10.582  0.0082 -0.1142 -0.6100
  703TMC3     H10451   2.742   2.525  10.848  0.4316  0.2050  0.0438
  703TMC3    H110452   3.062   2.436  10.589  0.9502  1.8952 -0.3156
  703TMC3    H210453   3.075   2.795  10.813 -0.3492 -0.0988  2.0851
  703TMC3    C710454   3.174   2.680  10.610  0.4813  0.1762 -1.0979
  703TMC3    C810455   2.875   2.728  10.977  0.2854 -0.3150  0.5599
  703TMC3    O110456   3.164   2.801  10.596  0.3170  0.8352  0.8180
  703TMC3    O210457   2.954   2.814  11.013 -0.1567  0.4904  0.1174
  704TMC3    C110458   0.240   0.468  12.983 -0.5172  0.3478 -0.3012
  704TMC3    C210459   0.341   0.411  12.918 -0.3712 -0.2062  0.8921
  704TMC3    C310460   0.399   0.298  12.970 -0.2126  0.1380 -0.0565
  704TMC3    C410461   0.189   0.417  13.104  0.6577  0.4464 -0.1736
  704TMC3    C510462   0.238   0.295  13.141  0.1571 -0.6438 -0.1758
  704TMC3    C610463   0.347   0.236  13.077  0.3504  0.7081 -0.8527
  704TMC3     C10464   0.135   0.530  12.900  0.5835 -0.3995  0.3877
  704TMC3     O10465   0.039   0.580  12.961 -0.6476 -0.2226 -0.1864
  704TMC3     H10466   0.393   0.458  12.836 -0.0267 -5.3238 -1.7643
  704TMC3    H110467   0.094   0.446  13.147  0.2939  0.4178 -0.9481
  704TMC3    H210468   0.403   0.149  13.111 -2.2451 -1.2025 -1.4811
  704TMC3    C710469   0.172   0.225  13.252 -0.1872 -0.0564  0.5914
  704TMC3    C810470   0.472   0.215  12.879 -0.2522  0.7371 -0.2309
  704TMC3    O110471   0.121   0.277  13.348  0.1324 -0.1546 -0.3681
  704TMC3    O210472   0.450   0.101  12.885  0.1221  0.0155 -0.0125
  705MPD2     C10473   3.692   3.473  16.370 -0.5138 -0.6288 -0.2365
  705MPD2    C110474   3.713   3.590  16.432  0.2200 -0.4027  0.1591
  705MPD2    C210475   3.605   3.668  16.454 -0.7104  0.0530 -0.3167
  705MPD2    C310476   3.477   3.635  16.414 -0.0530 -0.2949 -0.3058
  705MPD2    C410477   3.456   3.515  16.359 -0.2383 -0.2445  0.6542
  705MPD2    C510478   3.565   3.430  16.339 -0.5823  0.2551  0.4068
  705MPD2     H10479   3.620   3.757  16.513 -0.8003  1.1228 -1.8991
  705MPD2    H110480   3.356   3.482  16.333  0.8763 -2.1392 -1.2526
  705MPD2    H210481   3.772   3.405  16.344 -0.3364 -0.3134 -0.5212
  705MPD2    H310482   3.554   3.334  16.290  0.6245  0.1504  0.3309
  705MPD2     N10483   3.358   3.715  16.434 -0.8921  0.2478  0.8045
  705MPD2    H510484   3.274   3.676  16.392 -0.6603  1.0643 -0.4066
  705MPD2    N110485   3.845   3.629  16.466  0.0229 -0.1929 -0.0584
  705MPD2    H710486   3.855   3.718  16.515  0.3501 -0.3928  0.2409
  706TMC3    C110487   4.266   3.710  16.377  0.5948 -0.5916 -0.5020
  706TMC3    C210488   4.240   3.834  16.411  0.0670  0.3571 -0.1547
  706TMC3    C310489   4.132   3.858  16.490  0.2118 -0.1532  0.6625
  706TMC3    C410490   4.189   3.607  16.418 -0.7672  0.3566 -1.1355
  706TMC3    C510491   4.081   3.635  16.499  0.1913 -0.2170  0.7826
  706TMC3    C610492   4.051   3.762  16.543 -0.2544 -0.4411  0.0594
  706TMC3     C10493   4.376   3.692  16.287  0.5148 -1.0298 -0.4619
  706TMC3     O10494   4.473   3.754  16.316 -0.2554  0.2439  0.6527
  706TMC3     H10495   4.309   3.915  16.392  0.5737 -0.1947 -0.6577
  706TMC3    H110496   4.219   3.506  16.396 -0.9657 -0.2550  1.3674
  706TMC3    H210497   3.981   3.783  16.623  0.8230  1.8382  0.4106
  706TMC3    C710498   3.962   3.562  16.459  0.1166  0.6048  0.6086
  706TMC3    C810499   4.119   3.991  16.549  0.9262 -0.5724 -0.1155
  706TMC3    O110500   3.991   3.453  16.417 -0.3619  0.2459 -0.5355
  706TMC3    O210501   4.090   3.999  16.667  0.2013 -0.0545 -0.4581
  707TMC3    C110502   0.613   2.047   1.742  0.1583  0.7524  0.0828
  707TMC3    C210503   0.604   1.915   1.733  0.3243  1.1419  0.2188
  707TMC3    C310504   0.484   1.859   1.751 -0.2235 -0.2118  0.2833
  707TMC3    C410505   0.502   2.130   1.748 -0.2962 -0.2889  0.5704
  707TMC3    C510506   0.382   2.064   1.771 -0.9426 -0.6464 -0.5693
  707TMC3    C610507   0.372   1.930   1.781  0.0866  0.4489 -0.3313
  707TMC3     C10508   0.737   2.101   1.716 -0.2004 -0.9534  0.2964
  707TMC3     O10509   0.806   2.031   1.646  0.0807 -0.4453  0.0244
  707TMC3     H10510   0.695   1.859   1.746 -0.8844 -1.5606 -3.0227
  707TMC3    H110511   0.495   2.237   1.733 -0.1748 -0.3918 -0.2082
  707TMC3    H210512   0.277   1.879   1.790  1.4875 -2.3658 -1.3684
  707TMC3    C710513   0.260   2.143   1.748 -0.0021 -0.1552 -0.3493
  707TMC3    C810514   0.478   1.714   1.758 -0.2063 -0.4427 -0.4382
  707TMC3    O110515   0.243   2.221   1.654 -0.1868  0.1839  0.0361
  707TMC3    O210516   0.377   1.663   1.801  0.6792  0.2838  0.6479
  708MPD2     C10517   2.240   1.822  14.242 -0.1854  0.5146  0.3194
  708MPD2    C110518   2.280   1.933  14.315 -0.5595  0.1571 -0.4338
  708MPD2    C210519   2.224   1.962  14.438  0.0311 -0.3483  0.4575
  708MPD2    C310520   2.124   1.873  14.496 -0.0579  0.3406 -0.3617
  708MPD2    C410521   2.083   1.763  14.422 -0.6240  0.1454 -0.1849
  708MPD2    C510522   2.143   1.743  14.294  0.4335 -0.3824  0.8180
  708MPD2     H10523   2.262   2.046  14.495 -1.7924  1.2341 -0.6598
  708MPD2    H110524   2.009   1.697  14.466 -0.8776  0.0401 -0.7759
  708MPD2    H210525   2.271   1.798  14.141  0.7975  1.0356  0.4947
  708MPD2    H310526   2.106   1.658  14.238  0.8377 -0.9665  1.4470
  708MPD2     N10527   2.050   1.886  14.621  0.1006 -0.0840 -0.2666
  708MPD2    H510528   2.008   1.796  14.645  0.1852 -0.3016 -0.9256
  708MPD2    N110529   2.354   2.026  14.242  0.8019  0.3244  0.1744
  708MPD2    H710530   2.376   1.996  14.148  1.7110 -1.1598  0.8623
  709TMC3    C110531   2.474   2.217  14.188  0.0519  0.5352 -0.1379
  709TMC3    C210532   2.564   2.133  14.127 -0.5073  0.2487  0.1934
  709TMC3    C310533   2.580   2.148  13.996 -0.0433  0.3519 -0.4318
  709TMC3    C410534   2.416   2.320  14.121  0.5842 -0.0624  0.4592
  709TMC3    C510535   2.427   2.329  13.990 -0.2606 -0.0930  0.7081
  709TMC3    C610536   2.513   2.241  13.921 -0.6331 -0.0324 -0.1641
  709TMC3     C10537   2.388   2.154  14.284 -0.0984 -0.4576 -0.6016
  709TMC3     O10538   2.350   2.218  14.379  0.0151  0.0835  0.6540
  709TMC3     H10539   2.606   2.053  14.186 -1.9135  1.1209  2.3738
  709TMC3    H110540   2.336   2.374  14.171 -0.4112  2.4730 -3.8166
  709TMC3    H210541   2.516   2.254  13.814  1.3369 -0.6558 -0.1740
  709TMC3    C710542   2.300   2.362  13.927 -0.0610  0.2485  0.3529
  709TMC3    C810543   2.625   2.032  13.927 -0.9018 -0.0899  0.3747
  709TMC3    O110544   2.243   2.458  13.971  0.0373 -0.0292 -0.3699
  709TMC3    O210545   2.642   1.933  13.999 -0.2968  0.1050  0.2884
  710TMC3    C110546   3.351   3.536   0.107 -0.9560 -0.0845 -0.8115
  710TMC3    C210547   3.409   3.534  17.738 -0.2199 -0.4245  0.2252
  710TMC3    C310548   3.533   3.484  17.725 -0.4347  0.8990  0.4809
  710TMC3    C410549   3.407   3.477   0.217 -0.4019 -0.8468  0.0400
  710TMC3    C510550   3.541   3.439   0.203 -0.3822  0.3519 -1.2503
  710TMC3    C610551   3.602   3.436   0.079 -0.2253 -0.1830  0.3407
  710TMC3     C10552   3.213   3.545   0.102  0.6986  0.3440  0.0689
  710TMC3     O10553   3.170   3.477   0.008  0.4369 -0.2611  0.2071
  710TMC3     H10554   3.348   3.566  17.654 -0.9458  0.3703  1.0597
  710TMC3    H110555   3.349   3.473   0.308 -2.1337  0.0318 -1.0148
  710TMC3    H210556   3.693   3.378   0.070 -0.1143  0.1656 -0.7718
  710TMC3    C710557   3.595   3.371   0.319 -0.7608 -0.2881  0.1827
  710TMC3    C810558   3.594   3.499  17.595  0.2143 -0.4422 -0.1843
  710TMC3    O110559   3.539   3.384   0.426  0.1939 -0.6942 -0.3432
  710TMC3    O210560   3.535   3.554  17.504  0.1665 -0.5282  0.1821
  711TMC3    C110561   2.916   4.373  15.197  0.3305  0.1261 -0.0453
  711TMC3    C210562   2.982   4.384  15.317  0.2514 -0.5087  0.3518
  711TMC3    C310563   3.089   4.461  15.327  0.2462 -0.3425  0.1205
  711TMC3    C410564   2.949   4.446  15.088  0.0373 -0.5145  0.5153
  711TMC3    C510565   3.067   4.519  15.096 -0.3740 -0.3658 -0.0685
  711TMC3    C610566   3.133   4.525  15.217  0.3873 -0.6636 -0.6802
  711TMC3     C10567   2.880   4.232  15.161  0.2396  0.2467 -0.1541
  711TMC3     O10568   2.811   4.217  15.059  0.1385  0.2490  0.5888
  711TMC3     H10569   2.943   4.326  15.400 -0.2289 -1.3087 -0.4383
  711TMC3    H110570   2.885   4.439  15.001 -2.6183 -1.1759  2.5352
  711TMC3    H210571   3.218   4.593  15.223 -0.9075  1.0644 -1.9000
  711TMC3    C710572   3.159   4.468  14.998 -0.4818 -0.3972 -0.7182
  711TMC3    C810573   3.190   4.399  15.412  0.1269  0.3947  0.1665
  711TMC3    O110574   3.144   4.494  14.881  0.9106  0.1399 -0.1928
  711TMC3    O210575   3.183   4.276  15.424  0.1555 -0.1652 -0.2365
  712MPD2     C10576   4.469   0.520  14.333  0.8951 -0.1604 -0.3511
  712MPD2    C110577   4.409   0.562  14.218 -0.2606 -0.0388 -0.1266
  712MPD2    C210578   4.399   0.699  14.194 -0.1325 -0.0696  0.4005
  712MPD2    C310579   4.451   0.790  14.284  0.3884 -0.1372 -0.9232
  712MPD2    C410580   4.530   0.746  14.390 -0.6348  0.4729  0.1498
  712MPD2    C510581   4.526   0.611  14.412 -1.1495  0.3625  0.3025
  712MPD2     H10582   4.346   0.721  14.102  0.8227  1.8627  0.3235
  712MPD2    H110583   4.577   0.824  14.449  0.7762  0.9359 -1.5785
  712MPD2    H210584   4.485   0.414  14.347  0.8264 -0.0705  0.4094
  712MPD2    H310585   4.567   0.567  14.502  0.3667  0.7807 -0.1802
  712MPD2     N10586   4.437   0.928  14.268  0.2982  0.6099  0.3303
  712MPD2    H510587   4.492   0.992  14.324  0.5748  1.0107 -0.3998
  712MPD2    N110588   4.345   0.479  14.122  0.7218 -0.7980 -0.3278
  712MPD2    H710589   4.324   0.523  14.033  1.3805 -0.2499 -0.2081
  713TMC3    C110590   4.367   1.146  14.188 -0.0336 -0.0511 -0.0260
  713TMC3    C210591   4.475   1.195  14.253  0.3203 -0.5774  0.3318
  713TMC3    C310592   4.494   1.333  14.262 -0.6494  0.6131  0.3619
  713TMC3    C410593   4.275   1.224  14.141 -0.0858 -0.1320  0.2614
  713TMC3    C510594   4.286   1.358  14.157  0.1794 -0.0830 -0.4157
  713TMC3    C610595   4.395   1.419  14.220 -0.4816 -0.7336 -0.0843
  713TMC3     C10596   4.359   0.995  14.174 -0.0313 -1.0579  0.6427
  713TMC3     O10597   4.284   0.940  14.092 -0.2535 -0.1987 -0.0691
  713TMC3     H10598   4.566   1.138  14.267  0.6040 -0.4114 -0.8595
  713TMC3    H110599   4.197   1.180  14.080  1.5513 -3.2701  0.4667
  713TMC3    H210600   4.413   1.526  14.222  0.2380 -0.8244 -2.1177
  713TMC3    C710601   4.175   1.437  14.106 -0.9444  0.3066  0.1850
  713TMC3    C810602   4.631   1.378  14.246  0.5401  0.3783 -0.0857
  713TMC3    O110603   4.090   1.380  14.042 -0.2456  0.2846 -0.0987
  713TMC3    O210604   4.652   1.450  14.153  0.0029 -0.4447  0.4467
  714MPD2     C10605   1.613   4.193   1.288  0.0740 -0.7866  0.1317
  714MPD2    C110606   1.648   4.113   1.180  1.0361  0.0667  0.7666
  714MPD2    C210607   1.573   4.105   1.067 -0.2734  0.1339  0.0022
  714MPD2    C310608   1.454   4.176   1.066 -0.8950 -0.5769 -0.1006
  714MPD2    C410609   1.411   4.251   1.174 -0.0774  0.5947  0.5097
  714MPD2    C510610   1.493   4.264   1.287  0.6196 -0.2894  0.5881
  714MPD2     H10611   1.608   4.049   0.982 -1.2900  0.8015 -0.8502
  714MPD2    H110612   1.321   4.311   1.165  1.9708  3.2513 -1.8672
  714MPD2    H210613   1.675   4.202   1.377 -0.7482 -0.6590  0.6846
  714MPD2    H310614   1.469   4.333   1.368 -0.3215  0.6946 -0.5416
  714MPD2     N10615   1.362   4.182   0.956 -0.0121  0.6104  0.2040
  714MPD2    H510616   1.281   4.240   0.974 -1.2615 -0.8478 -0.6927
  714MPD2    N110617   1.773   4.044   1.188  0.2722 -0.2419 -0.3831
  714MPD2    H710618   1.817   4.066   1.277 -1.4863 -1.1732  0.7213
  715TMC3    C110619   1.969   3.957   1.112 -0.3559  0.0771  0.5284
  715TMC3    C210620   2.037   3.848   1.069  0.2750  0.1990  0.1762
  715TMC3    C310621   2.171   3.840   1.088 -0.5751 -0.2977  0.0701
  715TMC3    C410622   2.028   4.055   1.185 -0.6736  0.2911 -0.2162
  715TMC3    C510623   2.165   4.040   1.217  0.5509  0.8744 -0.1554
  715TMC3    C610624   2.234   3.936   1.162  0.0581 -0.4153 -0.5726
  715TMC3     C10625   1.829   3.957   1.096 -0.2029  0.2938 -0.3302
  715TMC3     O10626   1.763   3.884   1.023 -0.1222 -0.3371 -0.3258
  715TMC3     H10627   1.978   3.780   1.007  0.6088 -0.3701  0.4800
  715TMC3    H110628   1.984   4.150   1.211  2.5491  2.2090 -1.7516
  715TMC3    H210629   2.339   3.920   1.180  0.8546  1.3813 -3.4885
  715TMC3    C710630   2.228   4.143   1.299 -0.6489  0.2931 -1.0727
  715TMC3    C810631   2.233   3.740   0.999  0.2602 -0.3866  0.1272
  715TMC3    O110632   2.349   4.145   1.308 -0.0314 -0.1237  0.4633
  715TMC3    O210633   2.166   3.671   0.923  0.0123  0.0135 -0.2983
  716MPD2     C10634   3.037   1.701   9.663 -0.2233 -0.1797 -0.3506
  716MPD2    C110635   2.935   1.794   9.676 -0.7286  0.2787  0.4822
  716MPD2    C210636   2.817   1.747   9.627 -0.1458 -0.1169 -0.2062
  716MPD2    C310637   2.799   1.623   9.577 -0.0060 -0.0199  0.0784
  716MPD2    C410638   2.902   1.524   9.585  0.6796 -0.1746 -0.0993
  716MPD2    C510639   3.022   1.569   9.623  0.2295 -0.2952  0.3679
  716MPD2     H10640   2.733   1.815   9.629 -1.6994 -2.1012  2.6730
  716MPD2    H110641   2.886   1.425   9.544 -1.1520 -0.6961  1.8757
  716MPD2    H210642   3.137   1.728   9.696 -0.9991  2.1283  0.1287
  716MPD2    H310643   3.096   1.491   9.639  2.1881  1.6192  0.6397
  716MPD2     N10644   2.668   1.602   9.535 -0.0485  0.4268 -0.4078
  716MPD2    H510645   2.607   1.682   9.524  1.5522  1.5465 -1.1492
  716MPD2    N110646   2.959   1.928   9.715  0.3985  0.5704 -0.2306
  716MPD2    H710647   3.051   1.954   9.749  1.0055 -0.8384 -0.7586
  717TMC3    C110648   2.489   1.472   9.469  0.2912  0.2970  0.3239
  717TMC3    C210649   2.398   1.564   9.517 -0.2372  0.3022  0.2159
  717TMC3    C310650   2.268   1.534   9.489  0.3552  0.0871 -0.4362
  717TMC3    C410651   2.456   1.364   9.385  0.2388  0.0844 -0.1865
  717TMC3    C510652   2.326   1.357   9.351 -0.1082 -0.5381  0.1393
  717TMC3    C610653   2.227   1.430   9.412  0.0580 -0.5102  0.6270
  717TMC3     C10654   2.623   1.472   9.513  0.2099  0.0881  0.1256
  717TMC3     O10655   2.677   1.363   9.530  0.5933 -1.0944  0.1699
  717TMC3     H10656   2.415   1.629   9.602 -1.3726  0.7276  0.1118
  717TMC3    H110657   2.534   1.316   9.327 -0.4388 -0.9109 -0.2580
  717TMC3    H210658   2.120   1.416   9.407  0.4550 -3.9038  1.7519
  717TMC3    C710659   2.291   1.262   9.249  0.0708  0.3122  0.2261
  717TMC3    C810660   2.174   1.643   9.505  0.0584 -0.0212  0.5126
  717TMC3    O110661   2.368   1.175   9.219  0.1340 -0.1980  0.4373
  717TMC3    O210662   2.230   1.753   9.514 -0.0237 -0.3089 -0.3040
  718MPD2     C10663   1.811   1.022  12.756  0.1861  0.1403 -0.4033
  718MPD2    C110664   1.718   1.120  12.745  0.2021 -0.3851  0.3617
  718MPD2    C210665   1.590   1.103  12.798  0.1596 -0.5847 -0.3190
  718MPD2    C310666   1.561   0.988  12.873 -0.1179 -0.4580 -0.1489
  718MPD2    C410667   1.654   0.887  12.879 -0.2685  0.2176  0.0284
  718MPD2    C510668   1.778   0.908  12.828 -0.1547  0.0153  0.4648
  718MPD2     H10669   1.517   1.182  12.808  1.2611  0.4649 -0.5334
  718MPD2    H110670   1.634   0.789  12.921  1.6895 -0.2394 -0.1327
  718MPD2    H210671   1.902   1.029  12.698  0.0638  1.6034 -0.4079
  718MPD2    H310672   1.840   0.820  12.824  0.8578  0.6601  2.0337
  718MPD2     N10673   1.427   0.985  12.913 -0.1623  0.0843  0.2632
  718MPD2    H510674   1.365   1.064  12.897  0.6320  0.1489 -2.5854
  718MPD2    N110675   1.753   1.236  12.670 -0.5708 -0.6936  0.0473
  718MPD2    H710676   1.838   1.232  12.615 -0.6306 -1.1678 -0.0081
  719TMC3    C110677   1.698   1.399  12.502 -0.4773 -0.8372  0.9244
  719TMC3    C210678   1.570   1.428  12.454  0.1544  0.0973 -0.2674
  719TMC3    C310679   1.536   1.559  12.439 -0.2856 -0.0540 -0.3701
  719TMC3    C410680   1.787   1.495  12.532  0.2393  0.3034  0.7719
  719TMC3    C510681   1.752   1.625  12.505 -0.2145  0.7964 -0.5820
  719TMC3    C610682   1.625   1.666  12.467 -0.1735  0.2495  0.2305
  719TMC3     C10683   1.663   1.327  12.627 -0.0990 -0.5681  0.6659
  719TMC3     O10684   1.553   1.357  12.667  0.1421  0.1660  0.5239
  719TMC3     H10685   1.508   1.343  12.427  0.8738 -0.3510 -0.4970
  719TMC3    H110686   1.888   1.461  12.549  1.3338  1.5332 -3.1792
  719TMC3    H210687   1.603   1.764  12.426 -0.3307  0.6485  1.2765
  719TMC3    C710688   1.868   1.712  12.492  0.3747  0.1114  0.2160
  719TMC3    C810689   1.396   1.585  12.471 -0.2702 -0.0517 -0.8560
  719TMC3    O110690   1.983   1.668  12.511  0.2095  0.1469  0.6970
  719TMC3    O210691   1.349   1.700  12.463 -0.5583  0.3671 -0.2164
  720MPD2     C10692   4.616   2.956  14.275  0.0685  0.8090 -0.5969
  720MPD2    C110693   4.696   2.959  14.164 -0.1977 -0.4082  0.3648
  720MPD2    C210694   0.095   2.941  14.173  0.2653 -0.0887  0.0248
  720MPD2    C310695   0.149   2.906  14.293  0.1474 -0.6666  1.0917
  720MPD2    C410696   0.066   2.875  14.395 -0.8002  0.1265  0.6451
  720MPD2    C510697   4.679   2.904  14.390  0.0845  0.1230 -0.7099
  720MPD2     H10698   0.158   2.947  14.086 -1.0404 -1.2979 -1.0013
  720MPD2    H110699   0.106   2.833  14.487  0.6398 -0.2594 -0.1525
  720MPD2    H210700   4.509   2.976  14.284  0.0383  0.6723 -0.6596
  720MPD2    H310701   4.615   2.893  14.477 -1.4464 -0.2603 -1.8862
  720MPD2     N10702   0.284   2.874  14.313 -0.4594 -0.1076  0.4181
  720MPD2    H510703   0.300   2.831  14.404 -0.2127 -1.0710 -0.0872
  720MPD2    N110704   4.636   2.983  14.037  0.5460 -0.8593  0.1199
  720MPD2    H710705   4.700   2.980  13.958  0.8625 -0.5730  0.3681
  721TMC3    C110706   0.522   2.872  14.282 -0.0690  0.4205  0.0717
  721TMC3    C210707   0.528   2.832  14.411 -0.2951 -0.2873  1.1566
  721TMC3    C310708   0.657   2.789  14.455  0.1527 -0.2235  0.7788
  721TMC3    C410709   0.624   2.860  14.186 -0.9019 -0.2549  0.1943
  721TMC3    C510710   0.739   2.805  14.233 -0.4864  0.7452 -0.0109
  721TMC3    C610711   0.763   2.775  14.366 -0.1920  0.3233  1.0078
  721TMC3     C10712   0.392   2.903  14.224 -0.5116  0.3932 -0.0959
  721TMC3     O10713   0.390   2.946  14.110  0.2876  0.0571  0.1497
  721TMC3     H10714   0.453   2.823  14.488  0.0867  1.5014  1.7325
  721TMC3    H110715   0.619   2.884  14.080  0.3437  0.9506  0.4168
  721TMC3    H210716   0.865   2.761  14.399  1.0667  2.1890 -2.1730
  721TMC3    C710717   0.847   2.781  14.138  0.4695  0.4265  0.1107
  721TMC3    C810718   0.678   2.714  14.578  0.5571  0.3876 -0.0226
  721TMC3    O110719   0.860   2.858  14.042  0.1583 -0.2273 -0.0380
  721TMC3    O210720   0.792   2.663  14.583  0.8450  0.2817 -0.1653
  722MPD2     C10721   3.631   1.151  13.443  0.1605 -0.2124 -0.7259
  722MPD2    C110722   3.566   1.258  13.388  0.3716  0.2868  0.1184
  722MPD2    C210723   3.438   1.236  13.340 -0.5473 -0.0448 -0.5998
  722MPD2    C310724   3.363   1.119  13.365 -0.2014 -0.0875  0.1569
  722MPD2    C410725   3.428   1.012  13.421 -0.5013 -0.4768  0.6630
  722MPD2    C510726   3.560   1.032  13.452 -0.6811  0.0196 -0.4819
  722MPD2     H10727   3.387   1.322  13.300 -1.7265 -0.0281  0.9621
  722MPD2    H110728   3.377   0.919  13.448  0.1882 -1.5951 -1.9082
  722MPD2    H210729   3.720   1.148  13.505  1.3375 -1.4066 -2.4684
  722MPD2    H310730   3.599   0.944  13.503 -0.8009 -0.4992 -1.2799
  722MPD2     N10731   3.232   1.126  13.327 -0.1479 -0.2024 -0.3371
  722MPD2    H510732   3.210   1.215  13.284 -2.0993 -0.2029  0.6952
  722MPD2    N110733   3.629   1.384  13.383  0.0602  0.0807  0.1385
  722MPD2    H710734   3.581   1.448  13.320 -0.2017 -0.3393 -0.0824
  723TMC3    C110735   3.009   1.079  13.313 -0.0807 -0.4322  0.3643
  723TMC3    C210736   3.021   1.128  13.192 -0.7666  0.0795  0.6188
  723TMC3    C310737   2.936   1.231  13.165 -0.0771 -0.7419  0.1275
  723TMC3    C410738   2.918   1.111  13.410  1.0167 -0.7345  0.6517
  723TMC3    C510739   2.829   1.207  13.375 -0.5335 -0.5566  0.7604
  723TMC3    C610740   2.838   1.268  13.256 -0.0094 -0.4590 -0.3536
  723TMC3     C10741   3.128   1.041  13.363 -0.0864  0.1180 -0.5270
  723TMC3     O10742   3.134   0.956  13.455 -0.2310  0.0677 -0.0933
  723TMC3     H10743   3.105   1.108  13.127  0.0078  1.3195  1.2488
  723TMC3    H110744   2.914   1.076  13.512  1.1835  1.3897  1.3930
  723TMC3    H210745   2.765   1.344  13.231 -1.4605 -1.8903 -0.4424
  723TMC3    C710746   2.782   1.301  13.485 -0.5221 -0.5278 -0.8111
  723TMC3    C810747   2.892   1.223  13.028  0.1668  0.3981 -0.1752
  723TMC3    O110748   2.752   1.418  13.459  0.9430 -0.4290 -0.3129
  723TMC3    O210749   2.842   1.320  12.976 -0.1640  0.0000 -0.4618
  724TMC3    C110750   4.464   4.041  10.552 -0.0027 -0.3875 -0.4493
  724TMC3    C210751   4.552   4.068  10.452 -0.8252  0.0416  1.1221
  724TMC3    C310752   4.630   4.179  10.478  0.1219 -0.1496 -0.1474
  724TMC3    C410753   4.424   4.125  10.656 -0.1331  0.3864 -0.5792
  724TMC3    C510754   4.500   4.228  10.678 -0.0542  0.8201  0.0920
  724TMC3    C610755   4.602   4.256  10.591  0.1679  0.5723 -0.9267
  724TMC3     C10756   4.403   3.911  10.545  0.1671 -0.1441 -0.0353
  724TMC3     O10757   4.420   3.864  10.436 -0.3940 -0.2787  0.5931
  724TMC3     H10758   4.576   4.001  10.371 -1.1500 -0.6020  1.5589
  724TMC3    H110759   4.343   4.101  10.724  1.0619  1.0478  1.0694
  724TMC3    H210760   4.639   4.357  10.583  1.8266  0.2297  2.3212
  724TMC3    C710761   4.472   4.328  10.779  0.2345  0.1565  0.2026
  724TMC3    C810762   0.009   4.192  10.402 -0.3116  0.4250  0.3675
  724TMC3    O110763   4.577   4.379  10.818  0.5221 -0.3014 -0.1310
  724TMC3    O210764   0.023   4.124  10.301 -0.5669 -0.6253  0.1963
  725TMC3    C110765   0.984   3.094  13.205 -0.0446  0.3334 -0.8054
  725TMC3    C210766   0.852   3.142  13.201  0.8271  0.4673  0.2153
  725TMC3    C310767   0.752   3.074  13.138 -0.4097 -0.0940  0.8623
  725TMC3    C410768   1.007   2.967  13.165 -0.4364 -0.4293 -0.4838
  725TMC3    C510769   0.903   2.899  13.112  0.1825 -0.8560  0.4528
  725TMC3    C610770   0.774   2.946  13.105 -0.2566  0.0344  0.5758
  725TMC3     C10771   1.091   3.183  13.240 -0.3317 -0.1803 -0.8149
  725TMC3     O10772   1.061   3.296  13.282  0.7687  0.3568  0.0186
  725TMC3     H10773   0.823   3.240  13.235  3.2186  0.9016  0.9988
  725TMC3    H110774   1.104   2.919  13.160  0.8214  1.8963  1.5048
  725TMC3    H210775   0.694   2.902  13.046  0.8300 -0.9948 -0.1266
  725TMC3    C710776   0.929   2.766  13.053  0.1444  0.3810  0.4191
  725TMC3    C810777   0.651   3.140  13.062  0.1549 -0.5186 -0.0549
  725TMC3    O110778   1.044   2.730  13.015 -0.4697  0.4927  0.3624
  725TMC3    O210779   0.544   3.088  13.058  0.0613  0.4554  0.2901
  726MPD2     C10780   3.467   4.292   9.971  0.4160  0.7777 -1.1751
  726MPD2    C110781   3.463   4.322  10.101  1.0192 -0.4818  0.6811
  726MPD2    C210782   3.377   4.241  10.182 -0.1270  0.5449 -0.2549
  726MPD2    C310783   3.299   4.143  10.132 -0.4988  0.3921 -0.1826
  726MPD2    C410784   3.306   4.113   9.998  0.7764  0.0524 -0.5928
  726MPD2    C510785   3.388   4.191   9.915 -0.1710  0.1017  0.2803
  726MPD2     H10786   3.369   4.283  10.282  1.2337  1.0983 -0.3692
  726MPD2    H110787   3.244   4.034   9.956 -2.0744  2.2005 -0.3615
  726MPD2    H210788   3.532   4.337   9.896  1.1511 -2.1853 -2.3296
  726MPD2    H310789   3.405   4.170   9.810  0.8224  0.0110  0.4637
  726MPD2     N10790   3.204   4.075  10.202 -0.1183 -0.5206 -0.0922
  726MPD2    H510791   3.155   4.001  10.153 -0.6435 -0.0297 -0.3069
  726MPD2    N110792   3.547   4.424  10.166 -0.1196 -0.9253 -0.4196
  726MPD2    H710793   3.537   4.436  10.267  1.4713 -0.3264 -0.3400
  727TMC3    C110794   3.640   4.636  10.181 -0.1258  0.0029  0.0941
  727TMC3    C210795   3.728   4.609  10.288 -0.2444  0.3442  0.6263
  727TMC3    C310796   3.792   4.712  10.350  0.2158 -0.0192  0.3790
  727TMC3    C410797   3.637   0.024  10.128  0.1890 -0.0255  0.5805
  727TMC3    C510798   3.710   0.118  10.189  0.2595  0.1468  0.0206
  727TMC3    C610799   3.786   0.098  10.302 -0.1438 -0.1047 -0.7813
  727TMC3     C10800   3.603   4.528  10.092 -0.1614 -0.1550 -0.1172
  727TMC3     O10801   3.621   4.544   9.972 -0.4116 -0.0274 -0.1530
  727TMC3     H10802   3.725   4.514  10.341 -3.6573 -1.5814 -3.0373
  727TMC3    H110803   3.557   0.045  10.057  1.4488 -0.3080 -0.9372
  727TMC3    H210804   3.833   0.181  10.354  0.3361 -1.3922  0.8295
  727TMC3    C710805   3.673   0.259  10.163 -0.3043  0.2662  0.0045
  727TMC3    C810806   3.833   4.693  10.488 -0.4886 -0.2602  0.3201
  727TMC3    O110807   3.701   0.348  10.245 -0.4765 -0.2024  0.7839
  727TMC3    O210808   3.772   4.603  10.546 -0.6109  0.4865  0.1917
  728TMC3    C110809   2.334   3.330  15.826 -0.0148 -0.2507 -0.2445
  728TMC3    C210810   2.420   3.434  15.842  0.5226  0.8303  0.5913
  728TMC3    C310811   2.452   3.517  15.737 -0.4940 -0.3496  0.5755
  728TMC3    C410812   2.265   3.316  15.706 -0.2851  0.4441  0.1764
  728TMC3    C510813   2.302   3.395  15.597  0.1272  0.4940 -0.3211
  728TMC3    C610814   2.401   3.492  15.609  0.5160 -0.3823 -0.9307
  728TMC3     C10815   2.292   3.258  15.948 -0.0674  0.9619 -0.8993
  728TMC3     O10816   2.380   3.261  16.033 -0.5732 -0.0821 -0.2394
  728TMC3     H10817   2.450   3.451  15.944 -1.1175  1.7014  0.9409
  728TMC3    H110818   2.174   3.256  15.704  0.6844 -1.0554  0.4105
  728TMC3    H210819   2.425   3.555  15.524  0.6098 -0.4644 -0.9660
  728TMC3    C710820   2.221   3.371  15.479  0.1288 -0.3065 -0.2339
  728TMC3    C810821   2.513   3.648  15.769  0.0684 -0.6260  0.0676
  728TMC3    O110822   2.107   3.338  15.499 -0.4536 -0.2105  0.4294
  728TMC3    O210823   2.604   3.657  15.848 -0.6407  0.5292 -0.0472
  729MPD2     C10824   4.313   4.584  16.493  0.3263 -0.0265 -0.2853
  729MPD2    C110825   4.361   4.457  16.525 -0.2213 -0.2099  0.4661
  729MPD2    C210826   4.333   4.403  16.648 -0.0157 -0.1725  0.8037
  729MPD2    C310827   4.236   4.458  16.733  0.0252  0.0708  0.1264
  729MPD2    C410828   4.180   4.571  16.690 -0.2338 -0.0427  0.4524
  729MPD2    C510829   4.218   4.643  16.574  0.1102  0.7957 -0.6626
  729MPD2     H10830   4.382   4.309  16.670 -0.2015 -0.5337 -0.3114
  729MPD2    H110831   4.108   4.626  16.750 -0.5060  1.4883 -1.2548
  729MPD2    H210832   4.343   4.632  16.400 -1.9995  0.5751 -0.7296
  729MPD2    H310833   4.169   4.739  16.559 -1.7005 -0.1687 -0.9054
  729MPD2     N10834   4.191   4.397  16.855  0.2241 -0.1814  0.5163
  729MPD2    H510835   4.120   4.444  16.909  1.6172  1.1271  1.2181
  729MPD2    N110836   4.454   4.403  16.439  0.2466  0.2750 -0.4069
  729MPD2    H710837   4.456   4.437  16.343 -1.7695  0.6353 -0.3134
  730TMC3    C110838   4.181   4.257  17.036  0.0726 -0.2480  0.3885
  730TMC3    C210839   4.272   4.203  17.119  0.2292 -0.1208  0.6624
  730TMC3    C310840   4.298   4.253  17.248 -0.5869 -0.6173  0.3547
  730TMC3    C410841   4.094   4.348  17.097 -0.3134  0.0517 -0.3877
  730TMC3    C510842   4.125   4.398  17.224  0.4239  0.2988  0.1340
  730TMC3    C610843   4.214   4.344  17.308 -0.0951 -0.0793  1.2579
  730TMC3     C10844   4.236   4.283  16.904  0.0910 -0.1483 -0.3052
  730TMC3     O10845   4.328   4.212  16.868 -0.2325 -0.0264 -0.0481
  730TMC3     H10846   4.352   4.140  17.081 -0.4080 -0.7302  0.3513
  730TMC3    H110847   3.998   4.363  17.049 -0.9733 -1.0967  0.5799
  730TMC3    H210848   4.230   4.375  17.410  1.0443 -0.9411  1.3434
  730TMC3    C710849   4.130   4.538  17.207 -0.4084  0.4598  0.7410
  730TMC3    C810850   4.433   4.314  17.260 -0.0790  1.1676 -0.0254
  730TMC3    O110851   4.099   4.581  17.099 -0.1246  0.7720 -0.5762
  730TMC3    O210852   4.454   4.373  17.368 -0.0940 -0.6683 -0.0259
  731MPD2     C10853   0.356   3.072  12.348 -0.5849  0.6355  0.5074
  731MPD2    C110854   0.275   2.968  12.386 -0.3838  0.1347  0.1607
  731MPD2    C210855   0.260   2.931  12.519 -0.1780  0.2135 -0.2826
  731MPD2    C310856   0.322   3.009  12.620  0.5851  0.2079 -0.0803
  731MPD2    C410857   0.389   3.121  12.579  0.1285 -0.3790  0.1429
  731MPD2    C510858   0.408   3.145  12.448  0.0868  0.1727 -0.4189
  731MPD2     H10859   0.216   2.835  12.544 -0.5626  0.3881 -0.2919
  731MPD2    H110860   0.433   3.193  12.648 -0.6017 -0.2345  0.4546
  731MPD2    H210861   0.375   3.102  12.246 -2.5705 -2.5738 -0.8139
  731MPD2    H310862   0.467   3.228  12.409 -3.0258 -0.3321 -6.2566
  731MPD2     N10863   0.290   2.992  12.759 -0.8427  0.7669 -0.2332
  731MPD2    H510864   0.318   3.070  12.818  0.2020  0.4039 -0.2456
  731MPD2    N110865   0.227   2.883  12.281 -0.4152 -0.2960 -0.5206
  731MPD2    H710866   0.255   2.899  12.185 -2.7768  0.4772 -1.0946
  732TMC3    C110867   0.157   2.705  12.161  0.0237 -0.2516  0.1788
  732TMC3    C210868   0.062   2.604  12.142  0.6653 -0.4033  0.0400
  732TMC3    C310869   0.035   2.571  12.011  0.3797 -0.6653 -0.9515
  732TMC3    C410870   0.243   2.741  12.062 -0.4119  0.4443  1.4737
  732TMC3    C510871   0.216   2.695  11.935  0.1133  0.3415 -0.2569
  732TMC3    C610872   0.111   2.617  11.906  0.1023 -0.2532 -0.1342
  732TMC3     C10873   0.157   2.769  12.292  0.3326  0.1892  0.1882
  732TMC3     O10874   0.109   2.706  12.391  0.3008 -0.3103  0.0659
  732TMC3     H10875   0.011   2.563  12.228 -0.2974 -1.1008 -0.8614
  732TMC3    H110876   0.329   2.805  12.076  0.7088 -1.2686  2.5202
  732TMC3    H210877   0.102   2.587  11.803 -1.9679 -1.2959  0.3444
  732TMC3    C710878   0.331   2.667  11.864 -0.1209  0.0830 -0.3385
  732TMC3    C810879   4.679   2.473  11.967 -0.2420  0.9248  0.1439
  732TMC3    O110880   0.311   2.649  11.742  0.1070  0.3078  0.5082
  732TMC3    O210881   4.641   2.486  11.852  0.2012  0.6061 -0.2185
  733TMC3    C110882   1.012   0.810  12.969 -0.4743  0.6851 -0.1904
  733TMC3    C210883   1.146   0.790  12.998  0.5679  0.7092 -0.3157
  733TMC3    C310884   1.223   0.902  12.997 -0.3426  0.2411 -0.2259
  733TMC3    C410885   0.953   0.930  12.951 -0.0909  0.4575 -0.6319
  733TMC3    C510886   1.033   1.041  12.958 -0.5430  0.1639 -0.2036
  733TMC3    C610887   1.168   1.025  12.965  0.7960 -0.3874  0.2769
  733TMC3     C10888   0.933   0.696  13.011 -0.1011 -0.9728  0.0795
  733TMC3     O10889   0.970   0.580  12.986  0.0616  0.1481 -0.4580
  733TMC3     H10890   1.188   0.690  13.002  0.8046  0.8563  0.9174
  733TMC3    H110891   0.847   0.930  12.928  0.0917  0.6568 -1.4652
  733TMC3    H210892   1.233   1.111  12.973 -0.8714  0.8310  0.7253
  733TMC3    C710893   0.990   1.165  12.909  0.4689 -0.5891 -0.1301
  733TMC3    C810894   1.366   0.879  12.981  0.3563  0.0060 -0.5803
  733TMC3    O110895   0.873   1.190  12.917  0.0969  0.2513 -0.2836
  733TMC3    O210896   1.413   0.769  13.008  0.3356 -0.5251 -0.4169
  734MPD2     C10897   3.152   3.033  12.393 -0.2820 -0.2957  0.2130
  734MPD2    C110898   3.115   2.911  12.346 -0.4438  0.1186  0.3853
  734MPD2    C210899   3.123   2.887  12.215 -0.2233 -0.2964  0.2911
  734MPD2    C310900   3.155   2.984  12.124  0.2697  0.6606  0.2634
  734MPD2    C410901   3.179   3.110  12.170 -0.2126  0.0404  0.3625
  734MPD2    C510902   3.171   3.133  12.305 -0.2298  0.2727 -0.0799
  734MPD2     H10903   3.105   2.788  12.175  1.2714 -0.9451  1.2154
  734MPD2    H110904   3.206   3.192  12.105 -0.9829 -0.2605 -0.3395
  734MPD2    H210905   3.160   3.047  12.500 -2.1611 -1.4385  0.5052
  734MPD2    H310906   3.183   3.234  12.343  0.3725 -0.1359  0.8067
  734MPD2     N10907   3.151   2.946  11.989  0.0993 -0.1855 -0.0511
  734MPD2    H510908   3.156   2.845  11.977 -0.1168 -0.0005 -1.6523
  734MPD2    N110909   3.063   2.807  12.433 -0.8654  0.4609  0.0496
  734MPD2    H710910   3.061   2.822  12.533  4.0900 -0.8928  0.3464
  735TMC3    C110911   2.977   2.589  12.478  0.3720 -0.1445  0.0191
  735TMC3    C210912   2.871   2.522  12.431 -0.5095 -0.0596  0.3298
  735TMC3    C310913   2.885   2.385  12.411  0.3564  0.9776 -0.1416
  735TMC3    C410914   3.090   2.531  12.520 -0.7095 -0.8867  0.7775
  735TMC3    C510915   3.106   2.401  12.488  0.7165 -0.3047 -1.2771
  735TMC3    C610916   3.008   2.327  12.435  0.6611  0.1502  0.3924
  735TMC3     C10917   2.997   2.700  12.383 -0.5529 -0.2129  0.0228
  735TMC3     O10918   2.944   2.674  12.277  0.4613  0.0019  0.0022
  735TMC3     H10919   2.781   2.581  12.416 -0.4792  0.0645  0.6263
  735TMC3    H110920   3.182   2.585  12.538 -1.9650  1.5523 -0.1732
  735TMC3    H210921   3.031   2.239  12.376  0.1716  0.2100  0.1119
  735TMC3    C710922   3.231   2.357  12.445  0.0524 -0.1331 -0.3982
  735TMC3    C810923   2.821   2.341  12.290  0.4822 -0.0620 -0.6321
  735TMC3    O110924   3.292   2.428  12.368 -1.0431  0.0801 -0.1598
  735TMC3    O210925   2.800   2.223  12.275  0.3659  0.1937  0.0778
  736MPD2     C10926   3.380   2.024  12.516  0.3398  0.0767  0.3421
  736MPD2    C110927   3.370   2.147  12.455  0.5928 -0.0116  0.5116
  736MPD2    C210928   3.464   2.182  12.363 -0.0456 -0.1818  0.8668
  736MPD2    C310929   3.577   2.103  12.338  0.6477 -0.5611 -0.0818
  736MPD2    C410930   3.577   1.971  12.383  0.2829 -0.6693  0.6773
  736MPD2    C510931   3.474   1.935  12.470 -0.7703  0.4448  0.2741
  736MPD2     H10932   3.450   2.269  12.300 -3.3632 -0.6260  0.9979
  736MPD2    H110933   3.650   1.892  12.367  0.5568 -0.4375  0.7724
  736MPD2    H210934   3.301   1.990  12.582  0.0756  0.4532  0.2192
  736MPD2    H310935   3.467   1.830  12.497 -0.1700  0.1003 -0.9275
  736MPD2     N10936   3.690   2.146  12.260  0.9742 -0.0971 -0.2359
  736MPD2    H510937   3.770   2.084  12.259  0.1398 -1.1521 -2.6082
  736MPD2    N110938   3.257   2.228  12.486 -0.0174  0.6105 -1.0450
  736MPD2    H710939   3.198   2.182  12.554  3.2669 -2.0064  0.0044
  737TMC3    C110940   3.809   2.289  12.119 -0.3368 -0.6075  0.4760
  737TMC3    C210941   3.826   2.410  12.055  0.6201  0.5146 -0.1453
  737TMC3    C310942   3.881   2.403  11.934  0.1036 -0.2492 -0.0103
  737TMC3    C410943   3.846   2.167  12.062  0.7266 -0.1643 -0.1209
  737TMC3    C510944   3.894   2.170  11.932  0.5162 -0.0790  0.0948
  737TMC3    C610945   3.924   2.287  11.869 -0.4628 -0.0005  0.2946
  737TMC3     C10946   3.700   2.278  12.210 -0.0617  0.0431 -0.2201
  737TMC3     O10947   3.623   2.374  12.207  0.1133  0.0883 -0.4327
  737TMC3     H10948   3.791   2.508  12.082  2.0305 -0.5296  5.3047
  737TMC3    H110949   3.838   2.070  12.110 -2.2111  0.2110  0.1669
  737TMC3    H210950   3.967   2.297  11.769  0.5491  1.0639  0.8294
  737TMC3    C710951   3.924   2.035  11.873 -0.3157 -0.2460 -0.3308
  737TMC3    C810952   3.917   2.532  11.883 -0.3793 -0.2871 -0.0955
  737TMC3    O110953   3.890   1.930  11.926 -0.8354 -0.1442  0.2644
  737TMC3    O210954   3.954   2.626  11.952  0.5275 -0.0751  0.7351
  738MPD2     C10955   3.478   1.793  15.479 -0.2081 -1.1390 -0.4028
  738MPD2    C110956   3.472   1.697  15.384 -0.4689 -0.3518  0.1871
  738MPD2    C210957   3.568   1.693  15.279  0.2639  0.2636  0.3755
  738MPD2    C310958   3.678   1.773  15.289  0.1884 -0.5838  0.0897
  738MPD2    C410959   3.684   1.870  15.387 -0.3793  0.4217  0.5375
  738MPD2    C510960   3.580   1.882  15.472 -0.6188  0.2127  0.4344
  738MPD2     H10961   3.574   1.610  15.209 -0.1882  1.0571 -0.5922
  738MPD2    H110962   3.761   1.946  15.394 -1.9834  1.9152  1.9357
  738MPD2    H210963   3.401   1.807  15.554  3.1655 -1.5309  3.1286
  738MPD2    H310964   3.583   1.960  15.548  1.2626 -0.9513  1.5479
  738MPD2     N10965   3.794   1.754  15.210 -0.7449  0.3761  0.0933
  738MPD2    H510966   3.871   1.809  15.248 -1.9796  0.9559  1.7460
  738MPD2    N110967   3.355   1.610  15.382 -0.5893 -0.2029 -0.1148
  738MPD2    H710968   3.341   1.561  15.294  3.0561  2.1124 -1.9622
  739TMC3    C110969   3.943   1.693  15.034  0.0466  0.0601  0.0986
  739TMC3    C210970   3.943   1.769  14.920  0.1251 -0.2136  0.4192
  739TMC3    C310971   4.057   1.834  14.869 -0.7168  0.0491 -0.4766
  739TMC3    C410972   4.054   1.710  15.116 -0.2123  0.3268 -0.9866
  739TMC3    C510973   4.160   1.779  15.067  0.7794  0.1503 -0.0337
  739TMC3    C610974   4.168   1.844  14.945 -0.2899 -0.5840  0.6450
  739TMC3     C10975   3.815   1.675  15.107 -0.4629 -0.5110  0.9169
  739TMC3     O10976   3.743   1.583  15.063  0.4752  0.6343 -0.6141
  739TMC3     H10977   3.858   1.775  14.854  0.2551  2.1342  0.4796
  739TMC3    H110978   4.058   1.653  15.208  3.8292  0.4875 -1.0377
  739TMC3    H210979   4.250   1.908  14.917 -1.1589 -0.3894 -1.4585
  739TMC3    C710980   4.287   1.790  15.137 -1.1964  0.4761 -0.3757
  739TMC3    C810981   4.047   1.882  14.727  0.3390 -0.2090 -0.9408
  739TMC3    O110982   4.356   1.885  15.123 -0.0164  0.6593 -0.1787
  739TMC3    O210983   3.937   1.918  14.696  0.5249 -0.2055 -0.4307
  740TMC3    C110984   4.457   3.275  14.384  0.3169  0.4835 -0.4632
  740TMC3    C210985   4.516   3.267  14.505  0.1834 -0.6108  0.1080
  740TMC3    C310986   4.647   3.289  14.518 -0.3497  0.4111 -0.2400
  740TMC3    C410987   4.526   3.307  14.273  0.2962 -0.2419 -0.2258
  740TMC3    C510988   4.661   3.324  14.282 -0.5138  0.5586  0.3267
  740TMC3    C610989   4.727   3.306  14.407 -0.2325  0.3597 -0.4457
  740TMC3     C10990   4.308   3.279  14.379  0.0939  0.2348 -0.2904
  740TMC3     O10991   4.257   3.319  14.277  0.4194 -0.3173 -0.3060
  740TMC3     H10992   4.455   3.247  14.592 -0.9764 -0.2040 -0.6101
  740TMC3    H110993   4.477   3.321  14.178 -1.8467 -3.6538  0.3584
  740TMC3    H210994   0.095   3.313  14.418 -0.2539  0.8446 -0.5264
  740TMC3    C710995   0.002   3.311  14.162  0.0288 -0.4897 -0.3585
  740TMC3    C810996   4.718   3.263  14.639  0.3466  0.7529  0.0261
  740TMC3    O110997   0.120   3.294  14.188  0.6717  0.2833  0.6297
  740TMC3    O210998   0.090   3.226  14.624 -0.8189 -0.2229  0.2664
  741TMC3    C110999   4.009   2.173  14.922  0.4171 -0.0690  0.2092
  741TMC3    C211000   3.877   2.160  14.897  0.0838  0.3495  0.2082
  741TMC3    C311001   3.793   2.110  14.991 -0.2683  0.4215  0.3135
  741TMC3    C411002   4.054   2.134  15.042  0.3370 -0.7112 -0.4737
  741TMC3    C511003   3.972   2.077  15.131  0.5003 -0.0586 -0.2537
  741TMC3    C611004   3.842   2.070  15.111  0.3384 -0.2225 -0.0705
  741TMC3     C11005   4.107   2.232  14.829 -0.2302 -0.5329 -0.1468
  741TMC3     O11006   4.227   2.212  14.852 -0.5457  0.2011 -0.2077
  741TMC3     H11007   3.834   2.199  14.805  0.1674  3.0239  1.3090
  741TMC3    H111008   4.158   2.159  15.060 -0.5778 -0.3105  4.1453
  741TMC3    H211009   3.785   2.047  15.200 -1.9593  0.7723 -1.2748
  741TMC3    C711010   4.018   2.044  15.265  0.1491 -0.3990 -0.2110
  741TMC3    C811011   3.660   2.069  14.950 -0.0606  0.2807 -0.1588
  741TMC3    O111012   3.967   1.946  15.318  0.4045  0.3510  0.1036
  741TMC3    O211013   3.636   2.035  14.836 -0.1977  0.1521 -0.1975
  742TMC3    C111014   3.465   0.676  15.461  0.4084  0.2915 -0.4014
  742TMC3    C211015   3.379   0.687  15.359 -0.6661  0.4777 -0.0162
  742TMC3    C311016   3.431   0.693  15.232  0.3634 -0.6349 -0.0054
  742TMC3    C411017   3.599   0.649  15.446 -0.4186  0.6844 -0.1714
  742TMC3    C511018   3.644   0.655  15.322  0.3962  0.7277  0.4405
  742TMC3    C611019   3.568   0.679  15.218  0.4281  0.0795  0.1660
  742TMC3     C11020   3.408   0.668  15.595  0.6892  0.1680  0.7968
  742TMC3     O11021   3.293   0.707  15.610 -0.0269 -0.0951  0.8107
  742TMC3     H11022   3.278   0.717  15.385 -0.7045  1.0000 -0.7697
  742TMC3    H111023   3.667   0.651  15.530  0.6541  0.2519 -1.0222
  742TMC3    H211024   3.611   0.686  15.119 -0.7874  0.3456 -0.3443
  742TMC3    C711025   3.782   0.622  15.298 -0.0306  0.1427  0.1966
  742TMC3    C811026   3.343   0.714  15.109  0.2968  0.1744 -0.4138
  742TMC3    O111027   3.805   0.575  15.188 -0.6303 -0.4454  0.5967
  742TMC3    O211028   3.400   0.714  15.001 -1.2714 -0.0102  0.3201
  743MPD2     C11029   1.420   0.754   1.291  0.1184  0.7021  0.1083
  743MPD2    C111030   1.416   0.888   1.308 -0.2987 -0.2785 -0.3966
  743MPD2    C211031   1.530   0.967   1.287 -0.1646 -0.3595 -0.3013
  743MPD2    C311032   1.653   0.915   1.265 -0.1991  0.2651  0.3767
  743MPD2    C411033   1.664   0.782   1.276  0.2196 -0.1533 -0.1160
  743MPD2    C511034   1.554   0.706   1.293  0.3615 -0.0587 -0.2114
  743MPD2     H11035   1.523   1.075   1.275 -0.1578 -0.4078 -0.7293
  743MPD2    H111036   1.764   0.741   1.269  0.0631 -0.1934 -2.0019
  743MPD2    H211037   1.333   0.689   1.297  0.9540 -0.4960 -0.8572
  743MPD2    H311038   1.556   0.599   1.314 -2.4597  0.3747  2.3259
  743MPD2     N11039   1.764   1.001   1.223 -0.3018  0.7254  0.3675
  743MPD2    H511040   1.739   1.099   1.215 -2.3582  0.0077 -2.3722
  743MPD2    N111041   1.287   0.940   1.322  0.0908  0.6521 -0.6748
  743MPD2    H711042   1.211   0.874   1.308 -1.5929  2.2383  1.0524
  744TMC3    C111043   1.112   1.098   1.310  0.2506  0.3254  0.0736
  744TMC3    C211044   1.047   1.186   1.393 -0.0457  0.1801  0.0250
  744TMC3    C311045   0.937   1.247   1.345  0.4495 -0.2453 -0.8571
  744TMC3    C411046   1.086   1.084   1.179 -0.0187 -0.4812 -0.6098
  744TMC3    C511047   0.968   1.135   1.136  0.1267  0.1643 -0.6240
  744TMC3    C611048   0.894   1.219   1.219 -0.6541  0.3526 -0.1017
  744TMC3     C11049   1.253   1.071   1.342 -0.0435 -0.1606  0.5231
  744TMC3     O11050   1.314   1.159   1.396  0.1599  0.0586 -0.5782
  744TMC3     H11051   1.082   1.198   1.496 -0.9352 -1.2649  0.5000
  744TMC3    H111052   1.141   1.016   1.115  0.0494 -1.9659  1.0235
  744TMC3    H211053   0.814   1.275   1.172  1.4381  3.5683  0.1763
  744TMC3    C711054   0.948   1.167   0.998 -0.0193 -0.3556  0.0573
  744TMC3    C811055   0.851   1.329   1.426  0.3369 -0.0713 -0.5455
  744TMC3    O111056   0.837   1.150   0.946 -0.6240 -0.1827  0.4220
  744TMC3    O211057   0.777   1.410   1.372 -0.9972 -0.1033 -0.1589
  745TMC3    C111058   4.233   0.288  14.043 -0.0691 -0.2256  0.4583
  745TMC3    C211059   4.100   0.276  14.075  0.2369  0.4492  0.1952
  745TMC3    C311060   4.010   0.280  13.971  0.4128  0.9571  0.3367
  745TMC3    C411061   4.266   0.321  13.913 -0.0774  0.7245  0.0979
  745TMC3    C511062   4.175   0.311  13.813  0.1726  0.3855 -0.2664
  745TMC3    C611063   4.046   0.280  13.841  0.1908  0.7180 -0.2992
  745TMC3     C11064   4.304   0.347  14.155 -0.3916 -0.0256 -0.5417
  745TMC3     O11065   4.288   0.299  14.263 -0.5195  0.4714  0.0721
  745TMC3     H11066   4.063   0.276  14.177  0.3628 -1.9362  0.2367
  745TMC3    H111067   4.371   0.341  13.890 -0.3461  0.9658 -0.9401
  745TMC3    H211068   3.972   0.261  13.765  0.8310  1.0031 -0.9993
  745TMC3    C711069   4.207   0.329  13.675 -0.2381 -0.4505  0.5109
  745TMC3    C811070   3.900   0.378  13.994 -0.0345  0.1920 -0.4309
  745TMC3    O111071   4.167   0.240  13.600  0.3745 -0.4886 -0.0578
  745TMC3    O211072   3.798   0.374  13.924  0.5064  0.1226 -0.1140
  746TMC3    C111073   2.270   2.035  11.396 -0.5910  0.2338 -0.1841
  746TMC3    C211074   2.339   2.032  11.280  0.5092  0.2188 -0.0910
  746TMC3    C311075   2.316   1.918  11.205  0.3319 -0.2628 -0.3414
  746TMC3    C411076   2.214   1.926  11.452  0.0562 -0.5375 -0.2693
  746TMC3    C511077   2.203   1.813  11.373  0.2212 -0.1843  0.6593
  746TMC3    C611078   2.242   1.813  11.247  0.6141 -0.2988  0.4865
  746TMC3     C11079   2.286   2.148  11.488 -0.1609  0.2801 -0.3505
  746TMC3     O11080   2.220   2.149  11.592  0.5498 -0.0126  0.1286
  746TMC3     H11081   2.388   2.114  11.229 -1.1335  2.7317  2.3772
  746TMC3    H111082   2.144   1.945  11.532  0.7790 -0.2990  0.3109
  746TMC3    H211083   2.224   1.732  11.177  0.6875 -0.2819  0.4484
  746TMC3    C711084   2.099   1.718  11.407 -0.2723  0.0824 -0.4634
  746TMC3    C811085   2.347   1.922  11.061 -0.5965  0.2833  0.4269
  746TMC3    O111086   2.077   1.633  11.322 -0.2349 -0.6790  0.7286
  746TMC3    O211087   2.282   1.846  10.989 -0.4329 -0.1170  0.2452
  747TMC3    C111088   4.654   1.968  11.104  0.6213 -0.5509  0.1956
  747TMC3    C211089   4.548   1.896  11.160  0.2965 -0.2658  0.4993
  747TMC3    C311090   4.448   1.963  11.228 -0.9327 -0.2101  0.2511
  747TMC3    C411091   4.657   2.105  11.127 -0.3453 -0.1580 -0.3508
  747TMC3    C511092   4.558   2.163  11.200 -0.3960  0.5241 -0.3020
  747TMC3    C611093   4.454   2.097  11.252 -0.0645  0.5289 -0.2508
  747TMC3     C11094   4.731   1.911  10.995 -0.3286 -0.6335  0.5707
  747TMC3     O11095   4.725   1.791  10.983 -0.6353 -0.3371  0.1291
  747TMC3     H11096   4.535   1.792  11.136 -0.8398 -0.5511  2.3268
  747TMC3    H111097   4.739   2.169  11.095 -0.8766  1.1091  0.8159
  747TMC3    H211098   4.378   2.160  11.296 -1.7995 -0.1350 -2.3125
  747TMC3    C711099   4.579   2.306  11.231  0.0546 -0.0693 -0.2807
  747TMC3    C811100   4.357   1.882  11.298 -0.1656  0.2670 -0.4021
  747TMC3    O111101   4.529   2.352  11.333  0.2825  0.4367 -0.6606
  747TMC3    O211102   4.346   1.763  11.261 -0.1535  0.6953 -0.1730
  748MPD2     C11103   0.921   3.110   1.805  0.1386  0.4405 -0.0472
  748MPD2    C111104   0.959   3.052   1.688  0.6371 -0.3705  1.4360
  748MPD2    C211105   1.059   3.104   1.618 -0.2608 -0.3141 -0.7049
  748MPD2    C311106   1.132   3.209   1.678  0.1417 -0.4371 -0.1077
  748MPD2    C411107   1.104   3.260   1.806 -0.1607  0.3382  0.3159
  748MPD2    C511108   0.985   3.212   1.865 -0.5951 -0.1232  0.1880
  748MPD2     H11109   1.088   3.069   1.520  1.1111 -3.6364  0.9072
  748MPD2    H111110   1.167   3.334   1.853 -0.2163  0.0714  0.8038
  748MPD2    H211111   0.826   3.078   1.847 -0.4642  1.5255 -0.6072
  748MPD2    H311112   0.945   3.255   1.956  1.6343  0.4343  0.9053
  748MPD2     N11113   1.239   3.261   1.614 -0.4113  0.1984 -0.0155
  748MPD2    H511114   1.258   3.246   1.515 -0.4845  0.5158 -0.0779
  748MPD2    N111115   0.873   2.953   1.636 -0.1574 -0.2230 -0.1596
  748MPD2    H711116   0.797   2.930   1.699 -0.4769  1.0339 -0.0719
  749TMC3    C111117   1.442   3.372   1.591 -0.2231 -0.7473  0.2853
  749TMC3    C211118   1.572   3.383   1.635 -0.6982  0.0377  0.3046
  749TMC3    C311119   1.667   3.407   1.540  0.6051 -0.1441  0.0835
  749TMC3    C411120   1.403   3.392   1.461 -0.4162  0.4396 -0.0950
  749TMC3    C511121   1.504   3.414   1.366  0.2197  0.3528 -0.1387
  749TMC3    C611122   1.637   3.421   1.403 -0.0189  0.1273 -0.0010
  749TMC3     C11123   1.349   3.309   1.678 -0.1837 -0.3031 -0.8342
  749TMC3     O11124   1.383   3.302   1.798 -0.7509 -0.0019 -0.3390
  749TMC3     H11125   1.603   3.354   1.735 -0.6557 -2.5494 -0.4747
  749TMC3    H111126   1.298   3.412   1.444 -0.4234 -0.7764 -1.5066
  749TMC3    H211127   1.710   3.451   1.328  0.1029  0.1972  0.1447
  749TMC3    C711128   1.476   3.428   1.226  0.8602 -0.3586  0.2981
  749TMC3    C811129   1.796   3.363   1.573  0.0144  0.8821  0.7037
  749TMC3    O111130   1.572   3.465   1.160 -0.5564  0.4569  0.3869
  749TMC3    O211131   1.843   3.387   1.683 -0.3808  0.3154  0.3194
  750MPD2     C11132   1.777   3.636  12.573  0.3269  0.1060  0.0144
  750MPD2    C111133   1.749   3.695  12.448  0.0437  0.2907 -0.2544
  750MPD2    C211134   1.836   3.662  12.346 -0.0469 -0.3365  0.1363
  750MPD2    C311135   1.933   3.564  12.358 -0.4431 -1.1463  0.5494
  750MPD2    C411136   1.965   3.513  12.485  0.0655  0.1387 -0.2609
  750MPD2    C511137   1.885   3.545  12.588  0.2615 -0.2164 -0.0013
  750MPD2     H11138   1.824   3.694  12.243  0.8358 -1.1233 -0.2118
  750MPD2    H111139   2.053   3.452  12.502 -0.2977 -0.2886  0.0929
  750MPD2    H211140   1.713   3.663  12.656 -0.1493  0.8806 -0.6035
  750MPD2    H311141   1.910   3.499  12.683 -0.2952  3.0719  1.7359
  750MPD2     N11142   2.017   3.529  12.252 -0.3815  0.0612 -0.3936
  750MPD2    H511143   2.083   3.454  12.272 -0.1343  0.3272 -0.2152
  750MPD2    N111144   1.654   3.800  12.440  0.0241  0.1210  0.1873
  750MPD2    H711145   1.612   3.833  12.526 -4.4514 -0.0467 -1.9328
  751TMC3    C111146   2.096   3.515  12.034 -0.0535  0.1272 -0.2433
  751TMC3    C211147   2.063   3.378  12.020  0.1775  0.1474  0.6897
  751TMC3    C311148   2.098   3.326  11.901 -0.5543  0.6817  0.0377
  751TMC3    C411149   2.155   3.585  11.928  0.0981  0.0178 -0.5208
  751TMC3    C511150   2.195   3.527  11.815 -0.1914  0.5622  0.1870
  751TMC3    C611151   2.165   3.394  11.798  0.4377  0.7285  0.3329
  751TMC3     C11152   2.026   3.595  12.135 -0.2000  0.0096 -0.2413
  751TMC3     O11153   1.979   3.702  12.094 -0.3512 -0.1223  0.8547
  751TMC3     H11154   2.026   3.329  12.109 -0.5331 -0.6578 -0.0544
  751TMC3    H111155   2.173   3.691  11.946  1.7763 -0.3460  0.0066
  751TMC3    H211156   2.191   3.338  11.708  3.8933  0.1903  1.6676
  751TMC3    C711157   2.283   3.605  11.721  0.3239  0.2678  0.6305
  751TMC3    C811158   2.050   3.193  11.869 -0.2655 -0.3575  0.0570
  751TMC3    O111159   2.310   3.714  11.762 -0.0091  0.0558 -0.5640
  751TMC3    O211160   2.071   3.159  11.755  0.1589 -0.8803  0.6775
  752TMC3    C111161   0.146   4.407  17.292  0.1808 -0.5523 -0.6142
  752TMC3    C211162   0.182   4.286  17.343 -0.1228  0.9636 -1.0847
  752TMC3    C311163   0.126   4.240  17.459 -0.3386  0.0651 -0.0935
  752TMC3    C411164   0.067   4.491  17.362 -0.9441 -0.5248  0.1933
  752TMC3    C511165   0.018   4.449  17.481  0.6232  0.5850  0.1745
  752TMC3    C611166   0.046   4.324  17.531 -0.3373 -0.1303 -0.7843
  752TMC3     C11167   0.239   4.461  17.190  0.4132 -0.3177 -0.0891
  752TMC3     O11168   0.271   4.580  17.198 -0.1121 -0.1794 -0.0520
  752TMC3     H11169   0.258   4.230  17.290  0.4631  1.2841 -0.5709
  752TMC3    H111170   0.061   4.596  17.338  1.9472 -0.3821  0.1221
  752TMC3    H211171   0.011   4.304  17.632 -2.2336 -0.6419 -1.5447
  752TMC3    C711172   4.665   4.538  17.545  0.3027  1.1385 -0.4417
  752TMC3    C811173   0.204   4.136  17.524 -0.3165 -0.0709 -0.1095
  752TMC3    O111174   4.625   4.628  17.477 -0.2567 -0.0512 -1.2751
  752TMC3    O211175   0.299   4.080  17.467 -0.6897  0.0887 -0.2556
  753TMC3    C111176   2.735   0.592  13.456 -0.1773 -0.8001 -0.4796
  753TMC3    C211177   2.725   0.548  13.589 -0.3085 -0.4239  0.9054
  753TMC3    C311178   2.796   0.430  13.609  0.1753 -0.5568  0.3630
  753TMC3    C411179   2.813   0.538  13.363 -0.9714  0.5217 -0.3827
  753TMC3    C511180   2.881   0.428  13.391 -0.5193  0.0134  0.0446
  753TMC3    C611181   2.870   0.360  13.510 -0.6951  0.3846 -0.1728
  753TMC3     C11182   2.653   0.707  13.420 -0.0183  0.0149  0.3362
  753TMC3     O11183   2.613   0.709  13.303  0.3864 -0.1580  0.3453
  753TMC3     H11184   2.633   0.576  13.638 -1.6232 -1.3237 -1.0508
  753TMC3    H111185   2.823   0.580  13.263  0.8641 -0.1561 -0.4870
  753TMC3    H211186   2.928   0.270  13.528 -1.2188  0.0809 -0.0171
  753TMC3    C711187   2.953   0.356  13.293 -0.1531  0.3036  0.4638
  753TMC3    C811188   2.776   0.358  13.739  0.5743 -0.3699  0.4461
  753TMC3    O111189   2.969   0.239  13.305 -0.0979  0.4628 -0.4845
  753TMC3    O211190   2.768   0.238  13.733  0.6284 -0.4494 -0.0066
  754MPD2     C11191   2.200   4.199  13.220  0.9866 -0.1788 -0.1742
  754MPD2    C111192   2.179   4.065  13.234 -0.3992 -0.4861 -0.0149
  754MPD2    C211193   2.048   4.029  13.228  0.0615 -0.6599  0.5941
  754MPD2    C311194   1.938   4.115  13.244 -0.3978  0.2656  0.1347
  754MPD2    C411195   1.964   4.252  13.262  0.4537 -0.5417 -0.4554
  754MPD2    C511196   2.100   4.285  13.249 -0.8056 -0.4140  0.0164
  754MPD2     H11197   2.036   3.923  13.208  0.8405 -0.8781  1.3021
  754MPD2    H111198   1.886   4.326  13.276 -1.7677 -2.9449 -0.1429
  754MPD2    H211199   2.298   4.245  13.210  0.1028  1.5115 -1.1215
  754MPD2    H311200   2.123   4.391  13.247 -0.8303 -0.3954  0.7666
  754MPD2     N11201   1.801   4.073  13.248  0.2033 -0.3162  0.3940
  754MPD2    H511202   1.732   4.146  13.265  2.4756  1.3206  2.5018
  754MPD2    N111203   2.296   3.977  13.226  0.2060 -0.6457  0.5332
  754MPD2    H711204   2.371   4.028  13.181  0.7149  0.4754  2.6400
  755MPD2     C11205   1.123   4.531  13.330 -0.0287 -0.0418  0.0419
  755MPD2    C111206   1.071   4.407  13.307 -0.0006  0.0318  0.5149
  755MPD2    C211207   1.158   4.306  13.268  1.0861 -0.4115  0.2910
  755MPD2    C311208   1.288   4.320  13.237 -0.2485 -0.0680  0.2646
  755MPD2    C411209   1.337   4.451  13.246 -0.1451  0.3094 -0.3732
  755MPD2    C511210   1.258   4.544  13.312 -0.7411 -0.3912  0.0655
  755MPD2     H11211   1.112   4.208  13.266 -0.4868  0.3475 -0.8686
  755MPD2    H111212   1.440   4.478  13.228  0.2063 -1.6281 -1.2847
  755MPD2    H211213   1.071   4.611  13.381  2.1055  1.2044  0.2576
  755MPD2    H311214   1.302   4.641  13.330 -0.3953 -0.5529  0.0861
  755MPD2     N11215   1.364   4.212  13.191  0.3494  0.0582 -0.1081
  755MPD2    H511216   1.465   4.217  13.196  0.4436  1.0689 -3.1305
  755MPD2    N111217   0.942   4.368  13.344  0.1861 -0.1171 -0.2346
  755MPD2    H711218   0.918   4.272  13.323 -2.7797  0.8471 -1.3088
  756MPD2     C11219   2.011   4.186   9.671  0.0975  0.2653  0.2593
  756MPD2    C111220   1.945   4.238   9.780 -0.3416  0.1681 -0.0632
  756MPD2    C211221   1.841   4.322   9.756 -0.2497 -0.1428 -0.4831
  756MPD2    C311222   1.803   4.356   9.625  0.6228  0.2273  0.3312
  756MPD2    C411223   1.877   4.308   9.520 -0.4404 -0.0443  0.2427
  756MPD2    C511224   1.974   4.213   9.544 -0.5338 -0.7313 -0.3064
  756MPD2     H11225   1.782   4.352   9.841  1.3976 -1.5910  1.1691
  756MPD2    H111226   1.855   4.347   9.422 -1.5509 -0.9544  0.1146
  756MPD2    H211227   2.088   4.110   9.671 -0.3525 -0.1924 -0.0013
  756MPD2    H311228   2.025   4.169   9.459 -0.5483 -1.0142 -0.1722
  756MPD2     N11229   1.695   4.451   9.611 -0.0251 -0.6004 -0.1471
  756MPD2    H511230   1.668   4.497   9.698  2.6970  1.7714 -0.5636
  756MPD2    N111231   1.994   4.216   9.916  0.2795  0.0087 -0.3696
  756MPD2    H711232   1.932   4.224   9.996 -0.5519 -1.6215 -0.8647
  757MPD2     C11233   1.196   0.018  10.221 -0.0777  0.1712 -0.5117
  757MPD2    C111234   1.263   4.645  10.184 -0.1070 -0.1428  0.0433
  757MPD2    C211235   1.332   4.650  10.075 -0.4169  0.3691 -0.3483
  757MPD2    C311236   1.343   0.018   9.993  0.1953 -0.3090 -0.4574
  757MPD2    C411237   1.279   0.135  10.033 -0.3308  0.3787  0.2467
  757MPD2    C511238   1.211   0.136  10.155  0.5838  0.5668 -0.5255
  757MPD2     H11239   1.370   4.558  10.033  0.8711  0.0491  1.5307
  757MPD2    H111240   1.299   0.225   9.976 -0.8627 -0.3235 -1.0504
  757MPD2    H211241   1.133   0.032  10.308  1.0221 -1.6348  0.5839
  757MPD2    H311242   1.154   0.220  10.193  0.3569 -1.2516  3.2347
  757MPD2     N11243   1.398   4.739   9.863 -0.0386 -0.0553  0.1305
  757MPD2    H511244   1.418   4.643   9.836 -0.9376 -0.3267  0.4048
  757MPD2    N111245   1.240   4.521  10.248 -0.4780  0.0867  0.4808
  757MPD2    H711246   1.163   4.527  10.313 -0.0199 -1.6906  1.1847
  758MPD2     C11247   1.038   3.453  16.141 -0.5021 -0.1044  0.9072
  758MPD2    C111248   1.099   3.444  16.268  0.2784 -0.4465 -0.6570
  758MPD2    C211249   1.023   3.455  16.381  0.7093  0.9057  0.0012
  758MPD2    C311250   0.891   3.493  16.379  0.1299 -0.2258 -0.3181
  758MPD2    C411251   0.827   3.502  16.258 -0.5744  0.6771 -0.0998
  758MPD2    C511252   0.899   3.477  16.140 -0.3101 -0.7901  0.7629
  758MPD2     H11253   1.070   3.455  16.479 -1.6786 -1.3451  1.1413
  758MPD2    H111254   0.722   3.525  16.254 -0.8255 -0.4834 -0.0141
  758MPD2    H211255   1.085   3.443  16.044 -1.7603 -0.1511  0.2997
  758MPD2    H311256   0.854   3.487  16.042 -1.6194 -1.5190  1.2873
  758MPD2     N11257   0.828   3.546  16.493 -0.2919 -0.1035  0.0976
  758MPD2    H511258   0.753   3.612  16.480 -0.6350  0.0325  2.7504
  758MPD2    N111259   1.241   3.412  16.275  0.2557  0.6830  0.7553
  758MPD2    H711260   1.285   3.395  16.185 -1.1048 -0.3514  0.2896
  759MPD2     C11261   1.234   1.780  11.191 -0.0592 -0.4822 -0.5927
  759MPD2    C111262   1.219   1.715  11.073  0.5992  0.2906  0.5572
  759MPD2    C211263   1.273   1.769  10.960  0.4894 -0.2972  0.2449
  759MPD2    C311264   1.357   1.876  10.967  0.3054 -1.0320 -0.0077
  759MPD2    C411265   1.376   1.939  11.087 -0.5359  0.0761 -0.4841
  759MPD2    C511266   1.312   1.895  11.203  0.2600 -0.3820 -0.0858
  759MPD2     H11267   1.251   1.724  10.864 -0.7381  2.9689 -0.9780
  759MPD2    H111268   1.441   2.026  11.096  0.1186 -0.7804  2.9649
  759MPD2    H211269   1.183   1.744  11.280 -1.0323  0.2299 -0.8549
  759MPD2    H311270   1.312   1.956  11.293 -1.0427 -2.1350  1.1107
  759MPD2     N11271   1.408   1.922  10.840  0.2740  0.1281 -0.0160
  759MPD2    H511272   1.410   1.857  10.761  1.7033 -0.6175  0.6244
  759MPD2    N111273   1.137   1.603  11.055 -0.5105  0.3751  0.4146
  759MPD2    H711274   1.148   1.550  10.969 -1.5153  0.5115  0.2007
  760MPD2     C11275   0.847   4.022  11.607  0.7981 -0.0070  0.0244
  760MPD2    C111276   0.815   4.085  11.723  0.0580  0.1604 -0.4253
  760MPD2    C211277   0.784   4.016  11.841  0.1293  0.0208  0.0644
  760MPD2    C311278   0.764   3.879  11.834 -0.0293 -0.6443 -0.4295
  760MPD2    C411279   0.772   3.822  11.712 -0.6123 -0.0247 -0.3745
  760MPD2    C511280   0.819   3.892  11.605  0.0405  0.2798  0.2218
  760MPD2     H11281   0.781   4.069  11.935 -1.5856 -0.6506  0.3908
  760MPD2    H111282   0.758   3.716  11.697  4.7877 -0.9955  1.4125
  760MPD2    H211283   0.878   4.053  11.508  1.3795 -0.7781 -0.0329
  760MPD2    H311284   0.840   3.825  11.522  0.6108  0.3283  0.3258
  760MPD2     N11285   0.760   3.792  11.946 -0.5028 -0.0691  0.7627
  760MPD2    H511286   0.768   3.693  11.925 -1.7714 -0.5735  2.6950
  760MPD2    N111287   0.825   4.224  11.738  0.5613  0.6254  0.5204
  760MPD2    H711288   0.818   4.266  11.830  1.3379  1.2151  0.3060
  761MPD2     C11289   1.851   2.726  11.936 -0.5475 -0.1631  0.0422
  761MPD2    C111290   1.935   2.777  11.841 -0.0765  0.2838 -0.2841
  761MPD2    C211291   1.972   2.912  11.851  0.6142 -0.4745 -0.9714
  761MPD2    C311292   1.933   2.999  11.954  0.2982  0.1682 -0.2551
  761MPD2    C411293   1.846   2.947  12.049 -0.0433  0.4008 -0.9908
  761MPD2    C511294   1.806   2.813  12.040 -0.1449 -0.6030  0.0352
  761MPD2     H11295   2.041   2.947  11.775 -0.8978 -0.2266 -2.2243
  761MPD2    H111296   1.812   3.008  12.132 -1.2680  0.0144 -1.2164
  761MPD2    H211297   1.808   2.627  11.936  0.2032 -0.4855  3.0506
  761MPD2    H311298   1.734   2.771  12.109 -0.7789  0.9768  0.3291
  761MPD2     N11299   1.966   3.136  11.961  0.0841  0.0558  0.0727
  761MPD2    H511300   1.944   3.191  12.044 -1.5038 -1.9845  1.0124
  761MPD2    N111301   1.977   2.686  11.744 -0.2319  0.0964  0.0282
  761MPD2    H711302   1.938   2.592  11.745 -1.4397  0.5431 -3.0059
  762MPD2     C11303   2.567   2.825  11.375  0.6037  0.0285 -0.0072
  762MPD2    C111304   2.507   2.739  11.294 -0.4143 -0.3664  0.0656
  762MPD2    C211305   2.569   2.683  11.189  0.7220 -0.0666 -0.1189
  762MPD2    C311306   2.699   2.730  11.158 -0.2809  0.3673  0.0415
  762MPD2    C411307   2.762   2.813  11.245 -0.0138  0.0883 -0.1416
  762MPD2    C511308   2.702   2.850  11.363 -0.2298 -0.0516 -0.2617
  762MPD2     H11309   2.527   2.611  11.121 -2.3267  1.1555  0.4518
  762MPD2    H111310   2.864   2.851  11.239 -0.4464  1.6682  2.4333
  762MPD2    H211311   2.521   2.870  11.463 -2.3239 -3.1612  0.0781
  762MPD2    H311312   2.769   2.905  11.429  1.3163 -3.0972  0.6936
  762MPD2     N11313   2.758   2.682  11.037  0.2592  0.0290  0.1651
  762MPD2    H511314   2.707   2.610  10.988 -1.3960  0.6149  1.0477
  762MPD2    N111315   2.371   2.710  11.326 -1.1583  0.1482  0.9392
  762MPD2    H711316   2.330   2.753  11.408 -2.3462 -0.9171  0.8924
  763MPD2     C11317   3.318   3.678  15.940 -0.5625  0.6793 -0.0767
  763MPD2    C111318   3.228   3.777  15.962 -0.5412  0.2140  0.0553
  763MPD2    C211319   3.262   3.889  16.032  0.1229 -0.6179 -0.2683
  763MPD2    C311320   3.385   3.891  16.101  0.8257  0.1844 -0.0949
  763MPD2    C411321   3.466   3.778  16.094  0.3264 -0.8350 -1.0278
  763MPD2    C511322   3.438   3.673  16.011 -0.2606 -0.5228  1.0984
  763MPD2     H11323   3.190   3.970  16.032  1.0454  0.1944 -0.2035
  763MPD2    H111324   3.556   3.774  16.155  0.4043 -0.5903 -1.1246
  763MPD2    H211325   3.297   3.589  15.882  2.2983  1.1579 -1.8265
  763MPD2    H311326   3.492   3.580  16.009 -1.4049 -1.1789  1.0372
  763MPD2     N11327   3.425   3.996  16.183 -0.0615  0.6536  0.0377
  763MPD2    H511328   3.519   4.001  16.220  0.0289  0.1459 -0.1296
  763MPD2    N111329   3.112   3.781  15.885 -0.0415  0.0673 -0.2639
  763MPD2    H711330   3.083   3.876  15.863  0.7064  0.5244  0.6955
  764MPD2     C11331   0.881   0.533  17.269  0.2108 -0.4494  0.4519
  764MPD2    C111332   0.776   0.442  17.249 -0.3354 -0.2045  0.1933
  764MPD2    C211333   0.756   0.340  17.338  0.2397 -0.5581 -0.3809
  764MPD2    C311334   0.827   0.342  17.460  0.7298  0.1316  0.5763
  764MPD2    C411335   0.934   0.429  17.473 -0.1864  0.0766 -0.2186
  764MPD2    C511336   0.968   0.511  17.367 -0.1685  0.6547  0.1740
  764MPD2     H11337   0.681   0.264  17.317  0.1305 -1.1085  2.1140
  764MPD2    H111338   0.998   0.439  17.560  0.4728  0.4133 -0.7499
  764MPD2    H211339   0.893   0.618  17.203 -0.5922 -1.2104 -0.6627
  764MPD2    H311340   1.054   0.576  17.377  0.4040  0.1855 -1.5128
  764MPD2     N11341   0.803   0.240  17.560 -0.1183 -0.3929 -0.3936
  764MPD2    H511342   0.721   0.181  17.549 -1.0513  0.7071  0.6146
  764MPD2    N111343   0.699   0.444  17.129  0.2465  0.2110  0.1701
  764MPD2    H711344   0.661   0.354  17.102  0.9311 -0.1987  0.5574
  765MPD2     C11345   0.955   3.134  15.475  0.4034 -0.4519 -0.2293
  765MPD2    C111346   0.972   3.179  15.609  0.1651  0.6052  0.1946
  765MPD2    C211347   1.070   3.122  15.688  0.7016  0.7954  0.9763
  765MPD2    C311348   1.156   3.028  15.630  0.2987  0.4376  0.4541
  765MPD2    C411349   1.149   2.999  15.491  0.0030 -0.7662  0.6205
  765MPD2    C511350   1.047   3.051  15.426 -0.1536  0.0581  0.3300
  765MPD2     H11351   1.069   3.134  15.796 -2.7606 -0.8898  1.1244
  765MPD2    H111352   1.222   2.932  15.448  1.4022  0.0984  1.6674
  765MPD2    H211353   0.877   3.180  15.414  0.6661  0.3073  0.0089
  765MPD2    H311354   1.044   3.019  15.322  5.0333 -0.8835  0.4776
  765MPD2     N11355   1.266   2.969  15.686  0.2233 -0.4509 -0.3879
  765MPD2    H511356   1.319   2.906  15.626 -0.7998 -2.6967  1.0500
  765MPD2    N111357   0.872   3.259  15.664 -0.2761  0.3575 -0.3008
  765MPD2    H711358   0.787   3.271  15.609  0.7619  4.1159 -1.0641
  766MPD2     C11359   0.276   3.585  15.336  0.5383  0.4923  0.3575
  766MPD2    C111360   0.391   3.517  15.363  0.5479  0.4660 -0.4229
  766MPD2    C211361   0.465   3.460  15.264  0.5141 -0.0178 -0.4557
  766MPD2    C311362   0.423   3.458  15.134  0.5072  0.3988 -0.0528
  766MPD2    C411363   0.303   3.520  15.105  0.9376 -0.2018 -0.0743
  766MPD2    C511364   0.231   3.579  15.206 -0.5904 -0.5048  0.7901
  766MPD2     H11365   0.554   3.409  15.299  0.8009 -0.1813 -1.4312
  766MPD2    H111366   0.262   3.525  15.005  1.2440  2.8985 -0.0357
  766MPD2    H211367   0.217   3.639  15.410 -0.3557 -0.9802  0.7251
  766MPD2    H311368   0.134   3.621  15.182 -0.1494 -0.4451 -0.8795
  766MPD2     N11369   0.498   3.425  15.025  0.0038  0.0976 -0.1195
  766MPD2    H511370   0.465   3.455  14.933 -0.4759  2.8339  0.9569
  766MPD2    N111371   0.434   3.528  15.502 -0.4166 -0.8242 -0.0857
  766MPD2    H711372   0.382   3.595  15.559  2.2093  1.1721 -0.0353
  767MPD2     C11373   0.186   3.923  15.044  0.5827  0.1520  0.0227
  767MPD2    C111374   0.301   3.849  15.027  0.0461  0.0148  0.4210
  767MPD2    C211375   0.312   3.756  14.927 -0.0303 -0.0279 -0.1723
  767MPD2    C311376   0.219   3.753  14.827 -0.4272 -0.1702  0.0403
  767MPD2    C411377   0.113   3.836  14.836 -0.1209 -0.5559  0.6031
  767MPD2    C511378   0.097   3.921  14.943 -0.4885  0.1253 -0.1830
  767MPD2     H11379   0.400   3.692  14.918 -0.6359 -1.0767  1.4976
  767MPD2    H111380   0.043   3.837  14.753  2.9377  1.8221 -1.9899
  767MPD2    H211381   0.168   3.981  15.133  0.8318  0.0765  0.1212
  767MPD2    H311382   0.007   3.982  14.947 -1.4062 -1.0206 -3.4508
  767MPD2     N11383   0.223   3.652  14.726 -0.0774 -0.2525 -0.0271
  767MPD2    H511384   0.154   3.650  14.652 -1.4517  2.0935  1.1598
  767MPD2    N111385   0.409   3.860  15.120  0.3740  0.1705  0.2301
  767MPD2    H711386   0.396   3.921  15.200 -0.2114 -1.2634  1.2223
  768MPD2     C11387   1.804   1.015  11.288 -0.0725  0.2501  0.6179
  768MPD2    C111388   1.709   1.064  11.379 -0.6198 -0.3034  0.4471
  768MPD2    C211389   1.722   1.043  11.516 -0.6513 -0.0385  0.1689
  768MPD2    C311390   1.833   0.983  11.562 -0.3537  0.1650 -0.7269
  768MPD2    C411391   1.934   0.940  11.469 -0.3321 -0.5244  0.3356
  768MPD2    C511392   1.918   0.961  11.339  0.3359  0.1004 -0.1121
  768MPD2     H11393   1.639   1.076  11.579 -1.1547 -2.2842  0.6860
  768MPD2    H111394   2.022   0.889  11.508  0.1627  1.6923  2.1355
  768MPD2    H211395   1.797   1.033  11.181 -1.3852  0.9221  0.8096
  768MPD2    H311396   1.988   0.915  11.271 -1.7058 -1.1855 -1.3269
  768MPD2     N11397   1.853   0.952  11.696  0.3777 -0.1214 -0.1939
  768MPD2    H511398   1.942   0.906  11.711  0.9623  1.2317  0.5252
  768MPD2    N111399   1.591   1.123  11.327 -0.1371  0.2531  0.0954
  768MPD2    H711400   1.530   1.162  11.398  0.0781  0.3031  0.2502
  769MPD2     C11401   2.738   4.725  15.169  0.6876 -0.7061  0.0846
  769MPD2    C111402   2.616   0.020  15.232 -0.5049  0.1135 -0.8887
  769MPD2    C211403   2.612   0.073  15.356 -0.6127 -0.3981 -0.1249
  769MPD2    C311404   2.725   0.086  15.431 -0.2330 -0.8739 -0.8443
  769MPD2    C411405   2.847   0.052  15.371  0.2938  0.3901 -0.0212
  769MPD2    C511406   2.854   0.003  15.244 -0.3137 -0.3345 -0.1524
  769MPD2     H11407   2.524   0.119  15.401  0.7153 -0.2804  2.3366
  769MPD2    H111408   2.945   0.054  15.418  0.3343  1.1610 -0.1345
  769MPD2    H211409   2.746   4.691  15.067  1.1157 -0.2389 -0.0391
  769MPD2    H311410   2.952   4.718  15.205  0.1500  1.6448 -0.2229
  769MPD2     N11411   2.708   0.128  15.569  1.1959 -0.3310 -0.3243
  769MPD2    H511412   2.615   0.124  15.608  1.0112  0.8892 -0.6151
  769MPD2    N111413   2.500   4.725  15.166  0.1556  0.3218 -0.1624
  769MPD2    H711414   2.508   4.692  15.070  0.8188 -0.5098  0.1720
  770MPD2     C11415   1.584   4.246  15.271 -0.9424  0.3413 -0.3746
  770MPD2    C111416   1.718   4.199  15.302  0.5323  0.5066 -0.3351
  770MPD2    C211417   1.819   4.289  15.285  0.1029 -0.4443  0.2371
  770MPD2    C311418   1.795   4.421  15.251  0.2931 -0.3117  0.5056
  770MPD2    C411419   1.666   4.466  15.234  0.0623 -0.1518 -0.2426
  770MPD2    C511420   1.563   4.376  15.254  0.0784 -0.0856  0.0355
  770MPD2     H11421   1.922   4.258  15.297 -0.0737 -0.6295  1.2759
  770MPD2    H111422   1.629   4.564  15.207 -2.5273 -1.7431 -2.4161
  770MPD2    H211423   1.503   4.175  15.280  0.5258 -1.0891  1.5273
  770MPD2    H311424   1.465   4.411  15.225 -0.9189 -1.2211  2.0029
  770MPD2     N11425   1.909   4.501  15.233 -0.2435 -0.3158  0.0498
  770MPD2    H511426   1.999   4.457  15.251  1.1482  2.6330  0.2797
  770MPD2    N111427   1.735   4.063  15.330  0.5173  0.2566 -0.1283
  770MPD2    H711428   1.659   3.997  15.316  2.6822 -2.0919 -0.9179
  771MPD2     C11429   3.587   2.398  14.298  0.0830 -0.2818 -0.3552
  771MPD2    C111430   3.515   2.453  14.194 -0.4629  0.2017 -0.8654
  771MPD2    C211431   3.413   2.383  14.134 -0.2544 -1.0763  0.5157
  771MPD2    C311432   3.388   2.253  14.170  0.3840  0.0435  0.9984
  771MPD2    C411433   3.457   2.195  14.279  0.2120  0.3190 -0.0683
  771MPD2    C511434   3.553   2.271  14.342 -0.2389 -0.4594 -0.5273
  771MPD2     H11435   3.356   2.423  14.050 -0.7903  2.5652  2.6335
  771MPD2    H111436   3.447   2.094  14.316 -1.7849  0.7085  0.4709
  771MPD2    H211437   3.662   2.452  14.355 -0.4870 -2.0361  2.0446
  771MPD2    H311438   3.598   2.228  14.431 -0.1340  0.0368 -0.3447
  771MPD2     N11439   3.299   2.186  14.090  0.5193 -0.2842  0.0339
  771MPD2    H511440   3.255   2.242  14.018  1.4818  0.1521 -0.2020
  771MPD2    N111441   3.560   2.568  14.134 -0.4779  0.1980  0.1620
  771MPD2    H711442   3.503   2.604  14.057 -0.2317 -0.1936 -0.2040
  772MPD2     C11443   3.309   3.211  13.989 -0.3452 -0.4894 -0.4649
  772MPD2    C111444   3.283   3.077  13.993 -0.2828  1.2517  0.0191
  772MPD2    C211445   3.162   3.031  14.030  0.1342  0.0626  0.0074
  772MPD2    C311446   3.055   3.114  14.057 -0.3396 -0.1695 -0.1174
  772MPD2    C411447   3.088   3.244  14.062 -0.5150  0.6431 -0.4172
  772MPD2    C511448   3.213   3.292  14.034  0.2207  0.1504  0.4482
  772MPD2     H11449   3.153   2.923  14.019  0.3340 -0.0702  1.1586
  772MPD2    H111450   3.012   3.318  14.086 -0.2671  0.5369  0.6843
  772MPD2    H211451   3.403   3.259  13.962  0.0957 -2.0014 -1.6232
  772MPD2    H311452   3.230   3.399  14.042 -0.9757  0.4247 -0.6089
  772MPD2     N11453   2.919   3.069  14.073 -0.3735  0.0553  1.0237
  772MPD2    H511454   2.846   3.139  14.073 -0.1934  0.2508 -0.0782
  772MPD2    N111455   3.382   2.974  13.958  0.0031  0.6342 -0.1621
  772MPD2    H711456   3.351   2.878  13.964  1.8320  0.1243  1.2784
  773MPD2     C11457   1.789   3.839  17.583  0.0176 -0.9098  0.6526
  773MPD2    C111458   1.699   3.736  17.599  0.3593  0.5019  0.3788
  773MPD2    C211459   1.732   3.625  17.676  0.6379 -0.3371 -0.1203
  773MPD2    C311460   1.848   3.634  17.750  0.2592 -0.4388 -0.8890
  773MPD2    C411461   1.926   3.746  17.751 -0.1772  0.1600  0.1197
  773MPD2    C511462   1.903   3.846  17.662  0.3746  0.3649 -0.1527
  773MPD2     H11463   1.661   3.543  17.685  0.0382  0.0831 -0.9565
  773MPD2    H111464   2.009   3.752   0.063 -2.4779  1.4492  2.7726
  773MPD2    H211465   1.766   3.914  17.508 -0.7335 -0.5912  1.1936
  773MPD2    H311466   1.963   3.937  17.657 -1.4961  1.5730 -0.4827
  773MPD2     N11467   1.885   3.515   0.056  0.0043  0.2381 -0.1610
  773MPD2    H511468   1.824   3.434   0.051 -0.1753  0.4203 -0.8935
  773MPD2    N111469   1.577   3.723  17.525  0.2433  0.1411 -0.7218
  773MPD2    H711470   1.536   3.630  17.530 -1.0267  0.7014 -0.6509
  774MPD2     C11471   1.952   2.920  13.354 -0.4455  0.2748  0.6596
  774MPD2    C111472   1.871   2.997  13.436 -1.1786 -0.5511  0.5705
  774MPD2    C211473   1.876   3.135  13.438  1.1960  0.0708 -0.0590
  774MPD2    C311474   1.950   3.195  13.329  0.2077  0.1662 -0.1728
  774MPD2    C411475   2.012   3.118  13.236  0.1048  0.0661 -0.1613
  774MPD2    C511476   2.015   2.981  13.250  0.3171  0.5199 -0.2308
  774MPD2     H11477   1.825   3.194  13.513  1.7690 -0.3814  0.6752
  774MPD2    H111478   2.076   3.150  13.154  0.0554  1.4206  0.3436
  774MPD2    H211479   1.962   2.813  13.365 -1.4060  0.1695  0.5128
  774MPD2    H311480   2.083   2.917  13.194  0.1414  1.2346 -1.2528
  774MPD2     N11481   1.967   3.337  13.334 -0.1674 -0.0902 -0.0320
  774MPD2    H511482   1.909   3.384  13.403 -0.0881 -0.3886  0.2392
  774MPD2    N111483   1.800   2.921  13.536 -0.2959  0.2769  0.3296
  774MPD2    H711484   1.818   2.822  13.544  1.4422  0.5900  0.2717
  775MPD2     C11485   2.712   4.532  16.093 -0.3933 -0.0339 -0.7587
  775MPD2    C111486   2.717   4.636  16.182 -0.2926 -0.1174  0.0746
  775MPD2    C211487   2.821   4.722  16.170  0.3079 -0.2665 -0.4881
  775MPD2    C311488   2.912   4.719  16.063  0.2787 -0.2451 -0.1908
  775MPD2    C411489   2.903   4.615  15.978  0.4117  0.2334  0.0714
  775MPD2    C511490   2.800   4.525  15.985 -0.0299 -0.2099  0.7428
  775MPD2     H11491   2.823   0.061  16.244 -0.8778 -1.0651  0.3983
  775MPD2    H111492   2.969   4.616  15.893 -0.4964  0.3670 -0.6295
  775MPD2    H211493   2.628   4.464  16.102  0.3063 -0.8841 -0.7302
  775MPD2    H311494   2.772   4.457  15.906  1.6257 -1.6219  1.3741
  775MPD2     N11495   3.018   0.069  16.048 -0.1085 -0.3278  0.1300
  775MPD2    H511496   3.075   0.062  15.964 -0.7225 -1.9801 -0.1586
  775MPD2    N111497   2.606   4.651  16.269 -0.4516  0.1875 -0.0779
  775MPD2    H711498   2.531   4.584  16.255 -1.2838  0.8152  1.4142
  776MPD2     C11499   1.227   4.080  11.861  0.2004 -0.2925 -0.1639
  776MPD2    C111500   1.289   4.193  11.919  0.5714  0.2020  0.2230
  776MPD2    C211501   1.322   4.304  11.840  0.5223 -0.0881 -0.3869
  776MPD2    C311502   1.282   4.305  11.707  0.9077  0.5651 -0.7927
  776MPD2    C411503   1.220   4.192  11.657  0.3365 -0.2626 -0.0917
  776MPD2    C511504   1.189   4.082  11.731 -0.1434 -0.8014 -0.5629
  776MPD2     H11505   1.392   4.385  11.861 -0.0906  0.0466  1.1179
  776MPD2    H111506   1.199   4.179  11.552  1.1291  4.6118 -0.8508
  776MPD2    H211507   1.200   3.991  11.917 -0.4532  0.5072  0.7956
  776MPD2    H311508   1.154   3.998  11.673  3.1464 -2.7155  0.2044
  776MPD2     N11509   1.324   4.405  11.610  0.1970  1.0296  0.2455
  776MPD2    H511510   1.309   4.390  11.511  0.8183  0.5963  0.2157
  776MPD2    N111511   1.340   4.161  12.040 -0.1191 -0.4598 -0.2255
  776MPD2    H711512   1.338   4.064  12.071 -2.8066  0.2338  1.8278
  777MPD2     C11513   1.608   2.475   0.984 -0.5369  0.0560  0.2787
  777MPD2    C111514   1.719   2.396   0.998 -0.3699 -0.2584  0.8281
  777MPD2    C211515   1.730   2.269   0.943 -0.7492 -0.1303  0.4425
  777MPD2    C311516   1.615   2.221   0.873  0.3071  0.3006  0.1844
  777MPD2    C411517   1.503   2.300   0.858  0.6251  0.0751 -0.3654
  777MPD2    C511518   1.502   2.426   0.914  0.8451 -0.2932  0.9883
  777MPD2     H11519   1.809   2.196   0.950  1.4247  2.1704 -0.1296
  777MPD2    H111520   1.410   2.277   0.808  0.9841 -0.8987 -0.5932
  777MPD2    H211521   1.609   2.570   1.037  1.1886  0.7081 -0.9273
  777MPD2    H311522   1.411   2.485   0.903  0.6190 -0.8817 -0.2165
  777MPD2     N11523   1.621   2.092   0.814 -0.2404 -0.3099  0.2336
  777MPD2    H511524   1.706   2.039   0.832  0.4291  1.0928  1.1884
  777MPD2    N111525   1.829   2.457   1.061 -0.3484 -0.2422  0.8379
  777MPD2    H711526   1.827   2.555   1.088 -1.7656 -0.1940  0.6122
  778MPD2     C11527   3.133   2.916  14.816 -0.0597 -0.7078  0.8915
  778MPD2    C111528   3.164   2.779  14.819  0.2170  0.4099 -0.5282
  778MPD2    C211529   3.287   2.730  14.756 -0.6567 -0.0633  0.2102
  778MPD2    C311530   3.383   2.820  14.719  0.9041  0.0001 -0.1326
  778MPD2    C411531   3.361   2.955  14.742 -0.2551 -0.3842 -0.2700
  778MPD2    C511532   3.234   3.001  14.773 -0.2273 -0.6147  0.2619
  778MPD2     H11533   3.296   2.625  14.731 -0.0916 -0.0414  0.3219
  778MPD2    H111534   3.435   3.026  14.709 -0.7509 -0.4247 -1.4677
  778MPD2    H211535   3.032   2.951  14.831  0.3339  0.1803  1.5001
  778MPD2    H311536   3.226   3.107  14.797 -1.1031 -1.0551  1.9214
  778MPD2     N11537   3.494   2.769  14.648 -0.2271 -0.7045  0.2173
  778MPD2    H511538   3.507   2.670  14.628  2.3516  0.0557 -1.7703
  778MPD2    N111539   3.068   2.679  14.851  0.2610 -0.1080  0.0569
  778MPD2    H711540   3.074   2.585  14.814 -2.7744  1.5458 -4.5786
  779MPD2     C11541   2.444   1.316  14.394  0.7453  0.0809 -0.0889
  779MPD2    C111542   2.567   1.298  14.458 -0.7015 -0.1789  0.0854
  779MPD2    C211543   2.655   1.401  14.463  0.3530  0.5423 -0.2532
  779MPD2    C311544   2.633   1.531  14.419 -0.5430 -0.3429  0.5155
  779MPD2    C411545   2.516   1.542  14.344  0.8269 -0.1944 -0.0587
  779MPD2    C511546   2.422   1.440  14.340 -0.0450 -0.3405  0.2086
  779MPD2     H11547   2.752   1.384  14.509  1.4098 -0.1636 -2.7639
  779MPD2    H111548   2.494   1.634  14.292  1.0308  0.8430  1.7052
  779MPD2    H211549   2.370   1.237  14.392  2.6842 -1.6599 -2.8861
  779MPD2    H311550   2.327   1.458  14.291  0.7000  1.3058 -0.6169
  779MPD2     N11551   2.724   1.638  14.439 -0.0827 -0.1617  0.1824
  779MPD2    H511552   2.712   1.708  14.367 -0.8938 -0.3439  0.1353
  779MPD2    N111553   2.617   1.177  14.514  0.6069  0.7912  0.0420
  779MPD2    H711554   2.707   1.186  14.561  1.1963  1.1159 -1.1389
  780MPD2     C11555   1.719   1.440   0.850  0.1179 -0.5119  0.2801
  780MPD2    C111556   1.803   1.347   0.794 -0.5800  0.4630 -0.7815
  780MPD2    C211557   1.910   1.383   0.709  0.6720 -0.0525 -0.0520
  780MPD2    C311558   1.945   1.519   0.696  0.3764  0.1479  0.2398
  780MPD2    C411559   1.859   1.612   0.759 -0.0118 -0.2964 -0.1953
  780MPD2    C511560   1.745   1.570   0.826  0.1484  1.0811  0.1970
  780MPD2     H11561   1.959   1.302   0.656  0.2136 -0.2762 -0.1347
  780MPD2    H111562   1.881   1.718   0.751  1.0807 -0.3872  1.7903
  780MPD2    H211563   1.638   1.415   0.918 -0.3151 -1.7236 -0.6772
  780MPD2    H311564   1.673   1.636   0.872 -0.8800 -0.6967  1.1486
  780MPD2     N11565   2.055   1.553   0.609 -0.3924  0.0759 -0.1588
  780MPD2    H511566   2.110   1.475   0.575  1.4357  1.1013  0.4419
  780MPD2    N111567   1.750   1.209   0.805  0.5432 -0.5222 -0.6972
  780MPD2    H711568   1.665   1.198   0.860  1.1100 -0.3295  0.2269
  781MPD2     C11569   4.332   2.645  12.158 -0.3691 -0.0625  0.0081
  781MPD2    C111570   4.435   2.730  12.202  0.4831 -0.5920  0.7004
  781MPD2    C211571   4.515   2.796  12.104 -0.0055 -0.0322  0.2458
  781MPD2    C311572   4.488   2.782  11.964  0.0346 -0.6438  0.6248
  781MPD2    C411573   4.386   2.691  11.930  0.2967  0.2100  0.1382
  781MPD2    C511574   4.315   2.628  12.027 -0.3027  0.0486  0.2392
  781MPD2     H11575   4.594   2.863  12.135  0.4479 -0.2451 -0.4538
  781MPD2    H111576   4.358   2.684  11.826 -0.7721  1.6665  0.3350
  781MPD2    H211577   4.287   2.578  12.230  2.6155 -0.5016  1.4401
  781MPD2    H311578   4.232   2.567  11.994  0.8014 -0.7663 -1.0476
  781MPD2     N11579   4.558   2.846  11.864  0.3987 -0.2155  0.0250
  781MPD2    H511580   4.509   2.831  11.776 -0.6148  0.1172  0.5389
  781MPD2    N111581   4.478   2.740  12.333  0.2843 -0.0920 -0.2491
  781MPD2    H711582   4.540   2.816  12.357 -0.4502  0.6772 -0.8154
  782MPD2     C11583   2.262   3.710  10.253 -1.0550  0.0575  0.1186
  782MPD2    C111584   2.308   3.711  10.383 -0.3567  0.4410  0.5639
  782MPD2    C211585   2.429   3.773  10.406 -0.2933 -0.4307 -0.2896
  782MPD2    C311586   2.506   3.826  10.299 -0.3339 -0.0669 -0.2096
  782MPD2    C411587   2.457   3.815  10.176 -1.5443  0.8317  0.1248
  782MPD2    C511588   2.332   3.762  10.154 -0.3095 -0.3802 -0.2848
  782MPD2     H11589   2.470   3.784  10.506 -0.6376  0.5612 -0.2522
  782MPD2    H111590   2.521   3.841  10.092  0.5676 -0.4830  1.3276
  782MPD2    H211591   2.160   3.687  10.226 -0.7652  0.4540 -1.3173
  782MPD2    H311592   2.289   3.760  10.055  0.4385 -2.9828 -0.5612
  782MPD2     N11593   2.640   3.865  10.338  0.3763  0.3775  0.2797
  782MPD2    H511594   2.657   3.885  10.436  3.6741  0.9909 -0.4116
  782MPD2    N111595   2.232   3.651  10.490  0.0691  0.7868  1.1364
  782MPD2    H711596   2.150   3.595  10.470  0.2136  0.8083  0.4768
  783MPD2     C11597   2.417   3.737  11.488 -0.4678  1.0615  0.0141
  783MPD2    C111598   2.334   3.626  11.475  0.0884 -0.0075  0.2948
  783MPD2    C211599   2.307   3.580  11.345 -0.2540 -0.5075 -0.5635
  783MPD2    C311600   2.356   3.642  11.232  0.4669 -0.1528  0.2964
  783MPD2    C411601   2.428   3.755  11.247 -0.0968  0.4455 -0.7528
  783MPD2    C511602   2.448   3.803  11.374  0.3324 -0.3091 -0.3687
  783MPD2     H11603   2.232   3.502  11.333  1.4120 -2.1471 -0.2424
  783MPD2    H111604   2.464   3.813  11.163  2.0378  1.7544  1.0838
  783MPD2    H211605   2.449   3.781  11.581  0.9787 -1.6787  0.8377
  783MPD2    H311606   2.510   3.892  11.375 -0.4416  0.2160  1.5450
  783MPD2     N11607   2.325   3.605  11.100  0.3555  0.2154  0.2045
  783MPD2    H511608   2.370   3.653  11.022 -2.1104 -1.8570 -2.5018
  783MPD2    N111609   2.280   3.556  11.588 -0.4492  0.3853 -0.0023
  783MPD2    H711610   2.232   3.468  11.576 -0.5781  0.6937 -1.7517
  784MPD2     C11611   4.411   4.218   0.559 -0.4397 -0.7517 -0.6001
  784MPD2    C111612   4.381   4.321   0.645  0.0809 -0.1250  0.5198
  784MPD2    C211613   4.262   4.387   0.643  0.1796 -0.3290  0.3254
  784MPD2    C311614   4.155   4.340   0.567  0.4408  0.5397 -0.0851
  784MPD2    C411615   4.179   4.228   0.484 -0.4367  1.3086  0.1576
  784MPD2    C511616   4.308   4.177   0.477 -0.1594 -0.7788 -0.5713
  784MPD2     H11617   4.247   4.468   0.713 -1.6057  0.3238 -0.8095
  784MPD2    H111618   4.102   4.185   0.420  1.0020  1.6330 -1.7869
  784MPD2    H211619   4.511   4.176   0.551  1.2762  3.4847 -1.6370
  784MPD2    H311620   4.334   4.095   0.410  1.2623 -1.1926  0.4868
  784MPD2     N11621   4.028   4.403   0.579  0.4908  0.4774  1.0598
  784MPD2    H511622   4.032   4.488   0.634  0.5668  1.2573 -0.1473
  784MPD2    N111623   4.479   4.371   0.740  0.6048  0.4093  0.1527
  784MPD2    H711624   4.441   4.442   0.802  1.3564  0.0412  1.0452
  785MPD2     C11625   0.687   2.068  10.872 -0.1657 -0.0407  0.0740
  785MPD2    C111626   0.733   2.123  10.994 -0.2914 -0.5387 -0.2243
  785MPD2    C211627   0.645   2.197  11.070 -0.1531  0.0057 -0.0167
  785MPD2    C311628   0.514   2.219  11.031  0.3479  0.2560 -0.5384
  785MPD2    C411629   0.469   2.167  10.916 -0.0722 -0.1616 -0.1726
  785MPD2    C511630   0.553   2.089  10.837 -0.3119 -0.5546 -0.0031
  785MPD2     H11631   0.670   2.247  11.162 -0.6637 -0.3870  0.3361
  785MPD2    H111632   0.366   2.183  10.888 -0.0361  0.6658  0.1646
  785MPD2    H211633   0.748   2.025  10.794 -1.2589 -0.3972 -0.5876
  785MPD2    H311634   0.506   2.040  10.752  1.5376 -1.8170 -0.2872
  785MPD2     N11635   0.444   2.311  11.114 -0.2097  0.5401  0.4454
  785MPD2    H511636   0.487   2.351  11.197  1.1803 -0.3271  0.1474
  785MPD2    N111637   0.874   2.112  11.013 -0.1925 -0.9431  0.4292
  785MPD2    H711638   0.929   2.076  10.936  0.3678  1.2732 -0.1976
  786MPD2     C11639   2.953   0.597  14.811 -0.4150  0.0287  0.5230
  786MPD2    C111640   3.083   0.550  14.820 -1.1797 -0.2542  0.4053
  786MPD2    C211641   3.164   0.605  14.915 -0.0596 -0.9491 -0.3849
  786MPD2    C311642   3.123   0.682  15.018 -0.2272 -0.0986 -0.4527
  786MPD2    C411643   2.986   0.716  15.019  0.2102 -0.1984  0.4237
  786MPD2    C511644   2.904   0.679  14.914  0.1387 -0.1002  0.0108
  786MPD2     H11645   3.255   0.547  14.932  0.0816 -0.8967 -0.9796
  786MPD2    H111646   2.944   0.786  15.089 -2.4010 -2.1414  0.7886
  786MPD2    H211647   2.899   0.577  14.718  0.9023  1.2111 -0.4996
  786MPD2    H311648   2.812   0.733  14.897 -1.5941 -2.4851  1.8207
  786MPD2     N11649   3.210   0.710  15.127 -0.7387  0.0962 -0.4628
  786MPD2    H511650   3.162   0.736  15.213  0.4246 -1.4474  0.6475
  786MPD2    N111651   3.139   0.465  14.723  0.4007 -0.2456  0.5134
  786MPD2    H711652   3.239   0.449  14.727  0.2643 -1.0330  0.7158
  787MPD2     C11653   3.544   0.340  14.969 -0.0893 -0.2703  0.0529
  787MPD2    C111654   3.539   0.236  14.877  0.2601  0.2332 -0.4386
  787MPD2    C211655   3.593   0.114  14.913 -0.0852  0.0426  0.2623
  787MPD2    C311656   3.664   0.100  15.029  0.3732 -0.4950  0.6823
  787MPD2    C411657   3.668   0.205  15.123 -0.5942 -0.8099  0.1248
  787MPD2    C511658   3.604   0.324  15.087  0.4456  0.1331 -0.0333
  787MPD2     H11659   3.586   0.034  14.840 -0.8603 -0.3503  0.7695
  787MPD2    H111660   3.727   0.197  15.213 -0.1476  0.9112 -0.0171
  787MPD2    H211661   3.511   0.442  14.948 -1.0035 -0.3045  1.2710
  787MPD2    H311662   3.609   0.413  15.149 -2.0837 -0.0079  0.3347
  787MPD2     N11663   3.713   4.712  15.046  0.0784 -0.4405 -0.2798
  787MPD2    H511664   3.730   4.658  14.962  0.8244 -0.9497  0.1987
  787MPD2    N111665   3.489   0.257  14.748 -0.2142 -0.0977 -0.0819
  787MPD2    H711666   3.456   0.353  14.736 -0.4306 -0.0846  0.6519
  788MPD2     C11667   0.482   4.027   1.175  0.0338  0.0281 -0.2287
  788MPD2    C111668   0.489   3.953   1.060  0.2459  0.1527 -0.1984
  788MPD2    C211669   0.508   4.028   0.947  0.5332 -0.2197  0.1620
  788MPD2    C311670   0.506   4.168   0.942 -0.1784 -0.3185 -0.5744
  788MPD2    C411671   0.479   4.235   1.058 -0.5578 -0.1507 -0.7604
  788MPD2    C511672   0.482   4.163   1.174  0.5260 -0.4218 -0.1586
  788MPD2     H11673   0.529   3.968   0.859 -0.5977 -0.6803  0.2035
  788MPD2    H111674   0.471   4.343   1.066 -1.1051 -0.2767  0.3970
  788MPD2    H211675   0.448   3.979   1.266 -1.7615  1.3609 -0.2084
  788MPD2    H311676   0.467   4.217   1.268 -0.2746 -0.3809 -0.3109
  788MPD2     N11677   0.523   4.252   0.827  0.3149  0.3516 -0.0221
  788MPD2    H511678   0.520   4.352   0.842  0.5409  0.4734 -0.8333
  788MPD2    N111679   0.468   3.814   1.058 -0.5453 -0.5467 -0.0010
  788MPD2    H711680   0.494   3.769   0.971 -0.2815 -0.7421  0.1805
  789MPD2     C11681   0.955   3.486  17.176 -0.9640  0.6734  0.0899
  789MPD2    C111682   0.920   3.443  17.054 -0.2889 -0.9550  0.4641
  789MPD2    C211683   0.806   3.499  17.001  0.1419  0.1409 -0.0833
  789MPD2    C311684   0.723   3.584  17.068  0.4540 -0.1014 -0.9843
  789MPD2    C411685   0.752   3.623  17.197 -0.3814  0.2996 -0.1173
  789MPD2    C511686   0.869   3.568  17.248 -0.3714 -0.2946  1.2600
  789MPD2     H11687   0.793   3.479  16.895  1.9069  1.2468 -0.5001
  789MPD2    H111688   0.692   3.687  17.261 -2.0080 -1.5001  0.1960
  789MPD2    H211689   1.050   3.458  17.220  1.0928  4.0215 -2.2199
  789MPD2    H311690   0.895   3.602  17.348  2.3587  0.2129  0.3858
  789MPD2     N11691   0.610   3.642  17.017  0.2673 -0.1538  0.1369
  789MPD2    H511692   0.557   3.702  17.079  0.2636 -0.3587  0.3295
  789MPD2    N111693   1.007   3.354  16.984 -0.0692  0.0555 -0.6182
  789MPD2    H711694   0.976   3.347  16.887  0.0968 -1.6723 -0.5371
  790MPD2     C11695   2.216   0.854  13.508  0.4359  0.2732  0.4480
  790MPD2    C111696   2.237   0.746  13.588 -0.2062  0.0981  0.2735
  790MPD2    C211697   2.218   0.617  13.537 -0.0147  0.2705 -0.9132
  790MPD2    C311698   2.170   0.595  13.408 -0.4972  0.0534  0.4622
  790MPD2    C411699   2.156   0.710  13.325  0.0576  0.3781 -0.5601
  790MPD2    C511700   2.178   0.831  13.379  0.8758  0.2660  0.1201
  790MPD2     H11701   2.227   0.530  13.602 -1.9239 -0.1784 -1.2519
  790MPD2    H111702   2.117   0.701  13.224 -0.1554 -0.5474 -0.3998
  790MPD2    H211703   2.253   0.951  13.541 -0.8224  0.6116  0.8746
  790MPD2    H311704   2.160   0.921  13.322 -1.1016  0.0219  0.3780
  790MPD2     N11705   2.160   0.466  13.361  0.1516  0.3547 -0.0158
  790MPD2    H511706   2.219   0.398  13.409 -0.7534 -1.0164 -0.8424
  790MPD2    N111707   2.269   0.773  13.729 -0.4332  0.5718  0.1629
  790MPD2    H711708   2.272   0.868  13.765  2.5045 -0.6649  3.2190
  791MPD2     C11709   1.510   0.252  13.017  0.1713 -0.2317  0.4596
  791MPD2    C111710   1.583   0.131  13.041  0.1995  0.2803  0.1812
  791MPD2    C211711   1.533   0.002  13.025 -1.1280  0.0422 -0.0378
  791MPD2    C311712   1.397   4.740  12.982  0.0423  0.4783 -0.0271
  791MPD2    C411713   1.324   0.112  12.967 -0.6779 -0.5176 -0.7405
  791MPD2    C511714   1.378   0.236  12.980  0.0314  0.1621  0.1695
  791MPD2     H11715   1.595   4.653  13.022 -2.6993 -0.9862 -2.6715
  791MPD2    H111716   1.220   0.116  12.937 -0.4307  3.2384 -1.0971
  791MPD2    H211717   1.552   0.351  13.011  0.1844 -0.2159  0.8110
  791MPD2    H311718   1.312   0.321  12.962  0.8442  0.8984  0.6406
  791MPD2     N11719   1.345   4.617  12.937 -0.2140  0.5870 -0.3670
  791MPD2    H511720   1.409   4.539  12.924 -0.9918 -0.3548  1.5092
  791MPD2    N111721   1.711   0.149  13.083  0.0584  0.0349 -0.7871
  791MPD2    H711722   1.742   0.245  13.093 -1.0189  0.4777 -1.7101
  792MPD2     C11723   2.475   4.507  11.560 -0.6174 -0.5049 -0.1473
  792MPD2    C111724   2.450   4.491  11.420  0.1999 -0.4502  0.6245
  792MPD2    C211725   2.380   4.379  11.383 -0.8518 -0.0687  1.0372
  792MPD2    C311726   2.333   4.286  11.477 -0.2394 -0.6537  0.1008
  792MPD2    C411727   2.356   4.307  11.615  0.4089 -0.3039 -1.2162
  792MPD2    C511728   2.428   4.414  11.654  0.2169 -0.1834  0.2258
  792MPD2     H11729   2.349   4.365  11.280 -0.5841  0.2370  0.9147
  792MPD2    H111730   2.332   4.239  11.695 -1.4968  2.6709  0.7211
  792MPD2    H211731   2.546   4.587  11.581 -1.2617 -0.4628  1.8207
  792MPD2    H311732   2.452   4.418  11.760 -1.4826  0.4581  0.5786
  792MPD2     N11733   2.265   4.169  11.436  0.3394  0.4302  0.3554
  792MPD2    H511734   2.258   4.105  11.515  1.9006 -0.3044 -0.0937
  792MPD2    N111735   2.491   4.595  11.326 -0.5420 -0.1078  0.4097
  792MPD2    H711736   2.555   4.667  11.358  1.1956 -1.0918 -0.9016
  793MPD2     C11737   1.921   3.802  10.558  0.4248 -0.2007 -0.3329
  793MPD2    C111738   2.002   3.900  10.602  0.1954  0.1565 -0.6807
  793MPD2    C211739   2.025   3.921  10.733  0.0298  0.2261  0.9090
  793MPD2    C311740   1.978   3.829  10.832 -0.0746  0.4572  0.0432
  793MPD2    C411741   1.908   3.723  10.783  0.1187 -0.0954 -0.3517
  793MPD2    C511742   1.869   3.717  10.647  0.5352 -0.3931  0.4900
  793MPD2     H11743   2.109   3.984  10.759  0.8858 -0.3470 -0.4742
  793MPD2    H111744   1.865   3.654  10.854  0.8391  0.1207  0.2984
  793MPD2    H211745   1.901   3.789  10.453 -1.8183 -1.1150  0.1946
  793MPD2    H311746   1.810   3.633  10.613  0.4124 -0.4141  0.7550
  793MPD2     N11747   2.021   3.853  10.966  1.0559 -0.6565 -0.5106
  793MPD2    H511748   2.098   3.917  10.981  0.8099  0.1697 -2.9221
  793MPD2    N111749   2.067   3.986  10.506 -0.3335  0.1103  0.1138
  793MPD2    H711750   2.145   4.044  10.536 -2.4067  2.4679  0.9427
  794MPD2     C11751   0.825   4.197  17.262 -0.8946  0.2397 -0.0528
  794MPD2    C111752   0.932   4.147  17.192 -0.0033  0.0443  0.1999
  794MPD2    C211753   0.951   4.183  17.062 -0.4710  0.8327  0.3666
  794MPD2    C311754   0.872   4.273  16.996 -1.1105 -0.0853 -0.5301
  794MPD2    C411755   0.765   4.329  17.070 -0.8082 -0.0171  0.1078
  794MPD2    C511756   0.744   4.293  17.199 -0.0472  0.4457 -0.5019
  794MPD2     H11757   1.028   4.126  17.011 -0.3637  0.8604  0.4977
  794MPD2    H111758   0.695   4.400  17.026  0.9234  1.9192  0.5217
  794MPD2    H211759   0.804   4.163  17.363 -0.0956 -1.2107 -0.3880
  794MPD2    H311760   0.656   4.332  17.249 -0.3564 -1.7995  0.7225
  794MPD2     N11761   0.889   4.308  16.863  0.1541  0.4274 -0.1067
  794MPD2    H511762   0.834   4.382  16.820 -1.5193 -1.2446 -0.8097
  794MPD2    N111763   1.006   4.042  17.255 -0.3511 -0.3822  0.4000
  794MPD2    H711764   0.956   3.992  17.327  0.3571 -2.9128 -0.8850
  795MPD2     C11765   4.069   1.896  13.893  0.1662  0.5166 -0.1126
  795MPD2    C111766   4.024   1.768  13.867  0.3458  0.4384  0.2617
  795MPD2    C211767   4.065   1.664  13.947 -0.4860  0.1004  0.2891
  795MPD2    C311768   4.152   1.681  14.048 -0.3032  0.1448 -0.2164
  795MPD2    C411769   4.209   1.811  14.065 -0.0732 -0.6695 -0.0162
  795MPD2    C511770   4.164   1.915  13.986 -0.2925 -0.2055 -0.3036
  795MPD2     H11771   4.022   1.566  13.926 -0.2347  0.2816 -1.0909
  795MPD2    H111772   4.287   1.836  14.136 -3.0200  1.8100  2.2676
  795MPD2    H211773   4.042   1.988  13.842 -0.0345  0.7153  0.3569
  795MPD2    H311774   4.210   2.011  14.005 -0.1972 -0.3249  0.0656
  795MPD2     N11775   4.193   1.573  14.135 -0.6131 -0.0894  0.2428
  795MPD2    H511776   4.256   1.600  14.209 -1.1137  0.9748  0.2863
  795MPD2    N111777   3.937   1.736  13.757 -0.0255  0.7273 -0.1878
  795MPD2    H711778   3.914   1.640  13.737 -3.8815  1.8916 -1.3145
  796MPD2     C11779   3.381   3.172  15.693 -0.7100 -0.3382  0.8495
  796MPD2    C111780   3.471   3.246  15.761 -0.7583  0.1457 -0.0917
  796MPD2    C211781   3.477   3.389  15.745  0.5652  0.0156 -0.4745
  796MPD2    C311782   3.389   3.454  15.658  0.3400  0.9507 -0.0958
  796MPD2    C411783   3.301   3.377  15.586 -0.3285 -0.3415 -0.0034
  796MPD2    C511784   3.312   3.236  15.598 -0.2331  0.0549 -0.6626
  796MPD2     H11785   3.555   3.438  15.803  1.3266  0.6364 -2.0298
  796MPD2    H111786   3.233   3.422  15.514 -0.9660 -0.7493  0.3475
  796MPD2    H211787   3.371   3.065  15.707  0.0558 -0.7393 -1.5316
  796MPD2    H311788   3.246   3.176  15.537 -1.4169 -0.1846  0.8273
  796MPD2     N11789   3.402   3.599  15.643  0.1818  0.1564 -0.1991
  796MPD2    H511790   3.476   3.640  15.699 -0.9270  3.5731 -1.2113
  796MPD2    N111791   3.541   3.178  15.867  1.0204 -0.1759 -0.5009
  796MPD2    H711792   3.537   3.077  15.855 -1.1012 -0.0458 -0.9571
  797MPD2     C11793   4.627   2.686  17.504  0.2945  0.0323  0.0759
  797MPD2    C111794   4.704   2.801  17.490  0.3507 -0.3358  0.6936
  797MPD2    C211795   4.709   2.863  17.371  0.4663  0.2053 -0.4653
  797MPD2    C311796   4.622   2.821  17.269  0.7995  0.4627 -0.0193
  797MPD2    C411797   4.543   2.713  17.278  0.3419 -0.4412  0.4836
  797MPD2    C511798   4.560   2.639  17.394 -0.4858 -0.0869  0.8218
  797MPD2     H11799   0.023   2.957  17.363  3.2486 -1.4382 -0.8664
  797MPD2    H111800   4.486   2.678  17.192  1.0490 -0.4169  0.0004
  797MPD2    H211801   4.617   2.633  17.598 -2.4427 -1.1316 -0.8979
  797MPD2    H311802   4.500   2.549  17.403 -1.6349  0.5296 -0.8636
  797MPD2     N11803   4.612   2.927  17.180  0.2531 -0.3017 -0.1429
  797MPD2    H511804   4.670   3.010  17.191  0.5922 -0.7488  1.4273
  797MPD2    N111805   0.041   2.854  17.604  0.4878  0.4951 -0.5495
  797MPD2    H711806   0.108   2.924  17.573 -0.3421  2.2990  1.7406
  798MPD2     C11807   0.029   3.529  17.356  0.5015 -0.0685  0.3712
  798MPD2    C111808   0.056   3.397  17.326  0.1058  0.1348  0.2932
  798MPD2    C211809   0.120   3.325  17.423  0.5455 -0.3103 -0.3698
  798MPD2    C311810   0.124   3.365  17.554 -0.5413  0.9230  0.2960
  798MPD2    C411811   0.097   3.501  17.588 -0.4538 -0.1307  0.3368
  798MPD2    C511812   0.053   3.581  17.487  0.4436 -0.2466 -0.3261
  798MPD2     H11813   0.141   3.223  17.394  1.2280 -0.2665 -0.0213
  798MPD2    H111814   0.099   3.540  17.689  1.9507  1.6562 -0.4239
  798MPD2    H211815   4.715   3.593  17.288 -0.0489 -1.6839 -0.7060
  798MPD2    H311816   0.024   3.684  17.505  0.8432 -0.1775 -0.0870
  798MPD2     N11817   0.137   3.266  17.651  0.6047  0.2044 -0.8550
  798MPD2    H511818   0.143   3.171  17.617 -1.7191 -0.3900  0.4034
  798MPD2    N111819   0.014   3.333  17.206  0.0702  0.9152  0.2869
  798MPD2    H711820   0.040   3.236  17.189  0.4889  1.1070 -0.1729
  799MPD2     C11821   3.642   4.319  14.945 -0.3743  0.4792  0.0798
  799MPD2    C111822   3.646   4.264  14.815 -0.3537  0.1910  0.0421
  799MPD2    C211823   3.593   4.340  14.713 -0.9066  0.7690  0.0488
  799MPD2    C311824   3.533   4.464  14.734  0.4135  0.4507 -0.1467
  799MPD2    C411825   3.523   4.512  14.864 -0.6509  0.3100  0.0398
  799MPD2    C511826   3.572   4.443  14.969 -0.5274  0.4178  0.1268
  799MPD2     H11827   3.598   4.292  14.616 -0.0989 -1.3597  1.1631
  799MPD2    H111828   3.476   4.606  14.890 -0.0039  0.2987  1.2739
  799MPD2    H211829   3.680   4.273  15.036  2.6547 -0.7229 -1.7852
  799MPD2    H311830   3.545   4.473  15.070 -1.5310 -0.4405  0.1287
  799MPD2     N11831   3.486   4.541  14.627  0.1314 -0.6463 -0.2102
  799MPD2    H511832   3.463   4.640  14.635  0.2350 -0.7278  1.1772
  799MPD2    N111833   3.690   4.132  14.782 -0.1599  0.0982 -0.2954
  799MPD2    H711834   3.672   4.113  14.684 -1.4552  0.4979 -0.1323
  800MPD2     C11835   3.812   0.870  14.102  0.5447 -0.1751  0.7392
  800MPD2    C111836   3.919   0.830  14.172  0.2340  0.2643  0.5169
  800MPD2    C211837   3.960   0.699  14.167 -0.4048 -0.4766  0.8346
  800MPD2    C311838   3.882   0.605  14.103  0.4303  0.1525  0.4321
  800MPD2    C411839   3.764   0.645  14.040 -0.7731 -0.0328  0.1925
  800MPD2    C511840   3.733   0.777  14.037  0.4906  0.1249  0.7151
  800MPD2     H11841   4.055   0.664  14.206  0.8817 -0.0213 -1.8746
  800MPD2    H111842   3.697   0.577  13.988  1.0789 -0.9035 -1.0772
  800MPD2    H211843   3.775   0.970  14.124 -0.7594 -0.6712  0.8277
  800MPD2    H311844   3.639   0.799  13.989  1.0133 -2.5691 -1.5290
  800MPD2     N11845   3.943   0.477  14.076  0.3721 -0.0055  0.2607
  800MPD2    H511846   4.036   0.469  14.114  1.9490 -0.3987 -3.7569
  800MPD2    N111847   3.985   0.920  14.252 -0.2233 -0.5970 -0.3076
  800MPD2    H711848   3.977   1.018  14.226 -0.1014 -0.4916  0.0492
  801MPD2     C11849   3.881   1.600  14.449  0.5084 -0.5578  0.2782
  801MPD2    C111850   3.839   1.467  14.460 -0.0646 -0.1480  0.2816
  801MPD2    C211851   3.705   1.441  14.478  0.4909 -0.2329 -0.2819
  801MPD2    C311852   3.612   1.538  14.501 -0.0821  0.3017  0.1350
  801MPD2    C411853   3.647   1.673  14.487 -0.0177 -0.0137  0.3076
  801MPD2    C511854   3.776   1.696  14.457 -0.6476 -0.7619 -0.7098
  801MPD2     H11855   3.675   1.336  14.485  1.2098 -0.3537  0.9258
  801MPD2    H111856   3.584   1.760  14.499  1.0578  0.7707  0.1766
  801MPD2    H211857   3.975   1.629  14.405  0.8052  0.3875  1.5564
  801MPD2    H311858   3.808   1.798  14.441  0.2521 -0.7330  1.2377
  801MPD2     N11859   3.488   1.491  14.540  0.2165 -0.4184 -0.4987
  801MPD2    H511860   3.473   1.392  14.552 -1.2030 -0.2413 -0.7451
  801MPD2    N111861   3.929   1.360  14.444 -0.7786  0.7605 -0.2032
  801MPD2    H711862   3.885   1.274  14.474 -1.1143  0.3770 -1.7510
  802MPD2     C11863   3.387   2.007   0.130  0.4869  0.2093  0.1574
  802MPD2    C111864   3.280   2.026   0.044  0.0282 -0.3961  0.0792
  802MPD2    C211865   3.265   1.935  17.696 -0.5667 -0.8538  0.2666
  802MPD2    C311866   3.352   1.832  17.670 -0.1234  0.3738  0.7540
  802MPD2    C411867   3.457   1.813  17.757 -1.1072 -0.3760 -0.1347
  802MPD2    C511868   3.464   1.888   0.110  0.2654  0.3391 -0.1891
  802MPD2     H11869   3.187   1.952  17.622 -1.9668  0.0131  1.9299
  802MPD2    H111870   3.539   1.741  17.751  0.1380  0.9861  0.5954
  802MPD2    H211871   3.408   2.065   0.219  0.3425  1.2107 -0.4591
  802MPD2    H311872   3.551   1.873   0.173  1.0085  0.7097 -1.1138
  802MPD2     N11873   3.342   1.766  17.545  0.4050  0.3617 -0.5599
  802MPD2    H511874   3.258   1.789  17.492  0.6976 -0.3609 -1.3430
  802MPD2    N111875   3.193   2.140   0.046  0.5135 -0.5081 -0.6112
  802MPD2    H711876   3.125   2.152  17.730  0.8114  0.8918 -0.6637
  803MPD2     C11877   0.041   4.417  12.373 -0.3464 -0.2311  0.9385
  803MPD2    C111878   0.154   4.418  12.446  0.4665  0.4179 -0.1895
  803MPD2    C211879   0.166   4.359  12.570 -0.4525 -0.2030  0.9670
  803MPD2    C311880   0.053   4.298  12.625 -0.0501  0.2016  0.9069
  803MPD2    C411881   4.671   4.305  12.560 -0.4298  0.1698 -0.1705
  803MPD2    C511882   4.667   4.358  12.434  0.1528  0.0754  0.2588
  803MPD2     H11883   0.260   4.370  12.623  0.0262  0.1775  0.0433
  803MPD2    H111884   4.587   4.261  12.612 -1.8647  2.3902 -0.6035
  803MPD2    H211885   0.033   4.464  12.276 -0.1878  1.0507  1.5457
  803MPD2    H311886   4.575   4.363  12.377  0.8933  1.6040 -0.8120
  803MPD2     N11887   0.053   4.234  12.754 -0.2264 -0.3793 -1.3036
  803MPD2    H511888   4.702   4.204  12.789  0.5838  0.2892  1.3289
  803MPD2    N111889   0.271   4.477  12.393  0.3142 -0.5032 -0.3197
  803MPD2    H711890   0.347   4.482  12.460 -1.3657  2.3270  1.3601
  804MPD2     C11891   3.713   1.417  16.799  0.2758  0.5881  0.2086
  804MPD2    C111892   3.776   1.431  16.923  0.2250 -0.5855 -0.0651
  804MPD2    C211893   3.848   1.542  16.953 -0.0876  0.9650  0.6837
  804MPD2    C311894   3.850   1.651  16.861 -0.1423  0.5543  0.3983
  804MPD2    C411895   3.782   1.632  16.744 -0.5607  0.2431  0.1052
  804MPD2    C511896   3.713   1.520  16.710  0.2067  0.3082 -0.7789
  804MPD2     H11897   3.895   1.551  17.051  1.2543 -1.4457  0.2446
  804MPD2    H111898   3.772   1.718  16.679  1.0267  0.3422 -0.0106
  804MPD2    H211899   3.651   1.329  16.789  1.2610  0.0311 -0.8754
  804MPD2    H311900   3.655   1.501  16.620 -0.0593  1.1613 -0.7916
  804MPD2     N11901   3.923   1.762  16.892 -0.8020  0.1041  0.1700
  804MPD2    H511902   3.984   1.761  16.973 -1.3524 -0.5598  0.5720
  804MPD2    N111903   3.779   1.328  17.020  0.0764  0.0206  0.2926
  804MPD2    H711904   3.825   1.345  17.109 -0.5305  1.6532  0.2871
  805MPD2     C11905   3.473   4.323  15.455  0.0998 -0.4339 -0.4344
  805MPD2    C111906   3.417   4.446  15.491 -0.8167  0.2612  0.6630
  805MPD2    C211907   3.493   4.528  15.574 -0.0320  0.0824 -0.1688
  805MPD2    C311908   3.617   4.483  15.616  0.1255 -0.8027 -0.3740
  805MPD2    C411909   3.677   4.368  15.567  0.0379 -0.2289  0.1534
  805MPD2    C511910   3.601   4.296  15.482  0.7074 -0.7559  0.8746
  805MPD2     H11911   3.453   4.617  15.621  1.2338  0.3217  0.4483
  805MPD2    H111912   3.779   4.337  15.586 -0.0347 -1.1886 -0.9860
  805MPD2    H211913   3.418   4.261  15.385 -2.6764  1.8467 -0.2871
  805MPD2    H311914   3.643   4.204  15.444  2.5586  0.1235  0.8059
  805MPD2     N11915   3.688   4.566  15.708 -0.1807 -0.1225 -0.3169
  805MPD2    H511916   3.659   4.661  15.726  1.7718  0.1913  1.0778
  805MPD2    N111917   3.284   4.484  15.467  0.8085  0.0515 -0.0903
  805MPD2    H711918   3.247   4.578  15.477  2.3100  0.6521 -0.1864
  806MPD2     C11919   3.657   4.117   0.181 -0.2159  0.1558  0.3339
  806MPD2    C111920   3.589   4.212   0.251  0.2631 -0.2526  0.0719
  806MPD2    C211921   3.554   4.330   0.186  0.5167 -0.0665 -0.0146
  806MPD2    C311922   3.595   4.357   0.058 -0.1286  0.7089  0.0236
  806MPD2    C411923   3.676   4.263  17.748 -0.3822 -0.4582  0.4301
  806MPD2    C511924   3.701   4.144   0.053  1.0638  0.3763  0.6647
  806MPD2     H11925   3.487   4.403   0.230  1.2977  0.0623  0.9564
  806MPD2    H111926   3.728   4.283  17.655 -0.6952 -1.0878  0.1160
  806MPD2    H211927   3.684   4.020   0.220 -0.4482  0.1493  0.4773
  806MPD2    H311928   3.771   4.077   0.003  0.0466 -0.9718  1.0790
  806MPD2     N11929   3.573   4.489   0.000 -0.5383 -0.0763 -0.2619
  806MPD2    H511930   3.549   4.562   0.067 -1.8099 -0.5875 -0.1692
  806MPD2    N111931   3.557   4.183   0.391 -0.3502  0.3438  0.7352
  806MPD2    H711932   3.586   4.089   0.417  2.0241  0.1740 -2.5256
  807MPD2     C11933   3.741   3.600   0.596  0.1543  0.9213  0.3524
  807MPD2    C111934   3.701   3.648   0.724 -0.2193 -0.3181  1.4031
  807MPD2    C211935   3.717   3.556   0.826  0.5586  0.6100  0.6210
  807MPD2    C311936   3.762   3.424   0.815 -0.5233  0.8093  0.0074
  807MPD2    C411937   3.807   3.390   0.689  0.5140 -0.3970 -0.1807
  807MPD2    C511938   3.800   3.481   0.586 -0.0486 -0.2242 -0.1330
  807MPD2     H11939   3.666   3.593   0.915 -1.3092 -0.0528 -0.1770
  807MPD2    H111940   3.848   3.294   0.661  0.3646 -1.2410  2.5088
  807MPD2    H211941   3.735   3.659   0.505 -2.0352  0.4390  0.1834
  807MPD2    H311942   3.828   3.453   0.485 -1.3253  1.7482 -1.0398
  807MPD2     N11943   3.736   3.331   0.925 -0.2886 -0.3940 -0.4067
  807MPD2    H511944   3.694   3.369   1.010  1.1031 -0.6738  0.4044
  807MPD2    N111945   3.636   3.764   0.753  0.2329 -0.2885 -0.6450
  807MPD2    H711946   3.636   3.797   0.849 -3.3160 -2.6921  0.1745
  808MPD2     C11947   0.619   0.510   9.991 -0.3553 -0.3326 -0.5599
  808MPD2    C111948   0.556   0.547  10.108 -0.1209 -0.5257  0.2674
  808MPD2    C211949   0.511   0.676  10.119 -0.3916 -0.0418  0.0584
  808MPD2    C311950   0.547   0.771  10.020  0.2473  0.5919 -0.1019
  808MPD2    C411951   0.591   0.729   9.898  0.4821  0.1827  0.3589
  808MPD2    C511952   0.625   0.600   9.883 -0.2076 -1.2649 -0.1867
  808MPD2     H11953   0.463   0.703  10.212  1.5293  1.8438  0.4916
  808MPD2    H111954   0.583   0.778   9.801 -2.1672  0.5147  0.7513
  808MPD2    H211955   0.654   0.409   9.971  1.6917  0.5340 -1.3764
  808MPD2    H311956   0.652   0.551   9.790 -0.3307 -0.6968 -0.5193
  808MPD2     N11957   0.525   0.909  10.035 -0.4306  0.8331 -0.5440
  808MPD2    H511958   0.531   0.967   9.952 -1.3639  2.9082  0.8472
  808MPD2    N111959   0.541   0.456  10.213  0.0004 -0.2564 -0.1608
  808MPD2    H711960   0.493   0.501  10.291 -0.2709 -1.2116  0.2222
  809MPD2     C11961   0.849   1.748   9.627  0.6567  0.7901  0.3204
  809MPD2    C111962   0.836   1.608   9.608  0.3805 -0.5354 -0.0615
  809MPD2    C211963   0.770   1.535   9.702 -0.7089 -0.4194 -0.4541
  809MPD2    C311964   0.716   1.590   9.817  0.3734  0.8266  0.8903
  809MPD2    C411965   0.727   1.724   9.827 -0.0633  0.1179  0.5642
  809MPD2    C511966   0.793   1.807   9.734 -0.0093 -0.3284 -0.2328
  809MPD2     H11967   0.762   1.427   9.696 -2.1530 -0.3756  0.5684
  809MPD2    H111968   0.689   1.775   9.915 -0.4697  1.3484 -0.3258
  809MPD2    H211969   0.896   1.816   9.557  0.7488  0.2400 -0.1494
  809MPD2    H311970   0.815   1.906   9.772 -0.5564 -0.9543  1.6877
  809MPD2     N11971   0.649   1.512   9.917 -0.3960 -0.1064  0.4291
  809MPD2    H511972   0.620   1.568   9.996 -0.5928 -4.4965  3.4557
  809MPD2    N111973   0.897   1.529   9.503  0.4212  0.2316 -0.3023
  809MPD2    H711974   0.890   1.427   9.496 -1.0702  0.4784 -2.6390
  810MPD2     C11975   3.918   3.926  11.283 -0.7704  0.6629 -0.3119
  810MPD2    C111976   3.908   4.016  11.178 -0.7076  0.5268  0.2732
  810MPD2    C211977   3.856   4.142  11.201  0.4050 -0.2901  0.0109
  810MPD2    C311978   3.804   4.170  11.323 -0.8250  0.5557 -0.4112
  810MPD2    C411979   3.801   4.074  11.427  0.3251 -0.2172 -0.5318
  810MPD2    C511980   3.864   3.958  11.406 -0.4203 -0.5924  0.2648
  810MPD2     H11981   3.871   4.212  11.119  2.6547  0.7404  1.3057
  810MPD2    H111982   3.770   4.100  11.528  0.5731 -0.4494 -0.3936
  810MPD2    H211983   3.979   3.837  11.271  0.3560  1.6472 -1.8240
  810MPD2    H311984   3.874   3.895  11.494 -0.6547 -2.6312 -1.1496
  810MPD2     N11985   3.752   4.297  11.347  0.2572 -0.4223  0.3222
  810MPD2    H511986   3.737   4.312  11.446  2.4528  0.2238  0.5660
  810MPD2    N111987   3.938   3.995  11.043 -0.8416 -0.7693 -0.5042
  810MPD2    H711988   3.907   4.069  10.981 -1.5475 -0.5990  0.0482
  811MPD2     C11989   3.886   4.256  10.243  0.1006 -0.4140  0.0862
  811MPD2    C111990   3.964   4.256  10.358 -0.0372  0.1393  0.2137
  811MPD2    C211991   4.052   4.365  10.378  1.1062  0.7754  0.1856
  811MPD2    C311992   4.072   4.464  10.289 -0.3588  0.0685 -0.2395
  811MPD2    C411993   4.001   4.461  10.168  0.0378  0.6775  0.0288
  811MPD2    C511994   3.917   4.356  10.146  0.7477 -0.2260  0.4758
  811MPD2     H11995   4.112   4.372  10.468  0.3604  0.3447  0.7114
  811MPD2    H111996   4.002   4.540  10.094  0.0337  0.2355 -0.4384
  811MPD2    H211997   3.809   4.185  10.216 -1.0201  1.0800 -0.7244
  811MPD2    H311998   3.851   4.375  10.063  1.0634 -0.5022  0.1643
  811MPD2     N11999   4.163   4.566  10.323 -0.4588 -0.3702  0.4261
  811MPD2    H512000   4.197   4.573  10.418 -1.7960  0.6997  0.8196
  811MPD2    N112001   3.950   4.145  10.448 -0.2601 -0.0001  0.6446
  811MPD2    H712002   3.872   4.083  10.430 -1.7540  2.5772 -1.5664
  812MPD2     C12003   2.914   0.372  12.032 -0.2258  0.2258  0.5614
  812MPD2    C112004   2.789   0.312  12.017 -0.2380 -0.0614 -0.6753
  812MPD2    C212005   2.756   0.221  12.116  0.2879  0.5951  0.2943
  812MPD2    C312006   2.841   0.183  12.217 -0.2521 -0.2618  0.4473
  812MPD2    C412007   2.968   0.244  12.222 -0.9010  0.0737  0.5007
  812MPD2    C512008   3.005   0.336  12.130  0.5223 -0.3568  0.3691
  812MPD2     H12009   2.664   0.166  12.101  1.1072 -0.6350 -0.2775
  812MPD2    H112010   3.038   0.220  12.302 -0.2045  3.5560  0.9125
  812MPD2    H212011   2.947   0.446  11.960 -1.9652 -0.2516 -0.7282
  812MPD2    H312012   3.092   0.398  12.147  0.3369 -0.3887  1.4289
  812MPD2     N12013   2.793   0.088  12.312 -0.1028  0.3627  0.4059
  812MPD2    H512014   2.693   0.074  12.322 -0.4528  2.8295  0.3712
  812MPD2    N112015   2.713   0.366  11.912  0.0348  0.1788  0.3918
  812MPD2    H712016   2.768   0.426  11.853  2.5481 -1.6609  0.8865
  813MPD2     C12017   2.044   1.609  13.201 -0.6257  0.0908 -0.1767
  813MPD2    C112018   2.037   1.741  13.175 -0.8436 -0.1021 -0.1819
  813MPD2    C212019   1.929   1.811  13.225  0.6696 -0.3340  0.4263
  813MPD2    C312020   1.827   1.743  13.289 -0.1160 -0.3458 -0.1490
  813MPD2    C412021   1.826   1.606  13.294  0.7589  0.1163 -0.4176
  813MPD2    C512022   1.936   1.540  13.253 -0.0286  0.1392 -0.8517
  813MPD2     H12023   1.917   1.918  13.209 -1.6351 -0.5038  1.0476
  813MPD2    H112024   1.749   1.548  13.344  0.8880 -0.2967 -0.6944
  813MPD2    H212025   2.133   1.555  13.171 -0.3267  0.2327  0.4677
  813MPD2    H312026   1.939   1.435  13.277 -0.8520  0.3017 -0.0231
  813MPD2     N12027   1.717   1.819  13.347  0.3350 -0.3950  0.8423
  813MPD2    H512028   1.738   1.916  13.369  0.8652 -0.0468 -1.2590
  813MPD2    N112029   2.153   1.805  13.107 -0.2089  0.3239  0.1152
  813MPD2    H712030   2.232   1.747  13.083 -0.8510  0.5202 -2.4751
  814MPD2     C12031   2.402   3.040  13.012 -0.0680 -0.2450  1.5670
  814MPD2    C112032   2.450   3.039  12.882  0.1452  0.0048  0.0768
  814MPD2    C212033   2.524   3.146  12.838 -0.1618 -0.8612  0.7802
  814MPD2    C312034   2.550   3.252  12.925 -0.2174  0.5919  0.1618
  814MPD2    C412035   2.484   3.259  13.043 -0.1033  0.1497  0.1006
  814MPD2    C512036   2.420   3.151  13.091 -0.3477  0.0118  1.0142
  814MPD2     H12037   2.570   3.136  12.741 -0.1341  0.7252  0.6241
  814MPD2    H112038   2.497   3.337  13.116  1.0577 -0.2604  0.3321
  814MPD2    H212039   2.352   2.954  13.054  0.3682 -1.3397 -0.1568
  814MPD2    H312040   2.376   3.155  13.190 -2.1410 -3.9732  0.3827
  814MPD2     N12041   2.646   3.356  12.900 -0.2250  0.0927  0.3379
  814MPD2    H512042   2.668   3.413  12.981 -2.0698  0.7634  0.3545
  814MPD2    N112043   2.427   2.933  12.787 -0.1611  0.4649 -0.4699
  814MPD2    H712044   2.455   2.949  12.691  0.3849 -0.0593 -0.3986
  815MPD2     C12045   3.105   1.780  11.550 -0.5212 -0.3491  0.1796
  815MPD2    C112046   3.008   1.684  11.539 -0.3539  0.3227 -0.2379
  815MPD2    C212047   2.902   1.690  11.626 -0.2849  0.0028  0.4205
  815MPD2    C312048   2.878   1.794  11.713  0.5118 -0.7321 -0.2090
  815MPD2    C412049   2.969   1.894  11.708 -0.1914 -0.9854 -0.1230
  815MPD2    C512050   3.084   1.886  11.633  0.1453  0.1293  0.1979
  815MPD2     H12051   2.815   1.626  11.621  0.0433 -0.4216  0.2200
  815MPD2    H112052   2.963   1.973  11.782  1.2743 -1.5602  0.5959
  815MPD2    H212053   3.185   1.784  11.477 -2.1297  1.6260 -1.4729
  815MPD2    H312054   3.160   1.962  11.647 -0.1372  0.0232  2.3214
  815MPD2     N12055   2.761   1.786  11.795 -0.0577 -0.1447 -0.3767
  815MPD2    H512056   2.700   1.706  11.782 -0.8276  0.2949  0.4678
  815MPD2    N112057   3.021   1.583  11.444 -0.4377 -0.4035 -0.0106
  815MPD2    H712058   3.110   1.593  11.397  0.2546 -1.6749  1.0071
  816MPD2     C12059   3.021   1.345  17.455 -0.5686  0.2299 -0.2890
  816MPD2    C112060   2.976   1.400  17.336  0.1390 -0.2030 -0.0215
  816MPD2    C212061   3.035   1.357  17.221 -0.1223  0.3988  0.8161
  816MPD2    C312062   3.151   1.282  17.225 -0.0539  0.2016 -1.0191
  816MPD2    C412063   3.193   1.225  17.343 -0.4740 -0.1602 -0.1424
  816MPD2    C512064   3.121   1.249  17.457  0.1848  1.0367  0.0995
  816MPD2     H12065   2.991   1.382  17.125 -0.5758 -1.3675  0.5738
  816MPD2    H112066   3.268   1.148  17.360  0.8630  0.7323 -1.9842
  816MPD2    H212067   2.972   1.373  17.548  1.4896  1.3298  0.4576
  816MPD2    H312068   3.148   1.193  17.545  0.5521 -0.6159 -1.0684
  816MPD2     N12069   3.221   1.255  17.105  0.7934  0.2593  0.5701
  816MPD2    H512070   3.178   1.283  17.017  1.9535  0.2063 -0.0174
  816MPD2    N112071   2.872   1.493  17.340 -0.2841 -0.0199 -0.3599
  816MPD2    H712072   2.850   1.532  17.431 -1.0954 -0.7500 -0.2479
  817MPD2     C12073   3.123   1.760  10.006  0.4249 -0.5341  0.4584
  817MPD2    C112074   3.252   1.799   9.955  0.0660  0.3056  0.0799
  817MPD2    C212075   3.289   1.927   9.970  0.3837 -0.0549 -0.4563
  817MPD2    C312076   3.215   2.021  10.037  0.0146  0.0307 -0.2723
  817MPD2    C412077   3.100   1.984  10.094  0.8154 -0.3889 -0.2695
  817MPD2    C512078   3.055   1.857  10.078 -0.2951 -0.1875 -0.0106
  817MPD2     H12079   3.385   1.958   9.931  0.8490  1.5183  1.9449
  817MPD2    H112080   3.050   2.051  10.163  0.9738 -0.1286 -0.4076
  817MPD2    H212081   3.075   1.666   9.983  0.3208 -0.3732  0.0066
  817MPD2    H312082   2.953   1.840  10.111 -0.5371 -0.6587 -0.9944
  817MPD2     N12083   3.276   2.145  10.051 -0.3515  0.3757 -0.4966
  817MPD2    H512084   3.371   2.147  10.016 -0.2369 -1.5395 -0.2828
  817MPD2    N112085   3.329   1.713   9.867 -0.9451  0.1845  0.7746
  817MPD2    H712086   3.417   1.761   9.849  0.5977 -2.5885  0.8853
  818MPD2     C12087   2.478   2.260  10.475  0.2417 -0.6348 -0.3771
  818MPD2    C112088   2.355   2.194  10.487  0.0171  0.5639  0.0103
  818MPD2    C212089   2.309   2.128  10.378  0.2889 -0.1364 -0.3687
  818MPD2    C312090   2.370   2.139  10.251  0.1821 -0.1317 -0.3009
  818MPD2    C412091   2.488   2.207  10.239 -0.0464  0.0255 -0.6275
  818MPD2    C512092   2.542   2.265  10.352 -0.0960  0.0692 -0.5092
  818MPD2     H12093   2.210   2.088  10.394  0.0403  1.8703  3.0405
  818MPD2    H112094   2.543   2.218  10.146 -0.5403  2.2268 -0.6449
  818MPD2    H212095   2.522   2.320  10.554 -0.0727 -1.2021  0.2346
  818MPD2    H312096   2.631   2.326  10.342  0.7561 -1.2671 -1.1051
  818MPD2     N12097   2.312   2.092  10.126  0.7746  0.2060 -0.0174
  818MPD2    H512098   2.360   2.112  10.039  0.0348 -1.9832 -0.9109
  818MPD2    N112099   2.275   2.194  10.602  0.5748 -0.3352  0.1776
  818MPD2    H712100   2.203   2.122  10.604 -1.5924  1.7874 -0.7726
  819MPD2     C12101   3.932   4.080  15.685 -0.4377  0.6002 -0.4652
  819MPD2    C112102   3.978   3.973  15.625 -0.6477  0.3516 -0.3961
  819MPD2    C212103   4.094   3.904  15.664  0.2355  0.2791  0.3518
  819MPD2    C312104   4.171   3.968  15.760 -0.2780 -0.3317  0.0837
  819MPD2    C412105   4.116   4.077  15.829  0.0705 -0.3126  0.2038
  819MPD2    C512106   3.990   4.125  15.801  0.0726  0.1875  0.7349
  819MPD2     H12107   4.137   3.829  15.599  2.3605  1.8440 -0.0372
  819MPD2    H112108   4.169   4.129  15.908  0.2226  0.4871 -0.4294
  819MPD2    H212109   3.846   4.127  15.637 -0.1846 -1.4466 -2.9063
  819MPD2    H312110   3.949   4.203  15.864 -0.9467  0.2183  0.0197
  819MPD2     N12111   4.302   3.915  15.786  0.0835  0.1591 -0.1891
  819MPD2    H512112   4.347   3.844  15.730 -2.1075 -1.1100 -0.3481
  819MPD2    N112113   3.898   3.924  15.517 -0.5794 -0.6908  0.2421
  819MPD2    H712114   3.821   3.987  15.499 -0.9232 -1.4480 -0.9983
  820MPD2     C12115   3.306   4.253  14.853 -0.1848 -0.0626  0.1208
  820MPD2    C112116   3.285   4.253  14.987 -0.8112 -0.0504 -0.4119
  820MPD2    C212117   3.335   4.154  15.069 -0.5257  0.3133  0.0267
  820MPD2    C312118   3.397   4.044  15.009  0.0951  0.5065  0.4396
  820MPD2    C412119   3.392   4.027  14.869  0.2408 -0.1906  0.0535
  820MPD2    C512120   3.342   4.136  14.792 -0.3180 -0.4048  0.5048
  820MPD2     H12121   3.328   4.169  15.176 -1.2022 -0.1212  0.0430
  820MPD2    H112122   3.430   3.934  14.829  1.4566  0.9195 -1.3678
  820MPD2    H212123   3.272   4.331  14.787  1.9378 -0.6796 -1.6957
  820MPD2    H312124   3.351   4.133  14.684 -1.4281  0.6523  0.3892
  820MPD2     N12125   3.471   3.940  15.083 -0.2283 -0.0821  0.2165
  820MPD2    H512126   3.487   3.855  15.031  1.9513  0.2205  0.3748
  820MPD2    N112127   3.225   4.361  15.051  0.4110 -0.5685 -0.2813
  820MPD2    H712128   3.226   4.362  15.152 -0.4207  2.5978 -0.3047
  821MPD2     C12129   4.391   0.366  13.447  0.2068 -0.0308 -0.1475
  821MPD2    C112130   4.405   0.424  13.571 -0.1088  0.0567 -0.0669
  821MPD2    C212131   4.515   0.503  13.596 -0.2180  0.2660  0.8235
  821MPD2    C312132   4.617   0.521  13.497 -0.8143 -0.1600 -0.2846
  821MPD2    C412133   4.601   0.461  13.382 -0.0998  0.9221 -0.2566
  821MPD2    C512134   4.486   0.388  13.354  0.1645 -0.2891 -0.0431
  821MPD2     H12135   4.524   0.551  13.693 -0.9027  1.2528  0.4002
  821MPD2    H112136   4.679   0.470  13.307 -0.3365 -0.0402 -0.6205
  821MPD2    H212137   4.310   0.299  13.418  0.9563 -0.9160 -0.1951
  821MPD2    H312138   4.476   0.325  13.267 -0.2965  2.1624 -1.7587
  821MPD2     N12139   4.728   0.600  13.523  0.2200 -0.1740  0.3154
  821MPD2    H512140   0.052   0.606  13.444  1.6323  1.4748  1.5884
  821MPD2    N112141   4.311   0.416  13.674  0.3217  0.2441 -0.3769
  821MPD2    H712142   4.333   0.458  13.764 -1.1703 -1.7846  0.9197
  822MPD2     C12143   4.313   0.938  15.745  0.8377  0.4565 -0.0055
  822MPD2    C112144   4.335   0.898  15.871 -0.1900 -0.0392 -0.4149
  822MPD2    C212145   4.280   0.972  15.976  0.1484  0.2801 -0.3538
  822MPD2    C312146   4.219   1.100  15.954  0.4124  0.2021  0.0429
  822MPD2    C412147   4.205   1.140  15.822  0.0667  0.2276  0.3218
  822MPD2    C512148   4.253   1.055  15.723 -0.7789 -0.0845 -0.3315
  822MPD2     H12149   4.291   0.948  16.081  2.0938  0.5092 -0.5072
  822MPD2    H112150   4.143   1.226  15.801  2.0282  2.1525  2.5070
  822MPD2    H212151   4.349   0.887  15.656 -1.2241  0.5558 -0.8981
  822MPD2    H312152   4.232   1.084  15.620  0.5194 -0.5716 -0.7395
  822MPD2     N12153   4.170   1.167  16.067 -0.7923 -0.0193 -0.3599
  822MPD2    H512154   4.187   1.129  16.160  0.0913  0.6793 -0.2377
  822MPD2    N112155   4.408   0.778  15.898 -0.5016 -0.1660 -0.2116
  822MPD2    H712156   4.419   0.753  15.996 -2.2749 -0.8790 -0.2072
  823MPD2     C12157   4.053   1.174  16.871 -0.3667 -0.4589 -0.0476
  823MPD2    C112158   4.059   1.110  16.752  0.2788 -0.1397 -0.2105
  823MPD2    C212159   4.109   0.980  16.757  0.1131  0.1043 -0.0453
  823MPD2    C312160   4.179   0.922  16.860  0.0948  1.1606  0.4042
  823MPD2    C412161   4.168   0.984  16.979 -0.6971 -0.5155  0.3317
  823MPD2    C512162   4.112   1.111  16.980 -0.6262 -0.2912  0.5730
  823MPD2     H12163   4.124   0.927  16.663  0.0124 -3.9211  2.2119
  823MPD2    H112164   4.217   0.956  17.072 -0.2150  0.3935  0.3550
  823MPD2    H212165   4.008   1.271  16.885  0.7091 -0.1933  1.6520
  823MPD2    H312166   4.108   1.160  17.077 -0.4005  1.3979 -0.2855
  823MPD2     N12167   4.240   0.794  16.865 -0.4887 -0.0479  0.1461
  823MPD2    H512168   4.266   0.753  16.954  2.6268 -0.6097 -1.0116
  823MPD2    N112169   4.013   1.186  16.638 -0.6552 -0.1504  0.2005
  823MPD2    H712170   3.983   1.280  16.662 -1.3565 -0.3174 -0.0093
  824MPD2     C12171   0.112   0.047  15.641  0.3222 -0.0221 -0.7246
  824MPD2    C112172   0.183   0.144  15.708  0.4675 -0.0816  0.4122
  824MPD2    C212173   0.317   0.130  15.715 -0.2831  0.0809 -0.4687
  824MPD2    C312174   0.385   0.019  15.651 -0.2079  0.7730  0.1404
  824MPD2    C412175   0.306   4.667  15.591  0.3337 -0.7773  0.4972
  824MPD2    C512176   0.174   4.688  15.578  0.3778  0.1030 -0.1969
  824MPD2     H12177   0.371   0.208  15.766 -0.8563  0.5559 -0.5882
  824MPD2    H112178   0.351   4.582  15.540  0.9653  0.9699 -1.8737
  824MPD2    H212179   0.004   0.059  15.642  0.3267 -0.1445  0.8330
  824MPD2    H312180   0.111   4.617  15.526  1.0345 -0.1340 -0.6706
  824MPD2     N12181   0.525   4.736  15.662  0.0887 -0.3993  0.0149
  824MPD2    H512182   0.583   0.073  15.692 -0.3431 -0.6519  1.5072
  824MPD2    N112183   0.126   0.258  15.762 -0.6426 -0.0671  0.4914
  824MPD2    H712184   0.185   0.312  15.825 -0.9387  1.6225 -0.6532
  825MPD2     C12185   1.118   0.236  15.134 -0.2312  0.2028 -0.1836
  825MPD2    C112186   1.063   0.245  15.261 -0.2720  0.1200 -0.4061
  825MPD2    C212187   1.080   0.356  15.344 -0.3793 -0.2446  0.5975
  825MPD2    C312188   1.144   0.465  15.289  0.5027  0.0013  0.4788
  825MPD2    C412189   1.176   0.465  15.155 -0.0094 -0.1722 -0.4625
  825MPD2    C512190   1.174   0.350  15.081  0.6475  0.3045  0.1578
  825MPD2     H12191   1.058   0.346  15.450  0.7778 -0.0342  0.8523
  825MPD2    H112192   1.230   0.552  15.119  2.4410 -0.9047  1.4901
  825MPD2    H212193   1.113   0.143  15.078 -2.0182  2.1699 -3.2921
  825MPD2    H312194   1.204   0.352  14.977 -2.3882 -2.7648 -0.7767
  825MPD2     N12195   1.194   0.574  15.367  0.1422  0.0810 -0.3972
  825MPD2    H512196   1.245   0.643  15.313  1.9544 -0.4156  0.6743
  825MPD2    N112197   1.010   0.129  15.315 -0.7492  0.4988 -0.7434
  825MPD2    H712198   1.033   0.040  15.271 -3.0005 -0.0808 -0.7289
  826MPD2     C12199   1.135   4.428  13.706  0.0027  0.1250 -0.5041
  826MPD2    C112200   1.179   4.551  13.666 -0.6998 -0.1194  0.0153
  826MPD2    C212201   1.090   4.655  13.648 -0.2336 -0.3305 -0.3593
  826MPD2    C312202   0.957   4.642  13.684  0.8009 -0.5685  0.2374
  826MPD2    C412203   0.911   4.520  13.736 -0.1492 -0.2789 -0.0993
  826MPD2    C512204   1.004   4.414  13.740  0.5655  0.0677 -0.5579
  826MPD2     H12205   1.129   0.001  13.595 -1.5126  0.6416  0.2628
  826MPD2    H112206   0.808   4.494  13.754 -0.6274 -0.0652 -2.6180
  826MPD2    H212207   1.198   4.340  13.715 -0.6277 -0.2157  0.6275
  826MPD2    H312208   0.969   4.315  13.767 -0.1380  0.5393  0.2542
  826MPD2     N12209   0.864   0.014  13.677  0.0634  0.0172  0.2622
  826MPD2    H512210   0.772   4.737  13.717  1.1074  0.6373  2.9834
  826MPD2    N112211   1.321   4.558  13.647  0.2348  0.0415  0.2572
  826MPD2    H712212   1.374   4.471  13.652  2.1277  1.2971  1.8246
  827MPD2     C12213   2.297   0.905   9.889 -0.4453 -0.1349  1.1487
  827MPD2    C112214   2.310   0.767   9.894 -0.1473 -1.1602  0.1722
  827MPD2    C212215   2.207   0.688   9.822 -0.6244 -0.6379  0.2613
  827MPD2    C312216   2.096   0.756   9.771 -0.2539  0.1660 -0.3412
  827MPD2    C412217   2.083   0.889   9.787  0.0166 -0.4807 -1.0365
  827MPD2    C512218   2.180   0.966   9.850  0.2739 -0.0409 -0.3472
  827MPD2     H12219   2.222   0.582   9.805  2.6596 -0.1335 -0.0845
  827MPD2    H112220   2.000   0.948   9.749 -0.5635 -1.8574 -1.8672
  827MPD2    H212221   2.375   0.968   9.930  0.0157 -0.2795  0.5108
  827MPD2    H312222   2.169   1.073   9.842 -0.7417 -0.1635 -0.6446
  827MPD2     N12223   1.990   0.681   9.709 -0.8798  0.0689 -0.8116
  827MPD2    H512224   2.007   0.584   9.686 -1.3162 -0.3457  0.6023
  827MPD2    N112225   2.436   0.710   9.939  0.2628 -0.1160  0.1111
  827MPD2    H712226   2.493   0.778   9.989  2.5752 -2.4949  0.7187
  828MPD2     C12227   0.587   0.477  12.476 -0.0555  0.5221 -0.2179
  828MPD2    C112228   0.537   0.573  12.384 -0.6007 -0.1275  0.0168
  828MPD2    C212229   0.569   0.572  12.252 -1.1315  0.5837 -0.2680
  828MPD2    C312230   0.663   0.478  12.210 -0.9197  0.1208  0.1186
  828MPD2    C412231   0.717   0.387  12.301 -0.4793  0.3288 -0.1803
  828MPD2    C512232   0.666   0.377  12.426  0.5550  0.1215 -0.0881
  828MPD2     H12233   0.527   0.643  12.182 -0.9754  2.0749  1.1284
  828MPD2    H112234   0.787   0.314  12.261 -0.1529  1.2888 -1.3677
  828MPD2    H212235   0.564   0.467  12.581  2.9652  1.8195  0.5440
  828MPD2    H312236   0.700   0.297  12.490  0.2295  0.4883  0.5387
  828MPD2     N12237   0.705   0.465  12.077  0.0058 -0.1800 -0.2218
  828MPD2    H512238   0.766   0.387  12.056 -0.3166 -0.7494  1.0047
  828MPD2    N112239   0.439   0.666  12.422  0.1242  0.3190 -0.4242
  828MPD2    H712240   0.380   0.698  12.346  0.1780  0.1502 -0.5373
  829MPD2     C12241   4.385   0.694  12.116 -0.2635  0.4768  0.4307
  829MPD2    C112242   4.383   0.812  12.183 -0.2503 -0.6937  0.1540
  829MPD2    C212243   4.489   0.846  12.270 -0.6568 -0.5822 -0.3618
  829MPD2    C312244   4.596   0.759  12.272 -0.8428  0.5268 -0.2687
  829MPD2    C412245   4.602   0.648  12.194  0.8168 -0.1312 -0.4044
  829MPD2    C512246   4.493   0.615  12.123  0.2870  0.0421  0.4140
  829MPD2     H12247   4.479   0.934  12.333 -1.9483 -1.1571  0.2460
  829MPD2    H112248   4.686   0.579  12.191  1.1666  0.2063  2.0696
  829MPD2    H212249   4.308   0.679  12.041  0.1721  0.7605 -0.0687
  829MPD2    H312250   4.500   0.529  12.057  2.6049 -1.0227  2.0461
  829MPD2     N12251   4.707   0.779  12.357 -0.4187  0.6174  0.4506
  829MPD2    H512252   0.045   0.714  12.347 -1.0610 -0.0311 -0.3275
  829MPD2    N112253   4.264   0.889  12.157 -0.3147 -0.1190  0.2549
  829MPD2    H712254   4.192   0.856  12.094 -2.0199  0.1948  2.0216
  830MPD2     C12255   4.613   4.135  15.336 -0.0137  0.0296 -0.1029
  830MPD2    C112256   4.717   4.123  15.423 -0.6606  0.2664 -0.0060
  830MPD2    C212257   0.102   4.168  15.393 -0.1844  0.2426 -0.5798
  830MPD2    C312258   0.125   4.214  15.263 -0.5805 -0.1199 -0.3111
  830MPD2    C412259   0.025   4.219  15.169  0.5010  0.1802 -0.3174
  830MPD2    C512260   4.638   4.178  15.212 -0.6301 -0.5408  0.8151
  830MPD2     H12261   0.177   4.158  15.471  1.8434 -1.7224 -2.7813
  830MPD2    H112262   0.035   4.274  15.077 -1.3006  1.5219  0.2816
  830MPD2    H212263   4.509   4.108  15.350 -0.1772 -0.2954 -1.8923
  830MPD2    H312264   4.556   4.180  15.142  0.0316 -1.5963  0.0023
  830MPD2     N12265   0.248   4.268  15.220  0.1370  0.2948 -0.2810
  830MPD2    H512266   0.248   4.298  15.123 -2.0756 -1.4548 -0.8081
  830MPD2    N112267   4.686   4.066  15.545 -0.0898  0.0246  0.1894
  830MPD2    H712268   4.588   4.047  15.563 -0.5936  2.9865  0.6595
  831MPD2     C12269   4.496   1.178  16.402 -0.5330  0.0257  0.7072
  831MPD2    C112270   4.530   1.100  16.292  0.4038  0.0508  0.0003
  831MPD2    C212271   4.475   0.969  16.281  0.5469 -0.6824 -0.4958
  831MPD2    C312272   4.381   0.931  16.376  0.3725  0.0549  0.1508
  831MPD2    C412273   4.363   1.008  16.489 -0.3335  0.1936 -0.4185
  831MPD2    C512274   4.423   1.129  16.502 -0.1353 -0.0915 -0.4962
  831MPD2     H12275   4.501   0.908  16.195 -3.2559 -1.7879 -0.8186
  831MPD2    H112276   4.312   0.974  16.579 -2.0325  1.3943 -0.9339
  831MPD2    H212277   4.547   1.273  16.412  1.7098 -1.2511  1.3116
  831MPD2    H312278   4.395   1.181  16.593 -0.2530  0.8075 -1.0439
  831MPD2     N12279   4.296   0.811  16.360  0.2125 -0.3791  0.1686
  831MPD2    H512280   4.228   0.799  16.434 -0.0703 -4.1422 -0.6983
  831MPD2    N112281   4.599   1.139  16.176 -0.1981 -0.1667  0.0057
  831MPD2    H712282   4.650   1.067  16.127  0.1966  0.8682 -1.0936
  832MPD2     C12283   3.229   2.273  17.143 -0.9561  0.0282 -0.5224
  832MPD2    C112284   3.236   2.413  17.161 -0.1262  0.0519  0.4186
  832MPD2    C212285   3.127   2.494  17.141 -0.6203 -0.1198  0.8523
  832MPD2    C312286   3.007   2.436  17.106 -0.0120  0.3856 -0.1120
  832MPD2    C412287   2.995   2.300  17.098 -0.4319 -0.0270 -0.3285
  832MPD2    C512288   3.109   2.221  17.116  0.5303  0.1772  0.4090
  832MPD2     H12289   3.141   2.598  17.115  0.7623  0.0451  2.3149
  832MPD2    H112290   2.909   2.255  17.051  0.2148 -3.4162  1.7953
  832MPD2    H212291   3.317   2.213  17.163 -0.5065 -0.1988 -3.1813
  832MPD2    H312292   3.092   2.119  17.081  0.7192  0.2530  0.0940
  832MPD2     N12293   2.887   2.505  17.085 -0.4194  0.0575 -0.1715
  832MPD2    H512294   2.807   2.443  17.075  0.2532 -0.9948  0.8698
  832MPD2    N112295   3.371   2.460  17.179  0.4054 -0.1007 -0.6854
  832MPD2    H712296   3.450   2.399  17.164  0.7097  0.3436 -0.8961
  833MPD2     C12297   0.895   3.556  12.990  0.1207 -0.6695  0.3635
  833MPD2    C112298   0.931   3.643  12.891  0.5808  0.2501 -0.6552
  833MPD2    C212299   1.040   3.610  12.817 -0.2536 -1.2954 -0.9022
  833MPD2    C312300   1.113   3.493  12.843 -0.6782  0.6375 -0.6928
  833MPD2    C412301   1.084   3.415  12.951 -0.3389 -0.1162 -0.0207
  833MPD2    C512302   0.972   3.449  13.022 -0.6747  0.2991 -0.1933
  833MPD2     H12303   1.073   3.674  12.736 -0.8124 -1.6012 -1.3709
  833MPD2    H112304   1.136   3.321  12.965 -0.1849 -0.0160  0.0789
  833MPD2    H212305   0.807   3.578  13.049  0.2273 -0.2046  0.3475
  833MPD2    H312306   0.945   3.384  13.104 -1.3861  0.8674  0.0309
  833MPD2     N12307   1.224   3.451  12.776  0.7952  0.3296 -0.0719
  833MPD2    H512308   1.279   3.376  12.816  1.1652  1.1805  1.0323
  833MPD2    N112309   0.853   3.756  12.860 -0.5295 -0.3956 -0.8632
  833MPD2    H712310   0.761   3.753  12.902 -0.7845  0.7285 -1.3421
  834MPD2     C12311   1.242   2.658  12.246  0.3223 -0.0367  0.6486
  834MPD2    C112312   1.323   2.725  12.166 -0.2215 -0.1260 -0.0045
  834MPD2    C212313   1.340   2.862  12.182 -0.6980  0.0620 -0.1604
  834MPD2    C312314   1.272   2.939  12.276  0.3204  0.4549 -0.2809
  834MPD2    C412315   1.185   2.866  12.358 -0.6041 -0.3777  0.3457
  834MPD2    C512316   1.171   2.728  12.340  0.2107 -0.2436  0.0713
  834MPD2     H12317   1.408   2.917  12.118  0.0498 -2.1352 -1.2492
  834MPD2    H112318   1.126   2.922  12.429 -0.2903  0.2963  0.0762
  834MPD2    H212319   1.230   2.550  12.253 -2.2282  0.1855 -0.2373
  834MPD2    H312320   1.101   2.680  12.408 -0.9897  0.6245 -0.5542
  834MPD2     N12321   1.298   3.074  12.298  0.3302 -0.4707 -0.4831
  834MPD2    H512322   1.377   3.114  12.248 -1.6414  2.6808 -1.1315
  834MPD2    N112323   1.390   2.656  12.066  0.8522  0.3613 -0.1005
  834MPD2    H712324   1.372   2.556  12.070  0.6318  0.4166  0.3093
  835MPD2     C12325   1.110   0.491  11.872  0.7373  0.2488 -0.8300
  835MPD2    C112326   1.073   0.617  11.911 -0.3593 -0.2851  0.0330
  835MPD2    C212327   1.042   0.635  12.047  1.0063 -0.5156  0.2317
  835MPD2    C312328   1.066   0.541  12.143  0.4182  0.3057 -0.4280
  835MPD2    C412329   1.134   0.428  12.107  0.2532  0.1022  0.3172
  835MPD2    C512330   1.142   0.398  11.973  0.1289 -0.6228  0.2330
  835MPD2     H12331   0.992   0.727  12.076  0.5385 -0.2980 -1.2787
  835MPD2    H112332   1.159   0.354  12.183 -0.5109 -0.7026 -0.2236
  835MPD2    H212333   1.137   0.457  11.773  0.5920  0.5367 -0.9673
  835MPD2    H312334   1.186   0.303  11.944 -0.7171 -0.2039 -2.4632
  835MPD2     N12335   1.029   0.557  12.282  0.2408  0.1264 -0.2548
  835MPD2    H512336   1.060   0.497  12.358 -0.5062 -0.4055 -0.3697
  835MPD2    N112337   1.056   0.725  11.827 -0.1681 -0.2467  0.1464
  835MPD2    H712338   1.027   0.813  11.867  1.1626 -0.0095  0.6086
  836MPD2     C12339   0.493   0.970  12.324 -0.2631  0.0995 -0.2090
  836MPD2    C112340   0.561   1.011  12.434  0.0529  0.9832  0.2446
  836MPD2    C212341   0.492   1.086  12.530  0.4108 -0.0940 -0.3301
  836MPD2    C312342   0.357   1.125  12.513  0.0939  0.0202 -0.5654
  836MPD2    C412343   0.294   1.091  12.396 -0.1554 -0.2398 -0.2230
  836MPD2    C512344   0.368   1.019  12.304 -0.2795  0.2426 -0.3517
  836MPD2     H12345   0.548   1.120  12.617  0.8851 -0.2874 -0.5594
  836MPD2    H112346   0.189   1.115  12.384  0.2890  1.7439 -0.0209
  836MPD2    H212347   0.543   0.927  12.238 -1.1970 -0.1697 -0.6240
  836MPD2    H312348   0.326   0.983  12.211 -1.6611 -1.8829  1.0795
  836MPD2     N12349   0.281   1.207  12.601 -0.2052 -0.8966  0.3566
  836MPD2    H512350   0.185   1.225  12.573 -0.3537 -1.4735  0.5038
  836MPD2    N112351   0.695   0.968  12.453  0.0557  0.1901  0.4461
  836MPD2    H712352   0.742   0.903  12.390  1.1888  1.2443  0.2055
  837MPD2     C12353   4.379   0.472  10.721 -0.1225  0.3879  0.3830
  837MPD2    C112354   4.364   0.473  10.586  0.5125  0.3586 -0.0871
  837MPD2    C212355   4.344   0.594  10.516 -0.1326 -0.1302  0.3480
  837MPD2    C312356   4.351   0.710  10.579 -0.1463 -1.1401 -0.1549
  837MPD2    C412357   4.352   0.720  10.716  0.4102  0.0732 -0.4052
  837MPD2    C512358   4.370   0.598  10.784  0.9012  0.8177  0.3453
  837MPD2     H12359   4.340   0.594  10.408  1.2767  0.5978  0.2983
  837MPD2    H112360   4.335   0.811  10.772  1.3880 -0.4211  0.6976
  837MPD2    H212361   4.384   0.378  10.775 -1.0352  0.0407 -0.1359
  837MPD2    H312362   4.376   0.602  10.893 -2.3205  0.9264  0.5032
  837MPD2     N12363   4.358   0.828  10.497  0.1904  0.0849 -0.3407
  837MPD2    H512364   4.357   0.806  10.398 -1.1313  0.8830 -0.5035
  837MPD2    N112365   4.367   0.364  10.504  0.1530 -0.1328 -0.2417
  837MPD2    H712366   4.369   0.385  10.405 -1.7412 -0.4421 -0.3421
  838MPD2     C12367   2.993   4.107  11.861  0.4487  0.3060  0.0598
  838MPD2    C112368   2.880   4.024  11.852  0.2101  0.2634  0.4924
  838MPD2    C212369   2.811   3.999  11.969  0.1666 -0.8988  0.2564
  838MPD2    C312370   2.852   4.049  12.086 -0.2074 -0.9152  0.6528
  838MPD2    C412371   2.954   4.137  12.091  0.2308  0.1297  0.0415
  838MPD2    C512372   3.025   4.166  11.981  0.4282  0.0383 -0.5101
  838MPD2     H12373   2.739   3.917  11.967 -0.1452 -0.5477 -2.9003
  838MPD2    H112374   2.993   4.180  12.182 -1.0229  1.5929 -0.1209
  838MPD2    H212375   3.052   4.132  11.774  0.0048 -0.8456 -0.5687
  838MPD2    H312376   3.118   4.218  12.004  2.0553 -3.0609 -0.0039
  838MPD2     N12377   2.804   4.017  12.219  0.5342 -0.2404  0.5038
  838MPD2    H512378   2.843   4.071  12.295 -1.5911 -0.4048  1.7031
  838MPD2    N112379   2.837   3.966  11.730 -0.0940  0.3644 -0.1374
  838MPD2    H712380   2.755   3.906  11.726  0.2256 -0.0598 -0.3033
  839MPD2     C12381   2.506   3.372  12.085  0.9535  0.2911  0.0447
  839MPD2    C112382   2.506   3.304  11.964  0.6392  0.4825 -0.0644
  839MPD2    C212383   2.562   3.359  11.847 -0.3748 -0.2882 -0.7120
  839MPD2    C312384   2.604   3.490  11.854 -0.2781  0.4536  0.1174
  839MPD2    C412385   2.602   3.553  11.977  0.2411  0.7677 -0.4077
  839MPD2    C512386   2.549   3.501  12.089 -0.4251  0.2358 -0.6185
  839MPD2     H12387   2.559   3.306  11.753 -0.6959 -0.3495 -0.6670
  839MPD2    H112388   2.632   3.657  11.985  0.7622  0.4506  2.0105
  839MPD2    H212389   2.466   3.331  12.177  0.2761  0.4737 -0.1668
  839MPD2    H312390   2.552   3.561  12.179 -0.9241  0.3883 -0.7059
  839MPD2     N12391   2.649   3.566  11.749 -0.3341  0.1918  0.2685
  839MPD2    H512392   2.660   3.664  11.770  0.5661 -0.2297  1.8572
  839MPD2    N112393   2.437   3.182  11.954  0.5504 -0.4856  0.5483
  839MPD2    H712394   2.455   3.126  11.871  0.3081  1.5063 -0.8283
  840MPD2     C12395   2.867   1.069   9.789  0.3256 -0.3032 -0.6800
  840MPD2    C112396   2.914   1.011   9.904 -0.1823 -0.2570  0.4822
  840MPD2    C212397   3.004   1.075   9.988 -0.0900  0.3865 -0.4513
  840MPD2    C312398   3.052   1.203   9.950 -0.1801  1.1923 -0.4483
  840MPD2    C412399   2.990   1.267   9.847 -0.0407 -0.0318 -0.3058
  840MPD2    C512400   2.902   1.203   9.764  0.4770  0.2616 -0.7683
  840MPD2     H12401   3.030   1.026  10.081  1.0605 -0.9818 -1.5058
  840MPD2    H112402   3.017   1.369   9.822 -0.4609 -0.2404 -1.5918
  840MPD2    H212403   2.796   1.023   9.721 -1.1423  1.8706 -0.6301
  840MPD2    H312404   2.869   1.258   9.677  1.1701  0.5573 -0.8496
  840MPD2     N12405   3.147   1.277  10.022 -0.4581  0.2120 -0.0458
  840MPD2    H512406   3.162   1.374   9.994 -1.5646 -0.2278 -2.1780
  840MPD2    N112407   2.870   0.880   9.920  0.2466 -0.8784 -0.5855
  840MPD2    H712408   2.798   0.854   9.853 -0.0649 -2.4222  0.3346
  841MPD2     C12409   1.541   1.345  14.640  0.3504 -0.2493 -0.1094
  841MPD2    C112410   1.590   1.272  14.745  1.0023  0.6656  0.1983
  841MPD2    C212411   1.700   1.314  14.814  0.3348 -0.5602 -0.1739
  841MPD2    C312412   1.772   1.419  14.763 -0.6118 -0.6882  0.3955
  841MPD2    C412413   1.731   1.492  14.658 -0.0889  0.2778 -0.0567
  841MPD2    C512414   1.610   1.459  14.598 -0.5697 -0.1490  0.2514
  841MPD2     H12415   1.736   1.261  14.901  0.9071 -1.5963 -1.0409
  841MPD2    H112416   1.791   1.576  14.625  0.3146 -0.1001 -0.2876
  841MPD2    H212417   1.461   1.315  14.573  0.3492 -0.5953  0.0449
  841MPD2    H312418   1.579   1.503  14.504 -1.9843 -1.3529  0.1603
  841MPD2     N12419   1.873   1.457  14.848 -0.3930  0.1552  0.2462
  841MPD2    H512420   1.872   1.403  14.934  0.0547 -1.6775 -0.8979
  841MPD2    N112421   1.540   1.151  14.794  0.0741  0.3336 -0.4070
  841MPD2    H712422   1.599   1.090  14.850 -0.7846  0.4310  0.6130
  842MPD2     C12423   2.325   2.694  17.239 -0.3541 -0.0249  0.1179
  842MPD2    C112424   2.218   2.610  17.268  0.4242  0.3470  0.3482
  842MPD2    C212425   2.221   2.546  17.391 -0.1567  0.0164  0.6777
  842MPD2    C312426   2.324   2.561  17.478 -0.0379 -0.2047 -0.2880
  842MPD2    C412427   2.427   2.654  17.453 -0.3681 -0.6892 -0.2269
  842MPD2    C512428   2.426   2.713  17.330 -0.3958  0.4712 -0.0934
  842MPD2     H12429   2.162   2.455  17.396  0.5525 -0.5154 -0.7036
  842MPD2    H112430   2.510   2.674  17.520  0.2676 -0.7604 -1.0029
  842MPD2    H212431   2.341   2.751  17.148 -0.3660 -0.3748 -0.1022
  842MPD2    H312432   2.512   2.772  17.302  0.1239  0.5180  1.5903
  842MPD2     N12433   2.331   2.478  17.594  0.1668 -0.0221  0.5167
  842MPD2    H512434   2.258   2.409  17.605  1.8906 -1.7341  1.3748
  842MPD2    N112435   2.121   2.584  17.172  0.0655  0.5107 -0.4373
  842MPD2    H712436   2.123   2.650  17.094 -1.6445  2.0044  0.7611
  843MPD2     C12437   4.410   3.311  17.397 -0.3736  0.0670 -0.0465
  843MPD2    C112438   4.445   3.234  17.507 -0.4083 -0.4785  0.7095
  843MPD2    C212439   4.509   3.297  17.604  1.4522 -0.4312 -0.6187
  843MPD2    C312440   4.523   3.439  17.614 -0.5508  0.1469  0.4251
  843MPD2    C412441   4.486   3.513  17.503 -0.1598  0.0927  0.2837
  843MPD2    C512442   4.443   3.444  17.396 -0.1561  0.0401 -0.4207
  843MPD2     H12443   4.545   3.236  17.686  1.8784  0.4463 -0.1589
  843MPD2    H112444   4.507   3.619  17.494 -1.8964  0.2429 -1.9406
  843MPD2    H212445   4.367   3.261  17.311 -0.1180 -0.4955  0.1519
  843MPD2    H312446   4.399   3.500  17.315  1.7492  1.6002 -0.3682
  843MPD2     N12447   4.562   3.515  17.731 -0.2130 -0.3266 -0.1213
  843MPD2    H512448   4.551   3.615  17.725  0.3152 -0.2694 -0.1361
  843MPD2    N112449   4.407   3.099  17.500  0.2038  0.6158 -0.1857
  843MPD2    H712450   4.369   3.071  17.410 -1.5896  0.0496  0.7367
  844MPD2     C12451   2.327   1.907  16.593  0.6501  0.0310 -1.1591
  844MPD2    C112452   2.447   1.867  16.549 -0.3541  0.4802  0.0837
  844MPD2    C212453   2.558   1.943  16.575  0.6415  0.0864 -0.0357
  844MPD2    C312454   2.551   2.066  16.645  0.2782 -0.6390 -0.4094
  844MPD2    C412455   2.424   2.111  16.685  0.2259  0.2774 -0.8083
  844MPD2    C512456   2.317   2.027  16.659  0.4905  0.4066  0.3317
  844MPD2     H12457   2.653   1.908  16.536  0.2567 -1.2433  0.2320
  844MPD2    H112458   2.402   2.206  16.731  0.9861  0.9816 -1.8941
  844MPD2    H212459   2.244   1.839  16.579  0.7766 -0.5646  1.0744
  844MPD2    H312460   2.224   2.047  16.712  0.5511 -1.0338  0.9832
  844MPD2     N12461   2.669   2.137  16.665  0.3038 -0.4113 -0.0353
  844MPD2    H512462   2.751   2.078  16.651 -0.3568 -1.0593 -1.1248
  844MPD2    N112463   2.472   1.746  16.469  0.1632  0.2889  0.0582
  844MPD2    H712464   2.568   1.718  16.458 -0.9034 -2.8460 -1.0639
  845MPD2     C12465   3.245   3.017  16.467 -0.3674  0.2471 -0.5816
  845MPD2    C112466   3.201   2.995  16.592 -0.1491  0.1155 -0.6116
  845MPD2    C212467   3.160   2.862  16.621  0.4178 -0.1496 -0.3237
  845MPD2    C312468   3.177   2.754  16.534  0.1904  0.1485  0.1063
  845MPD2    C412469   3.239   2.780  16.415 -0.0187 -0.6740  0.0941
  845MPD2    C512470   3.259   2.910  16.382 -0.3855  0.1256 -0.4542
  845MPD2     H12471   3.137   2.836  16.723  1.4062  1.9439  0.4245
  845MPD2    H112472   3.266   2.705  16.342  1.7507  1.1974 -1.1620
  845MPD2    H212473   3.293   3.112  16.447 -1.1870  0.8643  0.4034
  845MPD2    H312474   3.301   2.933  16.285  1.4057  1.0599  0.5551
  845MPD2     N12475   3.125   2.627  16.553 -0.1636 -0.2313  0.1279
  845MPD2    H512476   3.160   2.560  16.486 -1.4559 -0.8775  0.0983
  845MPD2    N112477   3.225   3.099  16.685 -0.5156  0.4283  0.5268
  845MPD2    H712478   3.249   3.190  16.646 -2.1336  0.8325  0.4561
  846MPD2     C12479   0.105   3.271  13.675 -0.2369 -0.1047  0.0904
  846MPD2    C112480   4.728   3.347  13.684 -0.0997 -0.0384 -0.0962
  846MPD2    C212481   4.663   3.356  13.805 -0.3951 -0.6759  0.0716
  846MPD2    C312482   4.729   3.314  13.920  0.6039  1.0419 -0.4413
  846MPD2    C412483   0.109   3.249  13.912 -0.1813 -0.1791  0.1143
  846MPD2    C512484   0.159   3.228  13.794 -0.7232  0.4865 -0.4417
  846MPD2     H12485   4.573   3.415  13.818 -1.9187 -3.2460  1.1301
  846MPD2    H112486   0.152   3.187  13.991 -1.3340 -0.3928  0.5806
  846MPD2    H212487   0.162   3.250  13.585 -1.2769 -0.3540 -0.5148
  846MPD2    H312488   0.255   3.178  13.787 -0.3844  1.2334 -1.1680
  846MPD2     N12489   4.672   3.334  14.045 -0.5137 -0.4697 -0.7805
  846MPD2    H512490   4.573   3.355  14.052 -0.3609  0.6715 -2.0743
  846MPD2    N112491   4.687   3.419  13.576 -0.3624  0.4470 -0.2303
  846MPD2    H712492   4.650   3.511  13.599  1.1935  0.6115  1.6435
  847MPD2     C12493   0.362   4.085  14.299 -0.0599  0.2507 -1.0498
  847MPD2    C112494   0.345   4.214  14.327 -0.2364  0.2015  0.4306
  847MPD2    C212495   0.457   4.293  14.343 -0.2240  0.1653 -0.0000
  847MPD2    C312496   0.588   4.240  14.341 -0.1368  0.7753 -0.1047
  847MPD2    C412497   0.600   4.101  14.326  0.3064  0.2893  0.8302
  847MPD2    C512498   0.488   4.027  14.303  0.1183  0.8084  0.5565
  847MPD2     H12499   0.446   4.398  14.369 -0.4542  0.8401 -2.7993
  847MPD2    H112500   0.694   4.048  14.335  0.4894  0.8196  1.9840
  847MPD2    H212501   0.284   4.011  14.288 -1.6570  1.7559  0.1659
  847MPD2    H312502   0.500   3.920  14.294  0.3420  0.8098  0.8423
  847MPD2     N12503   0.692   4.324  14.382 -0.1833  0.0907  0.1230
  847MPD2    H512504   0.669   4.416  14.416 -1.8360  0.3201 -1.6175
  847MPD2    N112505   0.220   4.275  14.336 -0.2150 -0.2019  0.0186
  847MPD2    H712506   0.223   4.377  14.329  1.7586 -0.3714 -1.6629
  848MPD2     C12507   2.856   2.951  16.510 -0.0655 -0.1199 -0.5672
  848MPD2    C112508   2.726   2.928  16.549  0.0338  0.5344  0.1455
  848MPD2    C212509   2.624   2.994  16.492  0.4397 -1.0490 -0.0524
  848MPD2    C312510   2.650   3.098  16.403  0.2699  0.7405  0.3059
  848MPD2    C412511   2.781   3.115  16.362  0.3129 -0.5954  0.4396
  848MPD2    C512512   2.887   3.049  16.421 -0.6707 -0.2750 -0.0621
  848MPD2     H12513   2.522   2.990  16.527 -0.0212  1.1276 -1.1514
  848MPD2    H112514   2.813   3.187  16.288  0.9652 -1.0270  0.3010
  848MPD2    H212515   2.935   2.895  16.559  0.2790  1.9239  1.1930
  848MPD2    H312516   2.990   3.056  16.386 -1.3232  2.2168 -1.4651
  848MPD2     N12517   2.559   3.198  16.378 -0.0613 -0.4430  0.5138
  848MPD2    H512518   2.591   3.289  16.344 -0.0403  0.1788  2.2054
  848MPD2    N112519   2.718   2.830  16.654 -0.2191 -0.2018 -0.9642
  848MPD2    H712520   2.805   2.781  16.674 -0.6937 -0.6999 -0.1530
  849MPD2     C12521   2.093   2.053  13.891  0.5340 -0.6500 -0.9257
  849MPD2    C112522   2.141   2.168  13.952 -0.2069  0.4804 -0.4843
  849MPD2    C212523   2.094   2.217  14.077  0.0513 -0.2420  0.4486
  849MPD2    C312524   2.008   2.132  14.148 -0.9314 -0.1811  0.0127
  849MPD2    C412525   1.973   2.013  14.091 -0.1491  0.3822 -0.1303
  849MPD2    C512526   2.018   1.975  13.967  0.6133  0.0466 -0.2282
  849MPD2     H12527   2.126   2.316  14.104  1.2842  0.0206 -2.0227
  849MPD2    H112528   1.916   1.939  14.147  0.8441 -1.1143 -1.0865
  849MPD2    H212529   2.126   2.021  13.793  1.3383 -0.6683 -0.6483
  849MPD2    H312530   1.975   1.887  13.921 -1.4137  1.4467 -1.0310
  849MPD2     N12531   1.966   2.162  14.282  0.0540 -0.7125 -0.3882
  849MPD2    H512532   1.933   2.082  14.336 -0.8022 -1.2845 -1.7683
  849MPD2    N112533   2.239   2.249  13.884 -0.1614 -0.1267  0.3875
  849MPD2    H712534   2.281   2.215  13.799  1.1175  1.5293  0.3545
  850MPD2     C12535   0.049   0.332  14.582 -0.3831 -0.0194  0.2931
  850MPD2    C112536   0.002   0.362  14.703 -0.1202  0.2312 -0.6602
  850MPD2    C212537   0.091   0.416  14.799 -0.1071  0.4728  0.4375
  850MPD2    C312538   0.214   0.456  14.756 -0.0255  0.6169 -0.7339
  850MPD2    C412539   0.253   0.436  14.632  0.3015  0.2220 -0.1529
  850MPD2    C512540   0.175   0.370  14.543  0.3151  0.7986 -0.4783
  850MPD2     H12541   0.057   0.418  14.902 -1.2528  0.8589  0.0484
  850MPD2    H112542   0.350   0.476  14.604  0.7499  0.4090  1.6346
  850MPD2    H212543   4.731   0.271  14.512 -1.6015  0.3161  1.0129
  850MPD2    H312544   0.216   0.346  14.445 -0.5993  2.4295 -1.2579
  850MPD2     N12545   0.298   0.535  14.840  0.7657  0.1851 -0.6840
  850MPD2    H512546   0.375   0.576  14.789  0.0391 -0.1385 -2.0348
  850MPD2    N112547   4.613   0.330  14.730  0.3735 -0.9814  0.3233
  850MPD2    H712548   4.556   0.277  14.665 -1.1584 -0.1246  0.9609
  851MPD2     C12549   0.168   0.252  15.277  0.5313  0.7349  0.2622
  851MPD2    C112550   0.134   0.156  15.182  0.4734  0.7113  0.0701
  851MPD2    C212551   0.227   0.058  15.152  0.1243 -0.4836  0.2889
  851MPD2    C312552   0.347   0.052  15.218  0.1899 -0.5639 -0.1670
  851MPD2    C412553   0.390   0.146  15.304  0.5933  0.3153 -0.0648
  851MPD2    C512554   0.295   0.247  15.331 -0.0446  0.3860  0.8997
  851MPD2     H12555   0.210   4.734  15.067  2.6591  0.5543 -0.9757
  851MPD2    H112556   0.479   0.145  15.366 -1.0138 -1.6859  2.1513
  851MPD2    H212557   0.098   0.331  15.301  0.3535  0.9620 -1.0080
  851MPD2    H312558   0.314   0.330  15.397  0.7708  0.3850  0.6639
  851MPD2     N12559   0.428   4.684  15.190 -0.5375 -0.6267 -0.3637
  851MPD2    H512560   0.390   4.612  15.130 -1.1240 -0.4034 -0.2626
  851MPD2    N112561   0.009   0.165  15.117  0.5561 -0.0026 -0.6343
  851MPD2    H712562   4.687   0.240  15.144 -0.5915  0.0207 -3.3087
  852MPD2     C12563   0.429   3.029  10.814 -0.5608  0.7343 -0.0241
  852MPD2    C112564   0.531   2.963  10.882  0.5579  0.6668  0.8188
  852MPD2    C212565   0.658   2.979  10.836  0.3304 -0.2952  0.2064
  852MPD2    C312566   0.682   3.058  10.727  0.8233  0.3391  0.4819
  852MPD2    C412567   0.583   3.113  10.651  0.3063 -0.1378 -0.1251
  852MPD2    C512568   0.454   3.102  10.699  0.0296  1.0166 -0.5204
  852MPD2     H12569   0.745   2.936  10.885  2.0566  0.7909 -1.8930
  852MPD2    H112570   0.596   3.175  10.562  0.1213 -1.0156 -0.7647
  852MPD2    H212571   0.323   3.021  10.836 -0.3210 -2.6539 -0.2431
  852MPD2    H312572   0.372   3.148  10.645  0.3691 -0.1879 -2.0951
  852MPD2     N12573   0.819   3.057  10.683  0.7767 -0.3222 -0.1462
  852MPD2    H512574   0.890   3.022  10.747 -0.2348 -1.0813  0.5497
  852MPD2    N112575   0.518   2.865  10.987 -0.5227 -0.0552 -0.2237
  852MPD2    H712576   0.604   2.827  11.024 -0.1342  0.9467 -0.0825
  853MPD2     C12577   1.247   2.217  12.676  0.2452  0.1608  0.8099
  853MPD2    C112578   1.307   2.271  12.570  0.1942 -0.0122 -0.4772
  853MPD2    C212579   1.304   2.210  12.447  0.1108 -0.2542  0.1852
  853MPD2    C312580   1.258   2.081  12.428 -0.5666 -0.9861 -0.1279
  853MPD2    C412581   1.189   2.027  12.537 -0.0839  0.3635 -0.4674
  853MPD2    C512582   1.187   2.096  12.654 -0.1928  0.1139 -0.3317
  853MPD2     H12583   1.361   2.254  12.366 -0.5183  0.7444  0.2824
  853MPD2    H112584   1.164   1.922  12.533 -0.4887  0.4972 -1.4847
  853MPD2    H212585   1.253   2.262  12.774  2.3806 -0.4125  0.9435
  853MPD2    H312586   1.158   2.043  12.743  0.2991  1.8163  0.8466
  853MPD2     N12587   1.266   2.005  12.310  0.4100 -0.3554  0.1855
  853MPD2    H512588   1.262   1.904  12.321  0.5974 -0.0925  2.5930
  853MPD2    N112589   1.365   2.391  12.595 -0.0904 -0.6331  0.0899
  853MPD2    H712590   1.354   2.422  12.691  4.3014  1.6592 -0.1327
  854MPD2     C12591   3.567   2.428  12.574  0.3672  0.1173  0.9875
  854MPD2    C112592   3.548   2.547  12.630  1.1078 -0.2967  0.0683
  854MPD2    C212593   3.606   2.571  12.755  0.6191 -0.0478 -0.2613
  854MPD2    C312594   3.673   2.461  12.824  0.0495  0.6899  0.8004
  854MPD2    C412595   3.673   2.336  12.768 -0.2915 -0.3807 -0.7438
  854MPD2    C512596   3.623   2.323  12.643  0.0945 -0.5155 -0.5278
  854MPD2     H12597   3.620   2.668  12.801  1.4956  0.7740 -2.2429
  854MPD2    H112598   3.729   2.259  12.821  0.8424  1.6375  0.9838
  854MPD2    H212599   3.529   2.409  12.475  2.2979  0.6219  0.1492
  854MPD2    H312600   3.628   2.226  12.594  0.6678 -1.2185  0.9279
  854MPD2     N12601   3.747   2.471  12.940  0.2713  0.2431  0.0023
  854MPD2    H512602   3.787   2.390  12.987  0.8057 -0.4133 -1.5858
  854MPD2    N112603   3.489   2.648  12.552  0.0466  0.4288  0.0610
  854MPD2    H712604   3.501   2.641  12.452 -0.3685 -1.1128  0.1114
  855MPD2     C12605   3.478   2.647  13.702 -0.3511  0.1652 -0.0706
  855MPD2    C112606   3.591   2.570  13.716 -0.2667 -0.3677 -0.3301
  855MPD2    C212607   3.686   2.601  13.625 -0.2200  0.4788 -0.6758
  855MPD2    C312608   3.675   2.707  13.534 -0.6062 -0.1546 -0.3114
  855MPD2    C412609   3.565   2.788  13.524  0.2641 -0.6876  0.1461
  855MPD2    C512610   3.465   2.748  13.607  0.9851  0.5184 -0.2449
  855MPD2     H12611   3.767   2.530  13.612 -1.3853 -0.6038 -2.0123
  855MPD2    H112612   3.559   2.874  13.458 -0.2697 -1.9243 -1.4100
  855MPD2    H212613   3.392   2.638  13.768  0.9117 -2.0037  1.2708
  855MPD2    H312614   3.372   2.805  13.606 -0.0780 -1.2155 -0.8105
  855MPD2     N12615   3.776   2.741  13.440 -0.1056  0.2282  0.0919
  855MPD2    H512616   3.757   2.809  13.367 -1.5305 -0.4295 -0.1605
  855MPD2    N112617   3.600   2.465  13.807  0.4495  0.5593 -0.9114
  855MPD2    H712618   3.513   2.432  13.846  0.3333 -0.3339 -1.9292
  856MPD2     C12619   1.305   3.075  14.251 -0.1171 -0.2305  0.4080
  856MPD2    C112620   1.309   3.210  14.274  0.5762  0.5191  1.0633
  856MPD2    C212621   1.207   3.291  14.243  0.6713 -0.0970 -0.2533
  856MPD2    C312622   1.103   3.247  14.160 -0.8904  0.2651  0.2202
  856MPD2    C412623   1.108   3.114  14.126  0.6158 -0.3982 -0.5767
  856MPD2    C512624   1.204   3.029  14.172  0.0475 -0.3024  0.6844
  856MPD2     H12625   1.222   3.396  14.263  0.0143 -0.2694  1.1584
  856MPD2    H112626   1.042   3.067  14.055  2.4339 -1.0132 -1.8656
  856MPD2    H212627   1.376   2.998  14.279 -0.7411 -0.9489  0.0044
  856MPD2    H312628   1.210   2.925  14.141  1.1803 -0.1294  0.3020
  856MPD2     N12629   0.994   3.335  14.116 -0.2292  0.1258 -0.6030
  856MPD2    H512630   0.927   3.283  14.060 -0.2288  0.7254 -1.1565
  856MPD2    N112631   1.423   3.275  14.318  0.4596  0.2439 -0.5011
  856MPD2    H712632   1.404   3.372  14.343 -2.5200 -0.5642  0.3810
  857MPD2     C12633   2.875   0.931  12.600 -0.3858 -0.3150  0.7609
  857MPD2    C112634   2.892   0.852  12.710 -0.2430  0.5388  0.6370
  857MPD2    C212635   2.905   0.905  12.838  0.3646  0.0906 -0.6179
  857MPD2    C312636   2.890   1.045  12.857  0.2841  0.5821 -0.0337
  857MPD2    C412637   2.856   1.123  12.743 -0.5300  0.4394  0.4716
  857MPD2    C512638   2.860   1.067  12.616 -1.1969  0.2034  0.0329
  857MPD2     H12639   2.919   0.852  12.931 -0.3940  0.2299 -0.4298
  857MPD2    H112640   2.826   1.227  12.747  0.0729  0.6753 -1.2072
  857MPD2    H212641   2.868   0.888  12.501  1.0916  1.7820 -0.2710
  857MPD2    H312642   2.845   1.119  12.522 -3.5065  0.2267  0.4146
  857MPD2     N12643   2.907   1.091  12.986 -0.8272 -0.2592 -0.7787
  857MPD2    H512644   2.925   1.023  13.060  1.6043  0.8540 -0.3669
  857MPD2    N112645   2.893   0.709  12.688 -0.0437  0.7253 -0.1029
  857MPD2    H712646   2.880   0.679  12.592 -0.6434 -0.3578  0.3196
  858MPD2     C12647   3.376   0.089  16.407 -0.4460 -0.1447 -0.8653
  858MPD2    C112648   3.391   4.717  16.492  0.0629  0.3278  0.0322
  858MPD2    C212649   3.363   4.735  16.623  0.2956  0.0717 -0.6391
  858MPD2    C312650   3.320   0.119  16.676  0.7476  0.2564 -0.7946
  858MPD2    C412651   3.293   0.218  16.593  0.6446 -0.3471  0.0657
  858MPD2    C512652   3.323   0.208  16.456 -0.1345  0.6882 -0.4014
  858MPD2     H12653   3.380   4.646  16.683  1.5304  0.4697 -0.4132
  858MPD2    H112654   3.240   0.309  16.620  0.9866  0.5618 -2.3175
  858MPD2    H212655   3.406   0.082  16.303 -0.3880 -1.3183 -0.7695
  858MPD2    H312656   3.307   0.294  16.392 -2.3217 -0.0848 -0.9107
  858MPD2     N12657   3.290   0.139  16.811 -0.3733 -0.4760  0.0018
  858MPD2    H512658   3.222   0.214  16.821  1.2411  1.2976 -2.2788
  858MPD2    N112659   3.435   4.591  16.454  0.2584  0.1467 -0.0237
  858MPD2    H712660   3.417   4.518  16.522  0.0715 -0.7105 -0.9916
  859MPD2     C12661   1.739   2.453  15.970 -0.0156  0.4652  0.3271
  859MPD2    C112662   1.701   2.424  15.837  0.0914 -0.4165  0.3908
  859MPD2    C212663   1.616   2.318  15.821  1.0587  0.1096 -0.3770
  859MPD2    C312664   1.564   2.250  15.929  0.0177 -0.3392 -0.4498
  859MPD2    C412665   1.595   2.286  16.060  0.1624 -0.4836 -0.1078
  859MPD2    C512666   1.689   2.382  16.078 -0.6605  0.0648  0.2001
  859MPD2     H12667   1.586   2.295  15.719 -0.8169  2.1459 -0.2987
  859MPD2    H112668   1.557   2.245  16.153  0.0593 -0.5116 -0.1623
  859MPD2    H212669   1.815   2.528  15.993 -0.4168  0.6353  1.0888
  859MPD2    H312670   1.720   2.399  16.181  1.2935 -0.6535 -0.2565
  859MPD2     N12671   1.492   2.129  15.916  0.3692 -0.2322  0.0861
  859MPD2    H512672   1.462   2.079  15.999  2.8066 -0.5235  0.7817
  859MPD2    N112673   1.763   2.500  15.732 -0.2999 -0.0040 -0.1100
  859MPD2    H712674   1.841   2.560  15.757  0.4971 -0.6734 -0.9960
  860MPD2     C12675   4.428   2.306  11.963  0.3175  0.1390 -0.0204
  860MPD2    C112676   4.527   2.300  12.061  0.1608  0.1905  0.4761
  860MPD2    C212677   4.518   2.201  12.159  0.0676 -0.7885  0.1483
  860MPD2    C312678   4.406   2.122  12.180 -0.8919  0.2493  0.1895
  860MPD2    C412679   4.299   2.140  12.084 -0.3664  1.2065 -0.1436
  860MPD2    C512680   4.318   2.220  11.972 -0.3531 -0.1414 -0.0803
  860MPD2     H12681   4.598   2.179  12.229 -1.6720  0.7111  2.6268
  860MPD2    H112682   4.208   2.082  12.084  1.1327 -1.1635 -1.2199
  860MPD2    H212683   4.423   2.379  11.882 -3.2173  0.2279  0.2738
  860MPD2    H312684   4.248   2.211  11.890 -0.0024  1.1777 -0.5303
  860MPD2     N12685   4.400   2.026  12.278  0.4468 -0.3616 -0.0212
  860MPD2    H512686   4.489   2.012  12.326  0.0562 -0.9386  0.5414
  860MPD2    N112687   4.638   2.384  12.067 -0.4078 -0.2817 -0.5651
  860MPD2    H712688   4.694   2.378  12.151  0.0505  1.3589 -0.7576
  861MPD2     C12689   3.772   0.419  11.191  0.4917  0.1895  0.0970
  861MPD2    C112690   3.644   0.448  11.234  0.0120 -0.2271 -0.8704
  861MPD2    C212691   3.547   0.473  11.138  0.2243  0.0619 -0.3246
  861MPD2    C312692   3.572   0.449  11.001 -0.9258 -0.3433 -0.1328
  861MPD2    C412693   3.700   0.429  10.957  0.6003  0.6985  0.2756
  861MPD2    C512694   3.797   0.405  11.052  0.3964 -0.1441 -0.1712
  861MPD2     H12695   3.450   0.512  11.167  0.6108 -0.2104  1.3399
  861MPD2    H112696   3.713   0.422  10.849 -1.6884 -1.5715  0.1511
  861MPD2    H212697   3.859   0.400  11.252 -0.0784 -0.0056  0.8549
  861MPD2    H312698   3.900   0.387  11.021  0.6613  1.4302 -0.1931
  861MPD2     N12699   3.475   0.471  10.901 -0.4068 -0.2114  0.2256
  861MPD2    H512700   3.503   0.456  10.804  1.5670  0.0253  0.7634
  861MPD2    N112701   3.609   0.465  11.371  0.0645  0.6305  0.4756
  861MPD2    H712702   3.511   0.485  11.386 -0.0742  0.1308  0.2245
  862MPD2     C12703   3.668   0.386  10.544  0.1145  0.6059  0.0165
  862MPD2    C112704   3.540   0.414  10.497 -0.9995  0.6419  0.0857
  862MPD2    C212705   3.446   0.316  10.524  0.1881  0.1630 -0.0069
  862MPD2    C312706   3.472   0.194  10.593 -0.3021  0.5551 -0.0682
  862MPD2    C412707   3.602   0.178  10.640  0.1252  0.0504 -0.7900
  862MPD2    C512708   3.694   0.272  10.615  0.1476 -0.0895 -0.0512
  862MPD2     H12709   3.342   0.336  10.500 -0.0742 -0.9547  0.2171
  862MPD2    H112710   3.636   0.083  10.678  0.1285  0.4193  0.1139
  862MPD2    H212711   3.750   0.456  10.534 -1.2307  2.0918 -0.7436
  862MPD2    H312712   3.796   0.241  10.635 -0.0179 -0.3711  0.3571
  862MPD2     N12713   3.383   0.084  10.606  0.1152 -0.0740  0.1802
  862MPD2    H512714   3.419   0.007  10.663  1.1104  0.1331 -0.1644
  862MPD2    N112715   3.514   0.534  10.437 -0.0588 -0.2466  0.4106
  862MPD2    H712716   3.596   0.579  10.398 -0.0830 -1.5846 -1.1925
  863MPD2     C12717   1.353   4.106  16.881  0.0243 -0.1699 -0.7294
  863MPD2    C112718   1.323   3.977  16.902  0.0135 -0.0334 -0.3850
  863MPD2    C212719   1.422   3.891  16.950 -0.9526  0.2045 -0.6291
  863MPD2    C312720   1.548   3.934  16.984 -0.5044  0.2460 -0.1941
  863MPD2    C412721   1.568   4.069  16.966 -0.1897 -0.1879  0.5521
  863MPD2    C512722   1.475   4.157  16.915 -0.3069  0.1530 -0.6266
  863MPD2     H12723   1.396   3.790  16.980  1.8276 -0.6500 -1.0313
  863MPD2    H112724   1.661   4.116  16.995  0.5296 -0.7392 -0.8388
  863MPD2    H212725   1.271   4.175  16.865  1.7328  1.7161 -1.3785
  863MPD2    H312726   1.494   4.263  16.924 -2.0348  0.4768 -0.8519
  863MPD2     N12727   1.650   3.854  17.046 -0.1436 -0.2306  0.2852
  863MPD2    H512728   1.726   3.911  17.079 -0.6026 -0.0809  1.0851
  863MPD2    N112729   1.193   3.926  16.867  0.4891 -0.2286  0.2983
  863MPD2    H712730   1.128   3.998  16.836  1.3916  0.9878  1.2296
  864MPD2     C12731   2.026   4.675  17.623 -0.1268  0.1006  0.3115
  864MPD2    C112732   2.094   4.605  17.535  0.3769 -0.3680  0.1754
  864MPD2    C212733   2.174   4.675  17.450 -0.5262  0.3560 -0.5535
  864MPD2    C312734   2.193   0.076  17.461  0.1746  0.4531 -0.5393
  864MPD2    C412735   2.120   0.146  17.555  0.0882  0.0102  0.0506
  864MPD2    C512736   2.036   0.073  17.635 -0.4543 -0.5461 -0.6321
  864MPD2     H12737   2.222   4.627  17.365 -0.0167  1.2801 -0.7841
  864MPD2    H112738   2.126   0.252  17.574 -0.4614 -0.1631  1.2122
  864MPD2    H212739   1.958   4.628  17.693  1.4574 -0.5912  1.4083
  864MPD2    H312740   1.981   0.108  17.721  1.1957  0.8620 -0.1591
  864MPD2     N12741   2.266   0.153  17.372 -0.4992 -0.1712  0.0690
  864MPD2    H512742   2.285   0.247  17.405  0.0936  1.0342 -3.6877
  864MPD2    N112743   2.068   4.468  17.517 -0.1888  0.3711  0.0954
  864MPD2    H712744   1.987   4.434  17.567  1.0929 -3.3327 -0.3658
  865MPD2     C12745   1.980   0.152  16.916 -0.1639  0.5019 -0.7597
  865MPD2    C112746   2.113   0.185  16.885 -0.2440 -0.3399 -0.1975
  865MPD2    C212747   2.161   0.312  16.925  0.1234 -0.1109 -0.4125
  865MPD2    C312748   2.084   0.404  16.994 -0.3020  0.1631  0.0461
  865MPD2    C412749   1.955   0.368  17.014  0.3732  0.0796  0.1293
  865MPD2    C512750   1.910   0.243  16.982  0.0974  0.2700  0.2941
  865MPD2     H12751   2.261   0.341  16.893 -0.0888  1.2385  0.1587
  865MPD2    H112752   1.897   0.441  17.069 -1.0781 -2.2047  1.6267
  865MPD2    H212753   1.933   0.059  16.884  1.8529 -0.9832  0.5673
  865MPD2    H312754   1.805   0.218  16.994  0.5690 -2.2451 -0.6657
  865MPD2     N12755   2.142   0.529  17.034  0.0408 -0.3987  0.2772
  865MPD2    H512756   2.082   0.610  17.040 -1.0788 -1.2275  0.1225
  865MPD2    N112757   2.185   0.102  16.795 -0.3832  0.6471 -0.0660
  865MPD2    H712758   2.139   0.015  16.772  0.5222  0.2077 -0.2147
  866MPD2     C12759   3.758   0.750  11.719 -0.7514 -0.2848 -0.3443
  866MPD2    C112760   3.818   0.732  11.595 -0.0333  0.1869  0.2216
  866MPD2    C212761   3.754   0.769  11.481 -0.1225 -1.0915  0.4643
  866MPD2    C312762   3.626   0.825  11.493  0.2340  0.1680 -0.2953
  866MPD2    C412763   3.565   0.833  11.618 -0.0565 -0.0495  0.9934
  866MPD2    C512764   3.631   0.798  11.727 -0.2924  0.0004  0.3786
  866MPD2     H12765   3.807   0.764  11.386 -1.0300  0.2526 -0.1150
  866MPD2    H112766   3.462   0.866  11.626 -0.9498 -2.2388 -1.7902
  866MPD2    H212767   3.797   0.706  11.810  0.3373  1.3113 -0.0545
  866MPD2    H312768   3.584   0.814  11.824 -0.3597  0.0017  0.3458
  866MPD2     N12769   3.548   0.862  11.378 -0.2511  0.0449 -0.0012
  866MPD2    H512770   3.453   0.891  11.397 -0.3196  0.9309 -1.6715
  866MPD2    N112771   3.943   0.661  11.575  0.0858 -0.2665 -0.7905
  866MPD2    H712772   3.972   0.651  11.478 -1.5656 -1.6534 -1.1363
  867MPD2     C12773   0.573   0.021  16.252  0.0820 -0.6495  0.2619
  867MPD2    C112774   0.626   4.733  16.383 -0.0292 -0.5625  0.7814
  867MPD2    C212775   0.591   0.082  16.483 -0.4352 -0.0680 -0.1291
  867MPD2    C312776   0.528   0.203  16.455  0.4227 -0.0694 -0.2057
  867MPD2    C412777   0.494   0.232  16.325  0.6159 -0.1510  0.2585
  867MPD2    C512778   0.509   0.138  16.228 -0.8372  0.1378 -0.3365
  867MPD2     H12779   0.607   0.047  16.585  1.2204 -1.3886 -0.8477
  867MPD2    H112780   0.452   0.327  16.291 -1.8272 -0.9417  1.0315
  867MPD2    H212781   0.578   4.686  16.174  0.1289  1.8875 -2.2049
  867MPD2    H312782   0.472   0.156  16.128 -1.6326 -2.7277 -0.5414
  867MPD2     N12783   0.504   0.288  16.560  0.2113 -0.0502  0.3005
  867MPD2    H512784   0.426   0.352  16.552  0.4274  0.2459  0.5836
  867MPD2    N112785   0.689   4.610  16.400  0.3257  0.5953 -0.5974
  867MPD2    H712786   0.707   4.556  16.315 -0.3947  0.3507 -0.5927
  868MPD2     C12787   3.203   3.792  13.293  0.1848 -0.5743 -0.5099
  868MPD2    C112788   3.271   3.725  13.391  0.0748 -0.4768 -0.3828
  868MPD2    C212789   3.206   3.704  13.514 -0.3698 -0.5642 -0.6257
  868MPD2    C312790   3.074   3.748  13.537 -0.0735 -1.0796  0.5732
  868MPD2    C412791   3.006   3.808  13.428 -0.3639 -0.1923 -0.3448
  868MPD2    C512792   3.078   3.833  13.315  0.5349 -0.1876  0.4722
  868MPD2     H12793   3.248   3.628  13.579  0.8183 -0.0442 -0.7777
  868MPD2    H112794   2.902   3.840  13.420 -1.0298 -1.9454  1.3462
  868MPD2    H212795   3.250   3.806  13.195  0.1766 -0.7978 -0.5457
  868MPD2    H312796   3.036   3.885  13.230  1.4924  0.3488  0.3270
  868MPD2     N12797   3.018   3.736  13.669 -0.1699  0.3526 -0.6837
  868MPD2    H512798   3.085   3.700  13.736  1.0489  1.2677 -1.4010
  868MPD2    N112799   3.403   3.694  13.365  0.1492  0.0943 -0.7378
  868MPD2    H712800   3.445   3.740  13.285  2.7837  0.2849  0.7789
  869MPD2     C12801   3.558   1.877   0.495  0.1019  0.3186 -0.1606
  869MPD2    C112802   3.646   1.950   0.431  0.1514 -0.1583 -0.4742
  869MPD2    C212803   3.753   1.886   0.368  0.1308 -0.1609  0.3862
  869MPD2    C312804   3.793   1.757   0.410 -0.5240  0.0984 -0.1697
  869MPD2    C412805   3.699   1.680   0.483  0.4903 -0.2931 -0.2364
  869MPD2    C512806   3.578   1.742   0.517  0.0118 -0.1437 -0.1697
  869MPD2     H12807   3.822   1.934   0.299  0.1137  0.0658  0.5288
  869MPD2    H112808   3.714   1.578   0.519  0.3748 -1.0852 -2.4809
  869MPD2    H212809   3.472   1.927   0.538  0.1015 -0.2735  0.5425
  869MPD2    H312810   3.510   1.687   0.582 -0.8850 -0.0413 -1.0300
  869MPD2     N12811   3.915   1.696   0.387  0.4743 -0.3513 -0.0438
  869MPD2    H512812   3.919   1.597   0.409  3.1066 -0.1375  0.4173
  869MPD2    N112813   3.633   2.091   0.431  0.2358  0.1101  0.5465
  869MPD2    H712814   3.556   2.130   0.484 -0.4191 -0.0028 -0.3211
  870MPD2     C12815   3.557   1.264   1.627  0.2427  0.0496  0.4384
  870MPD2    C112816   3.538   1.175   1.522  0.0920  0.0339 -0.4005
  870MPD2    C212817   3.422   1.179   1.454 -0.6224 -0.5359 -0.2056
  870MPD2    C312818   3.317   1.244   1.515 -0.5798  0.6743 -0.0409
  870MPD2    C412819   3.328   1.325   1.633  0.1946 -0.3578  0.3326
  870MPD2    C512820   3.452   1.341   1.681  0.3127 -0.4259  0.2839
  870MPD2     H12821   3.396   1.123   1.365 -0.9670 -0.0046 -0.4408
  870MPD2    H112822   3.246   1.377   1.680 -0.8026  1.5498 -3.4479
  870MPD2    H212823   3.658   1.264   1.666  0.2382 -0.3211  0.4532
  870MPD2    H312824   3.480   1.402   1.766  1.7845 -1.3154  0.4371
  870MPD2     N12825   3.192   1.236   1.447 -0.1846  0.4848  0.0688
  870MPD2    H512826   3.184   1.178   1.364 -1.2329 -1.5164  1.5718
  870MPD2    N112827   3.636   1.079   1.495 -0.0254 -0.8909 -0.5238
  870MPD2    H712828   3.717   1.068   1.555 -1.7295 -4.0071  1.2100
  871MPD2     C12829   4.545   0.329  16.257 -0.2475 -0.0475 -0.2024
  871MPD2    C112830   4.540   0.263  16.371  0.2238 -0.2593  0.5022
  871MPD2    C212831   4.585   0.129  16.372  0.7042 -0.5814 -0.1258
  871MPD2    C312832   4.643   0.072  16.258  0.6786  0.4642  0.6086
  871MPD2    C412833   4.649   0.149  16.142 -0.1414 -0.6802 -0.2551
  871MPD2    C512834   4.602   0.277  16.143  0.6904  0.2087 -0.3689
  871MPD2     H12835   4.583   0.073  16.464  0.9115  2.4972  1.7705
  871MPD2    H112836   4.673   0.103  16.047 -0.0807  1.2623 -1.1847
  871MPD2    H212837   4.518   0.433  16.246  1.7174  0.4681 -0.0651
  871MPD2    H312838   4.607   0.326  16.047  0.1099 -1.4086 -1.2250
  871MPD2     N12839   4.690   4.681  16.275  0.0219 -0.0999 -0.0102
  871MPD2    H512840   4.680   4.642  16.368 -0.4357 -0.1405 -0.0778
  871MPD2    N112841   4.486   0.330  16.479 -0.7649  0.6198 -0.6740
  871MPD2    H712842   4.480   0.430  16.467 -0.7417  0.6609 -0.3318
  872MPD2     C12843   1.270   2.488  14.078 -0.0743  0.0559 -0.5443
  872MPD2    C112844   1.250   2.615  14.028  0.2961  0.6486 -0.3462
  872MPD2    C212845   1.136   2.680  14.067 -0.8509  0.5568  0.2337
  872MPD2    C312846   1.031   2.607  14.121  0.1436 -0.1015  0.3255
  872MPD2    C412847   1.056   2.478  14.161 -0.2075 -0.6639 -0.2875
  872MPD2    C512848   1.174   2.417  14.143  0.5230  0.1671 -0.0426
  872MPD2     H12849   1.120   2.781  14.030 -1.9144 -0.2804 -1.6280
  872MPD2    H112850   0.982   2.425  14.219 -0.0522 -0.5256  0.0378
  872MPD2    H212851   1.368   2.447  14.057  0.7696  1.1726  1.2201
  872MPD2    H312852   1.192   2.322  14.191  3.2749  1.3867  1.2934
  872MPD2     N12853   0.919   2.673  14.176 -0.6131  0.5566 -0.6915
  872MPD2    H512854   0.869   2.618  14.245  0.2511 -0.5235 -0.9316
  872MPD2    N112855   1.362   2.670  13.955 -0.0081 -0.0362  0.0847
  872MPD2    H712856   1.445   2.611  13.950 -0.6912 -1.0288  0.5287
  873MPD2     C12857   1.992   2.963   0.949  0.1759  0.2135  0.3779
  873MPD2    C112858   2.121   2.922   0.934  0.0766 -0.1014 -0.0837
  873MPD2    C212859   2.144   2.805   0.859 -0.0693 -0.2502 -0.7024
  873MPD2    C312860   2.033   2.734   0.815  0.3734  0.2439 -0.7264
  873MPD2    C412861   1.907   2.780   0.836 -0.7121 -0.3354 -0.3943
  873MPD2    C512862   1.893   2.898   0.897 -0.9831 -0.0423 -0.3161
  873MPD2     H12863   2.243   2.761   0.852  0.2339  0.2442  0.4490
  873MPD2    H112864   1.826   2.739   0.778  0.2617 -0.7139 -1.4824
  873MPD2    H212865   1.964   3.061   0.988 -0.1570 -0.4083  1.6917
  873MPD2    H312866   1.797   2.948   0.896 -1.5537 -1.1135  0.6169
  873MPD2     N12867   2.045   2.600   0.760  0.0292  0.3897 -0.4319
  873MPD2    H512868   1.960   2.553   0.730  1.0195 -2.2341  0.8944
  873MPD2    N112869   2.223   3.012   0.974  0.4796 -0.0566  0.8647
  873MPD2    H712870   2.196   3.105   1.002  0.3910  0.1205  0.1836
  874MPD2     C12871   1.695   2.922  16.544  0.0206  0.2054  0.0709
  874MPD2    C112872   1.777   2.920  16.645 -1.4041  0.6800  0.7368
  874MPD2    C212873   1.881   3.014  16.644 -0.2497 -0.5171  0.4564
  874MPD2    C312874   1.894   3.108  16.538 -0.2414  0.3854  0.1556
  874MPD2    C412875   1.804   3.106  16.437 -0.5592 -0.3353 -0.1088
  874MPD2    C512876   1.701   3.016  16.447 -0.4666 -0.0365  0.1426
  874MPD2     H12877   1.952   3.023  16.726 -0.5863 -0.6833  0.7661
  874MPD2    H112878   1.816   3.173  16.352 -0.3626 -1.3244 -0.8514
  874MPD2    H212879   1.631   2.840  16.513 -1.9105  1.1655  1.5626
  874MPD2    H312880   1.639   3.006  16.358  1.3011  0.3561 -1.1261
  874MPD2     N12881   1.999   3.200  16.553  0.4569 -0.9584  0.0135
  874MPD2    H512882   2.059   3.186  16.634 -1.3319 -2.4747  1.0781
  874MPD2    N112883   1.768   2.818  16.743  0.0852 -0.3981  0.9654
  874MPD2    H712884   1.688   2.756  16.746 -1.6228  1.6807 -1.1645
  875MPD2     C12885   3.193   1.056  14.770  0.3597 -0.6861  0.0749
  875MPD2    C112886   3.080   1.033  14.849  0.2839  0.2578 -0.1435
  875MPD2    C212887   3.075   1.082  14.978 -0.4990  0.6449 -0.4356
  875MPD2    C312888   3.185   1.148  15.033  0.4090 -0.1407  0.1311
  875MPD2    C412889   3.301   1.159  14.952 -0.6986  0.5941 -0.2144
  875MPD2    C512890   3.304   1.107  14.828 -0.0283 -0.3032 -0.3673
  875MPD2     H12891   2.985   1.067  15.036  0.5757 -0.8376  0.8383
  875MPD2    H112892   3.378   1.226  14.987 -0.5908  0.0474  0.5924
  875MPD2    H212893   3.195   1.054  14.662  2.2477  1.0109  0.0756
  875MPD2    H312894   3.384   1.150  14.768 -0.2212 -0.2708 -0.5992
  875MPD2     N12895   3.189   1.202  15.160  0.7086  0.3230  0.6299
  875MPD2    H512896   3.267   1.265  15.174  0.0502  1.0865  0.8222
  875MPD2    N112897   2.971   0.978  14.785 -0.2369 -0.5880  0.1584
  875MPD2    H712898   2.889   0.955  14.841 -1.1642 -0.2309 -1.0684
  876MPD2     C12899   2.381   2.621  16.394  0.0080  0.1508  0.5932
  876MPD2    C112900   2.326   2.583  16.269 -0.4036  0.7281  0.3766
  876MPD2    C212901   2.255   2.464  16.255  0.1770  1.1226  0.0812
  876MPD2    C312902   2.226   2.389  16.364  0.3477  0.9953  0.2364
  876MPD2    C412903   2.289   2.418  16.484  0.2235  0.1341  0.2274
  876MPD2    C512904   2.366   2.531  16.498  0.0411 -0.5470 -0.6183
  876MPD2     H12905   2.216   2.435  16.158  1.5631 -0.9588  0.1307
  876MPD2    H112906   2.286   2.353  16.571  0.0725  1.4549  1.2101
  876MPD2    H212907   2.439   2.713  16.403 -0.6515  0.6297 -0.0733
  876MPD2    H312908   2.426   2.546  16.587 -2.1994  2.1265  0.4581
  876MPD2     N12909   2.155   2.274  16.344 -0.1302 -0.0543  0.1968
  876MPD2    H512910   2.137   2.248  16.248 -1.5986  0.3714  0.3610
  876MPD2    N112911   2.349   2.671  16.166 -0.2145 -0.1224  0.1473
  876MPD2    H712912   2.424   2.737  16.181 -0.6317 -0.1609  2.2830
  877MPD2     C12913   2.067   2.964  15.409  0.2377  0.1672 -0.3431
  877MPD2    C112914   2.203   2.990  15.431  0.1802 -0.0021 -0.5457
  877MPD2    C212915   2.283   3.014  15.317  0.7138 -0.4931  0.4244
  877MPD2    C312916   2.233   3.000  15.192 -0.4001  0.3375 -0.0488
  877MPD2    C412917   2.108   2.967  15.174 -0.6452 -0.0384 -0.3646
  877MPD2    C512918   2.023   2.958  15.280 -0.7468  0.1714 -0.2911
  877MPD2     H12919   2.386   3.043  15.330 -0.1654  2.6725  0.4349
  877MPD2    H112920   2.082   2.948  15.070 -0.5603  2.5169 -0.8644
  877MPD2    H212921   1.996   2.954  15.491  0.5820  0.4098 -0.0160
  877MPD2    H312922   1.920   2.931  15.262 -0.3263  0.1642 -2.8093
  877MPD2     N12923   2.305   3.014  15.067  0.0029 -0.4898  0.7241
  877MPD2    H512924   2.262   2.994  14.978 -0.8096 -1.8480  1.4237
  877MPD2    N112925   2.259   2.994  15.557  0.3786  0.0128  0.0637
  877MPD2    H712926   2.359   3.014  15.563  0.2095  0.8524  0.0920
  878MPD2     C12927   2.657   1.785  13.487 -0.5365 -0.4688  0.1887
  878MPD2    C112928   2.636   1.916  13.453  0.8085  0.1529 -0.2357
  878MPD2    C212929   2.626   2.003  13.564  0.1310 -0.3248 -0.6378
  878MPD2    C312930   2.639   1.957  13.694 -0.5082 -0.1053  0.8062
  878MPD2    C412931   2.681   1.832  13.717  0.3819  0.3247 -0.8332
  878MPD2    C512932   2.677   1.742  13.614  0.0909  0.1617  0.2088
  878MPD2     H12933   2.610   2.109  13.554 -1.3146 -0.3785  0.9329
  878MPD2    H112934   2.692   1.792  13.817 -1.3768  1.4620 -0.1974
  878MPD2    H212935   2.646   1.710  13.409  0.7344  1.1310 -1.5312
  878MPD2    H312936   2.709   1.639  13.628 -2.9143 -0.8069 -0.0174
  878MPD2     N12937   2.623   2.051  13.792  0.3836  0.3892 -0.5649
  878MPD2    H512938   2.618   2.143  13.750 -0.0239  0.2803 -0.7472
  878MPD2    N112939   2.583   1.947  13.322 -0.4426 -0.1320  0.8625
  878MPD2    H712940   2.575   1.870  13.256 -0.2113  1.4878 -1.0654
  879MPD2     C12941   2.820   3.021  17.051  0.4101  0.6552  0.2233
  879MPD2    C112942   2.771   3.002  17.181  0.2731  0.0365  0.2905
  879MPD2    C212943   2.636   2.996  17.202  0.4188 -0.0088  0.5645
  879MPD2    C312944   2.544   3.020  17.100 -0.2618 -0.5635  0.2326
  879MPD2    C412945   2.594   3.039  16.970 -0.3007 -0.2836 -0.2254
  879MPD2    C512946   2.732   3.030  16.945 -0.1902  0.0774 -0.4311
  879MPD2     H12947   2.602   2.982  17.304 -0.0994  0.6568  0.4736
  879MPD2    H112948   2.524   3.061  16.890  0.3395 -2.5497 -1.4109
  879MPD2    H212949   2.927   3.015  17.030  0.4678  1.4727  0.2699
  879MPD2    H312950   2.764   3.036  16.841 -0.3651  1.8287 -0.3834
  879MPD2     N12951   2.401   3.032  17.119  0.0327  0.6381  0.1448
  879MPD2    H512952   2.346   3.067  17.041  0.7878  0.8963 -0.2824
  879MPD2    N112953   2.862   3.013  17.288  0.0651 -0.3990 -0.2448
  879MPD2    H712954   2.957   3.029  17.256  0.5348 -0.0432  1.2881
  880MPD2     C12955   3.323   0.303   0.085  0.4725 -0.4777 -0.4714
  880MPD2    C112956   3.352   0.355   0.209  0.6158  0.2912  0.0981
  880MPD2    C212957   3.423   0.285   0.304  0.4633  0.0179 -0.1567
  880MPD2    C312958   3.458   0.152   0.285 -0.3349  0.4614  0.0402
  880MPD2    C412959   3.394   0.096   0.177 -0.0111  0.4691 -0.0340
  880MPD2    C512960   3.333   0.170   0.074 -0.4589  0.8399  0.3342
  880MPD2     H12961   3.475   0.341   0.382  1.5603 -0.4921 -0.5159
  880MPD2    H112962   3.406   4.731   0.156 -0.3485  0.2744  0.7257
  880MPD2    H212963   3.285   0.364   0.004 -0.3339 -2.2201 -1.4127
  880MPD2    H312964   3.291   0.117  17.747  2.2876 -0.2671 -0.3404
  880MPD2     N12965   3.523   0.073   0.382  0.2307  0.1728  0.5320
  880MPD2    H512966   3.560   0.120   0.464 -0.0164 -2.5760  2.2111
  880MPD2    N112967   3.327   0.495   0.227 -0.1893  0.4874  0.8187
  880MPD2    H712968   3.277   0.540   0.151  1.4784 -0.6650 -0.9291
  881MPD2     C12969   3.555   1.383  17.607 -0.4821  0.0974 -0.1029
  881MPD2    C112970   3.620   1.260  17.630  0.2096 -0.2952  0.1279
  881MPD2    C212971   3.559   1.160  17.710 -0.2387 -0.6083 -0.4191
  881MPD2    C312972   3.442   1.186   0.023 -0.4932  0.0699 -0.0214
  881MPD2    C412973   3.381   1.311   0.004  0.7018  0.2291  0.1420
  881MPD2    C512974   3.431   1.402  17.667  1.1477 -0.1333  0.2065
  881MPD2     H12975   3.600   1.060  17.708 -1.1608 -1.0163  1.2075
  881MPD2    H112976   3.282   1.333   0.043 -0.0886 -0.5800 -1.4004
  881MPD2    H212977   3.588   1.444  17.523 -0.3120  1.6975  1.1354
  881MPD2    H312978   3.377   1.493  17.643 -1.3643 -1.4390  0.9319
  881MPD2     N12979   3.373   1.101   0.110  0.0412  0.3429  0.1595
  881MPD2    H512980   3.291   1.134   0.161  1.0889 -2.1659  3.4722
  881MPD2    N112981   3.701   1.230  17.514  0.2771 -0.0215 -0.1458
  881MPD2    H712982   3.723   1.311  17.458 -0.4651 -0.5443 -1.1916
  882MPD2     C12983   2.404   2.729  14.365 -0.4647 -0.7233 -0.6432
  882MPD2    C112984   2.326   2.818  14.438 -0.2487 -0.0130 -0.1627
  882MPD2    C212985   2.189   2.816  14.421  0.0492  0.8646  0.3644
  882MPD2    C312986   2.122   2.722  14.343 -1.0690  0.1782  0.8627
  882MPD2    C412987   2.198   2.633  14.274  0.6174  0.1555 -0.4559
  882MPD2    C512988   2.336   2.644  14.279  0.4343  0.0117 -0.2581
  882MPD2     H12989   2.125   2.900  14.449  0.2652  1.2369 -0.2600
  882MPD2    H112990   2.162   2.557  14.204 -0.0102 -0.1761  0.2318
  882MPD2    H212991   2.512   2.728  14.373 -0.5252 -0.9168  0.1655
  882MPD2    H312992   2.384   2.577  14.208  0.3382 -3.4580  2.9055
  882MPD2     N12993   1.988   2.727  14.318 -0.5142 -0.3680  0.7090
  882MPD2    H512994   1.964   2.655  14.251  1.9218 -0.9164  0.4218
  882MPD2    N112995   2.398   2.916  14.511 -0.1051 -0.2260  0.2320
  882MPD2    H712996   2.499   2.906  14.511 -0.1198 -0.3673  0.7919
  883MPD2     C12997   4.371   2.835  16.552  0.2203 -0.5773  0.0851
  883MPD2    C112998   4.446   2.870  16.441  0.0245 -0.7557 -0.0114
  883MPD2    C212999   4.568   2.936  16.469  0.2455 -0.1177  0.0444
  883MPD2    C313000   4.624   2.935  16.593 -0.2962  0.5875 -0.2002
  883MPD2    C413001   4.559   2.873  16.697  1.0476 -0.4156 -0.6973
  883MPD2    C513002   4.432   2.823  16.675  0.0583 -0.1845  0.3551
  883MPD2     H13003   4.624   2.974  16.384  0.6989 -1.9488 -0.4764
  883MPD2    H113004   4.602   2.865  16.796  0.9229  1.4374 -0.4950
  883MPD2    H213005   4.264   2.822  16.555  0.2551 -0.6461  1.0098
  883MPD2    H313006   4.380   2.781  16.761 -2.8740 -1.7078 -2.1993
  883MPD2     N13007   0.004   3.008  16.612  0.0544  0.2571  0.3414
  883MPD2    H513008   0.029   3.066  16.532  0.9609  0.6863  0.9426
  883MPD2    N113009   4.386   2.882  16.316 -0.4397 -0.0840  1.2315
  883MPD2    H713010   4.426   2.945  16.246 -1.9857 -0.2370  0.2164
  884MPD2     C13011   1.366   3.444  15.460  0.4372  0.8221  0.1644
  884MPD2    C113012   1.379   3.579  15.446 -0.8690  0.1437 -0.2612
  884MPD2    C213013   1.270   3.661  15.431  0.7385 -0.4859  0.1521
  884MPD2    C313014   1.135   3.606  15.426 -0.1103 -0.1353  0.1034
  884MPD2    C413015   1.129   3.466  15.432 -0.5896  0.1082  0.3502
  884MPD2    C513016   1.242   3.391  15.437 -1.0960  0.7717  0.3240
  884MPD2     H13017   1.275   3.770  15.432  2.0354 -0.5370 -0.5231
  884MPD2    H113018   1.036   3.411  15.427 -1.4464  1.3409  2.5882
  884MPD2    H213019   1.450   3.376  15.469 -1.5386 -1.7525 -0.8300
  884MPD2    H313020   1.226   3.286  15.418 -0.2501  0.5420  0.8837
  884MPD2     N13021   1.033   3.690  15.387  0.3305  0.3748  0.7080
  884MPD2    H513022   1.066   3.781  15.356  1.4736 -0.0365  0.6983
  884MPD2    N113023   1.508   3.635  15.448  0.1504 -0.2063 -0.1727
  884MPD2    H713024   1.519   3.736  15.439 -0.4912 -0.1566 -0.4233
  885MPD2     C13025   3.873   3.729   0.223 -1.5337  0.1265 -0.2828
  885MPD2    C113026   4.000   3.703   0.175 -0.0274 -0.4132 -0.1984
  885MPD2    C213027   4.023   3.711   0.037 -0.1333 -0.0297 -0.0571
  885MPD2    C313028   3.925   3.745  17.710  0.3617  0.2622 -0.5287
  885MPD2    C413029   3.795   3.763   0.001 -0.8743 -0.0873  0.4458
  885MPD2    C513030   3.775   3.761   0.133 -0.3384  0.3679 -0.0376
  885MPD2     H13031   4.124   3.729   0.004  0.4665  0.1686  1.8728
  885MPD2    H113032   3.702   3.782  17.707 -2.1071 -1.0327  2.3051
  885MPD2    H213033   3.853   3.735   0.329 -1.0437  1.5936 -0.2856
  885MPD2    H313034   3.675   3.781   0.168  0.0755 -0.2082  1.5142
  885MPD2     N13035   3.962   3.757  17.578 -0.1186  0.0798  0.2710
  885MPD2    H513036   4.058   3.730  17.560 -0.6316 -0.7508 -1.1964
  885MPD2    N113037   4.096   3.680   0.280  0.0182 -0.0687  0.2759
  885MPD2    H713038   4.059   3.691   0.374 -1.2614  1.9920 -0.4626
  886MPD2     C13039   0.432   2.388  15.440 -0.2823 -0.3784 -0.7186
  886MPD2    C113040   0.566   2.366  15.402  1.2474  0.5080  0.0620
  886MPD2    C213041   0.647   2.462  15.356 -0.0016  0.3189 -0.0223
  886MPD2    C313042   0.601   2.589  15.341 -0.0899  0.0440 -0.1632
  886MPD2    C413043   0.471   2.619  15.377 -0.3845  0.2930 -0.1161
  886MPD2    C513044   0.384   2.520  15.427  0.1092 -0.4885  0.6100
  886MPD2     H13045   0.747   2.429  15.329 -0.0712  0.8784 -0.9530
  886MPD2    H113046   0.436   2.722  15.372 -2.5622 -0.5500 -1.9723
  886MPD2    H213047   0.366   2.312  15.480  2.3579 -2.4387 -0.2440
  886MPD2    H313048   0.281   2.543  15.454 -0.3090 -0.0354 -1.3950
  886MPD2     N13049   0.682   2.698  15.286  0.2041  0.3059 -0.1168
  886MPD2    H513050   0.625   2.777  15.259 -0.8238 -0.8221 -1.2577
  886MPD2    N113051   0.642   2.257  15.447  0.1352  0.0113 -0.4008
  886MPD2    H713052   0.741   2.264  15.430 -0.0322 -0.2011 -1.4953
  887MPD2     C13053   1.051   2.159  15.918 -0.4094 -0.5758  0.2585
  887MPD2    C113054   1.102   2.186  15.794  0.1779  0.2853 -0.2081
  887MPD2    C213055   1.174   2.302  15.781  0.0981  0.0183 -0.2711
  887MPD2    C313056   1.211   2.379  15.890 -0.4340  0.7790  0.1791
  887MPD2    C413057   1.163   2.340  16.015  0.0801 -0.0680 -0.0752
  887MPD2    C513058   1.083   2.236  16.024  0.3034 -0.1112  0.8068
  887MPD2     H13059   1.207   2.326  15.681  1.4722  1.3938  0.5301
  887MPD2    H113060   1.181   2.399  16.104 -2.2562 -0.0943  0.4145
  887MPD2    H213061   0.971   2.086  15.919  0.0474 -1.0996 -1.0500
  887MPD2    H313062   1.031   2.215  16.117  1.8190  1.2471  1.9542
  887MPD2     N13063   1.290   2.491  15.868 -0.1174  0.6551  0.0347
  887MPD2    H513064   1.319   2.507  15.772 -1.0734  0.2268 -0.3264
  887MPD2    N113065   1.052   2.124  15.677 -0.0629  0.7271 -0.1549
  887MPD2    H713066   1.057   2.173  15.589  0.4380 -0.7698 -0.9641
  888MPD2     C13067   3.387   2.358  14.938 -0.8002 -0.4928  0.1689
  888MPD2    C113068   3.294   2.432  15.019 -0.3219  0.3740  0.3267
  888MPD2    C213069   3.350   2.543  15.083  0.5274  0.2993 -0.7733
  888MPD2    C313070   3.477   2.596  15.034  0.6186  0.4363  0.0667
  888MPD2    C413071   3.552   2.532  14.935 -0.3778  0.2250 -0.1791
  888MPD2    C513072   3.505   2.415  14.894 -0.0379 -0.3051 -0.6878
  888MPD2     H13073   3.296   2.605  15.154  0.5652  1.0548 -1.4092
  888MPD2    H113074   3.639   2.572  14.885 -0.1524 -0.0586 -0.0108
  888MPD2    H213075   3.366   2.262  14.891  0.1134  0.3616 -1.9941
  888MPD2    H313076   3.563   2.374  14.812  0.5401 -1.6640  0.3948
  888MPD2     N13077   3.511   2.729  15.068  0.4631  0.2254  0.1821
  888MPD2    H513078   3.443   2.780  15.124 -0.0937  1.3936 -1.5628
  888MPD2    N113079   3.167   2.383  15.056 -0.1668  0.3721  0.1424
  888MPD2    H713080   3.114   2.434  15.126 -1.1190 -0.4003 -0.0128
  889MPD2     C13081   2.766   1.241  13.842  0.5024  0.5442  0.7183
  889MPD2    C113082   2.785   1.310  13.732  0.0664 -0.0247  0.1589
  889MPD2    C213083   2.850   1.428  13.742  0.4111  0.5829  0.2726
  889MPD2    C313084   2.872   1.491  13.863 -0.2233  0.0356 -0.5152
  889MPD2    C413085   2.842   1.423  13.981  0.4214  0.1051 -0.1609
  889MPD2    C513086   2.792   1.297  13.964 -0.3579  0.3969 -0.1382
  889MPD2     H13087   2.858   1.494  13.657  1.5742 -2.0791 -1.6684
  889MPD2    H113088   2.862   1.477  14.073  0.5843 -0.1503 -0.0466
  889MPD2    H213089   2.712   1.147  13.828 -0.9079  1.2540  1.3851
  889MPD2    H313090   2.782   1.232  14.051  0.0723  0.0227 -0.3665
  889MPD2     N13091   2.928   1.627  13.859  0.1931  0.4596  0.3109
  889MPD2    H513092   2.948   1.660  13.766  1.8079  0.1996  0.5727
  889MPD2    N113093   2.780   1.244  13.603  0.2958  0.0733  0.4766
  889MPD2    H713094   2.786   1.143  13.604  0.8752  0.1045  0.1024
  890MPD2     C13095   2.167   3.355  14.965 -0.0147 -0.5922 -0.2218
  890MPD2    C113096   2.296   3.387  14.997 -0.0211 -0.0837 -0.4919
  890MPD2    C213097   2.336   3.381  15.127 -0.3455 -0.0890  0.3044
  890MPD2    C313098   2.246   3.367  15.232  0.6134  0.4254 -0.2347
  890MPD2    C413099   2.116   3.325  15.198 -0.3455  0.1508 -0.2108
  890MPD2    C513100   2.079   3.321  15.067  0.5133  0.4316  0.0062
  890MPD2     H13101   2.440   3.397  15.152 -0.4203  0.1372  0.4689
  890MPD2    H113102   2.046   3.288  15.273 -0.9502  0.7611 -0.4765
  890MPD2    H213103   2.137   3.360  14.861 -0.2459  1.3351 -0.0678
  890MPD2    H313104   1.981   3.283  15.039 -0.3789  2.4500  0.4062
  890MPD2     N13105   2.298   3.389  15.366  0.3085  0.2756  0.0508
  890MPD2    H513106   2.397   3.404  15.379  0.3971 -0.6362  0.3841
  890MPD2    N113107   2.385   3.418  14.895 -0.4348 -0.5415  0.2194
  890MPD2    H713108   2.347   3.444  14.804 -1.3459 -0.3206  0.6586
  891MPD2     C13109   0.464   2.218  16.581  0.0780 -0.1998 -0.2457
  891MPD2    C113110   0.333   2.187  16.610 -0.2101 -0.5854 -0.3567
  891MPD2    C213111   0.308   2.063  16.666  0.0499  0.5828  0.3533
  891MPD2    C313112   0.410   1.976  16.698  0.3360 -0.2304  0.0557
  891MPD2    C413113   0.541   2.011  16.673 -0.2637  0.2211  0.7152
  891MPD2    C513114   0.564   2.130  16.606  0.4770 -0.4924 -0.8702
  891MPD2     H13115   0.209   2.020  16.673  0.7560 -0.7288  2.1864
  891MPD2    H113116   0.624   1.951  16.706 -1.6513 -0.9165  2.1435
  891MPD2    H213117   0.474   2.304  16.517  0.1708  0.2559  0.3833
  891MPD2    H313118   0.668   2.154  16.590  0.0460 -0.2103 -3.1799
  891MPD2     N13119   0.370   1.845  16.752  0.6281  0.2176 -0.7009
  891MPD2    H513120   0.272   1.827  16.773  1.0724  1.4420  2.3876
  891MPD2    N113121   0.230   2.279  16.576  0.0601  0.3835  0.8894
  891MPD2    H713122   0.254   2.361  16.523 -0.0523 -0.7373 -0.8839
  892MPD2     C13123   1.302   3.171  14.900  0.5442 -0.2184  0.0420
  892MPD2    C113124   1.225   3.127  14.797  0.2276 -0.9248 -0.0299
  892MPD2    C213125   1.287   3.052  14.700  0.7689 -0.2414  0.7510
  892MPD2    C313126   1.416   3.006  14.720 -0.6487 -0.6810 -0.5219
  892MPD2    C413127   1.489   3.059  14.822 -0.6513  0.2401  0.0930
  892MPD2    C513128   1.436   3.149  14.906  0.1901 -0.9510 -0.2827
  892MPD2     H13129   1.230   3.023  14.612 -1.1300 -0.9853  2.2349
  892MPD2    H113130   1.593   3.029  14.824 -0.7651 -0.2139 -0.6071
  892MPD2    H213131   1.267   3.240  14.976  0.9021  1.6550 -1.5249
  892MPD2    H313132   1.500   3.195  14.980 -2.3561  1.2290  0.5490
  892MPD2     N13133   1.485   2.913  14.640  0.1067 -0.3141 -0.4880
  892MPD2    H513134   1.574   2.879  14.677 -0.2504 -0.6976  0.0181
  892MPD2    N113135   1.092   3.173  14.774  0.6708  0.3599 -0.6414
  892MPD2    H713136   1.052   3.151  14.684 -1.9345 -1.3624  0.9518
  893MPD2     C13137   2.624   1.662  17.724  0.3206 -0.2751 -0.8940
  893MPD2    C113138   2.682   1.604   0.079 -0.3102  0.1244 -0.0756
  893MPD2    C213139   2.717   1.467   0.071  0.4093 -0.1835  0.2514
  893MPD2    C313140   2.705   1.392  17.712 -0.4391  0.6536 -0.1370
  893MPD2    C413141   2.646   1.459  17.600 -0.4976  0.2117  0.1714
  893MPD2    C513142   2.596   1.583  17.614 -0.4596  0.4067  0.0586
  893MPD2     H13143   2.746   1.414   0.161  0.1688  1.1361  1.1181
  893MPD2    H113144   2.633   1.404  17.507  2.9412 -2.4351  1.2288
  893MPD2    H213145   2.602   1.768  17.723 -1.8250 -0.6997  0.8646
  893MPD2    H313146   2.540   1.626  17.532  1.3769  1.7520 -0.4742
  893MPD2     N13147   2.745   1.261  17.694  0.4163  0.3309  0.3801
  893MPD2    H513148   2.713   1.209  17.614 -0.1985 -0.8331  1.3869
  893MPD2    N113149   2.713   1.696   0.182 -0.2679  0.3980  0.9958
  893MPD2    H713150   2.675   1.789   0.180 -2.0492 -0.3851 -2.5545
  894MPD2     C13151   0.772   3.575   1.270 -0.0508  0.4699  0.0450
  894MPD2    C113152   0.739   3.711   1.287  0.4609 -0.4950 -0.1025
  894MPD2    C213153   0.795   3.804   1.201  0.3332 -0.7860  0.2172
  894MPD2    C313154   0.887   3.763   1.101  0.3450 -0.4269  0.3308
  894MPD2    C413155   0.920   3.628   1.095 -0.3771 -0.9166  0.0516
  894MPD2    C513156   0.862   3.537   1.175 -0.3240  0.2864 -0.2065
  894MPD2     H13157   0.758   3.906   1.197  0.2821 -0.7286  2.3858
  894MPD2    H113158   1.004   3.603   1.031 -0.4999 -0.1721 -0.3974
  894MPD2    H213159   0.736   3.497   1.336 -0.5208  0.4095 -0.2799
  894MPD2    H313160   0.903   3.438   1.188 -1.8425 -0.2113  0.7752
  894MPD2     N13161   0.931   3.862   1.010  0.2632  0.2118  0.5175
  894MPD2    H513162   0.895   3.956   1.024  0.5747  0.3065  0.6993
  894MPD2    N113163   0.653   3.750   1.398  0.0432 -0.0828 -0.0387
  894MPD2    H713164   0.638   3.850   1.403  1.7526  0.0739  2.0896
  895MPD2     C13165   0.881   2.203  13.845  0.2223 -0.4959  0.5665
  895MPD2    C113166   0.744   2.208  13.839 -0.3960 -0.1863 -0.6435
  895MPD2    C213167   0.676   2.086  13.845  0.5781 -0.0222  0.0426
  895MPD2    C313168   0.736   1.959  13.842  0.0084  0.3205  0.0536
  895MPD2    C413169   0.876   1.962  13.833  0.2431 -0.3394  0.3672
  895MPD2    C513170   0.945   2.080  13.844 -0.2974  0.1209  0.1813
  895MPD2     H13171   0.568   2.095  13.853  0.2935 -0.2838 -3.5384
  895MPD2    H113172   0.931   1.873  13.805 -0.2187 -0.4099 -0.3057
  895MPD2    H213173   0.952   2.285  13.837 -2.6678  1.9277  0.0013
  895MPD2    H313174   1.053   2.083  13.840 -0.2921  1.2883  1.2272
  895MPD2     N13175   0.663   1.838  13.817  0.4099 -0.3047 -0.4172
  895MPD2    H513176   0.564   1.858  13.807  0.4179  0.0736  0.2894
  895MPD2    N113177   0.675   2.330  13.826  0.6018 -0.3756 -0.0270
  895MPD2    H713178   0.574   2.321  13.826  0.1805  4.3965 -0.1615
  896MPD2     C13179   2.381   0.222   1.497 -0.4636 -0.5276  0.5123
  896MPD2    C113180   2.411   0.153   1.376 -0.2737  0.0038  0.5614
  896MPD2    C213181   2.310   0.081   1.322 -0.0664 -0.1145 -0.2787
  896MPD2    C313182   2.188   0.062   1.379 -0.0846  0.0862 -0.3756
  896MPD2    C413183   2.158   0.136   1.494  0.4168 -0.5142  0.5156
  896MPD2    C513184   2.257   0.220   1.548 -0.2152 -0.4928 -0.1371
  896MPD2     H13185   2.322   0.027   1.228 -2.1894 -1.7881  0.4072
  896MPD2    H113186   2.059   0.125   1.536 -0.5802  2.7056 -0.9492
  896MPD2    H213187   2.449   0.298   1.535 -1.3482  1.1612 -1.3046
  896MPD2    H313188   2.222   0.278   1.633  1.1434 -0.1598  0.1944
  896MPD2     N13189   2.094   4.716   1.313  0.4689  0.0289  0.1080
  896MPD2    H513190   2.121   4.679   1.223 -1.6769  2.0092 -1.3561
  896MPD2    N113191   2.531   0.174   1.303 -0.5970 -1.0575  0.1450
  896MPD2    H713192   2.543   0.124   1.215  1.6885  1.4822 -0.9599
  897MPD2     C13193   0.007   1.230  10.959 -0.3736 -0.8372 -0.1673
  897MPD2    C113194   4.686   1.215  10.834 -0.1026  0.3346  0.2951
  897MPD2    C213195   4.553   1.176  10.838  0.2917  0.0616 -0.0539
  897MPD2    C313196   4.487   1.143  10.950  0.2435 -0.3009  0.0114
  897MPD2    C413197   4.553   1.129  11.066 -0.1692  0.3418 -1.5321
  897MPD2    C513198   4.677   1.178  11.071 -0.0652  0.1089  0.1790
  897MPD2     H13199   4.496   1.195  10.748  0.9668  0.7939 -0.3291
  897MPD2    H113200   4.525   1.081  11.160 -2.0080  0.4967 -2.0008
  897MPD2    H213201   0.106   1.274  10.957 -0.8517  0.3804  2.9858
  897MPD2    H313202   4.738   1.179  11.161  0.0331 -0.0839  0.1167
  897MPD2     N13203   4.348   1.128  10.946 -0.0042  0.7932  0.3973
  897MPD2    H513204   4.306   1.159  10.858 -1.1013  2.7850  1.6282
  897MPD2    N113205   0.027   1.255  10.727  0.6706  0.6046  0.6174
  897MPD2    H713206   0.125   1.268  10.749  0.7526 -0.3773  0.8042
  898MPD2     C13207   0.157   2.343   0.192 -0.0454 -0.6690 -0.3706
  898MPD2    C113208   0.267   2.349   0.280 -0.2765 -0.2956  0.2046
  898MPD2    C213209   0.369   2.438   0.249 -0.7845  0.0362 -0.0692
  898MPD2    C313210   0.355   2.527   0.147  0.2956 -0.2047 -0.2175
  898MPD2    C413211   0.241   2.531   0.067  0.4417 -0.3460  0.0345
  898MPD2    C513212   0.144   2.435   0.095  0.1682  0.3552  0.0773
  898MPD2     H13213   0.454   2.441   0.315  2.4613  0.7401 -4.2640
  898MPD2    H113214   0.220   2.605  17.748 -0.6609  0.7635  1.4061
  898MPD2    H213215   0.074   2.276   0.213 -0.1351 -0.8366 -1.2739
  898MPD2    H313216   0.051   2.444   0.040  1.2169 -1.9547 -2.0658
  898MPD2     N13217   0.464   2.619   0.141 -0.3673  0.3331 -0.6660
  898MPD2    H513218   0.541   2.612   0.207 -0.5961 -1.0962 -0.5522
  898MPD2    N113219   0.290   2.243   0.376 -0.1275 -0.3556  0.3491
  898MPD2    H713220   0.381   2.244   0.421  0.5123 -1.5608 -0.9318
  899MPD2     C13221   1.579   3.112  17.186  0.2885 -0.3994  0.6435
  899MPD2    C113222   1.645   3.178  17.293  0.3515  0.4216  1.1586
  899MPD2    C213223   1.635   3.124  17.414 -0.7740  0.2761  0.7857
  899MPD2    C313224   1.571   3.002  17.432  0.0345  0.3768 -0.6385
  899MPD2    C413225   1.524   2.927  17.324  0.2104 -0.1809 -0.5685
  899MPD2    C513226   1.524   2.992  17.204 -0.0816  0.0118  0.3245
  899MPD2     H13227   1.674   3.170  17.505  0.9321 -1.2612  0.8357
  899MPD2    H113228   1.486   2.827  17.337  2.9961 -1.5017 -2.5803
  899MPD2    H213229   1.573   3.161  17.089  0.0652 -1.0485  0.3248
  899MPD2    H313230   1.474   2.946  17.120 -1.8526 -0.2344  1.4986
  899MPD2     N13231   1.538   2.948  17.566  0.3732 -0.6430 -0.1770
  899MPD2    H513232   1.520   2.849  17.578  1.9785 -0.6310  2.2095
  899MPD2    N113233   1.710   3.297  17.262  0.5740  0.5273  0.3206
  899MPD2    H713234   1.709   3.331  17.167  0.8140  3.0501  1.2374
  900MPD2     C13235   2.110   0.020  12.854 -0.1884  0.1405 -1.0009
  900MPD2    C113236   2.028   4.660  12.802  0.2767 -0.2339  0.2303
  900MPD2    C213237   1.908   4.701  12.741  1.2924 -0.1076  0.3908
  900MPD2    C313238   1.869   0.089  12.744  0.0701  0.0870  0.1027
  900MPD2    C413239   1.950   0.182  12.802  0.5160  0.3245 -0.4147
  900MPD2    C513240   2.066   0.150  12.868  0.0372 -0.1933 -0.1535
  900MPD2     H13241   1.839   4.636  12.689 -0.8955  0.8673  2.0872
  900MPD2    H113242   1.920   0.285  12.814 -0.2924 -0.0568  0.7897
  900MPD2    H213243   2.208   4.733  12.892 -1.1088  0.7630  1.7998
  900MPD2    H313244   2.133   0.224  12.910 -0.8064  1.1700 -1.2601
  900MPD2     N13245   1.737   0.115  12.687  0.3493 -0.5011 -0.5072
  900MPD2    H513246   1.692   0.035  12.644 -1.0065  0.3286 -0.6172
  900MPD2    N113247   2.070   4.522  12.793  0.1952  0.0460  0.6673
  900MPD2    H713248   2.163   4.487  12.814 -0.5234 -2.8943 -1.0320
  901MPD2     C13249   1.596   3.527  12.908 -0.2652  0.4272  0.2218
  901MPD2    C113250   1.734   3.510  12.922 -0.1653 -0.1073 -0.0724
  901MPD2    C213251   1.815   3.619  12.919  0.2582  0.2078  0.0145
  901MPD2    C313252   1.759   3.748  12.911 -0.2763 -0.7850  0.7597
  901MPD2    C413253   1.626   3.766  12.915 -0.0123  0.4328 -0.0901
  901MPD2    C513254   1.552   3.654  12.899  0.1233  1.1204 -0.3508
  901MPD2     H13255   1.922   3.606  12.922  0.1768 -0.9908 -2.4120
  901MPD2    H113256   1.571   3.859  12.919 -0.1222  0.3880 -0.5252
  901MPD2    H213257   1.531   3.445  12.880  2.4390 -0.9964 -1.8806
  901MPD2    H313258   1.447   3.677  12.895  0.0759  0.7058 -1.2734
  901MPD2     N13259   1.842   3.861  12.892  0.5565  0.3484 -0.7283
  901MPD2    H513260   1.939   3.845  12.868  0.5049  0.3801 -0.9593
  901MPD2    N113261   1.803   3.388  12.927 -0.5178  0.5117 -0.5863
  901MPD2    H713262   1.904   3.396  12.923 -0.4781 -0.0679 -0.7607
  902MPD2     C13263   0.733   2.484  13.137  0.5506 -0.0522  0.5957
  902MPD2    C113264   0.812   2.561  13.054 -0.2416  0.7153 -0.1448
  902MPD2    C213265   0.882   2.501  12.948 -0.8210 -0.2355 -0.3929
  902MPD2    C313266   0.845   2.373  12.907  0.4752 -0.0250  0.4127
  902MPD2    C413267   0.760   2.300  12.984 -0.0558  0.4116 -0.5695
  902MPD2    C513268   0.714   2.358  13.097  0.2954  0.7260 -0.4183
  902MPD2     H13269   0.948   2.561  12.888 -1.7880  0.4788 -0.7428
  902MPD2    H113270   0.725   2.200  12.959 -0.4741  0.5191 -0.4082
  902MPD2    H213271   0.704   2.522  13.234  0.7870  1.0462  0.2335
  902MPD2    H313272   0.654   2.295  13.161 -1.8682  0.8835 -2.2815
  902MPD2     N13273   0.860   2.325  12.773 -0.5828 -0.0731  0.7525
  902MPD2    H513274   0.814   2.236  12.755 -0.2809 -0.4380  1.7895
  902MPD2    N113275   0.819   2.696  13.084  0.2861 -0.1634 -0.3248
  902MPD2    H713276   0.743   2.739  13.136  2.1600 -0.0234  2.3143
  903MPD2     C13277   0.781   2.418  11.858 -0.1376 -0.5282  0.1047
  903MPD2    C113278   0.743   2.420  11.986  0.1752 -0.0684  0.3532
  903MPD2    C213279   0.632   2.504  12.007  0.3893 -0.4778  0.3622
  903MPD2    C313280   0.547   2.558  11.911 -0.8685  0.3400 -0.1810
  903MPD2    C413281   0.584   2.542  11.781 -0.3223  0.2182  0.6216
  903MPD2    C513282   0.700   2.478  11.759 -0.0347  0.2169  0.2090
  903MPD2     H13283   0.597   2.521  12.108 -0.7484  0.2488 -0.1525
  903MPD2    H113284   0.519   2.575  11.701 -1.5642 -1.4647  0.9199
  903MPD2    H213285   0.870   2.365  11.828  0.4498  1.6183 -1.9338
  903MPD2    H313286   0.738   2.475  11.657 -0.1086  2.7058  0.1220
  903MPD2     N13287   0.431   2.629  11.948  0.0760  0.0694  0.3274
  903MPD2    H513288   0.413   2.638  12.048  1.3471 -0.7398  0.6294
  903MPD2    N113289   0.816   2.355  12.088  0.1577 -0.2075  0.5580
  903MPD2    H713290   0.900   2.308  12.058  0.1336  0.5205 -0.6604
  904MPD2     C13291   0.310   1.731  14.187  0.4039 -0.3923  0.9697
  904MPD2    C113292   0.306   1.684  14.314 -0.0229  0.3790 -0.1705
  904MPD2    C213293   0.424   1.639  14.373 -0.2556 -0.1582 -0.3128
  904MPD2    C313294   0.544   1.649  14.301 -0.4876  0.2503  0.2732
  904MPD2    C413295   0.539   1.701  14.174 -0.1705 -0.2877  0.1123
  904MPD2    C513296   0.429   1.735  14.116 -0.6903  0.3576  0.2897
  904MPD2     H13297   0.429   1.611  14.478  1.7421 -0.1579 -0.4233
  904MPD2    H113298   0.629   1.727  14.119  1.0807  0.0886  2.3328
  904MPD2    H213299   0.221   1.770  14.138  0.6514  0.0873  0.9075
  904MPD2    H313300   0.436   1.788  14.022  0.6907 -0.4084 -0.0520
  904MPD2     N13301   0.665   1.604  14.364 -0.6456 -0.2981 -0.1586
  904MPD2    H513302   0.640   1.565  14.454 -2.1008 -0.6559 -0.7149
  904MPD2    N113303   0.184   1.694  14.392  0.2534  0.0526 -0.5487
  904MPD2    H713304   0.197   1.687  14.493  1.4680 -0.9606 -0.7759
  905MPD2     C13305   4.699   2.000  13.847  0.6770  0.0047  0.0327
  905MPD2    C113306   4.707   1.891  13.936  0.2187 -0.0849 -0.1850
  905MPD2    C213307   0.048   1.784  13.893 -0.3447 -0.9054  0.2878
  905MPD2    C313308   0.125   1.785  13.773 -0.5555  0.5853 -0.4481
  905MPD2    C413309   0.102   1.890  13.694  0.0720  0.4027  0.1099
  905MPD2    C513310   0.019   1.997  13.723 -0.2155 -0.2113  0.3331
  905MPD2     H13311   0.053   1.694  13.954 -3.6847 -0.3152  1.4126
  905MPD2    H113312   0.156   1.883  13.600  3.0469 -1.2421  1.9472
  905MPD2    H213313   4.628   2.079  13.870 -1.3079 -1.3491 -1.5156
  905MPD2    H313314   4.738   2.080  13.657  0.3878  1.1284  1.8469
  905MPD2     N13315   0.216   1.687  13.740  0.3808  0.1921  0.8606
  905MPD2    H513316   0.258   1.694  13.648  0.6327  0.2646  0.9795
  905MPD2    N113317   4.646   1.877  14.065 -0.4408 -0.2855 -0.3031
  905MPD2    H713318   4.673   1.804  14.130 -2.9391 -1.2910 -0.4010
  906MPD2     C13319   3.250   1.723  10.584 -0.5018  1.3687  1.2769
  906MPD2    C113320   3.191   1.625  10.513  0.5729 -0.2816  0.3166
  906MPD2    C213321   3.077   1.560  10.547 -0.5807  0.2651 -0.0966
  906MPD2    C313322   3.006   1.588  10.663 -0.2164  0.4380 -0.0564
  906MPD2    C413323   3.064   1.696  10.726 -0.0637 -0.1851 -0.8079
  906MPD2    C513324   3.185   1.767  10.695  0.4031 -0.4293  0.4992
  906MPD2     H13325   3.045   1.477  10.485  0.8940  0.5344 -1.2322
  906MPD2    H113326   3.015   1.730  10.816 -1.0000  1.8539 -2.0946
  906MPD2    H213327   3.341   1.774  10.553 -0.4348  0.1437 -0.5658
  906MPD2    H313328   3.230   1.849  10.750 -1.4165  0.5212  0.5751
  906MPD2     N13329   2.890   1.530  10.713  0.8222  0.3828 -0.1034
  906MPD2    H513330   2.840   1.556  10.797 -2.2389  0.5060 -1.9632
  906MPD2    N113331   3.249   1.578  10.390 -0.5557 -0.0439  0.0902
  906MPD2    H713332   3.195   1.505  10.344 -2.1946  1.5412 -0.5098
  907MPD2     C13333   1.312   0.818  16.179 -0.4436  0.3167 -0.5106
  907MPD2    C113334   1.374   0.720  16.097 -0.4403  0.4144 -0.0413
  907MPD2    C213335   1.426   0.606  16.152 -0.3020 -0.1901 -0.2365
  907MPD2    C313336   1.444   0.594  16.289  0.3035 -0.3979  0.4178
  907MPD2    C413337   1.386   0.692  16.361  0.1410 -0.1470  0.4400
  907MPD2    C513338   1.318   0.797  16.312 -0.1290 -0.4964 -0.7569
  907MPD2     H13339   1.468   0.524  16.095  0.4068 -0.3719  0.5370
  907MPD2    H113340   1.385   0.681  16.469 -0.1806  0.3729  0.4857
  907MPD2    H213341   1.261   0.909  16.151  0.8479  1.0707 -0.4074
  907MPD2    H313342   1.270   0.863  16.384  0.8660 -0.2079 -0.3505
  907MPD2     N13343   1.498   0.476  16.345 -0.2121  0.3892  0.3520
  907MPD2    H513344   1.523   0.410  16.272 -2.1568  0.3463 -0.2602
  907MPD2    N113345   1.361   0.723  15.959 -0.3505  0.4270 -0.3127
  907MPD2    H713346   1.389   0.637  15.914 -1.7178 -0.1091 -0.1591
  908MPD2     C13347   0.212   0.881   9.818 -0.3387 -0.0170 -0.4193
  908MPD2    C113348   0.183   0.832   9.947 -0.2870  0.5018 -0.1468
  908MPD2    C213349   0.155   0.922  10.045 -0.7789  0.1938  0.0321
  908MPD2    C313350   0.166   1.058  10.025 -0.1297 -0.1642 -0.0579
  908MPD2    C413351   0.201   1.113   9.899 -0.1481 -0.5317  0.2509
  908MPD2    C513352   0.205   1.018   9.799 -0.7606  0.4155  0.2625
  908MPD2     H13353   0.123   0.887  10.143 -1.7914 -0.3569 -0.4910
  908MPD2    H113354   0.205   1.221   9.895 -1.8773 -0.5432 -1.6139
  908MPD2    H213355   0.224   0.819   9.730  0.1640 -0.4687 -0.0305
  908MPD2    H313356   0.224   1.049   9.697 -0.5836  1.4783  0.6211
  908MPD2     N13357   0.151   1.140  10.142  0.2203  0.0865  0.0129
  908MPD2    H513358   0.134   1.088  10.228 -0.6228 -0.3470 -0.4217
  908MPD2    N113359   0.184   0.693   9.963  0.1864  0.4984 -0.2370
  908MPD2    H713360   0.194   0.649   9.872 -0.9587  0.3735 -0.3092
  909MPD2     C13361   4.512   3.980  12.154  0.2023  0.1350  0.2505
  909MPD2    C113362   4.535   4.114  12.121  0.2433  0.0202 -0.1307
  909MPD2    C213363   4.438   4.202  12.164  0.1704 -0.3399 -0.5890
  909MPD2    C313364   4.333   4.160  12.238  0.6474  0.1547 -0.2148
  909MPD2    C413365   4.322   4.032  12.281 -0.3234  0.0714 -0.4129
  909MPD2    C513366   4.409   3.942  12.234 -0.3432 -0.0521 -1.0842
  909MPD2     H13367   4.443   4.310  12.151 -0.3097 -0.1567  0.6642
  909MPD2    H113368   4.235   4.006  12.340  0.3592  1.1386  1.0591
  909MPD2    H213369   4.572   3.899  12.114  0.4370 -0.1352  1.1350
  909MPD2    H313370   4.390   3.836  12.246 -0.0273  0.5353  4.2519
  909MPD2     N13371   4.247   4.266  12.288  0.1419  0.1652 -0.0859
  909MPD2    H513372   4.244   4.349  12.230  1.6799 -0.6478 -1.3068
  909MPD2    N113373   4.632   4.159  12.027  0.3461  0.0854 -0.1036
  909MPD2    H713374   4.626   4.254  11.993 -1.7801  0.3203  0.9144
  910MPD2     C13375   0.765   0.937  16.247 -0.1015 -0.7210  0.2002
  910MPD2    C113376   0.864   0.903  16.161  0.0068  0.4293  0.2529
  910MPD2    C213377   0.867   0.972  16.040 -1.5576 -0.2198  0.5440
  910MPD2    C313378   0.773   1.070  16.008 -0.5108  0.2190 -0.0733
  910MPD2    C413379   0.668   1.093  16.098 -0.0581  0.2665 -1.2365
  910MPD2    C513380   0.665   1.024  16.217  0.0748  0.3963  0.3022
  910MPD2     H13381   0.942   0.944  15.966 -0.6156  2.8816  0.3386
  910MPD2    H113382   0.587   1.156  16.065 -0.0750  0.3646 -1.0078
  910MPD2    H213383   0.750   0.885  16.341  1.4306 -0.1394  0.7607
  910MPD2    H313384   0.579   1.037  16.280 -1.0502 -2.0727 -0.7162
  910MPD2     N13385   0.768   1.129  15.882 -0.1606  0.0919 -0.1685
  910MPD2    H513386   0.681   1.177  15.861  0.6749  2.2572  1.3322
  910MPD2    N113387   0.942   0.787  16.183 -0.2953  0.1029 -0.1393
  910MPD2    H713388   0.993   0.756  16.101  2.3929 -0.2159  1.6353
  911MPD2     C13389   3.065   2.092  16.369  0.5490  0.3459  0.2123
  911MPD2    C113390   3.134   2.210  16.376 -0.4252 -0.0967  0.0417
  911MPD2    C213391   3.094   2.318  16.294  0.2729 -0.4393 -0.8093
  911MPD2    C313392   2.971   2.315  16.229  0.5423  0.6744 -0.0733
  911MPD2    C413393   2.885   2.201  16.249  1.0872  0.4312  0.5649
  911MPD2    C513394   2.943   2.090  16.309  0.6270  0.4120  0.0058
  911MPD2     H13395   3.165   2.397  16.276  0.0591 -0.2642 -0.8852
  911MPD2    H113396   2.787   2.211  16.203  1.6675  1.4604 -0.4464
  911MPD2    H213397   3.089   2.002  16.425  1.5024 -0.0856 -0.8918
  911MPD2    H313398   2.886   1.997  16.308  0.4378  0.5332 -1.0118
  911MPD2     N13399   2.922   2.410  16.142 -0.5535  0.9226 -0.4690
  911MPD2    H513400   2.832   2.390  16.100 -1.2303 -1.9244  2.3467
  911MPD2    N113401   3.261   2.203  16.439 -0.1296  0.2161 -0.2119
  911MPD2    H713402   3.298   2.112  16.463 -2.4448 -1.2866 -2.3345
  912MPD2     C13403   3.103   1.974  16.050 -0.2041 -0.0264 -0.2130
  912MPD2    C113404   2.974   2.002  16.007  0.3981 -0.3532  0.0698
  912MPD2    C213405   2.862   1.920  16.027 -0.1926  0.0309  0.3727
  912MPD2    C313406   2.880   1.802  16.102 -0.0569 -0.3684 -0.7147
  912MPD2    C413407   3.006   1.778  16.149 -0.1739  0.0024 -0.2328
  912MPD2    C513408   3.115   1.860  16.118  0.4193 -0.7439  0.1585
  912MPD2     H13409   2.764   1.942  15.986  0.5600  0.2784 -1.3162
  912MPD2    H113410   3.026   1.712  16.233  0.2177 -0.7903 -0.9459
  912MPD2    H213411   3.185   2.044  16.041 -1.8145  1.8004 -0.5837
  912MPD2    H313412   3.210   1.847  16.168  0.8883  2.2018  0.0466
  912MPD2     N13413   2.773   1.720  16.133  0.1743 -0.4832 -0.5620
  912MPD2    H513414   2.684   1.769  16.135  0.8386  0.7404 -0.6707
  912MPD2    N113415   2.969   2.115  15.925  0.3533  0.8462  0.0795
  912MPD2    H713416   3.061   2.157  15.914  1.8210 -1.6677  2.5316
  913MPD2     C13417   3.931   3.400  10.045 -0.6858 -0.5124 -0.2225
  913MPD2    C113418   4.001   3.361  10.152 -0.7461  0.2519 -0.0846
  913MPD2    C213419   4.116   3.433  10.180  0.5408 -0.6264  0.4482
  913MPD2    C313420   4.168   3.532  10.097 -0.1311 -0.6219  0.4198
  913MPD2    C413421   4.092   3.561   9.985  0.5149 -0.2981  0.3427
  913MPD2    C513422   3.974   3.498   9.962  0.3830  0.6270  0.0375
  913MPD2     H13423   4.176   3.402  10.265  1.9485  1.5254  0.2558
  913MPD2    H113424   4.111   3.646   9.920  0.3170  0.8755  1.8211
  913MPD2    H213425   3.843   3.338  10.027 -1.7716  0.9706 -0.0130
  913MPD2    H313426   3.910   3.539   9.885 -2.9896 -0.7918  2.1046
  913MPD2     N13427   4.292   3.606  10.112 -0.3288  0.0950 -0.7096
  913MPD2    H513428   4.305   3.672  10.037 -1.3908  1.3679  0.2293
  913MPD2    N113429   3.953   3.252  10.224  0.3959 -0.0780  0.3229
  913MPD2    H713430   3.868   3.203  10.198  0.8002 -0.8152  0.3810
  914MPD2     C13431   2.530   3.321  12.434 -0.1921  0.2511 -0.6188
  914MPD2    C113432   2.469   3.422  12.509  0.6791  0.3055  0.0274
  914MPD2    C213433   2.362   3.383  12.588  0.3468  0.3922 -0.4156
  914MPD2    C313434   2.309   3.254  12.591 -0.2076 -0.3546  0.2210
  914MPD2    C413435   2.363   3.164  12.497 -0.1688 -0.6176 -0.0754
  914MPD2    C513436   2.477   3.194  12.427 -0.6275  0.5013 -0.5188
  914MPD2     H13437   2.313   3.460  12.647 -3.1304  0.3389 -3.2618
  914MPD2    H113438   2.328   3.062  12.490  2.3104 -1.4802  0.2657
  914MPD2    H213439   2.619   3.350  12.380 -0.1695  2.2889  0.5045
  914MPD2    H313440   2.529   3.116  12.372  0.5176  0.7699  0.1686
  914MPD2     N13441   2.195   3.225  12.670  0.5792  0.5082  0.7087
  914MPD2    H513442   2.168   3.299  12.734  0.2072 -1.3997  2.7691
  914MPD2    N113443   2.523   3.553  12.507  0.3807 -0.7357 -0.2701
  914MPD2    H713444   2.598   3.570  12.441  0.3835  0.4042  0.0185
  915MPD2     C13445   4.632   3.439  15.926  0.4872  0.3587  0.2339
  915MPD2    C113446   4.490   3.425  15.907  0.4401  0.8516  0.0108
  915MPD2    C213447   4.396   3.482  15.990 -0.4870  0.3063  0.1213
  915MPD2    C313448   4.444   3.556  16.097 -0.8776  0.3499 -0.7125
  915MPD2    C413449   4.581   3.570  16.117  0.5801  0.1905 -0.2491
  915MPD2    C513450   4.675   3.508  16.038 -0.2357 -0.0876 -0.8565
  915MPD2     H13451   4.291   3.461  15.975 -0.5383  0.2409  0.5704
  915MPD2    H113452   4.614   3.624  16.205  1.0442  0.4261 -0.5666
  915MPD2    H213453   4.696   3.389  15.855  0.2652  0.0741  0.2332
  915MPD2    H313454   0.041   3.504  16.057 -0.3772 -1.2554 -0.3043
  915MPD2     N13455   4.345   3.613  16.181 -0.1453 -0.2817  0.1354
  915MPD2    H513456   4.249   3.582  16.164  0.4413 -0.2109 -3.4018
  915MPD2    N113457   4.458   3.359  15.786  0.2460 -0.0046 -0.1137
  915MPD2    H713458   4.541   3.359  15.728  0.2388 -0.7616 -0.1264
  916MPD2     C13459   2.442   1.951  15.914  0.0353  1.0105 -0.4573
  916MPD2    C113460   2.379   1.852  15.989  0.1615  0.3056  0.2743
  916MPD2    C213461   2.411   1.723  15.956 -0.0440 -0.3993  0.1679
  916MPD2    C313462   2.498   1.679  15.860 -0.0105 -0.7749  0.5857
  916MPD2    C413463   2.574   1.782  15.801  0.0400  0.3122  0.1816
  916MPD2    C513464   2.543   1.915  15.819  0.5570  0.1692  0.1722
  916MPD2     H13465   2.360   1.654  16.022 -1.6108 -1.1833 -1.8629
  916MPD2    H113466   2.654   1.746  15.737 -1.1487 -3.4042  0.7538
  916MPD2    H213467   2.409   2.054  15.914  1.2348  1.4055  0.2965
  916MPD2    H313468   2.594   1.986  15.756 -0.0538 -0.8780 -1.5044
  916MPD2     N13469   2.516   1.542  15.832 -0.0167 -1.1104 -0.0326
  916MPD2    H513470   2.467   1.477  15.893 -1.2670  0.0114  0.1670
  916MPD2    N113471   2.270   1.896  16.076 -0.1921 -0.2411  0.1793
  916MPD2    H713472   2.262   1.996  16.092  0.2909 -0.2621  0.5665
  917MPD2     C13473   3.032   3.342  11.571  0.2605  0.2290  0.0086
  917MPD2    C113474   3.046   3.439  11.661  0.0051 -0.7329  0.2346
  917MPD2    C213475   3.117   3.559  11.628  0.1218 -0.2270  0.1501
  917MPD2    C313476   3.179   3.571  11.504 -0.0747  0.4857 -0.1763
  917MPD2    C413477   3.163   3.471  11.416 -0.6379  0.0032  0.1893
  917MPD2    C513478   3.085   3.357  11.446  0.1593  0.0290  0.1524
  917MPD2     H13479   3.130   3.640  11.699 -1.4282 -1.8028  2.2606
  917MPD2    H113480   3.196   3.487  11.314  0.8544  0.2592  0.7002
  917MPD2    H213481   2.984   3.251  11.607 -0.2839  1.1898  1.6913
  917MPD2    H313482   3.072   3.277  11.375  2.0299 -0.2741  0.1447
  917MPD2     N13483   3.259   3.686  11.469  0.1153  0.0366  0.2071
  917MPD2    H513484   3.292   3.702  11.374  0.6439 -0.8311  0.2434
  917MPD2    N113485   3.002   3.415  11.790 -0.3666  0.3449 -0.2609
  917MPD2    H713486   2.995   3.316  11.814  1.6783  0.6269  1.4647
  918MPD2     C13487   3.106   4.050  12.572  0.4132 -0.4636 -0.2385
  918MPD2    C113488   3.193   4.007  12.474  0.7819  0.1023 -0.6323
  918MPD2    C213489   3.157   3.901  12.388 -0.1054 -0.4799  1.1740
  918MPD2    C313490   3.042   3.829  12.409  0.4012  0.5324  0.6089
  918MPD2    C413491   2.960   3.872  12.512 -0.1437 -1.0083 -0.0501
  918MPD2    C513492   2.987   3.981  12.591  0.1461 -0.2765  0.6051
  918MPD2     H13493   3.229   3.864  12.316 -1.2169  0.2779 -0.3210
  918MPD2    H113494   2.868   3.825  12.544  0.7356 -0.6328  3.0185
  918MPD2    H213495   3.120   4.132  12.641  0.5466 -0.0480 -0.7613
  918MPD2    H313496   2.921   4.001  12.674 -0.1314 -1.1329  0.5885
  918MPD2     N13497   3.024   3.711  12.324  0.3795 -0.0494 -0.0314
  918MPD2    H513498   3.090   3.689  12.251  2.2834  1.3330  1.2539
  918MPD2    N113499   3.324   4.064  12.459 -0.3646  0.1046  0.2248
  918MPD2    H713500   3.375   4.025  12.381 -0.6964 -1.7301  0.9241
  919MPD2     C13501   3.966   2.763  11.705 -0.3418 -0.5348  0.4263
  919MPD2    C113502   3.884   2.658  11.675  0.4990 -0.2131  0.3587
  919MPD2    C213503   3.806   2.668  11.561 -0.0500  0.0555  0.0843
  919MPD2    C313504   3.808   2.789  11.487 -0.2410  0.0551 -0.4007
  919MPD2    C413505   3.884   2.895  11.530  0.4203 -0.0762 -0.3876
  919MPD2    C513506   3.963   2.878  11.634 -0.4899  0.3028  0.8731
  919MPD2     H13507   3.744   2.581  11.541 -0.5335  0.6643 -1.0799
  919MPD2    H113508   3.882   2.997  11.492 -0.1163 -1.5930 -4.4674
  919MPD2    H213509   4.035   2.768  11.789 -0.9756 -1.0052  0.9731
  919MPD2    H313510   4.024   2.957  11.678 -0.8290  0.5743  0.8568
  919MPD2     N13511   3.727   2.815  11.378  0.3007  0.1341 -0.6442
  919MPD2    H513512   3.740   2.904  11.330  2.1034 -0.3776 -1.0787
  919MPD2    N113513   3.877   2.539  11.751 -0.5059  0.2822  0.6871
  919MPD2    H713514   3.825   2.462  11.710  1.8846 -0.7040 -0.5011
  920MPD2     C13515   3.721   3.388  10.586  0.1918  0.1904  0.4220
  920MPD2    C113516   3.636   3.280  10.557  0.7667 -0.8148 -0.0481
  920MPD2    C213517   3.615   3.179  10.645  0.8969 -0.4063 -0.8753
  920MPD2    C313518   3.668   3.180  10.772  0.4520 -0.0207  0.0857
  920MPD2    C413519   3.744   3.286  10.810  0.9001 -0.0786  0.0186
  920MPD2    C513520   3.774   3.391  10.719  0.3765 -0.7681  0.1549
  920MPD2     H13521   3.555   3.094  10.617 -0.9580  0.7639 -0.4564
  920MPD2    H113522   3.792   3.294  10.907  0.4955 -4.1654  0.5486
  920MPD2    H213523   3.756   3.466  10.520 -1.5501 -0.1479 -0.8986
  920MPD2    H313524   3.847   3.468  10.741  0.1695 -0.8207  1.0321
  920MPD2     N13525   3.619   3.079  10.858 -0.2703 -0.2616 -0.2277
  920MPD2    H513526   3.558   3.012  10.812  0.0762 -3.1815  3.5678
  920MPD2    N113527   3.568   3.267  10.436  0.6779  0.3921  0.0279
  920MPD2    H713528   3.505   3.189  10.425  0.9090  0.1940  0.1221
  921MPD2     C13529   4.190   2.502  16.932  0.4094 -0.3053  0.2000
  921MPD2    C113530   4.207   2.461  16.798 -0.2750 -0.1449 -0.8071
  921MPD2    C213531   4.102   2.426  16.720  0.0972  0.4864  0.1213
  921MPD2    C313532   3.969   2.435  16.764  0.0155  0.4919  0.7085
  921MPD2    C413533   3.950   2.478  16.896  0.2754  0.3411 -0.3392
  921MPD2    C513534   4.063   2.500  16.982  0.4466  0.0482  0.1789
  921MPD2     H13535   4.123   2.404  16.616  1.0756  1.8458  0.0334
  921MPD2    H113536   3.851   2.507  16.929 -0.0650  2.1788 -3.0469
  921MPD2    H213537   4.275   2.529  16.993  0.5764  2.6007 -1.3539
  921MPD2    H313538   4.051   2.551  17.077 -1.9401 -1.2582  0.5842
  921MPD2     N13539   3.870   2.404  16.672  0.1757  0.0769  0.6708
  921MPD2    H513540   3.899   2.372  16.580 -0.2545  1.4501  0.0707
  921MPD2    N113541   4.343   2.456  16.753 -0.0429  0.8449 -0.1199
  921MPD2    H713542   4.411   2.489  16.821  0.1192  0.0779  0.0872
  922MPD2     C13543   4.694   4.656  17.006 -0.0397  0.4132  0.3514
  922MPD2    C113544   4.628   4.670  17.122 -0.3265  0.4448 -0.1679
  922MPD2    C213545   4.564   4.561  17.176 -0.0641 -0.4832  0.2408
  922MPD2    C313546   4.560   4.446  17.101 -0.0769 -0.6875 -0.0905
  922MPD2    C413547   4.622   4.435  16.973  0.3165 -0.2451  0.4233
  922MPD2    C513548   4.686   4.545  16.933 -0.9777 -0.1332 -0.3647
  922MPD2     H13549   4.513   4.565  17.272  0.1537 -2.3016  0.4411
  922MPD2    H113550   4.621   4.344  16.914 -2.2096  0.6560 -0.9251
  922MPD2    H213551   0.020   4.727  16.958 -2.4026  1.2975 -1.6118
  922MPD2    H313552   4.738   4.546  16.838  3.1857  1.1592  1.9162
  922MPD2     N13553   4.488   4.336  17.138  0.1846 -0.2318 -0.2897
  922MPD2    H513554   4.464   4.268  17.066 -0.6291 -0.7530  0.4762
  922MPD2    N113555   4.624   0.051  17.194  0.7322 -0.1013 -0.7241
  922MPD2    H713556   4.577   0.045  17.284 -0.5274 -3.6700 -1.6413
  923MPD2     C13557   1.729   1.885   9.527 -0.3348  0.1926  0.3750
  923MPD2    C113558   1.853   1.939   9.499  0.0440 -0.3389 -0.8694
  923MPD2    C213559   1.961   1.857   9.494 -0.1754 -0.3420 -0.0360
  923MPD2    C313560   1.942   1.719   9.509  0.3920 -0.0336 -0.6936
  923MPD2    C413561   1.816   1.662   9.528 -0.0138  0.2065 -0.5749
  923MPD2    C513562   1.708   1.752   9.538  0.8621  0.0933 -0.3202
  923MPD2     H13563   2.057   1.907   9.491  0.1644 -1.1134 -2.1994
  923MPD2    H113564   1.800   1.556   9.539  0.2489  0.2870  0.5534
  923MPD2    H213565   1.640   1.947   9.533 -1.1799 -1.1970  2.1796
  923MPD2    H313566   1.613   1.707   9.566  0.3315  1.2637 -0.2613
  923MPD2     N13567   2.043   1.621   9.526 -0.2648  0.0792  0.4788
  923MPD2    H513568   2.014   1.526   9.547 -1.0989  0.2460  0.1001
  923MPD2    N113569   1.861   2.079   9.507 -0.1317  0.0365 -0.0656
  923MPD2    H713570   1.777   2.131   9.532  1.1960  0.8498  2.6538
  924MPD2     C13571   1.666   4.621  15.878 -0.2978  0.4156 -0.6232
  924MPD2    C113572   1.680   4.545  15.992  0.1612  0.3809  0.0978
  924MPD2    C213573   1.710   4.618  16.106  0.8577  0.1832  0.4636
  924MPD2    C313574   1.738   0.015  16.103 -0.4346 -0.2754 -0.5039
  924MPD2    C413575   1.729   0.083  15.985  0.3166 -0.1531  0.4749
  924MPD2    C513576   1.685   0.014  15.869 -0.0012  0.0590 -0.0143
  924MPD2     H13577   1.728   4.563  16.198 -4.2910  1.7911  2.4362
  924MPD2    H113578   1.741   0.189  15.972 -1.6123  0.1749  1.3755
  924MPD2    H213579   1.638   4.580  15.781 -0.6424  2.6424 -1.4650
  924MPD2    H313580   1.670   0.062  15.773 -0.0767  0.6942  0.3168
  924MPD2     N13581   1.757   0.097  16.220 -0.2084 -0.1105 -0.4205
  924MPD2    H513582   1.761   0.197  16.208  1.4693 -0.1934 -0.4927
  924MPD2    N113583   1.657   4.405  15.990 -1.0250  0.2421 -0.0677
  924MPD2    H713584   1.630   4.363  15.902  2.8387  0.2192 -1.2601
  925MPD2     C13585   0.668   2.570  14.822  0.0829  0.9593  0.7321
  925MPD2    C113586   0.557   2.628  14.770  0.0142 -0.1141 -0.3025
  925MPD2    C213587   0.425   2.607  14.818  0.0431  0.6439 -0.3684
  925MPD2    C313588   0.410   2.533  14.935 -0.0254 -0.4623  0.3754
  925MPD2    C413589   0.523   2.477  14.995  0.1574  0.1674  0.1433
  925MPD2    C513590   0.648   2.490  14.932 -0.1834 -0.1062  0.9732
  925MPD2     H13591   0.339   2.639  14.760  0.1875 -0.3160 -1.1053
  925MPD2    H113592   0.525   2.408  15.078 -0.4253 -1.4885 -1.2297
  925MPD2    H213593   0.769   2.577  14.784 -0.6705  0.9956 -1.2475
  925MPD2    H313594   0.736   2.445  14.977  0.9925  0.9276 -0.3022
  925MPD2     N13595   0.286   2.503  14.991  0.2027  0.2786  0.4351
  925MPD2    H513596   0.286   2.424  15.054 -1.1803  0.0534  0.1466
  925MPD2    N113597   0.567   2.704  14.652 -0.0358 -0.2938  0.0027
  925MPD2    H713598   0.479   2.749  14.628 -0.7687 -0.0781  3.0692
  926MPD2     C13599   3.909   0.998  13.830 -0.7377  0.2208  0.7433
  926MPD2    C113600   3.860   1.121  13.795  0.1490 -0.1460 -0.3461
  926MPD2    C213601   3.942   1.237  13.778 -0.2167  0.2036  0.4066
  926MPD2    C313602   4.075   1.212  13.793  0.0720  0.1609  0.1358
  926MPD2    C413603   4.123   1.083  13.822 -0.3166 -0.9172 -0.5141
  926MPD2    C513604   4.040   0.983  13.845 -0.3041 -0.7085  0.2532
  926MPD2     H13605   3.910   1.339  13.760 -2.1989 -0.7535 -1.5854
  926MPD2    H113606   4.230   1.080  13.833 -0.4736 -1.1936  0.8686
  926MPD2    H213607   3.850   0.908  13.841 -0.5066  0.2685  2.3102
  926MPD2    H313608   4.077   0.886  13.877  1.0646  0.1144  1.1531
  926MPD2     N13609   4.174   1.304  13.762  0.3533 -0.0297 -0.5602
  926MPD2    H513610   4.270   1.277  13.781 -0.3470 -0.3321  2.4797
  926MPD2    N113611   3.722   1.150  13.778 -0.2001 -0.3338 -0.0023
  926MPD2    H713612   3.700   1.247  13.760 -1.6458 -0.9927 -1.8327
  927MPD2     C13613   3.943   3.427  17.489  0.2372  0.0847  0.2577
  927MPD2    C113614   3.804   3.457  17.479  0.2873 -0.2306  0.4952
  927MPD2    C213615   3.751   3.473  17.350 -0.2704 -0.3576 -0.1234
  927MPD2    C313616   3.831   3.485  17.235 -0.3109 -0.1158 -0.7774
  927MPD2    C413617   3.971   3.476  17.248  0.0149 -0.2341 -0.8409
  927MPD2    C513618   4.020   3.434  17.376 -0.0253 -0.2583 -0.4342
  927MPD2     H13619   3.644   3.470  17.332 -0.6065  0.6782  1.6712
  927MPD2    H113620   4.037   3.492  17.163  1.1786 -2.1717 -0.3020
  927MPD2    H213621   3.989   3.399  17.583 -0.0423 -0.6424  0.1826
  927MPD2    H313622   4.125   3.412  17.394 -0.1908  0.2596  1.1186
  927MPD2     N13623   3.766   3.512  17.114  0.4644  0.2657  0.4988
  927MPD2    H513624   3.666   3.526  17.118  0.0200 -1.6730 -4.0582
  927MPD2    N113625   3.724   3.449  17.597 -0.2579 -0.0862 -0.1136
  927MPD2    H713626   3.766   3.418  17.684 -0.8509  1.6956  0.8058
  928MPD2     C13627   0.980   1.228   0.705 -0.0506  0.4624 -0.2293
  928MPD2    C113628   1.060   1.274   0.811 -0.4681  0.0894 -0.7538
  928MPD2    C213629   1.152   1.374   0.780  0.1828  0.3121 -0.5053
  928MPD2    C313630   1.179   1.421   0.653 -0.3114 -0.5774 -0.0748
  928MPD2    C413631   1.109   1.372   0.547 -0.1400  0.0514 -0.6715
  928MPD2    C513632   1.011   1.281   0.576 -0.6081  0.0535 -0.3189
  928MPD2     H13633   1.213   1.400   0.865 -0.4532 -0.0743  0.0754
  928MPD2    H113634   1.125   1.404   0.444  0.5614  0.9943 -0.2670
  928MPD2    H213635   0.892   1.165   0.712 -0.0113  0.4729  0.4321
  928MPD2    H313636   0.938   1.246   0.504  0.9450 -0.8615 -1.4420
  928MPD2     N13637   1.275   1.520   0.634  0.6809 -0.9064  0.5855
  928MPD2    H513638   1.304   1.558   0.545 -0.1844  0.2227  0.7735
  928MPD2    N113639   1.053   1.236   0.947 -0.1843 -0.6931 -0.3149
  928MPD2    H713640   1.124   1.273   1.010 -0.8888  1.4791 -0.7816
  929MPD2     C13641   2.562   1.320   9.925 -0.1634  0.5772 -0.5856
  929MPD2    C113642   2.433   1.327   9.973 -0.3206  0.4733 -0.6876
  929MPD2    C213643   2.360   1.444   9.955  0.5086  0.0864  0.1956
  929MPD2    C313644   2.412   1.550   9.882  0.7238 -0.2769 -0.4519
  929MPD2    C413645   2.547   1.545   9.841 -0.7136 -0.0762 -0.3672
  929MPD2    C513646   2.616   1.429   9.859 -0.1408  0.2252 -0.5147
  929MPD2     H13647   2.253   1.445   9.975  0.1738  0.4365 -1.5897
  929MPD2    H113648   2.602   1.613   9.777  0.7115 -0.4190  0.4956
  929MPD2    H213649   2.611   1.225   9.943  2.3063  2.0894  0.6763
  929MPD2    H313650   2.719   1.417   9.828 -0.2732 -3.7849  0.5658
  929MPD2     N13651   2.338   1.666   9.848  0.5476 -0.4290  0.4693
  929MPD2    H513652   2.392   1.749   9.824 -0.4993  0.6274  1.7403
  929MPD2    N113653   2.380   1.213  10.044 -0.0045  0.7221  0.0931
  929MPD2    H713654   2.446   1.138  10.063 -0.0933  0.1816 -1.6791
  930MPD2     C13655   3.268   4.063  14.316  0.7973 -0.1786  0.4098
  930MPD2    C113656   3.375   4.074  14.228 -0.6333 -0.2111  0.2717
  930MPD2    C213657   3.355   4.029  14.099  0.2371  0.1817 -0.9473
  930MPD2    C313658   3.235   3.994  14.045  0.2741 -0.9176 -0.3272
  930MPD2    C413659   3.129   3.993  14.136  0.2250  0.6042 -0.4236
  930MPD2    C513660   3.146   4.023  14.271  0.9280 -0.0072 -0.8730
  930MPD2     H13661   3.443   4.016  14.036  0.6719 -0.3815 -0.2351
  930MPD2    H113662   3.026   3.974  14.107 -0.2868  1.2462  0.9960
  930MPD2    H213663   3.275   4.087  14.421  0.6369 -2.1920  0.8696
  930MPD2    H313664   3.053   4.028  14.327  0.1380  0.4667 -2.2130
  930MPD2     N13665   3.230   3.978  13.911 -0.1564  0.2789 -0.7762
  930MPD2    H513666   3.318   3.984  13.861 -0.9656  1.8965 -2.0299
  930MPD2    N113667   3.497   4.132  14.255 -0.2816  0.1023  0.5270
  930MPD2    H713668   3.544   4.165  14.171 -2.3267  1.3286 -0.1507
  931MPD2     C13669   3.905   3.164   0.340 -0.5020  0.1355  0.5683
  931MPD2    C113670   3.780   3.210   0.373 -0.1972  0.2360  0.6797
  931MPD2    C213671   3.716   3.148   0.478  0.0126 -0.4650  0.1403
  931MPD2    C313672   3.771   3.041   0.547  0.5396 -0.2354  0.2095
  931MPD2    C413673   3.900   3.008   0.511 -0.3023 -0.4128 -0.2336
  931MPD2    C513674   3.963   3.065   0.407 -0.1674  0.0544  0.1706
  931MPD2     H13675   3.611   3.173   0.484  0.1771 -0.0437  1.1491
  931MPD2    H113676   3.949   2.928   0.566 -1.4639  0.2130  1.7374
  931MPD2    H213677   3.953   3.219   0.260  0.8396 -0.1098  1.2052
  931MPD2    H313678   4.058   3.021   0.380 -1.3876 -0.4468 -3.3254
  931MPD2     N13679   3.696   2.958   0.632  0.2241  0.3691 -0.0984
  931MPD2    H513680   3.738   2.867   0.649 -0.0973  0.0569 -0.9896
  931MPD2    N113681   3.715   3.307   0.293 -0.8880 -0.0602  0.7671
  931MPD2    H713682   3.744   3.317   0.196 -3.3804  2.0572  0.2481
  932MPD2     C13683   1.021   2.208  11.611  0.0300 -0.7749  0.2876
  932MPD2    C113684   1.151   2.169  11.617 -0.8580  0.5488 -0.5649
  932MPD2    C213685   1.181   2.036  11.591 -0.3612  0.8746  0.5648
  932MPD2    C313686   1.084   1.936  11.563  0.3613  0.4064  0.3275
  932MPD2    C413687   0.954   1.982  11.560  0.5158  0.5895 -0.4511
  932MPD2    C513688   0.926   2.113  11.586  0.4497 -0.8628  0.0209
  932MPD2     H13689   1.287   2.013  11.579 -0.5088  0.1407  0.6612
  932MPD2    H113690   0.876   1.911  11.536 -1.0707  2.0763  0.3684
  932MPD2    H213691   0.995   2.311  11.633  1.1850 -0.2716 -0.6935
  932MPD2    H313692   0.822   2.142  11.601  0.8286 -0.2547  1.5068
  932MPD2     N13693   1.103   1.798  11.566 -0.0032  0.6528 -0.0308
  932MPD2    H513694   1.017   1.744  11.570  0.1837  0.4547  1.2024
  932MPD2    N113695   1.262   2.254  11.636  0.6824 -0.4232  0.0805
  932MPD2    H713696   1.352   2.218  11.610  0.3705 -0.4626 -0.9331
  933MPD2     C13697   0.735   1.270   1.762  0.5356  0.1318 -0.1431
  933MPD2    C113698   0.771   1.345   1.650 -0.5180 -0.8626  0.1426
  933MPD2    C213699   0.732   1.473   1.645  0.5760 -0.3279  0.2116
  933MPD2    C313700   0.634   1.524   1.737  0.5717  0.2892 -0.3076
  933MPD2    C413701   0.584   1.444   1.831 -0.1709  0.0317 -0.4964
  933MPD2    C513702   0.647   1.323   1.852  0.5072 -0.8699 -0.1513
  933MPD2     H13703   0.777   1.532   1.566 -0.6658  0.1804 -0.1188
  933MPD2    H113704   0.504   1.475   1.897  0.7381 -1.0543  1.1184
  933MPD2    H213705   0.766   1.168   1.778  1.7720  0.3092 -1.4447
  933MPD2    H313706   0.612   1.261   1.934  0.4521 -0.8730 -0.1775
  933MPD2     N13707   0.590   1.651   1.706 -0.1048 -0.4741 -0.0797
  933MPD2    H513708   0.655   1.704   1.649  0.2056 -1.6731 -0.8535
  933MPD2    N113709   0.860   1.293   1.558  0.3860 -0.1882  0.2380
  933MPD2    H713710   0.891   1.197   1.575  0.5012 -0.3472 -0.8628
  934MPD2     C13711   2.195   4.546   1.601 -0.0670 -0.2142 -0.3912
  934MPD2    C113712   2.302   4.493   1.538  0.4991 -0.3172  0.0187
  934MPD2    C213713   2.278   4.382   1.459  0.0965  0.1696 -0.6098
  934MPD2    C313714   2.160   4.315   1.457 -0.1432 -0.1581  0.7382
  934MPD2    C413715   2.061   4.368   1.532 -0.8924 -0.6357 -0.2951
  934MPD2    C513716   2.081   4.483   1.604  0.5875  0.2153 -0.2536
  934MPD2     H13717   2.361   4.354   1.395  0.4953 -0.4904  0.1964
  934MPD2    H113718   1.966   4.316   1.539 -1.6805  1.0979  1.6724
  934MPD2    H213719   2.201   4.640   1.655  1.4210  0.3601 -1.5548
  934MPD2    H313720   2.007   4.531   1.667  3.3877  1.0249  2.4074
  934MPD2     N13721   2.135   4.206   1.379  0.2013 -0.0015  0.2818
  934MPD2    H513722   2.038   4.178   1.385 -0.6289  3.1134  1.3601
  934MPD2    N113723   2.430   4.541   1.543 -0.1122  0.3945 -0.2424
  934MPD2    H713724   2.497   4.487   1.489  0.9480  0.7661  0.7120
  935MPD2     C13725   2.635   3.495   0.789  0.4006  0.1504 -0.8569
  935MPD2    C113726   2.500   3.464   0.804  0.2565  0.5917 -0.0782
  935MPD2    C213727   2.412   3.547   0.865  0.3984 -0.1588  0.3404
  935MPD2    C313728   2.459   3.664   0.933  0.1334 -0.4116  0.2979
  935MPD2    C413729   2.595   3.691   0.920 -0.0863  0.6875  0.0286
  935MPD2    C513730   2.684   3.612   0.849  0.6631  0.0169  0.0866
  935MPD2     H13731   2.306   3.523   0.858  0.5164 -0.1284 -1.4960
  935MPD2    H113732   2.636   3.766   0.987 -0.1718  1.4221 -0.7380
  935MPD2    H213733   2.714   3.431   0.753  1.8711  2.4541 -1.7322
  935MPD2    H313734   2.788   3.645   0.847  0.4193  0.9534  1.8219
  935MPD2     N13735   2.373   3.751   1.005 -0.4263  0.0145  0.1096
  935MPD2    H513736   2.417   3.833   1.043  0.5685 -1.0857  1.3366
  935MPD2    N113737   2.446   3.349   0.745 -0.0325  0.2013 -0.7231
  935MPD2    H713738   2.347   3.337   0.760  0.2088 -1.1251 -0.1508
  936MPD2     C13739   0.995   1.431  12.758  0.1410  0.2483 -0.1880
  936MPD2    C113740   1.084   1.327  12.747 -0.7651  0.3736  0.4385
  936MPD2    C213741   1.199   1.353  12.677 -0.0203  0.4812 -0.6088
  936MPD2    C313742   1.224   1.471  12.609  0.4143  0.3293 -0.2166
  936MPD2    C413743   1.133   1.575  12.624 -0.4335 -0.4644  0.3400
  936MPD2    C513744   1.021   1.550  12.699  0.8735  0.3666  0.0214
  936MPD2     H13745   1.272   1.273  12.674 -1.2315 -0.6284 -0.6213
  936MPD2    H113746   1.147   1.671  12.576  2.6716 -0.6893  0.8306
  936MPD2    H213747   0.899   1.423  12.806  1.3245 -0.8444  1.9750
  936MPD2    H313748   0.949   1.629  12.718  1.7320  1.1798 -0.1544
  936MPD2     N13749   1.343   1.481  12.544  0.1295  0.2277  0.5384
  936MPD2    H513750   1.406   1.403  12.562  0.3520 -0.3340 -2.6894
  936MPD2    N113751   1.081   1.206  12.819  0.4574 -0.0346  0.5359
  936MPD2    H713752   1.157   1.140  12.805 -0.3829 -1.1114  1.0222
  937MPD2     C13753   3.990   1.840  11.661  0.2682 -0.3786 -0.3542
  937MPD2    C113754   4.057   1.952  11.679 -0.0988  0.4300 -0.5012
  937MPD2    C213755   4.156   1.988  11.589  0.3642  0.2506 -0.2815
  937MPD2    C313756   4.196   1.911  11.489  0.0122 -0.3893 -0.1125
  937MPD2    C413757   4.142   1.782  11.478 -0.9472 -0.2854  0.5308
  937MPD2    C513758   4.035   1.753  11.559 -0.5648  0.0996 -0.1894
  937MPD2     H13759   4.194   2.089  11.600  0.0586  0.4047 -0.6891
  937MPD2    H113760   4.171   1.711  11.402 -0.6540 -0.4044  0.7527
  937MPD2    H213761   3.900   1.819  11.718 -0.6194  0.1245 -1.5800
  937MPD2    H313762   3.990   1.656  11.538  1.4989 -0.6682 -1.0315
  937MPD2     N13763   4.291   1.956  11.397  0.1040 -0.4105  0.2914
  937MPD2    H513764   4.316   2.053  11.415 -1.3946 -0.1692  1.1023
  937MPD2    N113765   4.013   2.052  11.765  0.1355 -0.6656  0.4661
  937MPD2    H713766   4.045   2.147  11.749  2.0610 -1.0185  2.3263
  938MPD2     C13767   1.222   3.347   0.791 -0.3215 -0.1953  0.3706
  938MPD2    C113768   1.342   3.424   0.815 -0.5165 -0.3233  0.1424
  938MPD2    C213769   1.379   3.437   0.947  0.0686 -0.9238 -0.6150
  938MPD2    C313770   1.323   3.361   1.051  0.0116  0.2407  0.1718
  938MPD2    C413771   1.209   3.286   1.021 -0.2781 -0.0316 -0.4320
  938MPD2    C513772   1.157   3.288   0.895 -0.1037  0.5164 -1.0841
  938MPD2     H13773   1.460   3.507   0.963  1.3338 -2.1191 -1.8013
  938MPD2    H113774   1.152   3.226   1.091  2.4052 -3.0933 -0.8545
  938MPD2    H213775   1.180   3.341   0.691  0.7308 -0.1592 -0.0795
  938MPD2    H313776   1.066   3.241   0.860  0.1003 -0.8573  0.2129
  938MPD2     N13777   1.361   3.366   1.187  0.7364 -0.7458  0.1879
  938MPD2    H513778   1.308   3.307   1.250  2.2740 -0.5148  1.6951
  938MPD2    N113779   1.402   3.507   0.721 -0.2736 -0.5181 -0.6405
  938MPD2    H713780   1.475   3.569   0.752 -0.4109 -0.6555 -0.0402
  939MPD2     C13781   1.860   4.098   0.410  0.6036 -0.7953  0.0449
  939MPD2    C113782   1.915   4.211   0.476 -0.1963 -0.1079 -0.1959
  939MPD2    C213783   2.054   4.226   0.481 -0.4228  0.4350 -0.7187
  939MPD2    C313784   2.134   4.138   0.407  0.3967  0.2185 -0.1386
  939MPD2    C413785   2.083   4.035   0.336  0.0406  0.5619  0.4651
  939MPD2    C513786   1.946   4.015   0.343 -0.0672 -0.0949 -0.4582
  939MPD2     H13787   2.100   4.308   0.535  2.3905 -0.9516 -0.9836
  939MPD2    H113788   2.129   3.966   0.267 -1.8251 -2.0608  1.8568
  939MPD2    H213789   1.753   4.081   0.408  0.3983  0.5709 -0.8214
  939MPD2    H313790   1.904   3.932   0.287 -1.4280  0.1584  0.2050
  939MPD2     N13791   2.270   4.175   0.395  0.3561 -0.1115 -0.1212
  939MPD2    H513792   2.300   4.248   0.458 -1.9007  0.5965  0.1401
  939MPD2    N113793   1.822   4.312   0.519  0.0371 -0.2133  0.4644
  939MPD2    H713794   1.726   4.297   0.491  0.4291  0.3135 -1.1716
  940MPD2     C13795   1.192   1.358  13.119 -0.5541 -0.9486  0.1500
  940MPD2    C113796   1.285   1.296  13.194  0.0339  0.3146  0.3252
  940MPD2    C213797   1.414   1.301  13.162  0.1847  0.1045  0.1386
  940MPD2    C313798   1.453   1.355  13.043 -0.2100  0.3971 -0.1906
  940MPD2    C413799   1.356   1.416  12.965 -0.0106 -0.3416 -0.5831
  940MPD2    C513800   1.227   1.419  13.005  0.7785  0.0260  0.1849
  940MPD2     H13801   1.485   1.259  13.232 -2.0873 -0.7880  1.8916
  940MPD2    H113802   1.383   1.470  12.875  2.3992  2.2749  1.6998
  940MPD2    H213803   1.087   1.366  13.147 -0.3991 -1.0362  0.7634
  940MPD2    H313804   1.146   1.477  12.962  0.3158 -0.1087  0.8681
  940MPD2     N13805   1.588   1.365  12.994  0.4024 -0.3426 -0.6631
  940MPD2    H513806   1.597   1.412  12.905 -0.1112  0.0083 -0.5312
  940MPD2    N113807   1.253   1.247  13.325  0.3069  0.6267 -0.4358
  940MPD2    H713808   1.325   1.199  13.378 -1.4748  0.6399  1.9706
  941MPD2     C13809   2.038   4.426  10.322  0.1044  0.3467 -0.7248
  941MPD2    C113810   2.122   4.403  10.425 -0.2857  0.4844 -0.3690
  941MPD2    C213811   2.074   4.341  10.543  0.5526  0.6315  0.4406
  941MPD2    C313812   1.942   4.306  10.554  0.0548  0.0897  0.2048
  941MPD2    C413813   1.860   4.316  10.443 -0.5456 -0.5065  0.1016
  941MPD2    C513814   1.907   4.383  10.335 -0.7033 -0.5293  0.4371
  941MPD2     H13815   2.150   4.332  10.620  1.2220  1.8529 -0.0710
  941MPD2    H113816   1.757   4.282  10.445 -0.8065  0.2167 -1.1632
  941MPD2    H213817   2.065   4.482  10.233 -1.2570  0.8558 -0.8125
  941MPD2    H313818   1.837   4.396  10.253  2.4859  3.0807 -1.7498
  941MPD2     N13819   1.879   4.254  10.669  0.4301 -0.2718  0.0457
  941MPD2    H513820   1.778   4.243  10.667  0.2154  1.2489  2.3550
  941MPD2    N113821   2.262   4.440  10.423  0.1928 -0.1122  0.4471
  941MPD2    H713822   2.314   4.421  10.508  0.9204  0.9773  0.2494
  942MPD2     C13823   1.328   1.733   9.418  0.0729  0.1540  0.4956
  942MPD2    C113824   1.337   1.619   9.499 -0.9422  0.0487  0.5785
  942MPD2    C213825   1.418   1.515   9.458 -0.5668 -0.2553 -0.1759
  942MPD2    C313826   1.494   1.518   9.341 -0.1859 -0.4087  0.7579
  942MPD2    C413827   1.481   1.628   9.260  0.4200 -0.1340 -0.4460
  942MPD2    C513828   1.401   1.731   9.300 -0.3090  0.0421  0.2882
  942MPD2     H13829   1.420   1.421   9.513  0.6916 -0.7094 -1.0000
  942MPD2    H113830   1.527   1.639   9.162  0.0130 -0.7173 -0.7006
  942MPD2    H213831   1.272   1.821   9.448 -0.4558  0.1591 -0.5067
  942MPD2    H313832   1.403   1.825   9.247  1.3100  0.7589  1.6281
  942MPD2     N13833   1.564   1.404   9.298 -0.3855 -0.4980 -0.5972
  942MPD2    H513834   1.606   1.406   9.206  2.0302 -1.7462  0.4793
  942MPD2    N113835   1.265   1.605   9.623 -0.0615 -0.3935  0.3580
  942MPD2    H713836   1.291   1.532   9.689 -1.5635 -0.7695  0.5387
  943MPD2     C13837   0.518   0.144  10.920  0.5430  0.0776  0.3454
  943MPD2    C113838   0.441   0.031  10.930 -0.1666 -0.5102  0.0307
  943MPD2    C213839   0.340   0.021  11.024 -0.8145 -0.4984 -1.0288
  943MPD2    C313840   0.311   0.129  11.105 -0.4860  0.0309 -0.9883
  943MPD2    C413841   0.383   0.244  11.083  0.7747  0.3732  1.5123
  943MPD2    C513842   0.489   0.252  10.993  0.2291 -0.2044 -0.5480
  943MPD2     H13843   0.275   4.676  11.039  1.8554 -2.0907  1.3703
  943MPD2    H113844   0.354   0.334  11.136 -1.8436  0.6414 -0.3722
  943MPD2    H213845   0.606   0.134  10.857 -0.7227  0.0009 -1.4144
  943MPD2    H313846   0.553   0.338  10.976  2.0084 -1.4381 -0.1500
  943MPD2     N13847   0.202   0.135  11.197 -0.0168  0.4927 -0.0576
  943MPD2    H513848   0.177   0.225  11.237  0.4102  0.3515  0.5372
  943MPD2    N113849   0.484   4.665  10.847  0.6463  0.3488  0.2670
  943MPD2    H713850   0.562   4.684  10.785 -0.7942 -0.1178 -1.7162
  944MPD2     C13851   4.578   3.955  11.477 -0.1869  0.7122 -0.9867
  944MPD2    C113852   4.522   3.949  11.603 -0.3002  0.0840  0.2145
  944MPD2    C213853   4.477   4.068  11.662  0.3023 -0.0917  0.3200
  944MPD2    C313854   4.500   4.190  11.599 -0.4520 -0.2525  0.2756
  944MPD2    C413855   4.567   4.192  11.475 -0.3212 -0.5402 -1.1734
  944MPD2    C513856   4.601   4.073  11.411 -0.0625 -0.1306  0.1478
  944MPD2     H13857   4.432   4.067  11.760  1.9609  1.9402  1.0870
  944MPD2    H113858   4.586   4.279  11.413  0.6120 -0.3602 -0.6263
  944MPD2    H213859   4.593   3.861  11.425  0.6417 -0.9601  2.2651
  944MPD2    H313860   4.651   4.082  11.315 -0.6529  1.5902 -0.0041
  944MPD2     N13861   4.451   4.307  11.665  0.6676  0.4811 -0.4429
  944MPD2    H513862   4.402   4.289  11.752 -0.4387  2.1121 -0.7447
  944MPD2    N113863   4.494   3.816  11.654 -0.0826 -0.1742  0.1278
  944MPD2    H713864   4.543   3.738  11.611  0.0461  0.3923 -0.7739
    1TMC1    C113865   1.373   4.658  14.463  0.1920 -0.1196 -0.5504
    1TMC1    C213866   1.349   4.531  14.454  0.8363 -0.0574  0.3749
    1TMC1    C313867   1.245   4.476  14.526  0.3623  0.0108  0.4082
    1TMC1    C413868   1.317   0.003  14.554 -0.2881 -0.4169 -0.5028
    1TMC1    C513869   1.234   4.686  14.639  0.0120  0.1777 -0.5833
    1TMC1    C613870   1.189   4.553  14.626 -0.7559 -0.8755 -0.1921
    1TMC1     C13871   1.501   4.705  14.418 -0.2853  0.5387 -0.3196
    1TMC1     O13872   1.541   4.644  14.318 -0.2589 -0.1771 -0.4294
    1TMC1     H13873   1.402   4.472  14.380  0.9452  0.4796  0.0275
    1TMC1    H113874   1.339   0.109  14.566 -0.5885 -0.5772  1.4876
    1TMC1    H213875   1.123   4.514  14.702 -2.0943 -0.5883 -1.1959
    1TMC1    C713876   1.140   0.030  14.709  0.8212  0.2335 -0.1944
    1TMC1    C813877   1.234   4.333  14.552 -0.1249 -0.7995  0.1667
    1TMC1    O113878   1.021   0.005  14.701 -0.2071 -0.3863  0.0672
    1TMC1    O213879   1.202   4.295  14.662  0.5715  0.0366 -0.4332
    1TMC1    O313880   1.197   0.131  14.781 -0.6261  0.0204 -0.2540
    1TMC1    H313881   1.295   0.129  14.770 -0.6294  0.6467 -0.4189
    1TMC1    O513882   1.273   4.251  14.455  0.0760 -0.3500 -0.2409
    1TMC1    H513883   1.243   4.299  14.375  2.6971  1.3739 -0.2064
    2MPD2     C13884   1.883   0.283  14.416  0.2326  0.1471  0.0261
    2MPD2    C113885   1.850   0.277  14.545  0.0961  0.6921  0.0638
    2MPD2    C213886   1.734   0.208  14.572 -0.1374  0.1157  0.0417
    2MPD2    C313887   1.668   0.141  14.467 -0.3410  0.1763 -0.0040
    2MPD2    C413888   1.716   0.140  14.334 -0.0441  0.2762  0.3877
    2MPD2    C513889   1.819   0.220  14.316  0.2177 -0.5675  0.5831
    2MPD2     H13890   1.682   0.206  14.666 -0.4755 -0.8035 -0.1711
    2MPD2    H113891   1.669   0.097  14.246 -0.3961 -0.2110  0.8097
    2MPD2    H213892   1.966   0.342  14.380  0.9451  0.0136  1.4210
    2MPD2    H313893   1.842   0.250  14.214  1.0319 -1.6936  0.4275
    2MPD2     N13894   1.553   0.069  14.495  0.1864 -0.8013  0.0079
    2MPD2    H513895   1.514   0.080  14.588 -3.1547 -0.6035 -1.4035
    2MPD2    N113896   1.916   0.359  14.641 -0.8902 -0.7333  0.2328
    2MPD2    H713897   1.989   0.427  14.622  0.0317 -1.3701  1.4846
    3TMC2    C113898   1.960   0.444  14.861 -0.2349  0.3195 -0.6591
    3TMC2    C213899   1.970   0.406  14.992  0.2951  0.7495  0.9320
    3TMC2    C313900   2.068   0.467  15.064 -0.3161  0.3539 -0.1433
    3TMC2    C413901   2.052   0.528  14.808 -0.2706  0.5083  0.1267
    3TMC2    C513902   2.148   0.581  14.890 -0.1110 -0.2511  0.1456
    3TMC2    C613903   2.167   0.550  15.022 -0.3600 -0.1372  0.1077
    3TMC2     C13904   1.890   0.342  14.772  0.3302 -0.2661  0.3142
    3TMC2     O13905   1.820   0.261  14.832 -0.1134 -0.5186 -0.3271
    3TMC2     H13906   1.893   0.350  15.043  1.9717 -1.7843  0.7011
    3TMC2    H113907   2.043   0.564  14.706 -0.2008 -0.8324 -0.3452
    3TMC2    H213908   2.232   0.597  15.095 -0.5742  1.4821 -0.7240
    3TMC2    C713909   2.207   0.708  14.844 -0.4701 -0.0120  0.8037
    3TMC2    C813910   2.085   0.406  15.194  0.0949 -0.1139  0.3267
    3TMC2    O113911   2.313   0.738  14.901  0.2455 -0.7063  0.3061
    3TMC2    O213912   1.993   0.366  15.264  0.1659  0.1743  0.1693
    3TMC2    O513913   2.207   0.350  15.190 -0.2473  0.1565  0.2480
    3TMC2    H513914   2.265   0.384  15.119 -0.3189 -0.8061 -0.2674
    4TMC2    C113915   1.636   1.314  14.230  0.3286 -0.2769  0.6002
    4TMC2    C213916   1.724   1.369  14.135 -0.5995 -0.5026  0.1991
    4TMC2    C313917   1.858   1.361  14.153 -0.2098  0.1480  0.2407
    4TMC2    C413918   1.694   1.266  14.349  0.8202  0.4005  0.6812
    4TMC2    C513919   1.830   1.262  14.363 -0.0116  0.5785 -0.5281
    4TMC2    C613920   1.918   1.305  14.265 -0.2934 -0.3102  0.0569
    4TMC2     C13921   1.488   1.315  14.217  0.6178 -0.2597  0.2080
    4TMC2     O13922   1.429   1.296  14.320  0.0514 -0.3896  0.5547
    4TMC2     H13923   1.688   1.442  14.063 -2.4636 -0.4041  1.2252
    4TMC2    H113924   1.639   1.229  14.435 -1.3701  0.6027 -0.6261
    4TMC2    H213925   2.026   1.293  14.261 -0.0139  2.3488 -0.6416
    4TMC2    C713926   1.886   1.166  14.464  0.6711 -0.1604  0.1476
    4TMC2    C813927   1.945   1.442  14.071  0.4620  0.1406 -0.2563
    4TMC2    O113928   1.821   1.066  14.484 -0.2934 -0.2817  0.2198
    4TMC2    O213929   2.056   1.473  14.107 -0.9565 -0.1324  0.0212
    4TMC2    O513930   1.903   1.442  13.944 -0.3457 -0.3909  0.3251
    4TMC2    H513931   1.819   1.392  13.939 -0.2438 -0.1985 -3.1968
    5MPD2     C13932   1.062   1.436  13.980  0.3404  0.3165 -0.3698
    5MPD2    C113933   1.171   1.465  13.901 -0.5296 -0.1934  0.1912
    5MPD2    C213934   1.296   1.434  13.941  0.6034 -0.4835  0.6150
    5MPD2    C313935   1.316   1.366  14.060 -0.3686 -0.8155  0.4685
    5MPD2    C413936   1.207   1.333  14.134 -0.0460 -0.0865 -0.3332
    5MPD2    C513937   1.081   1.363  14.093 -0.1257  0.0731  0.4948
    5MPD2     H13938   1.376   1.449  13.869 -1.6197  0.4331 -1.6328
    5MPD2    H113939   1.217   1.303  14.237  1.2614  1.5232  0.0025
    5MPD2    H213940   0.963   1.459  13.941 -0.9409 -2.5379  1.2284
    5MPD2    H313941   0.998   1.326  14.152 -1.1781 -0.5855 -1.4213
    5MPD2     N13942   1.446   1.338  14.088 -0.4050 -0.1722  0.1454
    5MPD2    H513943   1.521   1.355  14.021  1.7507 -2.1368  2.0723
    5MPD2    N113944   1.143   1.533  13.778 -1.1202  0.2054  0.3382
    5MPD2    H713945   1.047   1.565  13.767 -1.6119 -1.5093 -0.4141
    6MPD1     C13946   1.169   3.272  13.730 -0.0711 -0.0958 -0.2685
    6MPD1    C113947   1.250   3.230  13.629 -0.3939 -0.3101  0.0209
    6MPD1    C213948   1.240   3.101  13.585 -0.0456  0.4119 -0.2172
    6MPD1    C313949   1.139   3.018  13.625 -0.0256 -0.2956  0.7301
    6MPD1    C413950   1.061   3.055  13.726  0.1961  0.1580 -0.2951
    6MPD1    C513951   1.074   3.176  13.776  0.1730 -0.2492  0.6162
    6MPD1     H13952   1.318   3.070  13.517  0.0565  0.5806 -0.1777
    6MPD1    H113953   0.992   2.986  13.774 -0.5028 -0.4518 -2.2000
    6MPD1    H213954   1.166   3.367  13.782  1.4349 -1.1663  1.7734
    6MPD1    H313955   1.007   3.206  13.856  1.2215  0.4568  1.2316
    6MPD1     N13956   1.106   2.900  13.558 -0.2597 -0.0363  0.3952
    6MPD1    H513957   1.025   2.852  13.597 -0.3848  0.5715  0.8873
    6MPD1    N113958   1.341   3.321  13.572 -0.0809 -1.2816 -0.0928
    6MPD1    H613959   1.356   3.298  13.474  0.4342 -2.0053  0.1516
    6MPD1    H713960   1.312   3.418  13.580 -1.8132 -1.7264 -1.0051
    7MPD2     C13961   0.643   2.266  13.511 -0.1822  0.1261  0.8874
    7MPD2    C113962   0.781   2.256  13.507  0.2656  0.0812 -0.6087
    7MPD2    C213963   0.832   2.131  13.494 -0.3650  0.3850 -0.4437
    7MPD2    C313964   0.756   2.016  13.495 -0.4254  0.2857  0.1147
    7MPD2    C413965   0.618   2.034  13.502  0.4084  0.5306 -0.2824
    7MPD2    C513966   0.564   2.157  13.497 -0.3995  0.0538 -0.2744
    7MPD2     H13967   0.940   2.125  13.487 -0.2241 -1.2466  3.3499
    7MPD2    H113968   0.562   1.942  13.487  0.3138  0.8621 -1.9614
    7MPD2    H213969   0.596   2.360  13.537 -1.0718 -0.0097 -0.1879
    7MPD2    H313970   0.457   2.163  13.512 -0.0856  2.5375  0.8875
    7MPD2     N13971   0.816   1.885  13.469  0.5776  0.0819 -0.3728
    7MPD2    H513972   0.762   1.799  13.471  0.4351  0.1637 -0.7047
    7MPD2    N113973   0.867   2.361  13.503 -0.5584  0.3309 -0.1757
    7MPD2    H713974   0.966   2.344  13.493 -0.4894  1.9643 -2.4145
    8TMC3    C113975   0.980   1.723  13.460  0.3195 -0.1322 -0.6835
    8TMC3    C213976   1.045   1.680  13.573  1.5885  0.2563 -0.8417
    8TMC3    C313977   1.161   1.614  13.554 -0.0567 -0.1399  0.2012
    8TMC3    C413978   1.032   1.702  13.336  0.1199  0.4764 -0.5766
    8TMC3    C513979   1.153   1.640  13.323 -0.3050 -0.0644  0.1514
    8TMC3    C613980   1.226   1.606  13.434  0.2670 -0.3267  0.0279
    8TMC3     C13981   0.950   1.862  13.484  0.3313 -0.6676 -0.3791
    8TMC3     O13982   1.051   1.929  13.507  0.0823 -0.1112 -0.2765
    8TMC3     H13983   1.013   1.699  13.674 -0.8479 -0.6411 -1.4490
    8TMC3    H113984   0.976   1.738  13.251  0.7269  1.2813 -0.6351
    8TMC3    H213985   1.325   1.566  13.419 -0.0147 -1.1406  0.3081
    8TMC3    C713986   1.232   1.732  13.244  0.4606  0.0106 -1.1272
    8TMC3    C813987   1.221   1.542  13.665  0.7082  0.6427  0.9387
    8TMC3    O113988   1.288   1.685  13.146  0.0592  0.4572 -0.4675
    8TMC3    O213989   1.331   1.492  13.643  1.0034 -0.6017  0.6617
    9TMC3    C113990   1.094   2.728  13.392  0.4825  0.3715 -0.2543
    9TMC3    C213991   1.169   2.657  13.311 -0.3109  0.9093  0.0176
    9TMC3    C313992   1.126   2.533  13.273  0.2229 -0.5192  0.5240
    9TMC3    C413993   0.976   2.679  13.449 -0.0370 -0.0720  0.2535
    9TMC3    C513994   0.940   2.558  13.411 -0.4541  0.1976 -0.0256
    9TMC3    C613995   1.000   2.482  13.314 -0.1797  0.7311  0.6680
    9TMC3     C13996   1.167   2.844  13.442 -0.1751  0.5181  0.0985
    9TMC3     O13997   1.263   2.885  13.377  0.2849 -0.5796 -0.0840
    9TMC3     H13998   1.264   2.692  13.271 -0.4597  0.0263 -1.0874
    9TMC3    H113999   0.920   2.725  13.530  0.5866  1.8721 -0.4208
    9TMC3    H214000   0.960   2.385  13.288  3.5876  0.1221 -2.7696
    9TMC3    C714001   0.832   2.494  13.481  0.0226 -0.5210  0.7492
    9TMC3    C814002   1.204   2.454  13.173  0.5636  1.1696  0.0352
    9TMC3    O114003   0.728   2.551  13.503  0.0266  0.9965 -0.0730
    9TMC3    O214004   1.232   2.502  13.067  0.5416  0.2844  0.3815
   10MPD2     C14005   1.331   1.956  13.086  0.9659 -0.6458 -0.2612
   10MPD2    C114006   1.253   1.967  13.199  0.4008 -0.0006 -0.7816
   10MPD2    C214007   1.203   2.092  13.239 -0.5979 -0.3051 -0.4232
   10MPD2    C314008   1.235   2.205  13.170 -0.2232  0.5827  0.2563
   10MPD2    C414009   1.310   2.195  13.059  0.2928 -0.4757  0.0446
   10MPD2    C514010   1.356   2.073  13.020  0.2445 -0.1937 -0.9868
   10MPD2     H14011   1.133   2.106  13.320 -0.0338 -2.5424  0.4614
   10MPD2    H114012   1.343   2.289  13.017 -0.9838  0.2245  0.6132
   10MPD2    H214013   1.373   1.866  13.043 -0.4968 -2.7476  2.8203
   10MPD2    H314014   1.419   2.068  12.932 -0.8135  1.3165 -1.8255
   10MPD2     N14015   1.187   2.328  13.223 -0.1157 -0.4302 -0.2401
   10MPD2    H514016   1.139   2.319  13.313  3.0509 -0.1402  1.4711
   10MPD2    N114017   1.204   1.860  13.277  0.8496 -0.1934  0.5022
   10MPD2    H714018   1.149   1.882  13.360 -0.3100  0.4019 -0.4206
   11MPD2     C14019   2.281   0.991  14.750  1.0915 -0.1075  0.1079
   11MPD2    C114020   2.164   0.924  14.717  0.0488 -0.0704 -0.3036
   11MPD2    C214021   2.068   0.996  14.640 -0.2933 -0.4734  0.5004
   11MPD2    C314022   2.096   1.128  14.598 -0.1053 -0.2015  0.6670
   11MPD2    C414023   2.214   1.186  14.630 -0.2374 -0.1207 -0.3293
   11MPD2    C514024   2.303   1.119  14.708  0.2972  0.0210 -0.2921
   11MPD2     H14025   1.972   0.954  14.615 -0.3770  0.4264 -0.6789
   11MPD2    H114026   2.235   1.287  14.597  0.3324 -1.0196 -2.7330
   11MPD2    H214027   2.357   0.942  14.809 -0.6099  0.0213  2.4036
   11MPD2    H314028   2.397   1.166  14.736 -0.8217  1.2783  1.3179
   11MPD2     N14029   2.006   1.206  14.518  0.5284 -0.2265 -0.7704
   11MPD2    H514030   2.045   1.293  14.484  1.2324 -0.2992 -0.1419
   11MPD2    N114031   2.137   0.790  14.754 -0.1990 -0.6965  0.4443
   11MPD2    H714032   2.049   0.752  14.721 -0.7070 -0.7450  1.8548
    1MPD1     C14033   0.588   1.657  17.172  0.2628  0.2150  0.5255
    1MPD1    C114034   0.626   1.739  17.069 -0.2855  0.1878  0.2322
    1MPD1    C214035   0.569   1.867  17.071  0.2400  0.1741  0.2499
    1MPD1    C314036   0.470   1.894  17.163  0.2351  0.7141 -0.3535
    1MPD1    C414037   0.428   1.797  17.256 -0.5838  0.0926 -0.4799
    1MPD1    C514038   0.484   1.678  17.258 -0.2174 -0.2987  0.0323
    1MPD1     H14039   0.601   1.946  17.004  0.4915  0.3322  0.5575
    1MPD1    H114040   0.336   1.806  17.311  1.4198 -1.8243  3.2337
    1MPD1    H214041   0.640   1.564  17.188 -0.9926 -0.4864  0.5462
    1MPD1    H314042   0.453   1.597  17.323  1.8927 -2.7920 -2.0479
    1MPD1     N14043   0.392   2.006  17.158 -0.4434 -0.0767  0.0513
    1MPD1    H514044   0.315   2.003  17.225  1.6773  2.4361  2.6072
    1MPD1    N114045   0.742   1.716  16.989 -0.2749 -0.0305 -0.6394
    1MPD1    H614046   0.761   1.617  16.974  0.3113  0.0600 -0.5091
    1MPD1    H714047   0.734   1.753  16.895 -3.5284  3.4051  0.9775
    2MPD1     C14048   0.329   2.765  16.516 -0.1899 -0.4726 -0.5973
    2MPD1    C114049   0.444   2.703  16.556  0.4493  0.0670 -0.4488
    2MPD1    C214050   0.422   2.617  16.659  0.1298  0.0588  0.2980
    2MPD1    C314051   0.292   2.591  16.713  0.6374 -0.7230  1.0700
    2MPD1    C414052   0.181   2.647  16.655 -0.2439  0.2604 -0.5949
    2MPD1    C514053   0.202   2.741  16.562 -0.8452 -0.0350 -0.2582
    2MPD1     H14054   0.510   2.568  16.701  0.0833 -0.6753 -0.4439
    2MPD1    H114055   0.077   2.628  16.680  0.3302  0.9091  2.2907
    2MPD1    H214056   0.347   2.845  16.445 -1.0153 -0.3378 -0.6595
    2MPD1    H314057   0.119   2.793  16.515 -0.9873 -1.0959 -1.1904
    2MPD1     N14058   0.280   2.514  16.827  0.1733  0.5490 -0.4796
    2MPD1    H514059   0.366   2.471  16.860  0.1765  1.3200  0.5308
    2MPD1    N114060   0.573   2.748  16.517 -0.0408  0.0454 -0.0779
    2MPD1    H614061   0.640   2.671  16.516  0.3982  0.4317  0.8574
    2MPD1    H714062   0.579   2.792  16.425 -0.0634 -1.6562 -0.9073
    3TMC3    C114063   0.191   2.400  17.006  0.1167  0.8003 -0.0232
    3TMC3    C214064   0.103   2.399  17.107  0.7744 -0.3309  0.0221
    3TMC3    C314065   0.108   2.289  17.189 -0.0776  0.4352  0.5529
    3TMC3    C414066   0.292   2.310  16.985  0.0834  0.1513 -0.3174
    3TMC3    C514067   0.294   2.195  17.068  0.8066 -0.5249 -0.3608
    3TMC3    C614068   0.202   2.186  17.169  0.3625 -0.9491 -0.2051
    3TMC3     C14069   0.164   2.492  16.899 -0.1384  0.4377 -0.3591
    3TMC3     O14070   0.060   2.558  16.909 -0.3725 -0.0415  0.4634
    3TMC3     H14071   0.032   2.477  17.133 -0.6738 -1.5188 -0.3043
    3TMC3    H114072   0.358   2.314  16.900 -1.3064 -1.0891 -1.4648
    3TMC3    H214073   0.191   2.097  17.230  0.6243 -0.4259  0.6036
    3TMC3    C714074   0.416   2.112  17.074  0.3405 -0.1306  0.5067
    3TMC3    C814075   0.022   2.283  17.309 -0.3847  0.1078  0.0415
    3TMC3    O114076   0.506   2.143  16.995 -0.3198 -0.2239  0.4513
    3TMC3    O214077   4.666   2.361  17.303  0.2902 -0.2944  0.2572
    4MPD1     C14078   4.648   2.177   0.040  0.0802 -0.6591  0.3475
    4MPD1    C114079   0.015   2.102   0.013 -0.5527 -0.4431 -0.2220
    4MPD1    C214080   0.071   2.105  17.649  0.0481 -0.5374  0.7022
    4MPD1    C314081   0.013   2.196  17.550  0.4093  0.3315 -0.3112
    4MPD1    C414082   4.653   2.281  17.586  0.0591 -0.2739 -0.0885
    4MPD1    C514083   4.594   2.262  17.708  0.4427 -0.2025  0.3769
    4MPD1     H14084   0.140   2.029  17.616  2.4324  1.6640  0.6637
    4MPD1    H114085   4.622   2.364  17.523 -2.3411  0.3941  1.9766
    4MPD1    H214086   4.586   2.156   0.127  1.8143  1.7963  2.1847
    4MPD1    H314087   4.512   2.325  17.740 -1.0174 -1.7474 -0.3274
    4MPD1     N14088   0.066   2.201  17.415 -0.0724  0.2062  0.4052
    4MPD1    H514089   0.151   2.147  17.407 -0.4427 -0.3867  0.4960
    4MPD1    N114090   0.043   1.994   0.099  0.1697  0.5375 -0.3552
    4MPD1    H614091   0.141   1.967   0.095 -0.3442 -0.8433 -3.5517
    4MPD1    H714092   0.032   2.015   0.198  2.6046  1.3045 -0.2542
    1TCq1    O114093   1.344   0.759  10.739 -0.2095  0.5742  0.2963
    1TCq1    C114094   1.428   0.699  10.829  0.4575 -0.1173 -0.6421
    1TCq1    O214095   1.489   0.761  10.912 -0.0166 -0.5559 -0.0640
    1TCq1    C214096   1.484   0.580  10.770  0.4795 -0.8077 -0.1844
    1TCq1    C314097   1.391   0.477  10.775 -0.1353  0.0244  0.2278
    1TCq1    C414098   1.445   0.355  10.775  0.1325 -0.6235  0.5250
    1TCq1    C514099   1.580   0.329  10.769  0.7401  0.1909 -0.0582
    1TCq1    C614100   1.666   0.432  10.777 -0.5775 -0.6925  0.1221
    1TCq1    C714101   1.622   0.561  10.776 -0.4854 -0.9501  0.5424
    1TCq1    C814102   1.806   0.414  10.801 -0.0650 -1.0125  0.9668
    1TCq1    O414103   1.861   0.522  10.793 -0.1262  0.0630  0.2862
    1TCq1    C914104   1.355   0.244  10.751 -0.0123 -0.8807 -0.7066
    1TCq1    O514105   1.242   0.269  10.694  0.0502 -0.4402  0.2573
    1TCq1    O614106   1.418   0.137  10.755  1.1172 -0.1825 -0.1691
    1TCq1    H114107   1.302   0.698  10.674 -1.3763 -0.4859  2.0353
    1TCq1    H214108   1.284   0.486  10.759 -0.4734 -1.1832  1.7306
    1TCq1    H314109   1.610   0.225  10.762  0.4350  0.1281 -0.4225
    1TCq1    H414110   1.686   0.647  10.757 -1.1831 -0.0673  2.2288
    2MPD1     C14111   2.241   0.209  10.990 -0.3442 -0.5923  0.7840
    2MPD1    C114112   2.157   0.105  10.961 -0.3365  0.3310 -1.0502
    2MPD1    C214113   2.034   0.141  10.909 -0.0302 -0.7467 -0.2432
    2MPD1    C314114   1.986   0.267  10.881 -0.0362  0.6901  0.1411
    2MPD1    C414115   2.078   0.368  10.903  0.1614 -0.2436 -0.1325
    2MPD1    C514116   2.197   0.338  10.956  0.1561  0.7740  0.2781
    2MPD1     H14117   1.975   0.055  10.880 -1.7362  1.3426 -2.9729
    2MPD1    H114118   2.057   0.474  10.898  2.0404  0.1307 -0.1389
    2MPD1    H214119   2.343   0.191  11.022 -0.2321  0.7245  1.1997
    2MPD1    H314120   2.264   0.422  10.970  1.7988 -0.4933  0.1056
    2MPD1     N14121   1.851   0.295  10.844 -0.2521  0.4177 -0.5720
    2MPD1    H514122   1.782   0.222  10.857  0.0904  0.3789  0.9692
    2MPD1    N114123   2.203   4.711  10.960 -0.2630 -0.0954 -0.6889
    2MPD1    H614124   2.127   4.647  10.940  0.3326 -0.2964 -2.3556
    2MPD1    H714125   2.242   4.684  11.050  0.0026  0.3331 -0.6733
    1TMC1    C114126   2.989   0.601   1.403  0.2629 -0.4270 -0.8176
    1TMC1    C214127   3.098   0.686   1.407 -0.2044  0.3599 -0.4956
    1TMC1    C314128   3.197   0.663   1.497  0.0892 -0.1377  0.0091
    1TMC1    C414129   2.963   0.520   1.509  0.0664 -0.4862 -0.0674
    1TMC1    C514130   3.068   0.484   1.582  0.3133 -0.3082  0.0387
    1TMC1    C614131   3.187   0.559   1.586 -0.0914  0.6932  0.0399
    1TMC1     C14132   2.876   0.621   1.316 -0.4788  0.1317  0.2397
    1TMC1     O14133   2.758   0.609   1.346 -0.0062 -0.4086 -0.2307
    1TMC1     H14134   3.112   0.766   1.335  2.1708  0.1425 -0.2589
    1TMC1    H114135   2.875   0.457   1.509 -1.2941  1.3985 -0.7934
    1TMC1    H214136   3.273   0.535   1.647  0.5483  1.4121 -0.5718
    1TMC1    C714137   3.046   0.370   1.663  0.1287 -0.4152  0.8952
    1TMC1    C814138   3.281   0.772   1.528  0.0737 -0.1773  0.5325
    1TMC1    O114139   2.963   0.284   1.637  0.1550 -0.4397 -0.4972
    1TMC1    O214140   3.391   0.743   1.576  0.0512  0.1590 -0.0490
    1TMC1    O314141   3.113   0.375   1.785 -0.0648  0.0404 -0.3609
    1TMC1    H314142   3.154   0.463   1.794 -1.8769  0.8601 -0.2540
    1TMC1    O514143   3.200   0.876   1.564  0.2803 -0.6861 -0.0120
    1TMC1    H514144   3.108   0.878   1.529  0.0418 -2.1702  0.5312
    2MPD1     C14145   2.750   0.700   0.826 -0.1329 -0.8603  0.4473
    2MPD1    C114146   2.886   0.729   0.831  0.4021 -0.1510  0.6951
    2MPD1    C214147   2.946   0.714   0.957 -0.5357  0.2561 -0.4709
    2MPD1    C314148   2.870   0.695   1.073  0.1738  0.2506  0.0385
    2MPD1    C414149   2.736   0.693   1.062 -0.1242  0.6309  0.5028
    2MPD1    C514150   2.683   0.703   0.941 -0.3736 -0.3342  0.0418
    2MPD1     H14151   3.054   0.726   0.969 -0.5545  0.7865 -0.8274
    2MPD1    H114152   2.670   0.679   1.146  1.4672 -2.2089  1.2751
    2MPD1    H214153   2.695   0.678   0.736  2.9509 -1.0219 -1.4188
    2MPD1    H314154   2.577   0.701   0.923 -0.3075 -0.3349 -0.3441
    2MPD1     N14155   2.937   0.652   1.195 -0.0204 -0.0906  0.3997
    2MPD1    H514156   3.038   0.651   1.192 -0.0607  1.4041 -0.8071
    2MPD1    N114157   2.958   0.717   0.713  0.5437  0.1231 -0.1513
    2MPD1    H614158   2.893   0.749   0.641 -3.8924 -0.0374  3.8183
    2MPD1    H714159   3.035   0.783   0.721  2.4360 -2.1989  0.6465
    1MPD1     C14160   2.654   1.371  12.323 -0.3043  0.2236  0.2871
    1MPD1    C114161   2.654   1.506  12.335 -0.1302 -0.4860 -0.1054
    1MPD1    C214162   2.747   1.580  12.264 -0.4764 -0.2680 -0.5020
    1MPD1    C314163   2.814   1.531  12.155  0.2636 -0.0300  0.1081
    1MPD1    C414164   2.803   1.397  12.136  0.1678  0.3591  0.4247
    1MPD1    C514165   2.724   1.315  12.224  0.9005 -0.1207 -0.1135
    1MPD1     H14166   2.757   1.684  12.294 -0.4534 -0.3807 -0.1221
    1MPD1    H114167   2.884   1.346  12.084  0.2682 -0.3334  1.2535
    1MPD1    H214168   2.602   1.313  12.398 -0.1159  0.5258  0.6510
    1MPD1    H314169   2.725   1.207  12.213 -2.5948 -0.2289  0.5382
    1MPD1     N14170   2.910   1.617  12.092 -0.6709  0.6608  0.4778
    1MPD1    H514171   2.938   1.707  12.130  0.7843  0.2212  0.4676
    1MPD1    N114172   2.585   1.566  12.442  0.0397  0.0282 -0.3165
    1MPD1    H614173   2.573   1.667  12.430 -0.9599  0.0674  0.9617
    1MPD1    H714174   2.496   1.519  12.460  1.2317 -2.0531  0.0025
    2MPD1     C14175   2.269   1.556  11.783  0.2195 -0.0140  0.1662
    2MPD1    C114176   2.300   1.687  11.764 -0.1909  0.3486 -0.0646
    2MPD1    C214177   2.392   1.727  11.675 -0.1318 -0.0066 -0.3277
    2MPD1    C314178   2.462   1.627  11.598 -0.4012  0.4049  0.5960
    2MPD1    C414179   2.426   1.493  11.610 -0.3277 -0.3586  0.0423
    2MPD1    C514180   2.334   1.463  11.706  0.4997 -0.9391  0.0326
    2MPD1     H14181   2.407   1.833  11.658 -1.0929 -0.0067 -1.2125
    2MPD1    H114182   2.483   1.417  11.558  1.3439  0.0932  1.2044
    2MPD1    H214183   2.203   1.522  11.863 -0.5025 -0.3696 -0.5829
    2MPD1    H314184   2.317   1.358  11.729 -0.0334 -0.8772 -0.0810
    2MPD1     N14185   2.546   1.660  11.488  0.0286 -0.1756 -0.1403
    2MPD1    H514186   2.560   1.578  11.429 -0.2053 -1.2413  1.2884
    2MPD1    N114187   2.213   1.779  11.828 -0.3305  0.1743 -0.4703
    2MPD1    H614188   2.256   1.869  11.846 -0.7137 -0.2589  2.5135
    2MPD1    H714189   2.158   1.757  11.910  2.9822  1.5169  2.0995
    3MPD1     C14190   2.376   1.445  10.687  0.3115  0.4712 -0.1691
    3MPD1    C114191   2.363   1.396  10.822  0.1151  0.5940 -0.0823
    3MPD1    C214192   2.434   1.457  10.920 -0.2086  0.1270 -0.1539
    3MPD1    C314193   2.527   1.559  10.890 -0.5082  0.4072  0.5168
    3MPD1    C414194   2.549   1.593  10.759 -0.8910  0.0743  0.0998
    3MPD1    C514195   2.474   1.537  10.660  0.1016 -0.1957 -0.2184
    3MPD1     H14196   2.434   1.416  11.021  1.8389 -0.8237 -0.5452
    3MPD1    H114197   2.630   1.657  10.727  2.2523 -3.2511  1.3451
    3MPD1    H214198   2.312   1.414  10.606 -1.0398  1.1522  0.6287
    3MPD1    H314199   2.496   1.557  10.556  0.8319 -0.7566 -0.1724
    3MPD1     N14200   2.597   1.615  11.003  0.3205 -0.5286  0.0256
    3MPD1    H514201   2.571   1.590  11.098 -1.3674  0.9621 -0.0316
    3MPD1    N114202   2.271   1.301  10.859 -0.1661  0.3126  0.2673
    3MPD1    H614203   2.194   1.308  10.793 -0.5867  0.4873  0.7808
    3MPD1    H714204   2.244   1.325  10.954  0.7808  1.4778  0.2418
    4MPD2     C14205   3.421   2.150  11.994  0.3962  0.3206 -0.1662
    4MPD2    C114206   3.434   2.037  11.913  1.2491 -0.6156 -0.0147
    4MPD2    C214207   3.513   2.043  11.803 -0.7869  0.1800 -0.1515
    4MPD2    C314208   3.566   2.161  11.762  0.4385  0.2161 -0.2157
    4MPD2    C414209   3.554   2.276  11.841 -0.0556 -0.4154  0.2672
    4MPD2    C514210   3.484   2.267  11.959 -0.5636 -0.2878 -0.4585
    4MPD2     H14211   3.544   1.954  11.749 -3.2361 -1.4113  1.0606
    4MPD2    H114212   3.593   2.376  11.825  0.3500 -0.6715 -0.3722
    4MPD2    H214213   3.366   2.147  12.088  1.9693 -0.0689  0.7426
    4MPD2    H314214   3.463   2.349  12.027 -0.5102  0.3233 -1.1803
    4MPD2     N14215   3.644   2.155  11.643  0.1319  0.4405  0.2985
    4MPD2    H514216   3.659   2.066  11.597  0.0613  0.5404  0.0843
    4MPD2    N114217   3.387   1.913  11.957  0.0252  0.2472 -0.0101
    4MPD2    H714218   3.408   1.841  11.889 -1.6203 -0.9167  0.7225
    5TMC3    C114219   3.285   1.742  12.065  0.0015 -0.2670  0.3280
    5TMC3    C214220   3.153   1.714  12.065  0.2796  0.7237  0.6336
    5TMC3    C314221   3.108   1.630  11.970  0.6540 -0.0485 -0.8992
    5TMC3    C414222   3.370   1.679  11.981  0.8047  0.4281  0.0391
    5TMC3    C514223   3.319   1.605  11.878 -0.2654  0.6005  0.6833
    5TMC3    C614224   3.187   1.593  11.869 -0.0548 -0.0671  0.1811
    5TMC3     C14225   3.320   1.885  12.071 -0.4518 -0.7215  0.0978
    5TMC3     O14226   3.269   1.951  12.157 -0.1540 -0.2097  0.6783
    5TMC3     H14227   3.089   1.759  12.140 -0.6330  1.8901 -0.8310
    5TMC3    H114228   3.477   1.689  11.994  0.3227 -0.0135  4.4628
    5TMC3    H214229   3.156   1.543  11.777  0.5211 -0.1918  0.0527
    5TMC3    C714230   3.390   1.646  11.759  0.0039  0.0896  0.6043
    5TMC3    C814231   2.975   1.574  11.981  0.0713  0.3362 -0.7226
    5TMC3    O114232   3.473   1.735  11.772 -0.0698  0.3031  0.6299
    5TMC3    O214233   2.947   1.488  11.904  0.0694  0.2687 -0.2195
    6TMC3    C114234   2.678   1.798  11.352 -0.0528  0.2150 -0.1822
    6TMC3    C214235   2.652   1.735  11.233 -0.7860  0.6194  0.6770
    6TMC3    C314236   2.746   1.744  11.132 -0.2259  0.2565 -0.1272
    6TMC3    C414237   2.790   1.888  11.358  0.3949 -0.0710 -0.3464
    6TMC3    C514238   2.880   1.898  11.252  0.1097 -0.1317 -0.4483
    6TMC3    C614239   2.857   1.825  11.139 -0.0901  0.5212 -0.2206
    6TMC3     C14240   2.597   1.788  11.469 -0.4349  0.0855 -0.5618
    6TMC3     O14241   2.610   1.886  11.542 -0.3607 -0.1484 -0.6442
    6TMC3     H14242   2.551   1.695  11.229  0.1472 -1.5072 -1.4563
    6TMC3    H114243   2.806   1.940  11.452  0.4966  1.5978 -1.2735
    6TMC3    H214244   2.927   1.837  11.057  3.6311 -1.0232  2.7645
    6TMC3    C714245   2.995   1.983  11.256  0.2303  0.3603 -0.4210
    6TMC3    C814246   2.693   1.707  10.994  0.1161  0.3663  0.1868
    6TMC3    O114247   3.077   1.980  11.164 -0.6295  0.0535 -0.1591
    6TMC3    O214248   2.755   1.746  10.890 -1.3885 -0.4285  0.0396
    7MPD2     C14249   3.510   1.610  11.262  0.0703  0.0678 -0.2408
    7MPD2    C114250   3.533   1.710  11.350  0.5338 -0.4805  0.0270
    7MPD2    C214251   3.477   1.702  11.471  0.2638  0.3220  0.1942
    7MPD2    C314252   3.396   1.598  11.513  0.3433 -0.5204 -0.1054
    7MPD2    C414253   3.364   1.499  11.420  0.2087  0.2714  0.6795
    7MPD2    C514254   3.424   1.508  11.294 -0.1800 -0.4197  0.5915
    7MPD2     H14255   3.490   1.796  11.522 -1.2615  0.1455  0.9089
    7MPD2    H114256   3.317   1.405  11.446  0.0107  0.0742 -0.4273
    7MPD2    H214257   3.553   1.611  11.162  0.1209 -0.9828 -0.2270
    7MPD2    H314258   3.406   1.428  11.222 -0.9777  1.4621 -1.2975
    7MPD2     N14259   3.349   1.580  11.648  0.4145  0.1400  0.5245
    7MPD2    H514260   3.300   1.494  11.668  2.0633 -0.8533  0.3048
    7MPD2    N114261   3.638   1.806  11.316  0.3973  0.0175  0.2193
    7MPD2    H714262   3.674   1.803  11.221  1.3807  1.5916  0.5394
    8TMC3    C114263   3.765   2.002  11.352  0.0160 -0.1856 -0.3121
    8TMC3    C214264   3.691   2.067  11.260  0.0707 -0.1294 -0.3445
    8TMC3    C314265   3.653   2.195  11.265  0.3564  0.1514  0.2937
    8TMC3    C414266   3.804   2.082  11.459 -0.0209 -0.1379  0.1362
    8TMC3    C514267   3.778   2.214  11.470  0.1820  0.5819  0.1299
    8TMC3    C614268   3.704   2.272  11.369 -0.0192  0.4351 -0.4087
    8TMC3     C14269   3.700   1.890  11.411  0.1780  0.5426 -0.7078
    8TMC3     O14270   3.680   1.902  11.530 -0.0804  0.0907 -0.2534
    8TMC3     H14271   3.664   2.022  11.166  0.3459 -1.2734  0.1248
    8TMC3    H114272   3.861   2.026  11.533  0.0577 -0.0460  0.1467
    8TMC3    H214273   3.680   2.378  11.372  0.8494  0.5741  1.7701
    8TMC3    C714274   3.719   2.255  11.592  0.6614 -0.3098 -0.5222
    8TMC3    C814275   3.508   2.204  11.245 -0.6678  0.4778 -0.5953
    8TMC3    O114276   3.733   2.370  11.625 -0.5283 -0.0345 -0.4203
    8TMC3    O214277   3.461   2.120  11.172 -0.4908  0.7358  0.1590
    9MPD2     C14278   3.286   2.305  11.529 -0.6821 -0.2858  0.9794
    9MPD2    C114279   3.314   2.243  11.409  0.2078  0.5434  1.1417
    9MPD2    C214280   3.221   2.152  11.355  0.7412  0.0912  0.9541
    9MPD2    C314281   3.096   2.144  11.412  0.6110 -0.0337  0.2457
    9MPD2    C414282   3.060   2.227  11.519 -0.2575  0.2727 -0.2433
    9MPD2    C514283   3.158   2.305  11.574 -0.1209  0.5355 -0.2879
    9MPD2     H14284   3.249   2.099  11.265  0.2427  1.1640  0.1634
    9MPD2    H114285   2.969   2.216  11.576  0.4316 -3.0477  0.2543
    9MPD2    H214286   3.357   2.369  11.578 -2.6000  3.2381 -0.8394
    9MPD2    H314287   3.125   2.356  11.664 -4.6301  1.1803 -2.3231
    9MPD2     N14288   2.990   2.056  11.369 -0.7275  0.9361  0.0976
    9MPD2    H514289   2.903   2.054  11.422 -0.0401  3.1317  1.3220
    9MPD2    N114290   3.445   2.264  11.358 -0.7301  0.7959 -0.4160
    9MPD2    H714291   3.503   2.336  11.402 -0.2556 -0.6170  1.3046
    1MPD1     C14292   2.272   0.985  15.673 -0.1614 -0.1636  0.0186
    1MPD1    C114293   2.302   1.033  15.550  0.5944 -0.4106 -0.0236
    1MPD1    C214294   2.300   1.170  15.528  0.7398  0.1340  0.5479
    1MPD1    C314295   2.287   1.258  15.637 -0.0184 -0.4757 -0.3572
    1MPD1    C414296   2.251   1.207  15.758  1.0668 -0.0601 -0.0369
    1MPD1    C514297   2.244   1.069  15.778 -0.7088  0.5694  0.5323
    1MPD1     H14298   2.299   1.202  15.424  1.2339  3.7508  1.6280
    1MPD1    H114299   2.232   1.271  15.843 -0.1220  0.9165 -1.0377
    1MPD1    H214300   2.283   0.880  15.698  1.3438 -0.3488 -1.3986
    1MPD1    H314301   2.212   1.033  15.875  1.2284 -1.1236  0.5372
    1MPD1     N14302   2.279   1.394  15.621  0.0445 -0.6690 -0.2153
    1MPD1    H514303   2.232   1.438  15.700  1.1461  0.4130 -0.1660
    1MPD1    N114304   2.336   0.948  15.445  0.6850 -0.6215 -0.2828
    1MPD1    H614305   2.338   0.988  15.351 -0.3998 -1.1750 -0.5439
    1MPD1    H714306   2.275   0.866  15.442 -0.0398 -0.1724  2.1417
    2TMC2    C114307   2.220   1.786  15.650  0.2048  0.4348 -0.7915
    2TMC2    C214308   2.316   1.871  15.604  0.4996 -0.0831 -0.0265
    2TMC2    C314309   2.414   1.813  15.530  0.3418  0.1119 -0.0723
    2TMC2    C414310   2.215   1.652  15.621  0.4292  0.3796  0.1472
    2TMC2    C514311   2.310   1.610  15.531  0.0349  0.2883 -0.0741
    2TMC2    C614312   2.407   1.685  15.478  0.3249  0.2206  0.1890
    2TMC2     C14313   2.121   1.850  15.730 -0.4309 -0.4233 -0.3531
    2TMC2     O14314   2.133   1.974  15.739  0.3215 -0.5267  0.5297
    2TMC2     H14315   2.312   1.973  15.640  1.1755 -0.7715  2.0108
    2TMC2    H114316   2.127   1.593  15.645 -0.1334  0.7112 -1.0766
    2TMC2    H214317   2.496   1.645  15.429  0.3730  0.8483 -0.2365
    2TMC2    C714318   2.337   1.469  15.521 -0.2474 -0.0198 -0.1122
    2TMC2    C814319   2.498   1.904  15.455 -0.2893 -0.0960  0.1748
    2TMC2    O114320   2.399   1.428  15.424 -0.0465 -0.4640  0.1103
    2TMC2    O214321   2.600   1.867  15.402  0.6121 -0.2817  0.4259
    2TMC2    O514322   2.416   1.989  15.387  0.5352  0.2837 -0.3901
    2TMC2    H514323   2.353   2.024  15.453  0.4244 -0.0252 -0.3325
    3MPD1     C14324   1.754   1.923  16.071  0.1121 -0.5300  0.2236
    3MPD1    C114325   1.774   1.788  16.070  0.0134  0.3656  0.5521
    3MPD1    C214326   1.869   1.744  15.987  0.5831  0.0808  0.4397
    3MPD1    C314327   1.935   1.826  15.893  0.4618  0.3533  0.1244
    3MPD1    C414328   1.892   1.956  15.885 -0.4667  0.5647  0.1358
    3MPD1    C514329   1.805   2.004  15.971  0.4710 -0.4468 -0.2256
    3MPD1     H14330   1.899   1.641  15.994  0.2702 -0.0215  0.2752
    3MPD1    H114331   1.918   2.019  15.801 -0.6066  2.4823  1.5317
    3MPD1    H214332   1.688   1.968  16.144 -2.6175 -2.8525 -0.8433
    3MPD1    H314333   1.785   2.110  15.972 -0.9603 -0.7189  0.2669
    3MPD1     N14334   2.039   1.772  15.806  0.3233 -0.7119 -0.0715
    3MPD1    H514335   2.068   1.677  15.827  0.0304 -0.7102  0.3508
    3MPD1    N114336   1.730   1.709  16.177 -0.4718  0.1156  0.3394
    3MPD1    H614337   1.645   1.742  16.222  0.9838  0.9133  2.4976
    3MPD1    H714338   1.722   1.616  16.137  0.3403  0.4605 -0.6213
    1TMC1    C114339   0.918   0.114  13.147  0.0589  0.1178  0.0083
    1TMC1    C214340   0.835   0.102  13.254 -0.3672 -0.4576  0.2746
    1TMC1    C314341   0.723   0.032  13.237  0.1081 -0.3682  0.4554
    1TMC1    C414342   0.880   0.067  13.025  0.3606 -0.1387 -0.1196
    1TMC1    C514343   0.777   4.718  13.020  0.7157  0.0600  0.1321
    1TMC1    C614344   0.696   4.699  13.123 -0.0255  0.4128 -0.1838
    1TMC1     C14345   1.021   0.215  13.150  0.0088  0.9376  0.6579
    1TMC1     O14346   1.059   0.253  13.040  0.1931 -0.1714  0.2177
    1TMC1     H14347   0.868   0.147  13.347 -0.7944 -1.5983  0.9810
    1TMC1    H114348   0.948   0.074  12.941 -0.5242  0.5562 -0.7756
    1TMC1    H214349   0.609   4.635  13.116 -0.7238  1.6711 -3.0458
    1TMC1    C714350   0.742   4.653  12.891  0.3002 -0.0611 -0.6854
    1TMC1    C814351   0.619   0.046  13.333  0.1437  0.1865  0.2517
    1TMC1    O114352   0.639   4.583  12.890  0.6016  0.5911  0.4456
    1TMC1    O214353   0.513   0.107  13.313 -0.2547  0.7135  0.0570
    1TMC1    O314354   0.863   4.621  12.846  0.0894 -0.7966  0.6417
    1TMC1    H314355   0.935   4.663  12.897  1.0560 -0.5918 -0.9033
    1TMC1    O514356   0.663   4.734  13.445 -0.0736  0.3416 -0.6336
    1TMC1    H514357   0.736   4.674  13.419  0.7690  0.0219  2.5191
    2MPD2     C14358   1.218   0.425  13.212 -0.1021 -0.2490  0.2964
    2MPD2    C114359   1.187   0.319  13.294 -0.0814  0.0304 -0.2903
    2MPD2    C214360   1.250   0.323  13.419 -0.3119 -0.3334 -0.0894
    2MPD2    C314361   1.346   0.403  13.461  0.5490  0.2383  0.0260
    2MPD2    C414362   1.383   0.501  13.371  0.0120  0.0335  0.1995
    2MPD2    C514363   1.319   0.507  13.249 -0.4418 -0.3771 -0.1607
    2MPD2     H14364   1.218   0.254  13.496 -0.0083  0.3903  0.6860
    2MPD2    H114365   1.457   0.575  13.399  1.0388 -1.0221  0.3047
    2MPD2    H214366   1.170   0.434  13.116 -3.3607 -1.7126  1.8129
    2MPD2    H314367   1.341   0.586  13.178  0.4601 -2.0143 -1.7105
    2MPD2     N14368   1.406   0.383  13.585 -0.2156 -0.1516 -0.4637
    2MPD2    H514369   1.373   0.303  13.637 -0.2864 -0.5080 -1.0591
    2MPD2    N114370   1.083   0.234  13.274 -0.1160 -0.4147  0.7791
    2MPD2    H714371   1.054   0.173  13.349  2.1222 -1.9270  0.4140
    3TCq1    O114372   1.982   0.395  13.721  0.1540  0.2892 -0.0034
    3TCq1    C114373   1.926   0.350  13.840  0.0213 -0.0172 -0.2810
    3TCq1    O214374   1.984   0.283  13.921 -0.2401 -0.2110 -0.0965
    3TCq1    C214375   1.789   0.317  13.813 -0.1619  0.0680 -0.1717
    3TCq1    C314376   1.732   0.210  13.872  0.1398 -0.2190  0.2767
    3TCq1    C414377   1.598   0.191  13.864  0.2396 -0.2716 -0.9013
    3TCq1    C514378   1.519   0.281  13.805  0.1884  0.4081  0.5397
    3TCq1    C614379   1.580   0.393  13.745 -0.3797  0.9786 -0.1382
    3TCq1    C714380   1.718   0.403  13.739 -0.1484 -0.2329 -0.1268
    3TCq1    C814381   1.511   0.454  13.632  0.3095 -0.1234 -0.4982
    3TCq1    O414382   1.553   0.564  13.602 -0.2509 -0.1412 -0.1189
    3TCq1    C914383   1.545   0.071  13.932 -0.3818 -0.2953  0.6765
    3TCq1    O514384   1.613   0.026  14.029  0.2963  0.0566  0.1985
    3TCq1    O614385   1.423   0.043  13.928 -0.5818 -0.2223 -0.6456
    3TCq1    H114386   1.925   0.435  13.653 -1.2111  0.7526  1.4178
    3TCq1    H214387   1.789   0.137  13.929  1.8899 -0.1760 -1.4224
    3TCq1    H314388   1.411   0.270  13.808  0.4592 -2.5343 -0.5804
    3TCq1    H414389   1.757   0.495  13.696  0.1775 -0.4296 -0.2485
    1MPD2     C14390   0.334   1.457  15.089  0.2276  0.1165  0.6925
    1MPD2    C114391   0.212   1.413  15.035  0.2735 -0.0354  0.0032
    1MPD2    C214392   0.172   1.288  15.077  0.0744  0.1837 -0.2477
    1MPD2    C314393   0.245   1.194  15.146 -0.2539  0.0790 -0.3826
    1MPD2    C414394   0.370   1.242  15.189  0.1261  0.2584  0.1622
    1MPD2    C514395   0.409   1.371  15.163 -0.0952  0.0259  0.0640
    1MPD2     H14396   0.075   1.255  15.044  0.2008 -0.4012 -0.0391
    1MPD2    H114397   0.439   1.170  15.231 -0.9038 -0.8837 -0.0974
    1MPD2    H214398   0.373   1.553  15.057 -2.7445  2.2544  3.4760
    1MPD2    H314399   0.507   1.395  15.203 -0.0758  2.3037 -1.3935
    1MPD2     N14400   0.207   1.071  15.180  0.4474  0.0776 -0.0845
    1MPD2    H514401   0.271   1.017  15.238 -1.1935 -0.4792  1.1908
    1MPD2    N114402   0.130   1.491  14.951  0.0621 -0.5655 -0.3425
    1MPD2    H714403   0.140   1.592  14.960  0.9800 -0.7015  0.1454
    2TMC3    C114404   4.676   1.529  14.810  0.9916  0.7935 -0.3078
    2TMC3    C214405   4.578   1.475  14.735 -0.2648  0.4163 -0.3182
    2TMC3    C314406   4.451   1.531  14.738  0.2495  0.0558 -0.1677
    2TMC3    C414407   4.663   1.657  14.853  0.3529 -0.4331 -0.5829
    2TMC3    C514408   4.543   1.721  14.826  0.0661 -0.1718 -0.5483
    2TMC3    C614409   4.431   1.665  14.774 -0.2697  0.6116  0.1905
    2TMC3     C14410   0.047   1.442  14.850 -0.6397  0.2078  0.6000
    2TMC3     O14411   0.030   1.326  14.815 -0.0026  0.2560  1.1005
    2TMC3     H14412   4.598   1.387  14.675 -0.3590  0.6853 -0.7428
    2TMC3    H114413   0.005   1.708  14.902 -1.2493  1.6274 -0.0583
    2TMC3    H214414   4.336   1.708  14.803 -0.7215 -1.1382  1.3120
    2TMC3    C714415   4.547   1.868  14.818 -0.2960 -0.3566 -0.1609
    2TMC3    C814416   4.353   1.452  14.807 -0.3521 -0.4542 -0.1759
    2TMC3    O114417   4.442   1.922  14.786 -0.5810 -0.1796  0.4635
    2TMC3    O214418   4.244   1.503  14.832  0.5105  1.1393 -0.4072
    3TCq1    O114419   0.718   2.460  14.350 -0.4967 -0.0282 -0.0441
    3TCq1    C114420   0.794   2.402  14.447 -0.5869  0.0134  0.3788
    3TCq1    O214421   0.913   2.384  14.431 -0.0729 -0.4703 -0.1891
    3TCq1    C214422   0.714   2.345  14.549  0.3819  0.4162  0.6761
    3TCq1    C314423   0.785   2.275  14.645 -0.1664  0.1701  0.6081
    3TCq1    C414424   0.718   2.213  14.736  0.3636 -0.5602 -0.4505
    3TCq1    C514425   0.579   2.195  14.740  0.1338  0.3770  0.5908
    3TCq1    C614426   0.509   2.263  14.643 -0.6338 -0.0760  0.1941
    3TCq1    C714427   0.577   2.341  14.555 -0.3510  0.0135 -0.1385
    3TCq1    C814428   0.366   2.289  14.654  0.2901 -0.0132 -0.6458
    3TCq1    O414429   0.309   2.377  14.590 -0.0180 -0.1371 -0.7379
    3TCq1    C914430   0.798   2.156  14.842 -0.5271  0.0713 -1.1577
    3TCq1    O514431   0.748   2.070  14.916 -0.2613 -0.0752  0.6189
    3TCq1    O614432   0.909   2.213  14.859 -0.1995  0.0823  0.2129
    3TCq1    H114433   0.621   2.458  14.361 -0.5857  1.3096 -0.6211
    3TCq1    H214434   0.892   2.285  14.647 -0.1624  0.2460  0.0109
    3TCq1    H314435   0.537   2.135  14.820 -2.8139  0.4936 -0.8728
    3TCq1    H414436   0.516   2.401  14.487  0.0837  0.8800  0.2374
    4MPD2     C14437   0.078   2.294  14.716  0.2742 -0.3243  0.5899
    4MPD2    C114438   0.161   2.190  14.753 -0.0176  0.2281  0.1886
    4MPD2    C214439   0.113   2.065  14.784  0.4240  0.3509  0.1849
    4MPD2    C314440   4.721   2.042  14.784  0.7288 -0.4810 -0.3981
    4MPD2    C414441   4.636   2.148  14.753 -0.3904 -1.2869  0.0765
    4MPD2    C514442   4.687   2.276  14.731 -0.2311  0.2041 -0.2180
    4MPD2     H14443   0.187   1.995  14.820 -2.5109 -1.3251  3.0107
    4MPD2    H114444   4.530   2.134  14.738 -0.4190  0.5147 -1.4191
    4MPD2    H214445   0.120   2.394  14.711 -0.1790 -0.2375 -1.2082
    4MPD2    H314446   4.632   2.363  14.696  1.5945  1.8944  1.1253
    4MPD2     N14447   4.673   1.913  14.817 -0.5615  0.3789  0.6138
    4MPD2    H514448   0.007   1.844  14.826 -0.9123 -0.0647  0.0953
    4MPD2    N114449   0.303   2.198  14.736 -0.1909 -0.0096 -0.1563
    4MPD2    H714450   0.363   2.120  14.762 -0.1914  0.2834  0.7290
    5TMC2    C114451   4.585   0.789  15.253 -0.1838 -0.0093 -0.4933
    5TMC2    C214452   4.601   0.787  15.386 -0.3666 -0.7250  0.1729
    5TMC2    C314453   4.713   0.841  15.425  0.4973  0.1693 -0.0622
    5TMC2    C414454   4.681   0.835  15.166  0.5797  0.1882  0.3850
    5TMC2    C514455   0.058   0.887  15.214  1.2430 -0.3647  0.3151
    5TMC2    C614456   0.063   0.905  15.348  0.4637  0.6736  0.2462
    5TMC2     C14457   4.459   0.850  15.215  0.0382  0.2320  0.5839
    5TMC2     O14458   4.347   0.804  15.253  0.1127  0.1752  0.1265
    5TMC2     H14459   4.524   0.749  15.452  0.2348  0.0590  1.3296
    5TMC2    H114460   4.681   0.817  15.059 -1.2459  1.4655  0.1858
    5TMC2    H214461   0.136   0.964  15.402 -1.8417  0.6543  3.4057
    5TMC2    C714462   0.095   1.006  15.137 -0.4409 -0.1985 -0.2765
    5TMC2    C814463   0.015   0.820  15.563 -0.2191  0.3252  0.0638
    5TMC2    O114464   0.016   1.034  15.044 -0.3336 -0.2779  0.1403
    5TMC2    O214465   0.089   0.896  15.626 -0.0542  0.3301 -0.0168
    5TMC2    O514466   0.023   0.683  15.568  0.2113  0.3828 -0.0659
    5TMC2    H514467   4.701   0.636  15.509  0.0688 -1.1560  1.3041
    6MPD2     C14468   4.225   1.239  14.970 -0.6422 -0.0561 -0.3479
    6MPD2    C114469   4.356   1.240  14.943 -0.7218  0.4378 -0.3109
    6MPD2    C214470   4.443   1.141  14.991 -0.2990  0.2682  0.5300
    6MPD2    C314471   4.390   1.039  15.063  0.1520  0.2021  0.7107
    6MPD2    C414472   4.250   1.027  15.078 -0.3235 -0.8924  0.2204
    6MPD2    C514473   4.173   1.122  15.018  0.4199  0.2647  0.3666
    6MPD2     H14474   4.549   1.137  14.973 -0.1434  0.6683  1.3282
    6MPD2    H114475   4.200   0.945  15.128  1.9233 -1.8942  0.7991
    6MPD2    H214476   4.147   1.305  14.934 -0.7249  0.2775  0.4408
    6MPD2    H314477   4.068   1.098  15.023  0.3220 -0.1968 -3.7645
    6MPD2     N14478   4.482   0.955  15.127 -0.2190  0.2848 -0.1335
    6MPD2    H514479   4.577   0.964  15.093 -0.1742  0.1785 -0.0364
    6MPD2    N114480   4.411   1.341  14.858  0.1437  0.8778  0.2803
    6MPD2    H714481   4.511   1.336  14.841  0.3195  0.8841  1.3135
  945NH4     N114482   4.388   2.175   1.454 -0.2717  0.2056  0.6142
  945NH4     H214483   4.295   2.154   1.413  0.1867 -0.9775  0.1881
  945NH4     H314484   4.381   2.267   1.502  0.5383  0.5795  0.0215
  945NH4     H414485   4.460   2.178   1.379 -0.9065 -1.4127 -0.0501
  945NH4     H514486   4.416   2.105   1.526  2.8561  2.1573  1.2562
  946SOD     NA14487   0.654   1.188  12.831 -0.2487 -0.4687  0.6079
  947SOD     NA14488   1.441   4.709  14.142 -0.0851  0.2364  0.4997
  948SOD     NA14489   4.034   2.525  13.730 -0.1245  0.0154  0.0665
  949SOD     NA14490   2.572   3.101  17.543 -0.4969  0.1858 -0.2819
  950SOD     NA14491   2.802   4.132   2.730 -0.4080  0.7640  0.4190
  951SOD     NA14492   0.055   1.205   7.232  0.0000 -0.0397  0.5318
  952SOD     NA14493   3.604   1.485  10.812  0.1347 -0.1977 -0.1948
  953SOL     OW14494   2.436   0.063   5.434 -0.0948 -0.2303  0.2716
  953SOL    HW114495   2.513   0.079   5.380  0.0836 -0.5163  0.4406
  953SOL    HW214496   2.445   0.139   5.492  2.2866  0.9963 -1.6843
  954SOL     OW14497   1.470   1.942   5.712 -0.6888 -0.2593 -0.2625
  954SOL    HW114498   1.464   2.037   5.710 -1.8823 -0.3164  0.4640
  954SOL    HW214499   1.493   1.915   5.623 -1.3829 -0.1771 -0.4647
  955SOL     OW14500   3.438   2.714  15.842  0.2036  0.1556 -0.4279
  955SOL    HW114501   3.458   2.687  15.932  1.9855  1.3101 -0.4934
  955SOL    HW214502   3.403   2.630  15.812  0.9725 -0.3245  0.0228
  956SOL     OW14503   4.519   1.716   1.849  0.0448  0.3457  0.2198
  956SOL    HW114504   4.438   1.758   1.822  0.4516  0.7402 -0.3923
  956SOL    HW214505   4.593   1.760   1.807  0.1009 -1.9565 -2.0697
  957SOL     OW14506   1.394   3.315   6.166 -0.1276 -0.1430 -0.3135
  957SOL    HW114507   1.421   3.254   6.098 -0.0765 -0.0251 -0.3997
  957SOL    HW214508   1.314   3.361   6.138  0.5791  1.1883 -0.1530
  958SOL     OW14509   2.698   2.882  12.562 -0.4126 -0.2425  0.3348
  958SOL    HW114510   2.712   2.854  12.652  1.2695  0.2288  0.2184
  958SOL    HW214511   2.754   2.960  12.559  1.0318 -1.3133 -0.6321
  959SOL     OW14512   1.064   3.621   9.483  0.2081 -0.3803  0.5145
  959SOL    HW114513   1.131   3.667   9.534  3.4065 -1.4361 -2.7489
  959SOL    HW214514   0.979   3.656   9.510  0.0710 -1.6709  1.7332
  960SOL     OW14515   1.147   4.342  11.344 -0.8081  0.2809 -0.2298
  960SOL    HW114516   1.221   4.346  11.283 -0.4144  1.0595  0.2981
  960SOL    HW214517   1.097   4.272  11.302 -0.9543 -0.7312  1.6699
  961SOL     OW14518   2.298   3.899   8.787  0.2509 -0.2716  0.9342
  961SOL    HW114519   2.262   3.862   8.707  1.0307 -1.9763  1.3780
  961SOL    HW214520   2.356   3.827   8.812  1.4306  0.7373  1.1289
  962SOL     OW14521   0.638   1.303  13.030 -0.5526 -0.1178 -0.2816
  962SOL    HW114522   0.710   1.291  13.092 -0.5508 -0.6835 -0.3969
  962SOL    HW214523   0.592   1.381  13.061  1.2474  0.9536 -0.3345
  963SOL     OW14524   1.901   0.268   8.152  0.3047  0.0134  0.0895
  963SOL    HW114525   1.997   0.270   8.159  0.3967 -0.8638 -0.8332
  963SOL    HW214526   1.890   0.198   8.216  0.7841  0.0215  0.1804
  964SOL     OW14527   4.138   3.565   4.669  0.7134  0.5180  0.1306
  964SOL    HW114528   4.188   3.526   4.597  0.0929  0.9116 -0.5148
  964SOL    HW214529   4.197   3.625   4.715  2.4988 -1.5713  0.6039
  965SOL     OW14530   2.456   2.211   2.234  0.4798  0.1379  0.1969
  965SOL    HW114531   2.544   2.213   2.271 -0.4514  0.4573  2.3666
  965SOL    HW214532   2.466   2.182   2.143  0.4989 -0.8155  0.5036
  966SOL     OW14533   1.509   0.266   2.145  0.3774  0.1653  0.1723
  966SOL    HW114534   1.593   0.241   2.107  0.9222  1.1855  0.7102
  966SOL    HW214535   1.477   0.324   2.076  1.4603  0.2893 -0.2223
  967SOL     OW14536   2.328   3.955   8.149 -0.2002  0.8047 -0.4554
  967SOL    HW114537   2.276   4.030   8.177  0.8815  1.0502  0.9178
  967SOL    HW214538   2.262   3.913   8.095  1.4691 -0.5967 -1.3951
  968SOL     OW14539   2.167   0.979   3.552  0.0027  0.4917 -0.0337
  968SOL    HW114540   2.098   1.004   3.613 -0.4322  0.3190 -0.4554
  968SOL    HW214541   2.123   0.962   3.469  0.7405 -2.9301  0.2747
  969SOL     OW14542   2.687   3.941  11.052 -0.3453  0.3885 -0.4864
  969SOL    HW114543   2.764   3.895  11.085 -1.2133  2.5387  4.4869
  969SOL    HW214544   2.681   4.017  11.111  2.3392  2.3263 -2.6953
  970SOL     OW14545   2.290   1.051   2.105 -0.1571 -0.6378 -0.3543
  970SOL    HW114546   2.223   1.080   2.043 -1.7254 -3.3506  0.0629
  970SOL    HW214547   2.262   1.104   2.180 -0.6599 -1.2794 -0.0897
  971SOL     OW14548   3.329   1.013   1.846  0.3640  0.0687 -0.8396
  971SOL    HW114549   3.355   1.023   1.754 -0.1721  1.7712 -0.8048
  971SOL    HW214550   3.417   0.990   1.876 -0.1196  0.9482  1.1944
  972SOL     OW14551   3.341   0.882   6.903  1.0422  0.6201 -0.6308
  972SOL    HW114552   3.344   0.786   6.910 -1.8444  0.4276 -1.6297
  972SOL    HW214553   3.333   0.918   6.991 -2.2515 -0.1787 -0.5937
  973SOL     OW14554   1.632   2.369   6.087 -0.1116  0.1162 -0.0238
  973SOL    HW114555   1.689   2.442   6.109  0.8397 -0.4102 -0.7430
  973SOL    HW214556   1.555   2.423   6.075  1.6593  2.7489  0.4213
  974SOL     OW14557   0.963   0.201   2.582  0.1842  0.0684 -0.2470
  974SOL    HW114558   0.966   0.166   2.493  1.6104  0.7940 -0.4799
  974SOL    HW214559   0.892   0.148   2.620  0.9536 -1.1960 -0.5789
  975SOL     OW14560   1.290   2.562  17.306  0.1537 -0.4724 -0.0560
  975SOL    HW114561   1.252   2.543  17.391 -1.1183 -0.3675 -0.5925
  975SOL    HW214562   1.291   2.658  17.306 -0.8436 -0.4742  2.6802
  976SOL     OW14563   0.187   1.316   0.852  0.0068  0.3394 -0.4869
  976SOL    HW114564   0.233   1.375   0.792  1.4057 -1.5596 -1.2920
  976SOL    HW214565   0.186   1.242   0.791  0.1644 -1.2187  1.3949
  977SOL     OW14566   0.008   2.651   3.865 -0.2118 -0.6346  0.5168
  977SOL    HW114567   0.082   2.710   3.873 -0.6268 -0.1280  0.5999
  977SOL    HW214568   4.684   2.693   3.807  1.2107 -0.7588 -1.1383
  978SOL     OW14569   1.169   4.088   3.544  0.1803  0.1821 -0.3499
  978SOL    HW114570   1.098   4.024   3.556 -0.2959  0.9536  1.0288
  978SOL    HW214571   1.115   4.160   3.512  1.7608  1.2142 -0.6882
  979SOL     OW14572   0.075   4.102   2.736  0.5275  0.3909 -0.2197
  979SOL    HW114573   0.061   4.192   2.766  1.5213 -0.1903  1.9865
  979SOL    HW214574   0.058   4.101   2.641 -0.5624  0.6921 -0.0316
  980SOL     OW14575   0.738   1.620   9.124  0.2245  0.2512  0.1800
  980SOL    HW114576   0.807   1.642   9.061 -0.5842  2.4001  0.0386
  980SOL    HW214577   0.740   1.693   9.186 -0.3831 -0.9574  1.6261
  981SOL     OW14578   0.877   4.118   2.004  0.5435 -0.2027  0.4948
  981SOL    HW114579   0.922   4.059   1.945 -0.1395 -2.0527  1.8243
  981SOL    HW214580   0.858   4.059   2.077  1.6585  1.1868  1.9266
  982SOL     OW14581   3.321   0.126   8.729 -0.0528 -0.2678 -0.4190
  982SOL    HW114582   3.338   0.218   8.749 -1.6186 -0.2219  0.6975
  982SOL    HW214583   3.339   0.118   8.636  1.1388  1.6133 -0.3434
  983SOL     OW14584   4.710   2.670   5.362  0.5252  0.2808  0.2233
  983SOL    HW114585   4.682   2.683   5.453 -1.7687  1.8051 -0.7304
  983SOL    HW214586   0.066   2.669   5.364  0.4978  0.1956  1.7515
  984SOL     OW14587   0.321   1.573  11.664  0.5840  0.1355  0.4037
  984SOL    HW114588   0.289   1.577  11.754  0.6202  2.4744  0.3155
  984SOL    HW214589   0.257   1.513  11.625  0.1410  1.4874 -0.9422
  985SOL     OW14590   3.220   3.535   1.285  0.1910 -0.1048  0.4347
  985SOL    HW114591   3.245   3.443   1.288  2.4015  0.4934  0.5066
  985SOL    HW214592   3.133   3.532   1.245  1.1315  1.5511 -1.7296
  986SOL     OW14593   4.096   3.490   4.294  0.4054  0.4564  0.3480
  986SOL    HW114594   4.153   3.523   4.363  0.4884  0.9304  0.0577
  986SOL    HW214595   4.144   3.532   4.222  0.6357  1.3301  1.0225
  987SOL     OW14596   1.141   0.962   1.693  0.1438  0.1268 -0.5995
  987SOL    HW114597   1.066   0.969   1.634 -0.4689  0.8416  0.2660
  987SOL    HW214598   1.103   1.001   1.772 -1.2280 -1.8272 -0.3038
  988SOL     OW14599   4.386   4.285   2.364 -0.0274 -0.3244 -0.0480
  988SOL    HW114600   4.401   4.230   2.441 -0.5856  0.8399  0.8957
  988SOL    HW214601   4.458   4.348   2.358  0.2052 -0.6302 -0.4367
  989SOL     OW14602   2.621   1.536   5.357 -0.3045 -0.7569 -0.0114
  989SOL    HW114603   2.696   1.578   5.315 -1.4920  0.9238 -0.4158
  989SOL    HW214604   2.651   1.446   5.372 -2.9604 -1.3928  1.4035
  990SOL     OW14605   0.257   4.199   3.337  0.6074  0.2715 -0.2057
  990SOL    HW114606   0.278   4.232   3.250 -1.3969  1.6691 -0.1689
  990SOL    HW214607   0.213   4.120   3.306  0.6146 -0.6917  2.2139
  991SOL     OW14608   3.820   3.822   5.928 -0.2096 -0.6526  0.8300
  991SOL    HW114609   3.744   3.877   5.911 -0.7058 -1.3599  0.7943
  991SOL    HW214610   3.868   3.834   5.846 -3.3360  1.2914 -0.7065
  992SOL     OW14611   1.677   3.647  15.756  0.4554  0.5238  0.5670
  992SOL    HW114612   1.685   3.741  15.738  1.9308  0.0589 -1.1881
  992SOL    HW214613   1.603   3.643  15.817  0.3315  1.3845  0.4749
  993SOL     OW14614   2.512   4.423  16.874 -0.4245  0.2334 -0.3308
  993SOL    HW114615   2.524   4.330  16.888  0.8778  0.4812  0.2243
  993SOL    HW214616   2.566   4.440  16.796  0.8102 -0.7874  0.3172
  994SOL     OW14617   2.128   0.881  17.672 -0.1018 -0.0175  0.2852
  994SOL    HW114618   2.114   0.845  17.584  2.1202  1.4931 -0.6866
  994SOL    HW214619   2.179   0.957  17.644 -0.0952 -0.7287 -1.6841
  995SOL     OW14620   3.311   3.439   3.451  0.3469  0.2832 -0.0352
  995SOL    HW114621   3.329   3.431   3.357  0.0214 -1.5379  0.0604
  995SOL    HW214622   3.369   3.510   3.478 -1.3824  1.2104  1.1914
  996SOL     OW14623   2.496   3.496   4.371  0.3466 -0.1146  0.6328
  996SOL    HW114624   2.463   3.581   4.397  1.3832 -0.3621  2.7922
  996SOL    HW214625   2.497   3.508   4.276 -1.0464  0.0080  0.6363
  997SOL     OW14626   1.249   1.544   1.338  0.6414  0.5739  0.3391
  997SOL    HW114627   1.194   1.527   1.415  0.7826 -1.0531  0.0628
  997SOL    HW214628   1.222   1.636   1.327  0.3606  0.6069  1.2866
  998SOL     OW14629   3.772   0.884   6.227 -0.4510  0.2439 -0.1216
  998SOL    HW114630   3.790   0.961   6.172 -0.7854 -0.0561 -0.6474
  998SOL    HW214631   3.777   0.925   6.313 -0.1687  1.5900 -0.7757
  999SOL     OW14632   2.517   3.209   8.556 -0.1273 -0.5717  0.6227
  999SOL    HW114633   2.520   3.211   8.652  0.6612 -0.6273  0.5947
  999SOL    HW214634   2.576   3.137   8.533 -1.3250 -1.3546 -0.0132
 1000SOL     OW14635   1.038   0.083   8.866  0.7482 -0.6951 -1.1308
 1000SOL    HW114636   1.068   0.107   8.954 -0.2698  0.0298 -0.9806
 1000SOL    HW214637   1.013   4.733   8.888 -2.8148  0.7833  0.8412
 1001SOL     OW14638   1.800   3.289  11.124 -0.2373  0.3319  0.0131
 1001SOL    HW114639   1.720   3.316  11.169  0.2343  1.0943  0.3947
 1001SOL    HW214640   1.847   3.261  11.203 -2.3919 -1.8284  0.4930
 1002SOL     OW14641   2.247   1.970   5.571  0.1412  0.6785  0.1327
 1002SOL    HW114642   2.193   1.989   5.494  2.1386  0.6159 -1.2841
 1002SOL    HW214643   2.197   1.896   5.606  1.9852 -0.6626 -0.0657
 1003SOL     OW14644   3.238   0.898   3.319 -0.2933 -0.2688  0.5708
 1003SOL    HW114645   3.296   0.822   3.327  1.7842  1.1781 -1.1514
 1003SOL    HW214646   3.228   0.909   3.414 -2.8252 -1.6143  0.4632
 1004SOL     OW14647   0.369   4.332   7.542  0.8655 -0.1848  0.3800
 1004SOL    HW114648   0.299   4.285   7.497  0.4876  2.0044 -1.3219
 1004SOL    HW214649   0.413   4.266   7.596 -0.6726 -0.2974  1.4970
 1005SOL     OW14650   1.742   2.185   1.713  0.0357  0.0631 -0.1143
 1005SOL    HW114651   1.693   2.267   1.726  0.9152  0.4106  1.0020
 1005SOL    HW214652   1.757   2.182   1.619  0.9126  3.9630 -0.0951
 1006SOL     OW14653   3.340   3.440   7.778  0.6065  0.0101  0.3789
 1006SOL    HW114654   3.278   3.504   7.814  2.0502  2.4195 -1.4278
 1006SOL    HW214655   3.402   3.494   7.730  0.4531 -0.8841 -0.8277
 1007SOL     OW14656   3.707   1.153   9.984  0.0847  0.3761 -0.3151
 1007SOL    HW114657   3.746   1.066   9.974  0.4206  0.4951 -0.0354
 1007SOL    HW214658   3.641   1.165   9.915  0.1234 -1.1551 -0.6239
 1008SOL     OW14659   2.367   2.312   7.885  0.1771 -0.0905  0.4448
 1008SOL    HW114660   2.307   2.367   7.936  2.1897  1.3383  1.2698
 1008SOL    HW214661   2.397   2.260   7.959  0.6282 -0.9485 -0.3434
 1009SOL     OW14662   0.309   2.010   3.401  0.2493 -0.8675  0.3097
 1009SOL    HW114663   0.373   1.992   3.332 -0.8303  0.3298 -1.0017
 1009SOL    HW214664   0.354   2.017   3.485 -2.0866 -2.3262  1.7153
 1010SOL     OW14665   2.927   3.193  13.213 -0.4041  0.8782 -0.3520
 1010SOL    HW114666   2.917   3.152  13.299  1.2909 -1.7072 -1.3980
 1010SOL    HW214667   2.942   3.120  13.154 -1.4423  0.3383  0.0539
 1011SOL     OW14668   4.254   4.613   2.943  0.0175 -0.7769  0.5135
 1011SOL    HW114669   4.214   4.531   2.971 -3.1854  0.9725  1.0491
 1011SOL    HW214670   4.344   4.596   2.971  0.2517  1.2086  0.9787
 1012SOL     OW14671   2.930   3.983   2.844 -0.9316 -0.1347  0.5256
 1012SOL    HW114672   3.021   3.970   2.818 -0.9365  0.1088  0.3882
 1012SOL    HW214673   2.928   3.935   2.928 -1.3504 -2.0054 -0.5506
 1013SOL     OW14674   1.135   0.815   4.268  0.1209  0.2578 -0.5458
 1013SOL    HW114675   1.055   0.868   4.263  1.1111  1.8181  0.1025
 1013SOL    HW214676   1.142   0.777   4.181  1.4878  1.3643 -0.9320
 1014SOL     OW14677   2.043   0.443   7.908 -0.3824  0.8143  0.2084
 1014SOL    HW114678   2.045   0.460   8.003  0.9064 -0.0314  0.3258
 1014SOL    HW214679   2.124   0.396   7.892 -1.7734 -1.0661 -1.1784
 1015SOL     OW14680   0.345   1.190   7.868  0.3537  0.2426 -0.6839
 1015SOL    HW114681   0.326   1.282   7.852  0.8004  0.3833 -0.4277
 1015SOL    HW214682   0.422   1.187   7.811  1.1127  0.6864  0.3148
 1016SOL     OW14683   0.097   0.970   5.954  0.1322 -0.1630 -0.0321
 1016SOL    HW114684   0.037   0.897   5.936  1.7912 -1.0900 -1.7996
 1016SOL    HW214685   0.129   0.965   6.044  0.1485  1.0784  0.0374
 1017SOL     OW14686   0.815   2.335   4.130 -0.6622  0.4193  0.4240
 1017SOL    HW114687   0.884   2.270   4.120  0.3516  1.4645  0.6524
 1017SOL    HW214688   0.795   2.307   4.219  1.0064 -1.4415  0.2153
 1018SOL     OW14689   3.774   0.582   2.124  0.0227 -0.2665 -0.0303
 1018SOL    HW114690   3.839   0.524   2.084 -0.0057  0.9026 -1.8137
 1018SOL    HW214691   3.831   0.614   2.194  0.6367  1.2561 -1.2129
 1019SOL     OW14692   1.668   3.072   4.618  0.6626 -0.1938  0.2123
 1019SOL    HW114693   1.647   2.980   4.599  1.1264  0.1952 -2.2711
 1019SOL    HW214694   1.763   3.078   4.602  0.4186  1.0591 -0.8251
 1020SOL     OW14695   2.673   4.022   4.737  0.4239 -0.4143 -0.2268
 1020SOL    HW114696   2.590   3.979   4.758 -0.0880  1.2438  1.1728
 1020SOL    HW214697   2.684   4.067   4.820  2.9465 -0.7820 -0.3545
 1021SOL     OW14698   3.148   1.242  12.307  0.4292  0.0747  0.7364
 1021SOL    HW114699   3.065   1.282  12.336  0.3207  0.8845 -0.7093
 1021SOL    HW214700   3.216   1.272  12.367 -1.0053 -0.3110  2.5627
 1022SOL     OW14701   0.120   3.749   4.221 -0.0063  0.8403 -0.2433
 1022SOL    HW114702   0.064   3.813   4.176 -1.6573  0.8956  1.8524
 1022SOL    HW214703   0.196   3.754   4.163 -1.6100 -0.5235 -2.4557
 1023SOL     OW14704   1.473   4.256   6.678 -0.2640 -0.6013 -0.2715
 1023SOL    HW114705   1.499   4.226   6.765 -0.3483  1.2516  0.4094
 1023SOL    HW214706   1.425   4.182   6.643 -0.3247  0.0434 -1.5536
 1024SOL     OW14707   2.247   3.061  11.587  0.1204  0.0107  0.0224
 1024SOL    HW114708   2.178   3.079  11.651  0.6105  1.1892  0.2219
 1024SOL    HW214709   2.218   2.970  11.576  0.6051 -0.0884 -0.4237
 1025SOL     OW14710   4.649   0.390   0.741  0.6051 -0.1826  0.5761
 1025SOL    HW114711   4.627   0.459   0.679 -2.0464  0.0056  1.7528
 1025SOL    HW214712   4.568   0.368   0.786  0.1510  0.5178  0.1032
 1026SOL     OW14713   1.293   1.088   5.680  0.2253 -0.7340  0.4607
 1026SOL    HW114714   1.281   1.016   5.618  1.9448  1.1396 -2.0293
 1026SOL    HW214715   1.258   1.044   5.758  0.0149 -1.0167  0.2058
 1027SOL     OW14716   4.723   0.377   4.652 -0.5754  0.0957 -0.2871
 1027SOL    HW114717   0.000   0.403   4.742  0.0240 -1.4465  0.0475
 1027SOL    HW214718   4.672   0.449   4.617  1.0397  1.2194 -0.3315
 1028SOL     OW14719   1.759   2.478  13.728  0.3044 -0.1493  0.3534
 1028SOL    HW114720   1.778   2.454  13.819  2.3661  0.0932 -0.0100
 1028SOL    HW214721   1.816   2.414  13.686  0.2719  0.5842 -0.7865
 1029SOL     OW14722   0.422   3.446  12.230  0.2016 -0.6875  0.0502
 1029SOL    HW114723   0.468   3.490  12.302 -0.1606  1.1359 -0.8192
 1029SOL    HW214724   0.386   3.524  12.188  1.2471 -2.1410 -3.5310
 1030SOL     OW14725   0.126   1.247   4.285  0.2202 -0.0112  0.0953
 1030SOL    HW114726   0.038   1.225   4.314  0.6443 -0.4249  1.0904
 1030SOL    HW214727   0.131   1.210   4.197  1.6121 -0.7900  0.4946
 1031SOL     OW14728   1.411   4.553   7.827 -0.2886  0.1763 -0.5851
 1031SOL    HW114729   1.478   4.547   7.895  0.0886  1.3454 -0.8536
 1031SOL    HW214730   1.456   4.601   7.757  1.4106  1.1065  1.1666
 1032SOL     OW14731   1.780   3.438   7.919 -0.0551  0.2146  0.3543
 1032SOL    HW114732   1.850   3.380   7.950  0.1757  0.2188 -0.1664
 1032SOL    HW214733   1.819   3.459   7.835  1.7049 -2.0211  0.6002
 1033SOL     OW14734   0.327   1.818  17.601  0.7498 -0.6060 -0.8158
 1033SOL    HW114735   0.251   1.761  17.589  0.0926  0.0826 -0.0313
 1033SOL    HW214736   0.393   1.750  17.591 -0.1580 -1.4671 -0.9053
 1034SOL     OW14737   3.174   4.001   8.511 -0.3305  0.5579 -0.2589
 1034SOL    HW114738   3.135   4.016   8.425 -2.5676 -0.0238  0.6693
 1034SOL    HW214739   3.166   4.094   8.531 -0.6586  0.5576 -0.3869
 1035SOL     OW14740   3.594   1.052  14.671 -0.1320 -0.9154  0.5342
 1035SOL    HW114741   3.568   0.986  14.735  1.4640 -2.2213 -0.1830
 1035SOL    HW214742   3.543   1.025  14.595  2.9900 -0.5144 -1.7067
 1036SOL     OW14743   4.258   2.714   2.347  0.0365 -0.4416 -0.7321
 1036SOL    HW114744   4.281   2.805   2.329 -1.0056  0.2827  1.5349
 1036SOL    HW214745   4.274   2.671   2.263 -2.1373  0.1009 -1.4200
 1037SOL     OW14746   1.444   2.946   3.052 -0.2347 -0.3660 -0.6261
 1037SOL    HW114747   1.437   2.851   3.053 -1.4861 -0.2831 -0.5023
 1037SOL    HW214748   1.373   2.977   2.995 -0.4713 -0.4955 -0.4032
 1038SOL     OW14749   4.520   0.492  11.074  0.1010  0.3317 -0.0849
 1038SOL    HW114750   4.542   0.584  11.056 -0.5377  0.4517 -0.2597
 1038SOL    HW214751   4.442   0.505  11.127 -1.2873  0.0882 -2.0493
 1039SOL     OW14752   0.700   0.053  16.990  0.1239  0.0748 -0.6259
 1039SOL    HW114753   0.687   0.094  16.904  1.1988 -0.8647 -1.2368
 1039SOL    HW214754   0.766   4.724  16.989 -1.3800 -1.3564  0.0008
 1040SOL     OW14755   1.380   1.113  17.188  0.1273  0.2599  0.4409
 1040SOL    HW114756   1.295   1.154  17.207  0.2039 -0.9634  3.3997
 1040SOL    HW214757   1.399   1.073  17.273 -0.0510 -1.3254 -0.2550
 1041SOL     OW14758   2.236   2.381   4.271  0.2824 -0.1928  0.2116
 1041SOL    HW114759   2.182   2.320   4.222  0.6382 -0.2031 -0.1681
 1041SOL    HW214760   2.211   2.366   4.362  2.6748  0.5753  1.0000
 1042SOL     OW14761   3.344   2.609  15.409 -0.2498 -0.2533  0.3441
 1042SOL    HW114762   3.272   2.597  15.471  1.5740  1.1248  2.7685
 1042SOL    HW214763   3.340   2.528  15.359 -2.4466  0.5545 -0.7535
 1043SOL     OW14764   3.506   3.132   4.695 -0.5168  0.0126  0.1530
 1043SOL    HW114765   3.469   3.064   4.751  0.7058 -0.5417  0.2751
 1043SOL    HW214766   3.578   3.089   4.649 -0.4653 -0.1198  0.3606
 1044SOL     OW14767   4.633   2.340   7.051  0.2887 -0.3736  0.0628
 1044SOL    HW114768   4.719   2.299   7.052 -0.5709 -2.1115  0.7390
 1044SOL    HW214769   4.577   2.266   7.028  0.0888  0.1832 -1.2365
 1045SOL     OW14770   4.025   1.826  17.485 -1.0190 -0.3150  0.5482
 1045SOL    HW114771   4.003   1.868  17.402 -1.0736  0.4611  0.9598
 1045SOL    HW214772   3.939   1.799  17.517 -0.0825 -0.6352  2.8356
 1046SOL     OW14773   1.364   2.983   4.143 -0.2943  0.1429 -0.0954
 1046SOL    HW114774   1.291   2.950   4.195 -1.1607  1.3494 -0.5377
 1046SOL    HW214775   1.408   3.038   4.208 -1.0595  0.7295 -0.0794
 1047SOL     OW14776   3.557   3.860   2.459  0.1612  0.4462  0.1061
 1047SOL    HW114777   3.646   3.875   2.430  0.1647  2.7261  1.2202
 1047SOL    HW214778   3.568   3.871   2.554 -3.7468  0.2201  0.5902
 1048SOL     OW14779   2.309   2.017   9.558 -0.1620 -0.8671  0.6648
 1048SOL    HW114780   2.288   1.933   9.517  0.4667  0.9208 -3.2927
 1048SOL    HW214781   2.228   2.067   9.545 -0.0661 -0.7727  0.4216
 1049SOL     OW14782   1.426   0.641   3.927 -0.0648 -0.1513  0.6411
 1049SOL    HW114783   1.452   0.663   4.017  4.7982  1.5374 -1.1619
 1049SOL    HW214784   1.499   0.692   3.892 -1.3745  1.4264  0.1778
 1050SOL     OW14785   3.450   2.422   8.501  0.0987 -0.1618  0.4317
 1050SOL    HW114786   3.534   2.412   8.454  0.4981  1.3943  0.8051
 1050SOL    HW214787   3.463   2.506   8.545 -0.8852 -0.0948  0.5847
 1051SOL     OW14788   1.553   1.373  10.413 -0.2588  0.2040  0.5775
 1051SOL    HW114789   1.615   1.313  10.453  0.0345 -0.5646 -1.0133
 1051SOL    HW214790   1.477   1.315  10.422 -0.1724  0.0206  0.1657
 1052SOL     OW14791   0.867   2.234   0.293 -0.0716  0.0618  0.4300
 1052SOL    HW114792   0.851   2.301   0.360 -3.0760  2.8652 -3.0749
 1052SOL    HW214793   0.867   2.279   0.209 -1.9061  0.3234  0.5756
 1053SOL     OW14794   3.601   0.996   2.784  0.2411  0.4715 -0.4303
 1053SOL    HW114795   3.693   1.017   2.805 -0.2445  2.2058 -0.0065
 1053SOL    HW214796   3.558   1.081   2.773  0.4847  0.7646  0.8791
 1054SOL     OW14797   2.075   2.886   3.515  0.2948 -0.5089  0.0320
 1054SOL    HW114798   2.163   2.887   3.479  0.3331 -3.3404  0.0475
 1054SOL    HW214799   2.082   2.957   3.579  2.1534 -0.3395 -0.3694
 1055SOL     OW14800   3.241   0.509   0.893  0.0019  0.2300 -0.6845
 1055SOL    HW114801   3.152   0.544   0.882  1.0180  3.1838  0.3416
 1055SOL    HW214802   3.272   0.502   0.803 -0.7683  0.9009 -1.0068
 1056SOL     OW14803   2.434   0.374  13.648  0.4062  0.1630  0.4226
 1056SOL    HW114804   2.353   0.336  13.613  0.6154  1.0794 -1.0443
 1056SOL    HW214805   2.401   0.441  13.707  1.1177  1.2068 -0.3699
 1057SOL     OW14806   2.309   0.469   9.056  0.6900 -0.5400  0.0883
 1057SOL    HW114807   2.253   0.430   9.123  0.2726 -1.2201 -0.6637
 1057SOL    HW214808   2.261   0.551   9.048 -1.4759 -1.5710  2.3710
 1058SOL     OW14809   2.104   3.958   5.606 -0.3661 -0.0377 -0.0701
 1058SOL    HW114810   2.061   4.007   5.676 -2.1828 -0.6016 -0.7970
 1058SOL    HW214811   2.046   3.970   5.530 -0.9668 -1.5893  0.1373
 1059SOL     OW14812   1.082   1.380   1.779  0.7746 -0.0928 -0.4876
 1059SOL    HW114813   1.173   1.372   1.808  0.3550  0.1993  0.9046
 1059SOL    HW214814   1.043   1.411   1.861 -3.9203 -0.5362 -2.5649
 1060SOL     OW14815   1.341   3.593  11.124 -0.1488  0.7621 -0.1420
 1060SOL    HW114816   1.310   3.666  11.177  1.1546 -0.2122  1.9719
 1060SOL    HW214817   1.284   3.594  11.047 -1.9959  0.6165  1.2334
 1061SOL     OW14818   0.590   3.598   6.918 -0.2836 -0.6195 -0.6129
 1061SOL    HW114819   0.572   3.615   6.825 -1.3256 -0.1400 -0.3318
 1061SOL    HW214820   0.612   3.688   6.943 -0.4387 -0.6622 -0.3165
 1062SOL     OW14821   0.180   4.401   3.492 -0.2046  0.1390  0.1036
 1062SOL    HW114822   0.196   4.340   3.419 -0.4125  2.0444 -1.5401
 1062SOL    HW214823   0.269   4.426   3.517  0.6174  0.2716 -2.9496
 1063SOL     OW14824   0.927   2.660  10.748 -0.3678  0.1350  0.1945
 1063SOL    HW114825   1.017   2.677  10.719 -0.0539 -0.9243  0.5475
 1063SOL    HW214826   0.922   2.567  10.726 -1.2502  0.3340 -0.4323
 1064SOL     OW14827   2.857   2.384   9.439  0.1047  0.0711 -0.0511
 1064SOL    HW114828   2.780   2.356   9.389  1.0966 -2.8026 -0.0027
 1064SOL    HW214829   2.819   2.427   9.516 -0.4811  0.8179 -0.7564
 1065SOL     OW14830   1.170   3.910  15.218  0.0306 -0.2569 -0.1938
 1065SOL    HW114831   1.264   3.905  15.236  0.0095 -2.3227 -0.5959
 1065SOL    HW214832   1.166   3.902  15.123 -2.5067  2.2529 -0.2877
 1066SOL     OW14833   0.150   4.672   2.375  0.2008  0.1982  0.7861
 1066SOL    HW114834   0.182   4.586   2.350  0.9489  1.0015 -0.9892
 1066SOL    HW214835   0.084   4.660   2.444 -0.4091  2.4413  0.6135
 1067SOL     OW14836   0.922   1.697   8.377  0.0795 -0.8702 -0.1616
 1067SOL    HW114837   0.828   1.690   8.359  0.1247  1.3031 -1.3330
 1067SOL    HW214838   0.926   1.792   8.388  0.1913 -0.6937 -1.6761
 1068SOL     OW14839   0.079   3.086   2.194 -0.5536 -0.2816 -0.2488
 1068SOL    HW114840   0.066   3.010   2.250 -1.2671  0.5720  0.7659
 1068SOL    HW214841   0.136   3.136   2.253 -1.4601 -0.0948  0.4813
 1069SOL     OW14842   0.526   0.473   8.699  0.0536 -0.0928  0.1514
 1069SOL    HW114843   0.512   0.414   8.624 -0.4665  0.3391 -0.0865
 1069SOL    HW214844   0.621   0.465   8.713  0.1512 -1.2354 -1.0912
 1070SOL     OW14845   4.257   2.057   9.851  0.5234 -0.0345 -0.2846
 1070SOL    HW114846   4.293   2.066   9.763  2.7034 -1.2418  0.4859
 1070SOL    HW214847   4.300   1.976   9.880 -1.2836 -1.1806 -0.8287
 1071SOL     OW14848   3.617   0.229  13.787  0.3936 -0.4538  0.0858
 1071SOL    HW114849   3.655   0.288  13.723 -0.5457  1.9128  1.6934
 1071SOL    HW214850   3.658   0.256  13.869 -1.7333 -0.6943  1.2256
 1072SOL     OW14851   1.298   0.894   5.465  0.2025 -0.0189  0.0726
 1072SOL    HW114852   1.392   0.877   5.468 -0.3658 -2.9287  1.8183
 1072SOL    HW214853   1.288   0.863   5.375 -2.5802  1.0389  0.0366
 1073SOL     OW14854   1.701   4.605   5.671 -0.1235 -0.3942  0.0725
 1073SOL    HW114855   1.615   4.620   5.633  0.6426  0.3970 -1.3484
 1073SOL    HW214856   1.759   4.668   5.629 -1.1388  0.5619  0.1065
 1074SOL     OW14857   2.214   0.810   7.346  0.2120  0.2361  0.2605
 1074SOL    HW114858   2.288   0.843   7.396 -0.0488  0.7705  0.2956
 1074SOL    HW214859   2.249   0.722   7.332  0.4369  0.8497 -3.0930
 1075SOL     OW14860   3.232   4.044   7.617 -0.3564  0.3346 -0.1226
 1075SOL    HW114861   3.322   4.075   7.615 -1.0511  2.3633  0.6670
 1075SOL    HW214862   3.237   3.950   7.598 -3.9421  0.5914 -2.5145
 1076SOL     OW14863   2.108   1.371   7.888  0.1024  0.2303 -0.2064
 1076SOL    HW114864   2.068   1.343   7.970 -0.5491 -0.9791 -0.9405
 1076SOL    HW214865   2.113   1.292   7.834 -1.8476  0.8575 -1.2914
 1077SOL     OW14866   4.483   0.022  12.698  0.3209  0.1828  0.1944
 1077SOL    HW114867   4.398   0.007  12.739 -0.4585 -0.2698 -1.6320
 1077SOL    HW214868   4.444   0.040  12.613 -1.3767  1.4189  1.2390
 1078SOL     OW14869   4.445   1.891   9.115  0.4812  0.3176  0.7474
 1078SOL    HW114870   4.388   1.841   9.056 -1.8661  1.0346  2.4100
 1078SOL    HW214871   4.482   1.824   9.171 -0.1241 -0.4044  0.2858
 1079SOL     OW14872   2.151   2.692   7.944 -0.7103 -0.6225 -0.2787
 1079SOL    HW114873   2.121   2.613   7.899  1.8886 -1.6795 -0.1445
 1079SOL    HW214874   2.199   2.749   7.884 -0.2312 -1.1318 -0.3780
 1080SOL     OW14875   3.077   0.683   6.666 -0.0228 -0.2189  0.8908
 1080SOL    HW114876   3.064   0.589   6.677  0.3264 -0.7599 -3.2841
 1080SOL    HW214877   3.168   0.685   6.696 -0.2071  3.0526  1.2579
 1081SOL     OW14878   1.951   1.597  11.065  0.0805 -0.3374 -0.5030
 1081SOL    HW114879   1.879   1.659  11.060  0.4206 -0.1495 -2.8961
 1081SOL    HW214880   1.970   1.597  11.159 -3.0167 -0.3183  0.1037
 1082SOL     OW14881   2.428   2.947   9.177  0.1582 -0.4441 -0.1355
 1082SOL    HW114882   2.357   2.909   9.229  0.7293 -1.7160 -0.3121
 1082SOL    HW214883   2.506   2.909   9.217 -0.3506  0.9792  2.2376
 1083SOL     OW14884   1.195   0.946   6.482  0.0322  0.0766  0.2364
 1083SOL    HW114885   1.281   0.919   6.512  0.9942  0.7905 -1.8902
 1083SOL    HW214886   1.128   0.885   6.513 -1.1831  0.2417 -2.0456
 1084SOL     OW14887   3.180   3.654  10.891  0.2817  0.2088 -0.5132
 1084SOL    HW114888   3.167   3.732  10.837 -0.0767  1.7747  1.8576
 1084SOL    HW214889   3.089   3.626  10.902  0.7898 -0.7703  1.2273
 1085SOL     OW14890   3.642   4.005   5.922  0.1576  0.3930  0.3015
 1085SOL    HW114891   3.642   4.088   5.873 -0.8440  0.6575  0.7578
 1085SOL    HW214892   3.551   4.005   5.952 -0.0729  1.7368 -0.3905
 1086SOL     OW14893   0.264   1.974   6.571 -0.3667 -0.2846  0.3123
 1086SOL    HW114894   0.287   2.033   6.499 -1.6940 -1.3536 -0.9904
 1086SOL    HW214895   0.321   1.905   6.537 -0.6693  0.0841 -0.9786
 1087SOL     OW14896   2.647   3.917   3.492  0.2561  0.0287 -0.3125
 1087SOL    HW114897   2.571   3.972   3.472  0.7560  0.8965  0.1495
 1087SOL    HW214898   2.664   3.938   3.584 -1.0802 -2.0181  0.3949
 1088SOL     OW14899   2.734   2.124   6.225 -0.3699  0.2764  0.1679
 1088SOL    HW114900   2.702   2.068   6.155 -0.3277  0.3460  0.0934
 1088SOL    HW214901   2.781   2.190   6.175  1.0211  1.4401  2.9657
 1089SOL     OW14902   4.235   2.882  12.738 -0.1780 -0.3037 -0.2999
 1089SOL    HW114903   4.148   2.921  12.743  0.1831  0.4375  0.1741
 1089SOL    HW214904   4.275   2.925  12.663 -1.1062  2.7410  0.9827
 1090SOL     OW14905   4.284   2.316   7.575 -0.1132 -0.2956  0.1312
 1090SOL    HW114906   4.344   2.389   7.590 -0.3495  0.0658 -0.6681
 1090SOL    HW214907   4.270   2.284   7.664  0.6388 -1.0158 -0.0148
 1091SOL     OW14908   0.567   3.203  11.269 -0.3136 -0.0094  0.4162
 1091SOL    HW114909   0.563   3.110  11.291 -1.5412 -0.1357 -0.3347
 1091SOL    HW214910   0.656   3.226  11.244 -0.1515 -1.5222 -0.3692
 1092SOL     OW14911   2.647   3.195   4.840 -0.0660 -0.3195  0.0026
 1092SOL    HW114912   2.670   3.125   4.779  0.4738  0.8992 -1.1884
 1092SOL    HW214913   2.559   3.168   4.867 -0.4121  0.2786 -0.5055
 1093SOL     OW14914   2.154   1.696  10.819  0.0951  0.4122  0.2284
 1093SOL    HW114915   2.092   1.667  10.886  2.3981 -1.8972  1.3321
 1093SOL    HW214916   2.221   1.740  10.871  1.1685 -1.9398  0.8305
 1094SOL     OW14917   3.169   0.448   5.568  0.2805 -0.5663 -0.2817
 1094SOL    HW114918   3.077   0.475   5.564  0.1886 -0.6101  1.3984
 1094SOL    HW214919   3.170   0.428   5.661 -2.5575 -2.4865 -0.6583
 1095SOL     OW14920   0.172   3.218   5.841  0.0611  0.0069  0.2468
 1095SOL    HW114921   0.115   3.194   5.913  0.9396 -1.3772  0.4803
 1095SOL    HW214922   0.200   3.137   5.797  0.3361  0.4680 -0.4267
 1096SOL     OW14923   3.410   2.203   1.652 -0.4202 -0.1331 -0.1674
 1096SOL    HW114924   3.411   2.108   1.657 -1.7979 -0.1929 -0.8286
 1096SOL    HW214925   3.315   2.208   1.649 -0.5310 -1.1640  1.7560
 1097SOL     OW14926   3.251   3.769  14.484  0.1401 -0.6104 -0.1620
 1097SOL    HW114927   3.222   3.691  14.437  0.6092 -2.0184  1.8758
 1097SOL    HW214928   3.334   3.795  14.443  3.5178 -3.5366  4.8167
 1098SOL     OW14929   1.056   1.171   7.456  0.1860 -0.0972 -0.2390
 1098SOL    HW114930   1.126   1.183   7.393 -0.9881  1.3048 -1.2659
 1098SOL    HW214931   0.973   1.175   7.410  0.3024  0.3038 -0.4149
 1099SOL     OW14932   1.524   2.449   5.736  0.0823  0.1486  0.2954
 1099SOL    HW114933   1.482   2.533   5.718  0.5220  0.7408  2.0379
 1099SOL    HW214934   1.604   2.485   5.773  1.0092 -0.9508 -0.6105
 1100SOL     OW14935   3.769   3.944  13.946 -0.2086 -0.2054  0.1586
 1100SOL    HW114936   3.748   3.924  14.038 -0.7648  0.4869  0.1781
 1100SOL    HW214937   3.691   3.903  13.909 -1.0553  0.5165  1.1625
 1101SOL     OW14938   1.992   0.250   2.950  0.0932 -0.5272 -0.2592
 1101SOL    HW114939   2.046   0.256   2.871  1.4325 -0.1724  0.6858
 1101SOL    HW214940   1.960   0.159   2.950 -1.5915  0.0716 -0.2405
 1102SOL     OW14941   4.089   3.195   6.325 -0.1037  0.3861  0.0740
 1102SOL    HW114942   4.078   3.203   6.420 -0.1774  0.7099  0.0352
 1102SOL    HW214943   4.070   3.286   6.303  2.3447  0.7463 -0.5945
 1103SOL     OW14944   2.664   0.078  17.381  0.0903 -0.1643 -0.5050
 1103SOL    HW114945   2.696   0.014  17.318  1.2373  0.8340 -0.9425
 1103SOL    HW214946   2.726   0.147  17.358 -2.8348  1.3542 -3.9117
 1104SOL     OW14947   2.965   1.464  16.660 -0.0727 -0.1170 -0.7946
 1104SOL    HW114948   3.021   1.533  16.695  1.1155 -1.3824 -0.2001
 1104SOL    HW214949   2.985   1.450  16.568  1.4283 -3.0549 -0.0311
 1105SOL     OW14950   0.878   0.121   9.188  0.0221 -0.2745 -0.1921
 1105SOL    HW114951   0.815   0.122   9.116  0.0629 -0.6166 -0.2340
 1105SOL    HW214952   0.855   0.047   9.245 -1.0201 -0.6947 -1.1579
 1106SOL     OW14953   3.268   0.619   4.406 -0.1192  0.5969 -0.0272
 1106SOL    HW114954   3.311   0.541   4.440 -1.4013 -1.5584 -3.3494
 1106SOL    HW214955   3.227   0.663   4.481 -0.0368 -0.9918  0.9397
 1107SOL     OW14956   1.251   1.036   4.694 -0.2577 -0.6361  0.3079
 1107SOL    HW114957   1.274   0.990   4.613 -2.7475  1.8079 -1.7703
 1107SOL    HW214958   1.180   1.093   4.666  1.1601  0.6586 -0.6129
 1108SOL     OW14959   1.232   4.688  17.204  0.1287 -0.0589  0.5276
 1108SOL    HW114960   1.153   4.722  17.246  2.0975  0.9074  3.5177
 1108SOL    HW214961   1.288   4.664  17.278 -1.5854  2.5273  2.6586
 1109SOL     OW14962   0.593   4.044   3.777  0.4390  0.1413 -0.0502
 1109SOL    HW114963   0.563   4.055   3.687 -1.2585 -0.6831  0.4273
 1109SOL    HW214964   0.624   3.958   3.749 -1.3290 -0.2298 -0.8750
 1110SOL     OW14965   4.523   4.699   6.034  0.4603 -0.0841  0.4222
 1110SOL    HW114966   4.580   0.026   6.073 -0.8140 -0.6431  3.2356
 1110SOL    HW214967   4.469   0.004   5.969  0.1225 -1.7742 -0.4490
 1111SOL     OW14968   4.320   2.322   6.244  0.1785 -1.1228  0.0046
 1111SOL    HW114969   4.260   2.277   6.304  0.6632 -0.7294  0.7985
 1111SOL    HW214970   4.400   2.275   6.266 -0.2719 -1.5566  0.7387
 1112SOL     OW14971   2.004   4.114   4.210 -0.6114 -0.0309 -0.4122
 1112SOL    HW114972   1.995   4.138   4.117 -0.8544 -0.2910 -0.4541
 1112SOL    HW214973   1.973   4.192   4.256  0.7877  0.2429  0.0565
 1113SOL     OW14974   4.059   3.135  15.965  0.0495 -0.5562 -0.2415
 1113SOL    HW114975   3.990   3.114  15.902 -0.3540  0.2527 -0.0755
 1113SOL    HW214976   4.102   3.198  15.907  1.5032 -0.4551  0.9545
 1114SOL     OW14977   1.746   2.349   3.639 -0.5388  0.0085  0.1418
 1114SOL    HW114978   1.811   2.419   3.637 -1.4430  0.8990  1.5395
 1114SOL    HW214979   1.669   2.403   3.660 -2.0578 -2.6917  1.4380
 1115SOL     OW14980   4.093   1.173   9.600 -0.5867 -0.2767  0.5613
 1115SOL    HW114981   4.113   1.089   9.558 -2.7570  0.5272 -2.0602
 1115SOL    HW214982   4.126   1.148   9.686  0.2630  3.4587  1.3146
 1116SOL     OW14983   0.256   0.607  15.744 -0.0823  0.1968  0.2057
 1116SOL    HW114984   0.220   0.681  15.793  0.6301  1.3721 -1.0380
 1116SOL    HW214985   0.207   0.611  15.662 -1.7902  0.1850  1.2387
 1117SOL     OW14986   1.261   3.840  12.785 -0.0068  0.2002  0.4903
 1117SOL    HW114987   1.216   3.891  12.718  1.3703  1.1321  0.2583
 1117SOL    HW214988   1.197   3.789  12.834  1.8635  1.7665  4.6240
 1118SOL     OW14989   4.237   1.939   2.200 -1.1304 -0.1024  0.3344
 1118SOL    HW114990   4.208   1.911   2.287  0.5440 -0.5293  0.7393
 1118SOL    HW214991   4.319   1.980   2.225 -0.5234  1.0452 -3.4959
 1119SOL     OW14992   0.041   0.168   4.306  0.1077  0.3228  0.0572
 1119SOL    HW114993   4.729   0.151   4.384 -0.2161 -4.2587 -1.1673
 1119SOL    HW214994   0.090   0.248   4.327 -0.4763  0.2720  1.5559
 1120SOL     OW14995   4.239   0.523   8.022 -0.5985  0.0876 -0.4447
 1120SOL    HW114996   4.195   0.574   7.953 -1.4691  0.8204  0.6487
 1120SOL    HW214997   4.293   0.599   8.043 -1.9392  0.9642 -0.1776
 1121SOL     OW14998   1.220   0.387  17.688  0.2222  0.0480  0.2720
 1121SOL    HW114999   1.136   0.345  17.703  1.7636 -3.0407  0.4346
 1121SOL    HW215000   1.249   0.343  17.608 -2.1571 -0.8413 -0.0982
 1122SOL     OW15001   0.156   0.957  10.992 -0.0756  0.3380  0.3763
 1122SOL    HW115002   0.113   0.937  11.076  1.5829 -0.7957  0.9590
 1122SOL    HW215003   0.203   1.038  11.010 -1.0334  0.8796  0.4492
 1123SOL     OW15004   2.731   3.658   3.125  0.2699  0.0815  0.2398
 1123SOL    HW115005   2.696   3.644   3.214 -1.0778  1.6432 -0.0446
 1123SOL    HW215006   2.653   3.640   3.072 -1.6013 -0.2534  3.1028
 1124SOL     OW15007   0.838   2.950  11.866 -0.0037 -0.0440  0.0023
 1124SOL    HW115008   0.817   3.003  11.943  0.1794 -1.1421  0.8039
 1124SOL    HW215009   0.898   2.888  11.907 -2.9299 -3.6782 -1.1488
 1125SOL     OW15010   3.360   3.286   8.412  0.8839 -0.0518 -0.7320
 1125SOL    HW115011   3.287   3.343   8.389  0.2172 -1.0839 -1.2035
 1125SOL    HW215012   3.363   3.308   8.505 -2.1894  0.8567 -0.8482
 1126SOL     OW15013   2.740   0.970  14.940  0.1547  0.2425 -0.0799
 1126SOL    HW115014   2.683   0.893  14.943 -0.6891  0.9130  1.2250
 1126SOL    HW215015   2.743   0.989  15.034  1.6940  0.2009 -0.1165
 1127SOL     OW15016   0.392   2.843   1.474  0.1104  0.4257 -0.1057
 1127SOL    HW115017   0.317   2.901   1.485  0.4910  1.3712 -2.6407
 1127SOL    HW215018   0.440   2.870   1.395 -1.6033  0.7500 -1.0177
 1128SOL     OW15019   4.511   2.753   3.733 -0.0146 -0.3448 -0.3122
 1128SOL    HW115020   4.467   2.726   3.652  0.2787  0.1325 -0.6346
 1128SOL    HW215021   4.464   2.837   3.739 -0.4210 -0.7020  1.3140
 1129SOL     OW15022   0.604   3.216  11.783 -0.5248  0.1842  0.3194
 1129SOL    HW115023   0.572   3.303  11.804 -0.4525  1.3527 -4.3620
 1129SOL    HW215024   0.627   3.180  11.869 -0.3132  0.6155  0.4438
 1130SOL     OW15025   0.373   3.740  12.924  0.1163 -0.3614  0.3475
 1130SOL    HW115026   0.377   3.773  12.834  0.1311 -1.0711  0.0804
 1130SOL    HW215027   0.286   3.701  12.929  0.6348 -1.9846 -2.7427
 1131SOL     OW15028   2.226   2.460   6.603  0.5849  0.4755  0.0861
 1131SOL    HW115029   2.268   2.416   6.676  1.6989 -0.4817 -1.1140
 1131SOL    HW215030   2.159   2.394   6.584  1.7369 -0.6244 -0.1982
 1132SOL     OW15031   0.390   4.611   9.723  0.3079  0.2963  0.2154
 1132SOL    HW115032   0.307   4.571   9.700 -0.1083  0.8626  0.7251
 1132SOL    HW215033   0.390   4.614   9.819  1.2699  0.5864  0.2071
 1133SOL     OW15034   3.128   4.382   9.209  0.5685  0.2115  0.4275
 1133SOL    HW115035   3.109   4.429   9.128 -3.1483 -2.2290 -0.1139
 1133SOL    HW215036   3.216   4.418   9.225  0.4211 -0.4600  2.7832
 1134SOL     OW15037   0.577   3.523   2.837 -0.0519 -0.4480  0.0166
 1134SOL    HW115038   0.654   3.567   2.800 -1.3129  1.7989  0.0289
 1134SOL    HW215039   0.570   3.435   2.800  3.1051 -1.2754  1.3611
 1135SOL     OW15040   2.847   4.118   6.556 -0.0813 -0.2305  0.1470
 1135SOL    HW115041   2.859   4.196   6.610  0.2295  0.8993 -1.5563
 1135SOL    HW215042   2.755   4.121   6.531 -0.1641 -1.2086  0.3341
 1136SOL     OW15043   3.067   4.032   7.845  0.2481 -0.6339 -0.4143
 1136SOL    HW115044   3.032   4.114   7.812 -2.0411 -0.4056  2.5240
 1136SOL    HW215045   3.155   4.038   7.809  0.5087  1.1343  0.5527
 1137SOL     OW15046   4.681   3.835   2.546  0.7019  0.2047 -0.3373
 1137SOL    HW115047   4.732   3.842   2.466  1.2709  1.3310  0.1257
 1137SOL    HW215048   4.731   3.768   2.591  0.8048 -0.4300 -1.4072
 1138SOL     OW15049   2.608   1.990   1.049 -0.4181  0.2824  0.5388
 1138SOL    HW115050   2.596   2.081   1.024  0.1964 -0.0981 -1.1682
 1138SOL    HW215051   2.641   1.968   0.962 -0.8055  2.2728 -0.1036
 1139SOL     OW15052   0.280   4.605   7.580 -0.3847  0.9587  0.1173
 1139SOL    HW115053   0.185   4.599   7.568 -0.0308  1.0883 -2.9742
 1139SOL    HW215054   0.314   4.518   7.559  1.9254  1.5068  1.6141
 1140SOL     OW15055   2.493   4.600   3.674  0.0214 -0.2100  0.0798
 1140SOL    HW115056   2.567   4.539   3.670  0.9024  0.8067  1.0105
 1140SOL    HW215057   2.476   4.603   3.768 -0.5760  1.5546 -0.0810
 1141SOL     OW15058   3.440   2.702   2.821  1.0305 -0.6158 -0.2047
 1141SOL    HW115059   3.480   2.640   2.882 -0.1872 -1.2390 -0.0476
 1141SOL    HW215060   3.410   2.772   2.880 -0.5563 -2.1461  0.7868
 1142SOL     OW15061   1.864   0.528  13.477  0.0912 -0.0211 -0.3248
 1142SOL    HW115062   1.809   0.473  13.421  0.2855  0.4648 -0.9836
 1142SOL    HW215063   1.923   0.553  13.407  0.4340 -0.7659 -0.3018
 1143SOL     OW15064   3.934   3.425  15.919  0.2798  0.0763  0.2902
 1143SOL    HW115065   3.920   3.462  15.832 -1.3834  1.0183  0.9450
 1143SOL    HW215066   3.846   3.397  15.945 -0.0722  1.5073  0.6366
 1144SOL     OW15067   2.065   1.527   6.042 -0.4179  0.0777  0.2549
 1144SOL    HW115068   2.005   1.601   6.035  1.1761  1.2077 -1.5271
 1144SOL    HW215069   2.147   1.575   6.055 -1.9631  2.4302  1.2683
 1145SOL     OW15070   2.128   4.090   7.430 -0.5876  0.4568  0.4861
 1145SOL    HW115071   2.068   4.059   7.498 -1.5077  1.4192  0.1168
 1145SOL    HW215072   2.067   4.134   7.371  1.9571  0.2226 -2.3010
 1146SOL     OW15073   4.667   4.715   1.896 -0.2663  0.2243  0.0571
 1146SOL    HW115074   4.700   4.634   1.858 -1.8699 -0.0790 -0.6906
 1146SOL    HW215075   0.005   0.009   1.939  0.3916 -0.3209 -0.7006
 1147SOL     OW15076   0.412   3.659   4.887 -0.2408  0.6273  0.1648
 1147SOL    HW115077   0.469   3.660   4.963 -0.4992  1.3516  0.3441
 1147SOL    HW215078   0.325   3.636   4.920  0.5381 -1.2924  0.8941
 1148SOL     OW15079   0.281   1.626   4.019 -0.6137 -0.3992  0.3157
 1148SOL    HW115080   0.197   1.589   3.991 -0.1300 -0.7974 -0.5713
 1148SOL    HW215081   0.267   1.721   4.014  0.3300 -0.1462  2.2877
 1149SOL     OW15082   2.212   0.225  13.586  0.1051 -0.6590 -0.6625
 1149SOL    HW115083   2.255   0.140  13.602  0.5796 -0.5512 -1.3860
 1149SOL    HW215084   2.138   0.231  13.646  0.2807 -0.4825 -0.4663
 1150SOL     OW15085   1.139   3.721   6.535 -0.4173 -0.0647  0.2346
 1150SOL    HW115086   1.106   3.660   6.601  1.1648 -0.9766  0.1965
 1150SOL    HW215087   1.130   3.793   6.598 -1.0882  1.5125 -1.6704
 1151SOL     OW15088   0.637   4.444   7.077  0.0323 -0.0831  0.1070
 1151SOL    HW115089   0.610   4.502   7.148 -1.2996  0.7747 -1.1037
 1151SOL    HW215090   0.590   4.486   7.005  1.6246  1.7483  0.1628
 1152SOL     OW15091   2.869   0.440   5.773  0.3585  0.0685  0.8683
 1152SOL    HW115092   2.940   0.500   5.796  0.2637 -0.6046  2.9753
 1152SOL    HW215093   2.869   0.452   5.678  1.3917 -0.3777  0.8233
 1153SOL     OW15094   2.254   1.057  11.272  0.1623  0.2493  0.0150
 1153SOL    HW115095   2.254   1.028  11.363 -1.3530 -1.0125 -0.4015
 1153SOL    HW215096   2.301   0.986  11.229  0.2898 -0.4307  1.2807
 1154SOL     OW15097   3.590   1.639  12.237  0.1738  0.2471 -0.3519
 1154SOL    HW115098   3.589   1.654  12.331 -0.2670 -2.3312  0.0356
 1154SOL    HW215099   3.665   1.685  12.198  1.1999 -1.4212 -0.3238
 1155SOL     OW15100   0.086   1.033   8.456  0.4390  0.3241 -0.4649
 1155SOL    HW115101   0.028   0.977   8.509  1.1440 -0.7259 -0.7975
 1155SOL    HW215102   0.168   1.018   8.504  0.4274  0.9777 -0.2413
 1156SOL     OW15103   4.074   2.372  16.140  0.1636  0.2981 -0.2261
 1156SOL    HW115104   4.050   2.447  16.194 -3.1225 -1.7390  1.1295
 1156SOL    HW215105   4.144   2.337  16.195 -0.5394 -0.5157  0.1451
 1157SOL     OW15106   2.769   0.950  15.204 -0.0814  0.4518  0.7212
 1157SOL    HW115107   2.734   0.970  15.291  0.4164  0.2726  0.9636
 1157SOL    HW215108   2.858   0.984  15.205  0.5416 -1.1475 -1.5066
 1158SOL     OW15109   4.103   2.254   3.061 -0.0601 -0.3058 -0.7611
 1158SOL    HW115110   4.137   2.296   2.982 -0.3699 -0.2490 -0.8666
 1158SOL    HW215111   4.182   2.211   3.093  0.2233  1.0126  0.3460
 1159SOL     OW15112   3.771   3.568  11.416 -0.2567 -0.2269  0.7943
 1159SOL    HW115113   3.827   3.634  11.458 -0.3408 -2.0974  3.8229
 1159SOL    HW215114   3.801   3.482  11.445  2.0786  0.4507  0.3671
 1160SOL     OW15115   2.650   2.532  12.804  0.2782  0.3415  0.3400
 1160SOL    HW115116   2.607   2.497  12.882 -1.8339 -1.8818 -1.7887
 1160SOL    HW215117   2.607   2.482  12.734  1.2980  0.0186 -0.0503
 1161SOL     OW15118   2.237   1.188  17.168  0.4160 -0.4640 -0.0705
 1161SOL    HW115119   2.206   1.116  17.112 -1.3248  0.7657 -0.6999
 1161SOL    HW215120   2.198   1.265  17.126 -0.8227 -0.7576  0.5151
 1162SOL     OW15121   0.645   1.635  13.014  0.2491  0.3498 -0.4122
 1162SOL    HW115122   0.634   1.643  12.919  1.0564  1.7418 -0.3927
 1162SOL    HW215123   0.586   1.703  13.044 -0.8882 -1.2911  1.0810
 1163SOL     OW15124   0.489   4.555   5.413 -0.3369  0.0965 -0.1154
 1163SOL    HW115125   0.431   4.629   5.396 -1.4136 -1.0796 -1.5336
 1163SOL    HW215126   0.566   4.598   5.451  1.6694 -0.6008 -3.4065
 1164SOL     OW15127   1.120   3.292   4.627  0.3989 -0.2585  0.7099
 1164SOL    HW115128   1.160   3.298   4.714  0.7155  0.7941  0.4880
 1164SOL    HW215129   1.051   3.226   4.634  1.0337 -1.0668 -0.7031
 1165SOL     OW15130   1.872   0.496  16.527 -0.0845 -0.0265 -0.3141
 1165SOL    HW115131   1.926   0.462  16.455 -0.2401  0.5143 -0.6828
 1165SOL    HW215132   1.942   0.535  16.579 -0.6916  2.3554 -1.3018
 1166SOL     OW15133   3.199   2.195   5.994 -0.1127 -0.6970  0.0299
 1166SOL    HW115134   3.129   2.136   6.020  0.1694 -1.4309 -0.8743
 1166SOL    HW215135   3.158   2.272   6.035 -0.7186 -0.1824 -1.5227
 1167SOL     OW15136   0.818   3.713   5.495 -0.4124 -0.8312  0.1608
 1167SOL    HW115137   0.785   3.803   5.492  1.1518 -0.3043 -1.6112
 1167SOL    HW215138   0.882   3.708   5.567  0.7410 -1.1043 -0.8938
 1168SOL     OW15139   4.709   0.481  10.441 -0.6071 -0.0268  0.1808
 1168SOL    HW115140   0.058   0.457  10.465  0.1971  0.6178 -2.1827
 1168SOL    HW215141   4.692   0.565  10.484 -0.6135  1.5283 -2.8541
 1169SOL     OW15142   4.397   1.836   0.867  0.4370 -0.0069  0.0909
 1169SOL    HW115143   4.491   1.852   0.858  0.5632 -0.4107  0.6947
 1169SOL    HW215144   4.368   1.775   0.798  0.9073 -1.0027  0.7724
 1170SOL     OW15145   3.919   2.167   7.284  0.2539 -0.7369  0.1544
 1170SOL    HW115146   3.964   2.082   7.279  0.1175 -0.7656 -0.6451
 1170SOL    HW215147   3.997   2.219   7.304  0.0609 -1.2030  2.1348
 1171SOL     OW15148   4.174   0.111   0.839  0.0603 -0.4920  0.2163
 1171SOL    HW115149   4.167   0.132   0.933  0.1398  0.7019 -0.0470
 1171SOL    HW215150   4.178   0.195   0.794  0.3894  0.1969  1.5087
 1172SOL     OW15151   2.714   3.390  13.548  0.7000  0.6530 -0.1292
 1172SOL    HW115152   2.620   3.408  13.536  0.4193 -1.8254 -1.6539
 1172SOL    HW215153   2.724   3.418  13.639 -0.5077  0.7088 -0.0112
 1173SOL     OW15154   3.445   0.859   2.588 -0.3154  0.5603 -0.3398
 1173SOL    HW115155   3.454   0.954   2.590  1.9537  0.3328 -0.0187
 1173SOL    HW215156   3.509   0.838   2.656  3.1648 -0.6172 -4.0146
 1174SOL     OW15157   3.151   4.402   3.773  0.2718 -0.7232  0.2873
 1174SOL    HW115158   3.074   4.388   3.829  0.5802 -2.1164  0.3595
 1174SOL    HW215159   3.213   4.354   3.828  0.4725  0.3636  1.0191
 1175SOL     OW15160   2.564   1.266   6.579 -0.3869  0.6382 -0.9868
 1175SOL    HW115161   2.569   1.354   6.542  1.6299  1.1124  0.4013
 1175SOL    HW215162   2.487   1.266   6.637 -0.6288  1.0500 -1.3105
 1176SOL     OW15163   3.685   4.606   9.699 -0.0475 -0.1963 -0.5822
 1176SOL    HW115164   3.719   4.518   9.682  0.3046  0.0443 -1.1167
 1176SOL    HW215165   3.627   4.586   9.773  1.7893 -1.6335  0.4805
 1177SOL     OW15166   4.151   0.616  15.864 -0.0057 -0.4124  0.4113
 1177SOL    HW115167   4.071   0.663  15.889  0.0584 -0.5183  0.8059
 1177SOL    HW215168   4.206   0.694  15.857  0.1803 -0.3115  2.9262
 1178SOL     OW15169   2.977   3.045  10.264  0.1431 -0.1717 -0.1675
 1178SOL    HW115170   2.939   2.979  10.206  0.9748 -1.1503  0.3985
 1178SOL    HW215171   3.067   3.019  10.246 -0.6085 -2.5879 -0.5106
 1179SOL     OW15172   0.851   2.390  10.726  0.1117  0.4805 -0.0859
 1179SOL    HW115173   0.883   2.387  10.816 -0.4880  0.5366  0.1258
 1179SOL    HW215174   0.757   2.407  10.733  0.0838  1.7021 -3.4658
 1180SOL     OW15175   4.562   1.497   3.624 -0.1527  0.8511 -0.2855
 1180SOL    HW115176   4.479   1.488   3.577 -0.1714  0.0619 -0.1035
 1180SOL    HW215177   4.580   1.585   3.591  0.1755  0.7534 -0.3666
 1181SOL     OW15178   1.123   2.935  12.680  0.7650 -0.1599 -0.7361
 1181SOL    HW115179   1.149   2.977  12.762 -3.1044  2.0339 -0.6385
 1181SOL    HW215180   1.135   3.011  12.624  1.7593  1.7986  2.1199
 1182SOL     OW15181   3.159   4.631   7.183 -0.1038 -0.4853 -0.2533
 1182SOL    HW115182   3.245   4.657   7.216  0.4355  0.0298 -2.0378
 1182SOL    HW215183   3.099   4.687   7.233  0.5120 -1.5518  1.6755
 1183SOL     OW15184   2.611   2.434   7.845 -0.9087 -0.0664  0.0787
 1183SOL    HW115185   2.544   2.380   7.885 -0.8849 -0.2880 -0.1792
 1183SOL    HW215186   2.553   2.497   7.802  1.6064  1.1145 -1.6419
 1184SOL     OW15187   2.368   1.739   5.785  0.1166  0.1263  0.0233
 1184SOL    HW115188   2.280   1.707   5.765  0.5357 -1.5167  0.7781
 1184SOL    HW215189   2.371   1.812   5.723  1.7479 -0.8964 -1.1071
 1185SOL     OW15190   0.511   3.828   5.276  0.0284  0.2733 -0.1410
 1185SOL    HW115191   0.566   3.907   5.286 -1.9092  1.6034 -0.0461
 1185SOL    HW215192   0.431   3.847   5.324  0.1246 -0.0718  0.1599
 1186SOL     OW15193   4.072   2.377   7.411 -1.1421 -0.2103  0.2828
 1186SOL    HW115194   3.995   2.375   7.469 -0.8148  2.3057  0.8277
 1186SOL    HW215195   4.147   2.370   7.469  0.9449  1.7913 -2.1788
 1187SOL     OW15196   4.717   0.783   6.692 -0.0729  0.0951  0.0493
 1187SOL    HW115197   0.033   0.858   6.712  0.2069 -0.6530  2.0496
 1187SOL    HW215198   4.638   0.827   6.661  0.2940  0.2184 -0.6920
 1188SOL     OW15199   2.197   3.831   2.381  0.3694  0.0156 -0.1026
 1188SOL    HW115200   2.169   3.743   2.356  1.7329 -0.9154  1.5790
 1188SOL    HW215201   2.246   3.807   2.460 -3.0397 -1.6544  1.5243
 1189SOL     OW15202   3.043   0.404  10.331 -0.6095 -0.1276 -0.3728
 1189SOL    HW115203   3.105   0.336  10.358 -1.1723 -0.8468 -0.8891
 1189SOL    HW215204   3.084   0.460  10.265 -0.1073  1.2919  1.1502
 1190SOL     OW15205   1.918   3.221   7.977 -0.1850 -0.2536  0.0557
 1190SOL    HW115206   1.920   3.133   8.015  1.3083  0.2663  1.2041
 1190SOL    HW215207   1.992   3.258   8.025 -1.7756  2.3828  0.4389
 1191SOL     OW15208   1.119   0.290   2.771 -0.5102 -0.1007  0.3950
 1191SOL    HW115209   1.074   0.260   2.692  3.0038  0.7367 -1.9146
 1191SOL    HW215210   1.210   0.273   2.746 -1.1043  1.2118 -2.6693
 1192SOL     OW15211   1.693   4.155   2.611 -1.1106 -0.1656  0.2438
 1192SOL    HW115212   1.693   4.219   2.539  1.4745 -1.8381 -1.2382
 1192SOL    HW215213   1.658   4.072   2.576 -1.6007 -0.0698  0.5063
 1193SOL     OW15214   1.906   0.696   3.390 -0.8652  0.8922 -0.3843
 1193SOL    HW115215   1.834   0.653   3.345  1.2806 -0.2960 -2.7316
 1193SOL    HW215216   1.974   0.676   3.325  1.5724 -1.1491  2.7796
 1194SOL     OW15217   2.069   2.540   2.415 -0.0202 -0.1547 -0.2455
 1194SOL    HW115218   2.137   2.473   2.407 -0.0486 -0.0690 -1.1849
 1194SOL    HW215219   2.032   2.504   2.495  0.1419  0.2926  0.0272
 1195SOL     OW15220   2.471   3.955   7.858  0.0125  0.2098  0.4775
 1195SOL    HW115221   2.400   3.931   7.917  0.9531 -1.3616  0.9549
 1195SOL    HW215222   2.461   3.892   7.787 -3.8589  0.1930  1.0313
 1196SOL     OW15223   1.221   4.470   1.501  0.2745  0.0471 -0.2028
 1196SOL    HW115224   1.253   4.501   1.586  0.3931  0.1104 -0.2696
 1196SOL    HW215225   1.275   4.502   1.429  0.5306 -1.0417 -0.4851
 1197SOL     OW15226   2.742   0.859   6.411  0.1920 -0.1277 -0.1749
 1197SOL    HW115227   2.808   0.914   6.454 -0.0153  0.6318 -0.8095
 1197SOL    HW215228   2.793   0.783   6.383  2.5240  1.1855  0.4186
 1198SOL     OW15229   0.264   1.798  12.685 -0.3433  0.0783 -0.6512
 1198SOL    HW115230   0.306   1.851  12.618 -2.5128 -0.8284 -2.7260
 1198SOL    HW215231   0.256   1.716  12.637 -1.4164 -1.3706  1.9687
 1199SOL     OW15232   2.963   0.275  10.910  0.3224 -0.1279 -0.0865
 1199SOL    HW115233   2.949   0.252  10.819  1.0516  0.2819 -0.3092
 1199SOL    HW215234   3.043   0.225  10.927  1.3242  1.1045 -1.1645
 1200SOL     OW15235   2.303   2.308   3.349  0.2294 -0.3645  0.0933
 1200SOL    HW115236   2.220   2.292   3.394  2.3920  1.3006  4.7263
 1200SOL    HW215237   2.357   2.245   3.397 -2.5522 -2.7650  0.0453
 1201SOL     OW15238   2.356   4.512   8.819 -0.1578 -0.0817  0.2079
 1201SOL    HW115239   2.390   4.428   8.789 -0.3393  0.3935 -1.3623
 1201SOL    HW215240   2.382   4.559   8.739  1.3666 -1.6710 -0.2248
 1202SOL     OW15241   3.667   1.017   5.205 -0.1910  0.5377  0.3161
 1202SOL    HW115242   3.748   0.967   5.199 -0.9373 -0.9092  2.2523
 1202SOL    HW215243   3.638   1.017   5.114 -1.9395  0.7463  0.8752
 1203SOL     OW15244   0.884   1.813   6.732  0.3241  0.1549  0.2682
 1203SOL    HW115245   0.792   1.791   6.750  0.0813  0.9545  0.0201
 1203SOL    HW215246   0.910   1.749   6.666  0.5448 -0.4129  0.9201
 1204SOL     OW15247   1.858   2.892   8.628  0.3665  0.4526 -0.2791
 1204SOL    HW115248   1.947   2.870   8.655  0.4402  0.1571 -0.7639
 1204SOL    HW215249   1.868   2.948   8.551  2.7226 -0.8699 -0.9256
 1205SOL     OW15250   2.814   3.163  11.784 -0.3806 -0.4508  0.3351
 1205SOL    HW115251   2.835   3.172  11.691 -0.4178  1.4353  0.5183
 1205SOL    HW215252   2.722   3.136  11.787 -0.8164  1.2556  2.0693
 1206SOL     OW15253   0.558   4.582   6.850  1.0531 -0.6406  0.5344
 1206SOL    HW115254   0.531   4.580   6.759 -0.6008  4.1313  0.9133
 1206SOL    HW215255   0.640   4.631   6.839  0.8201 -0.1892  0.8131
 1207SOL     OW15256   4.109   1.271   7.570  0.6887  0.3498 -0.8499
 1207SOL    HW115257   4.163   1.205   7.526 -0.9990 -2.3182  1.0206
 1207SOL    HW215258   4.144   1.350   7.529  0.4440  0.2263 -1.3053
 1208SOL     OW15259   4.227   1.395   6.611  0.1053 -0.7386 -0.2746
 1208SOL    HW115260   4.139   1.362   6.625 -0.0855  0.4005  1.2848
 1208SOL    HW215261   4.273   1.321   6.652 -0.5516  0.8183  3.2481
 1209SOL     OW15262   0.720   4.426   8.574  0.2068 -0.7440  0.1268
 1209SOL    HW115263   0.705   4.520   8.582  1.4729 -0.5158 -0.1148
 1209SOL    HW215264   0.812   4.433   8.547 -0.3240  0.7121 -1.2936
 1210SOL     OW15265   1.953   2.177   1.308 -0.6699 -0.0266  0.4674
 1210SOL    HW115266   1.968   2.158   1.215  0.1648  0.2200  0.5521
 1210SOL    HW215267   1.883   2.242   1.307 -1.0372 -0.3929  2.0661
 1211SOL     OW15268   3.724   3.485   5.728  0.4379  0.0283 -0.4170
 1211SOL    HW115269   3.808   3.531   5.726  1.5171 -1.9273 -0.4931
 1211SOL    HW215270   3.764   3.398   5.738 -1.7949 -1.0898 -1.0754
 1212SOL     OW15271   3.096   3.719   3.448  0.5384 -0.0003  0.7144
 1212SOL    HW115272   3.090   3.623   3.452 -2.8620  0.2021  0.2609
 1212SOL    HW215273   3.178   3.722   3.398  0.6668 -2.6578  0.7615
 1213SOL     OW15274   2.749   1.935   1.878  0.4036  0.1190 -0.4364
 1213SOL    HW115275   2.719   1.943   1.969  0.3107 -1.2719 -0.3389
 1213SOL    HW215276   2.675   1.966   1.826  0.6476 -0.3321 -1.0575
 1214SOL     OW15277   1.046   3.615   4.754  0.4164 -0.2825  0.4968
 1214SOL    HW115278   0.982   3.548   4.779 -0.2269 -0.1440 -0.8025
 1214SOL    HW215279   1.003   3.693   4.790  3.2394  1.2641  0.5143
 1215SOL     OW15280   0.600   4.629   8.165  0.3902  0.3531  0.1811
 1215SOL    HW115281   0.669   4.565   8.180  1.4799  1.6210  0.5608
 1215SOL    HW215282   0.527   4.576   8.135  0.3736 -0.6606  1.9838
 1216SOL     OW15283   4.117   4.595   4.926  0.3697  0.2189  0.5531
 1216SOL    HW115284   4.078   4.571   5.010 -0.6447  0.4797  0.1564
 1216SOL    HW215285   4.117   4.512   4.878  0.9794  1.2665 -1.2568
 1217SOL     OW15286   3.420   2.464   5.766 -0.0137 -0.5532  0.3405
 1217SOL    HW115287   3.429   2.501   5.854 -1.5315  0.3440  0.1128
 1217SOL    HW215288   3.498   2.409   5.777 -0.1676 -0.2889  2.9299
 1218SOL     OW15289   4.640   4.724   4.774 -0.1980 -0.1575  0.2406
 1218SOL    HW115290   4.600   4.690   4.854 -0.0388 -0.5935  0.1336
 1218SOL    HW215291   4.593   0.067   4.766  0.0387 -0.1210 -0.7696
 1219SOL     OW15292   2.197   4.673   2.684  0.0806 -0.1471 -0.2301
 1219SOL    HW115293   2.280   4.631   2.659 -0.3991 -0.2817 -1.6201
 1219SOL    HW215294   2.163   4.590   2.718 -3.0662  1.8199  1.4525
 1220SOL     OW15295   3.960   0.565  14.980 -0.4890  0.3318  0.3537
 1220SOL    HW115296   3.911   0.590  14.901 -0.5529 -1.0063 -0.0289
 1220SOL    HW215297   3.898   0.575  15.052 -1.7309 -2.2521 -0.3523
 1221SOL     OW15298   2.632   2.971   0.307  0.0752 -0.0540 -0.5604
 1221SOL    HW115299   2.662   2.978   0.217  0.5947  2.7505 -0.1505
 1221SOL    HW215300   2.551   3.019   0.291 -1.0576 -1.2541  1.5557
 1222SOL     OW15301   1.598   0.018  10.871  0.1639 -0.2276  0.4859
 1222SOL    HW115302   1.535   0.050  10.807  1.5188  1.4248 -0.0284
 1222SOL    HW215303   1.592   0.087  10.938  0.5335  0.2378  0.0414
 1223SOL     OW15304   3.913   0.259  15.432 -0.0965 -0.5233 -0.5252
 1223SOL    HW115305   3.948   0.294  15.514 -0.2570  0.6106 -0.9306
 1223SOL    HW215306   3.830   0.216  15.453 -0.0499 -0.9843 -1.3172
 1224SOL     OW15307   4.084   1.612   8.927  0.0718  0.0838 -0.5114
 1224SOL    HW115308   4.103   1.637   9.017  1.9136 -0.8584 -0.6425
 1224SOL    HW215309   4.014   1.676   8.912 -0.8991 -1.1950 -1.4726
 1225SOL     OW15310   0.346   2.071   8.324 -0.3514  0.6889 -0.2923
 1225SOL    HW115311   0.367   2.114   8.241 -2.0116 -1.0624 -1.6285
 1225SOL    HW215312   0.292   2.133   8.373 -2.3997 -1.0860 -0.3374
 1226SOL     OW15313   3.762   4.558   3.052 -0.2721  0.4847 -0.4021
 1226SOL    HW115314   3.732   4.492   3.115  1.5505 -1.2381 -1.3501
 1226SOL    HW215315   3.679   4.599   3.026  1.0980  2.6677 -1.3374
 1227SOL     OW15316   1.644   0.296   0.298 -0.1920 -0.0449  0.6648
 1227SOL    HW115317   1.677   0.362   0.359 -0.1640 -1.3379  2.0576
 1227SOL    HW215318   1.555   0.283   0.332 -0.3490 -0.6265  0.0141
 1228SOL     OW15319   3.956   4.509  17.505  0.2630  0.2629  0.3430
 1228SOL    HW115320   3.906   4.582  17.468  0.0315 -0.5756 -1.0054
 1228SOL    HW215321   3.978   4.546  17.590  0.8017  0.9469 -0.0836
 1229SOL     OW15322   0.001   1.438  11.344  0.1532 -0.1557  0.0025
 1229SOL    HW115323   4.667   1.422  11.285 -0.4745  1.1980  0.4305
 1229SOL    HW215324   4.708   1.410  11.429 -1.0026  2.8578  0.5372
 1230SOL     OW15325   1.419   4.701   3.212  0.0413  0.4089  0.5755
 1230SOL    HW115326   1.511   4.678   3.200  0.1789  1.2750 -0.0568
 1230SOL    HW215327   1.423   0.051   3.179 -0.0859 -0.2971 -1.3170
 1231SOL     OW15328   2.673   2.757   8.379  0.1429 -0.1999 -0.2056
 1231SOL    HW115329   2.762   2.780   8.354  0.7908 -2.0044  0.4721
 1231SOL    HW215330   2.640   2.761   8.289  0.4687 -3.2531 -0.4785
 1232SOL     OW15331   0.035   2.994  13.513  0.2003  0.3642  0.1027
 1232SOL    HW115332   0.076   3.076  13.485 -0.4925 -0.2432 -2.6636
 1232SOL    HW215333   0.081   2.932  13.456  0.2396 -0.0588  0.5911
 1233SOL     OW15334   2.319   1.693   8.077 -0.6606  0.2830  0.4422
 1233SOL    HW115335   2.325   1.613   8.026 -1.2830  0.2556  0.4229
 1233SOL    HW215336   2.358   1.764   8.026  1.3017  0.4474  2.1432
 1234SOL     OW15337   3.203   1.738   8.212 -0.6871 -0.4869 -0.0848
 1234SOL    HW115338   3.197   1.762   8.304 -3.1615 -0.0986 -0.3532
 1234SOL    HW215339   3.292   1.705   8.202  0.4436  2.6120 -0.1247
 1235SOL     OW15340   3.535   4.154   5.556 -0.4947  0.3068  0.4738
 1235SOL    HW115341   3.518   4.090   5.487 -0.4093 -0.0812  0.8112
 1235SOL    HW215342   3.608   4.200   5.517 -1.7971  2.9152  1.1281
 1236SOL     OW15343   0.960   2.776  12.060 -0.0411 -0.0430  0.0710
 1236SOL    HW115344   1.020   2.808  12.127 -0.6591 -1.3915  1.2533
 1236SOL    HW215345   0.882   2.767  12.115  0.8955 -1.3415  1.1782
 1237SOL     OW15346   1.004   2.171   2.140 -0.1236  0.4615 -0.3882
 1237SOL    HW115347   0.988   2.261   2.113 -0.3276 -0.3873 -3.0352
 1237SOL    HW215348   1.100   2.168   2.151  0.1341  1.1263 -2.5835
 1238SOL     OW15349   4.372   0.154   7.717  0.1036  0.0458 -0.0244
 1238SOL    HW115350   4.340   0.064   7.726  0.6751 -0.2643 -1.1897
 1238SOL    HW215351   4.461   0.143   7.749 -0.2587 -1.4933  0.4208
 1239SOL     OW15352   1.388   1.506   7.248 -0.2165 -0.1658  0.0634
 1239SOL    HW115353   1.378   1.419   7.284 -4.1873  1.4113  2.7839
 1239SOL    HW215354   1.295   1.530   7.256 -0.0867  0.7861 -1.1696
 1240SOL     OW15355   2.782   2.039   8.386  0.1651  0.2766  0.3518
 1240SOL    HW115356   2.721   1.983   8.434 -0.8060  0.8912 -0.1900
 1240SOL    HW215357   2.862   1.988   8.402  0.4052  0.4097 -0.4457
 1241SOL     OW15358   4.060   2.401   4.887  0.4503 -0.7300 -0.2817
 1241SOL    HW115359   4.067   2.410   4.982  1.5002 -1.1208 -0.3154
 1241SOL    HW215360   3.992   2.334   4.878  1.2515 -1.2154 -2.9501
 1242SOL     OW15361   2.134   2.187  12.019  0.0336  0.2088 -0.3400
 1242SOL    HW115362   2.211   2.220  12.066 -0.7934 -0.7906  1.7041
 1242SOL    HW215363   2.171   2.119  11.963  2.8954  1.1666  0.3396
 1243SOL     OW15364   0.027   4.276   1.686 -0.3750  0.3975 -0.5818
 1243SOL    HW115365   4.733   4.343   1.627 -3.8808 -2.2838 -1.5882
 1243SOL    HW215366   0.059   4.213   1.621  0.9623  0.8833 -0.3928
 1244SOL     OW15367   3.455   2.138   9.782 -0.1638  0.1369  0.5936
 1244SOL    HW115368   3.484   2.084   9.709 -0.3948 -1.9549  2.0429
 1244SOL    HW215369   3.394   2.189   9.728  1.5225 -0.0006 -1.4384
 1245SOL     OW15370   2.981   2.861   4.700  0.2927  0.5884  0.2887
 1245SOL    HW115371   2.987   2.788   4.639 -3.2773  1.2698 -0.8260
 1245SOL    HW215372   3.073   2.876   4.725 -0.1015  0.4174  1.8363
 1246SOL     OW15373   2.597   1.436   6.942 -0.0644  0.1185 -0.5199
 1246SOL    HW115374   2.586   1.498   7.014 -0.0685 -2.1028  1.3863
 1246SOL    HW215375   2.507   1.444   6.912 -0.5018  1.9284  1.2381
 1247SOL     OW15376   3.395   3.086   2.159  0.3279 -0.3406  0.3779
 1247SOL    HW115377   3.464   3.022   2.141 -1.7197 -1.7268 -2.5381
 1247SOL    HW215378   3.374   3.108   2.068  0.9086  0.1820  0.3675
 1248SOL     OW15379   4.395   2.790  14.612  0.0301 -0.3119 -0.1051
 1248SOL    HW115380   4.371   2.827  14.527 -0.3523  1.2375  0.6807
 1248SOL    HW215381   4.310   2.748  14.630 -0.0650 -0.8892 -1.9201
 1249SOL     OW15382   4.509   0.926   9.647 -0.1444 -0.6184  0.1323
 1249SOL    HW115383   4.467   1.004   9.610  0.4596  0.0596  0.8794
 1249SOL    HW215384   4.435   0.869   9.664 -1.0016  0.7817  1.0942
 1250SOL     OW15385   3.410   4.000   3.902 -0.4653 -0.0321 -0.1486
 1250SOL    HW115386   3.459   3.919   3.914  3.4496  2.5635  1.2928
 1250SOL    HW215387   3.481   4.055   3.868 -0.3422 -0.9422 -1.3647
 1251SOL     OW15388   4.665   3.666   7.750 -0.1560  0.7954  0.5787
 1251SOL    HW115389   4.572   3.681   7.737 -0.3377 -1.2989 -0.4105
 1251SOL    HW215390   4.664   3.580   7.791  0.5203 -0.0207 -1.1560
 1252SOL     OW15391   1.747   2.423   9.362  0.3212 -0.2138  0.0414
 1252SOL    HW115392   1.737   2.510   9.401  0.0771 -0.5131  0.6464
 1252SOL    HW215393   1.718   2.361   9.428  2.1488 -0.9231  0.1667
 1253SOL     OW15394   2.614   4.402  12.353 -0.0143  0.9726 -0.1813
 1253SOL    HW115395   2.584   4.360  12.434 -0.0642  1.8798  0.2725
 1253SOL    HW215396   2.693   4.349  12.350 -0.1201  0.8711 -1.0827
 1254SOL     OW15397   3.388   1.999   6.688  0.5479 -0.3164 -0.0753
 1254SOL    HW115398   3.310   1.968   6.734 -0.0352  0.5809 -0.4748
 1254SOL    HW215399   3.460   1.963   6.740  0.3069  0.2724  0.6657
 1255SOL     OW15400   3.505   3.343   3.730  0.7789  0.0541 -0.1614
 1255SOL    HW115401   3.443   3.372   3.797  0.5446 -0.8978  0.0306
 1255SOL    HW215402   3.584   3.394   3.750 -0.1439  1.7410 -0.7717
 1256SOL     OW15403   2.193   2.982   7.001 -0.0005 -0.2881 -0.2355
 1256SOL    HW115404   2.254   3.055   6.985 -0.4748  0.1972  0.1893
 1256SOL    HW215405   2.197   2.936   6.917  2.3129 -0.5220 -0.0070
 1257SOL     OW15406   1.670   0.724   1.765 -0.4825  0.6808  0.7024
 1257SOL    HW115407   1.690   0.691   1.677  1.7056 -1.6672  2.0832
 1257SOL    HW215408   1.610   0.798   1.755 -1.3519  0.1640  2.1061
 1258SOL     OW15409   4.679   1.283  17.109  0.6205 -0.2343 -0.0331
 1258SOL    HW115410   0.024   1.319  17.131 -0.2337  1.3895  0.6213
 1258SOL    HW215411   4.647   1.262  17.197 -1.7922  0.7146 -0.6750
 1259SOL     OW15412   3.072   2.963   0.803  0.0247 -0.0291  0.5264
 1259SOL    HW115413   2.983   2.933   0.782 -0.5587  2.1901 -0.1984
 1259SOL    HW215414   3.123   2.922   0.734  1.0958  2.0700  0.0825
 1260SOL     OW15415   2.684   0.069   2.441  0.3857  0.2365 -0.2414
 1260SOL    HW115416   2.640   0.150   2.469 -0.7961 -0.0824 -1.1967
 1260SOL    HW215417   2.686   0.017   2.522 -0.5162  0.9751  0.2583
 1261SOL     OW15418   3.586   1.855   6.845  0.2010 -0.0058  0.2632
 1261SOL    HW115419   3.592   1.773   6.895 -1.3573 -1.7877 -2.4898
 1261SOL    HW215420   3.629   1.919   6.902 -0.2129 -0.9559  1.6525
 1262SOL     OW15421   3.153   1.354   9.408 -0.1643 -0.1249 -0.0815
 1262SOL    HW115422   3.173   1.262   9.420  1.0125  0.0984 -0.3698
 1262SOL    HW215423   3.230   1.388   9.363  1.0762 -0.9524  1.4369
 1263SOL     OW15424   4.524   4.181  14.013  0.4744 -0.1695 -0.4695
 1263SOL    HW115425   4.538   4.086  14.017 -0.4836 -0.3536 -1.3128
 1263SOL    HW215426   4.430   4.199  14.010  0.1594 -1.2725  2.6722
 1264SOL     OW15427   0.765   0.025   6.845 -0.5415 -0.6122 -0.3761
 1264SOL    HW115428   0.848   0.071   6.858 -1.3545  0.9678 -0.8040
 1264SOL    HW215429   0.722   0.095   6.796  3.0505  0.7895 -1.5408
 1265SOL     OW15430   4.117   1.847  10.628  0.2862 -0.5595  0.2939
 1265SOL    HW115431   4.095   1.796  10.706 -1.2766 -0.1868  0.0957
 1265SOL    HW215432   4.171   1.789  10.574  1.1549  0.9938 -0.5179
 1266SOL     OW15433   2.656   0.815   1.903 -0.1874  0.1669 -0.0154
 1266SOL    HW115434   2.566   0.818   1.934 -0.2963 -0.8481 -0.2321
 1266SOL    HW215435   2.644   0.733   1.856 -0.0737 -0.4697  1.0757
 1267SOL     OW15436   4.339   3.814  12.521  0.2477  0.6488  0.4365
 1267SOL    HW115437   4.310   3.749  12.457 -4.1288  2.4059  0.6755
 1267SOL    HW215438   4.303   3.895  12.487 -1.6716 -0.0823  0.7283
 1268SOL     OW15439   2.447   3.378   3.030  0.0704 -0.0472 -0.1183
 1268SOL    HW115440   2.523   3.360   3.086  0.4693 -2.5260 -1.4566
 1268SOL    HW215441   2.436   3.293   2.988 -0.9099  0.9888 -1.9262
 1269SOL     OW15442   2.706   3.701   5.979  0.6060 -0.7402  0.4552
 1269SOL    HW115443   2.656   3.680   6.058  0.5075 -0.3303  0.5057
 1269SOL    HW215444   2.755   3.779   6.005 -0.8326  0.2484  0.1986
 1270SOL     OW15445   3.126   4.570  14.538  0.0502 -0.2746 -0.7051
 1270SOL    HW115446   3.032   4.552  14.545 -0.3539  0.8573 -3.1050
 1270SOL    HW215447   3.127   4.614  14.453  1.6304  0.1044 -0.4814
 1271SOL     OW15448   3.352   1.398   3.218 -0.1387  0.3464 -0.2894
 1271SOL    HW115449   3.281   1.371   3.160 -0.6041  0.1911  0.3445
 1271SOL    HW215450   3.339   1.348   3.299 -0.8705  0.3574 -0.4063
 1272SOL     OW15451   1.942   3.233   2.302  0.3141 -0.4490  0.2257
 1272SOL    HW115452   1.881   3.282   2.247 -0.3275  0.1891  1.5122
 1272SOL    HW215453   2.012   3.218   2.238  0.2214 -1.0750  0.2652
 1273SOL     OW15454   4.301   1.945   1.094  0.2722 -0.4546  0.7096
 1273SOL    HW115455   4.224   1.891   1.110  0.7169 -0.5648  2.5247
 1273SOL    HW215456   4.339   1.897   1.021  0.6168  1.4203 -0.3395
 1274SOL     OW15457   1.599   1.864   6.836 -0.0433  0.3786 -0.3053
 1274SOL    HW115458   1.645   1.782   6.818 -3.1758 -1.3367 -0.4574
 1274SOL    HW215459   1.525   1.862   6.776  0.0189  1.2435 -0.4122
 1275SOL     OW15460   4.216   4.341   6.878 -0.1247  0.0785 -0.1925
 1275SOL    HW115461   4.309   4.337   6.857  0.3439  1.7151  1.5194
 1275SOL    HW215462   4.219   4.334   6.973 -0.3899  1.3238 -0.0852
 1276SOL     OW15463   3.969   1.134   5.568  0.4153 -0.5084  0.2980
 1276SOL    HW115464   3.885   1.138   5.524  0.8767 -0.2303 -0.5607
 1276SOL    HW215465   3.947   1.167   5.655 -0.3551  2.4834 -1.0104
 1277SOL     OW15466   4.123   1.264   3.466 -0.3106  0.5153 -0.3740
 1277SOL    HW115467   4.033   1.290   3.485 -0.3337 -0.3018  0.6532
 1277SOL    HW215468   4.116   1.256   3.371  0.9914 -0.1748 -0.4050
 1278SOL     OW15469   3.431   1.967   4.277 -0.1179 -0.2276  0.1675
 1278SOL    HW115470   3.398   1.932   4.360  2.8877 -3.6005 -0.0475
 1278SOL    HW215471   3.370   1.934   4.211 -0.6590  2.7450 -0.8143
 1279SOL     OW15472   2.220   1.916   1.937  0.1490  0.1573  0.0795
 1279SOL    HW115473   2.186   1.836   1.896  1.0197  0.0857 -0.4975
 1279SOL    HW215474   2.243   1.972   1.863  1.0430  0.9569  0.9546
 1280SOL     OW15475   0.124   1.910   4.147 -0.1951 -0.1229  0.0010
 1280SOL    HW115476   0.173   1.986   4.117  0.2102  0.2948  1.7088
 1280SOL    HW215477   0.033   1.939   4.141 -0.2911 -0.1054  1.5046
 1281SOL     OW15478   2.283   0.678  16.445  0.1329 -0.6125  0.5382
 1281SOL    HW115479   2.337   0.705  16.519 -0.8047  0.7209  0.7289
 1281SOL    HW215480   2.287   0.582  16.450  1.2944 -0.5197  1.4062
 1282SOL     OW15481   0.297   0.111   3.536  0.1166 -0.3425  0.0303
 1282SOL    HW115482   0.248   0.121   3.617 -0.7513 -1.5821 -0.3433
 1282SOL    HW215483   0.226   0.107   3.472  1.1271  2.6442 -1.2966
 1283SOL     OW15484   0.291   0.415   3.913 -0.2013 -0.1748 -0.3280
 1283SOL    HW115485   0.303   0.380   4.002  1.9653  2.5121  0.4174
 1283SOL    HW215486   0.278   0.507   3.932 -2.3793 -0.3886 -0.8461
 1284SOL     OW15487   0.517   0.205  17.134 -0.2735  0.1693 -0.4612
 1284SOL    HW115488   0.584   0.148  17.096  1.3161  1.8141 -0.1010
 1284SOL    HW215489   0.439   0.185  17.082  1.2681 -2.8783 -1.5689
 1285SOL     OW15490   3.665   3.848   1.953  0.0914 -0.0882 -0.7712
 1285SOL    HW115491   3.658   3.867   1.860  0.9561 -1.2572 -1.0689
 1285SOL    HW215492   3.739   3.905   1.970  1.6225 -1.9756 -1.1042
 1286SOL     OW15493   3.321   3.204   3.592 -0.4298 -0.0048 -0.0677
 1286SOL    HW115494   3.396   3.236   3.641 -1.5326  0.0303  1.5906
 1286SOL    HW215495   3.307   3.278   3.532 -2.0874 -1.6102 -1.6425
 1287SOL     OW15496   3.484   2.117   8.002 -0.0772 -0.3631  0.5347
 1287SOL    HW115497   3.404   2.167   8.018  0.5155  1.0265 -0.8309
 1287SOL    HW215498   3.483   2.099   7.908  0.7889  0.5668  0.3435
 1288SOL     OW15499   0.448   4.228   4.271 -0.2319  0.4252 -0.1456
 1288SOL    HW115500   0.485   4.306   4.230  0.5301  0.0314 -0.2260
 1288SOL    HW215501   0.464   4.172   4.195 -1.2339 -0.0393 -0.0066
 1289SOL     OW15502   3.854   4.310  12.874 -0.2187  0.2743 -0.6073
 1289SOL    HW115503   3.795   4.350  12.809  0.9324 -0.3277 -2.0182
 1289SOL    HW215504   3.824   4.219  12.877  1.5094 -0.2345  1.1415
 1290SOL     OW15505   1.622   4.694   3.423 -0.4294 -0.1205  0.7190
 1290SOL    HW115506   1.573   4.655   3.496 -1.7568 -0.0068 -0.1204
 1290SOL    HW215507   1.575   0.035   3.408  0.0375  0.0044 -0.0726
 1291SOL     OW15508   0.748   1.971   2.073 -0.8502 -0.2582  0.4722
 1291SOL    HW115509   0.654   1.968   2.092 -0.6930  0.5465  1.3672
 1291SOL    HW215510   0.778   2.044   2.127  0.5800 -1.0514  0.7661
 1292SOL     OW15511   3.191   3.806   2.768  0.0809  0.3382 -0.1404
 1292SOL    HW115512   3.273   3.757   2.756 -1.0996 -1.8545  0.8210
 1292SOL    HW215513   3.191   3.880   2.708 -1.8096  0.8019  0.4422
 1293SOL     OW15514   4.516   2.087   7.016  0.2077 -0.5354 -0.2501
 1293SOL    HW115515   4.423   2.071   7.032 -0.0062  0.9407 -0.0560
 1293SOL    HW215516   4.560   2.005   7.040  1.6173  0.6008  1.0524
 1294SOL     OW15517   0.194   3.568   8.734  0.1842  0.0822  0.0162
 1294SOL    HW115518   0.205   3.660   8.707 -1.5570 -0.4242 -2.4746
 1294SOL    HW215519   0.104   3.553   8.703  0.6816 -0.8347 -1.0083
 1295SOL     OW15520   2.265   0.829   2.771 -0.0997 -0.2419 -0.1691
 1295SOL    HW115521   2.190   0.779   2.803 -1.1139  0.6331 -1.1491
 1295SOL    HW215522   2.307   0.763   2.716 -1.3672 -1.4342  0.3042
 1296SOL     OW15523   0.640   0.729  14.040 -0.1825 -0.8308 -0.3196
 1296SOL    HW115524   0.732   0.731  14.013 -0.4528 -1.0985 -1.2813
 1296SOL    HW215525   0.602   0.681  13.966  1.6941 -2.7042 -0.0581
 1297SOL     OW15526   0.340   2.829  15.675 -0.1966  0.0411 -0.3091
 1297SOL    HW115527   0.375   2.877  15.600  1.5679 -1.0184 -0.1705
 1297SOL    HW215528   0.421   2.780  15.689  1.8165  3.3557 -0.4287
 1298SOL     OW15529   1.009   3.702   3.715 -0.5435 -0.0989  0.1209
 1298SOL    HW115530   1.000   3.655   3.633  3.0330 -0.6340  0.0361
 1298SOL    HW215531   1.073   3.642   3.754  0.8420 -0.9910 -3.5876
 1299SOL     OW15532   2.827   3.022   8.795 -0.2151  0.2919  0.4151
 1299SOL    HW115533   2.916   2.991   8.812  0.1844  1.3139  0.1741
 1299SOL    HW215534   2.806   2.989   8.707 -1.8583 -0.6924  1.1717
 1300SOL     OW15535   3.760   1.457   6.534 -0.0305 -0.0030  0.0943
 1300SOL    HW115536   3.744   1.550   6.548  1.0328  0.4007 -1.3799
 1300SOL    HW215537   3.775   1.443   6.440 -0.6645  0.2675 -0.0448
 1301SOL     OW15538   1.729   1.997   9.190 -0.2410 -0.2617  0.8665
 1301SOL    HW115539   1.654   2.005   9.130  0.7559 -2.0586 -0.5870
 1301SOL    HW215540   1.694   2.033   9.272  0.8650 -0.9309  1.6216
 1302SOL     OW15541   1.535   0.729   5.740  0.8158  0.8386  0.2530
 1302SOL    HW115542   1.511   0.753   5.651 -0.7727  0.5383  0.6053
 1302SOL    HW215543   1.593   0.658   5.713  1.7966  0.7419  2.5313
 1303SOL     OW15544   2.528   3.915   6.814 -0.1084  0.5641 -0.1241
 1303SOL    HW115545   2.544   3.886   6.904  0.3112  4.2472  0.9774
 1303SOL    HW215546   2.512   4.007   6.833  1.4075  1.1497 -1.6538
 1304SOL     OW15547   1.919   4.471   6.438  0.4593  0.1287  0.2340
 1304SOL    HW115548   2.004   4.512   6.422 -0.2948  1.1201 -1.2415
 1304SOL    HW215549   1.939   4.398   6.496 -4.3514 -1.2755  0.1821
 1305SOL     OW15550   3.141   2.938   6.062  0.0483  0.1501 -0.1180
 1305SOL    HW115551   3.152   3.015   6.118  1.0847  0.6390 -0.9971
 1305SOL    HW215552   3.209   2.950   5.996 -0.6055 -1.8125 -1.1368
 1306SOL     OW15553   4.095   4.059   7.028 -0.1039 -0.0568  0.8173
 1306SOL    HW115554   4.177   4.073   7.075  1.0675 -0.4500 -1.1161
 1306SOL    HW215555   4.064   3.977   7.066  1.4740 -0.6306  0.8596
 1307SOL     OW15556   4.547   2.300   5.743  0.5285  0.3501  0.0414
 1307SOL    HW115557   4.477   2.344   5.696 -1.0850 -0.1855  1.9542
 1307SOL    HW215558   4.591   2.251   5.673  1.5297  0.9049  0.2784
 1308SOL     OW15559   2.174   3.914   4.286  0.2779 -0.4134  0.2145
 1308SOL    HW115560   2.143   3.858   4.215 -0.7297  1.4803 -0.8393
 1308SOL    HW215561   2.118   3.990   4.268  0.6757  0.3604  2.2465
 1309SOL     OW15562   4.214   4.031  13.154  0.2373 -0.4120 -0.2258
 1309SOL    HW115563   4.164   4.060  13.078 -3.0442 -1.0138  1.6656
 1309SOL    HW215564   4.203   4.105  13.215 -0.4172  0.3479 -1.2660
 1310SOL     OW15565   1.089   2.021   1.662  0.0883 -0.6404  0.1231
 1310SOL    HW115566   1.141   2.040   1.584  0.7195 -1.4159  0.3404
 1310SOL    HW215567   1.023   2.089   1.654 -0.9859 -1.6313  0.5511
 1311SOL     OW15568   0.722   1.370   7.004  0.0518  0.4404  0.3608
 1311SOL    HW115569   0.762   1.457   7.003 -0.3784  0.6506  1.0569
 1311SOL    HW215570   0.693   1.359   7.095 -0.2756  1.9819  0.4489
 1312SOL     OW15571   4.693   3.339  15.603  0.1919  0.2148  0.3181
 1312SOL    HW115572   0.021   3.402  15.628  0.1501  1.0620 -1.7883
 1312SOL    HW215573   4.721   3.265  15.657  1.0111  0.0935 -0.2686
 1313SOL     OW15574   1.107   0.112   6.677  0.0095 -0.6138 -0.6264
 1313SOL    HW115575   1.129   0.101   6.584 -0.3909  0.3647 -0.8331
 1313SOL    HW215576   1.130   0.026   6.712 -1.0558 -1.8677 -2.9705
 1314SOL     OW15577   0.790   0.820   5.265 -0.2915  0.3885  0.6497
 1314SOL    HW115578   0.821   0.903   5.301  2.4419 -0.5140  0.3501
 1314SOL    HW215579   0.860   0.759   5.289  0.1542  0.5075 -0.3826
 1315SOL     OW15580   4.514   4.394  12.863  0.3961  0.3978 -0.0454
 1315SOL    HW115581   4.469   4.452  12.802 -1.0927  1.9003  2.4558
 1315SOL    HW215582   4.440   4.338  12.884  0.5756 -0.0465 -0.6199
 1316SOL     OW15583   2.340   0.869   5.302 -0.6199  0.0862  0.5877
 1316SOL    HW115584   2.431   0.900   5.302 -1.0507  1.3676 -1.1641
 1316SOL    HW215585   2.294   0.950   5.326 -0.1136  1.1892 -2.2001
 1317SOL     OW15586   4.634   1.032  11.876  0.1720 -0.1899 -0.3233
 1317SOL    HW115587   4.581   1.103  11.914  1.0627 -0.1773  0.8981
 1317SOL    HW215588   4.716   1.049  11.922  0.2105  2.3133 -1.3286
 1318SOL     OW15589   0.460   3.019  14.896 -0.1619 -0.3277 -0.4992
 1318SOL    HW115590   0.431   2.999  14.807  0.2328  0.7067 -0.8619
 1318SOL    HW215591   0.554   3.000  14.890  0.1348  1.7469 -2.0829
 1319SOL     OW15592   3.225   2.807  15.701 -0.4607  0.3681 -0.4390
 1319SOL    HW115593   3.267   2.827  15.618  0.1487  0.1227 -0.1915
 1319SOL    HW215594   3.299   2.796  15.761  0.2347 -1.6422 -1.6740
 1320SOL     OW15595   3.706   2.985   3.537 -0.2290  0.3173  0.2020
 1320SOL    HW115596   3.728   3.058   3.478 -0.7104 -0.0223 -0.4032
 1320SOL    HW215597   3.791   2.965   3.577 -0.9545 -1.2550  0.9561
 1321SOL     OW15598   2.602   2.440  16.164 -0.0729  0.4370  0.1862
 1321SOL    HW115599   2.593   2.381  16.239 -1.6362  1.6551  0.9526
 1321SOL    HW215600   2.631   2.520  16.206  0.6557 -0.3149  1.1187
 1322SOL     OW15601   0.660   4.380  17.497  0.3641  0.0959  0.7303
 1322SOL    HW115602   0.616   4.420  17.422 -0.5594 -2.3974 -0.0742
 1322SOL    HW215603   0.727   4.448  17.504  1.7342 -1.1566 -0.3179
 1323SOL     OW15604   0.638   4.507   4.856 -0.3497  0.1928 -0.6047
 1323SOL    HW115605   0.556   4.516   4.904 -0.0129 -0.0591  0.0171
 1323SOL    HW215606   0.705   4.518   4.923 -1.3614  1.1453  0.2638
 1324SOL     OW15607   4.010   4.629   8.594 -0.1574  0.3466 -0.0208
 1324SOL    HW115608   4.054   4.603   8.675 -1.2096 -1.2296  0.0474
 1324SOL    HW215609   4.009   4.724   8.609 -2.2873  0.3762 -0.3458
 1325SOL     OW15610   1.702   3.975   6.874 -0.1963 -0.2749 -0.1034
 1325SOL    HW115611   1.702   3.880   6.883  0.3088 -0.4017 -1.5317
 1325SOL    HW215612   1.793   3.988   6.900 -0.7365  0.9613  1.2203
 1326SOL     OW15613   2.549   0.773  12.742 -0.4221 -0.9198  0.3123
 1326SOL    HW115614   2.583   0.752  12.829 -0.8480  1.0458  0.9604
 1326SOL    HW215615   2.477   0.833  12.758 -2.4173 -3.0715 -0.6216
 1327SOL     OW15616   1.873   1.564   4.462 -1.0221 -0.2247 -0.4532
 1327SOL    HW115617   1.849   1.565   4.555 -0.8502  0.4774 -0.4156
 1327SOL    HW215618   1.832   1.483   4.432  0.6050 -0.0955 -3.0142
 1328SOL     OW15619   1.288   0.546   8.422  0.4925  0.6947 -0.2588
 1328SOL    HW115620   1.363   0.550   8.363 -1.9023  0.3511 -3.3489
 1328SOL    HW215621   1.289   0.451   8.437 -0.0795  0.5924 -0.8893
 1329SOL     OW15622   4.628   3.715   8.081 -0.3419 -0.2948 -0.4044
 1329SOL    HW115623   4.700   3.657   8.058  0.1148 -0.1834  0.7938
 1329SOL    HW215624   4.612   3.684   8.170  1.5818  0.0826  0.0557
 1330SOL     OW15625   2.590   1.626  10.331  0.1287 -0.2396 -0.1096
 1330SOL    HW115626   2.562   1.714  10.358 -0.1626 -0.2026 -0.5356
 1330SOL    HW215627   2.511   1.573  10.342 -0.2121  0.0152 -1.3636
 1331SOL     OW15628   0.801   0.853   1.148  0.5494  0.6873  0.1455
 1331SOL    HW115629   0.783   0.801   1.070  0.4115  2.9255 -1.3232
 1331SOL    HW215630   0.714   0.892   1.159 -0.2383 -0.7869 -0.8151
 1332SOL     OW15631   1.079   3.195   7.400  0.1343 -0.1314 -0.3981
 1332SOL    HW115632   1.121   3.276   7.429  0.4505  0.7091 -3.1911
 1332SOL    HW215633   0.999   3.222   7.356 -1.3784 -0.1972  2.3408
 1333SOL     OW15634   2.239   4.308   6.835 -0.0896 -0.0663 -0.5454
 1333SOL    HW115635   2.174   4.317   6.905  0.3334  0.4092 -0.2243
 1333SOL    HW215636   2.177   4.315   6.762  0.6801 -1.3570 -1.3255
 1334SOL     OW15637   1.401   2.691   5.671 -0.4660  0.6377 -0.2870
 1334SOL    HW115638   1.392   2.693   5.576 -0.5263 -1.3482 -0.3222
 1334SOL    HW215639   1.446   2.775   5.685  1.5517 -0.9487  2.5485
 1335SOL     OW15640   3.689   4.277   9.650  0.6878  0.7993  0.2404
 1335SOL    HW115641   3.778   4.280   9.616  0.4117  2.8478 -0.3264
 1335SOL    HW215642   3.707   4.255   9.742 -0.5040 -0.9247  0.0643
 1336SOL     OW15643   1.916   2.823   4.492  0.3526 -0.7276 -0.3253
 1336SOL    HW115644   1.911   2.901   4.547  1.4684 -0.0629 -1.1671
 1336SOL    HW215645   1.834   2.777   4.508 -0.4940  0.9635  0.1341
 1337SOL     OW15646   0.608   2.835   3.764  0.5832  0.5735  0.6536
 1337SOL    HW115647   0.662   2.842   3.686  1.3144  2.5991  1.3487
 1337SOL    HW215648   0.677   2.868   3.821  0.6607  1.7105 -0.0998
 1338SOL     OW15649   0.312   0.070   6.256 -0.5143  0.3554 -1.0286
 1338SOL    HW115650   0.250   0.119   6.203 -0.2928 -1.5547 -3.0365
 1338SOL    HW215651   0.309   0.121   6.337 -0.3724  1.7035 -1.8814
 1339SOL     OW15652   0.540   4.028   4.487 -0.2302  0.2803  0.3755
 1339SOL    HW115653   0.544   3.936   4.512  1.1007  0.6001  1.3388
 1339SOL    HW215654   0.482   4.036   4.411 -1.0029  0.7238  1.0116
 1340SOL     OW15655   0.420   3.408   5.477  0.3582  0.1904 -0.2860
 1340SOL    HW115656   0.384   3.325   5.446  0.8867 -0.2547  0.3052
 1340SOL    HW215657   0.458   3.388   5.562  1.1086  0.2608 -0.6039
 1341SOL     OW15658   3.664   4.060  10.365  0.2405 -0.4371 -0.6505
 1341SOL    HW115659   3.609   4.102  10.299 -0.8236  0.4262  0.7727
 1341SOL    HW215660   3.641   4.110  10.444 -0.7705 -2.7391  0.5017
 1342SOL     OW15661   1.670   0.612  16.737 -0.0104 -0.1193 -0.2880
 1342SOL    HW115662   1.709   0.577  16.657 -2.1906 -2.7161 -0.1944
 1342SOL    HW215663   1.579   0.587  16.728  0.5563 -0.9590 -3.8671
 1343SOL     OW15664   3.037   3.463   3.542 -0.7582  0.2585 -0.0294
 1343SOL    HW115665   3.120   3.430   3.577 -1.7330 -1.6715  0.4712
 1343SOL    HW215666   2.986   3.458   3.623 -3.1351  0.1302 -1.5315
 1344SOL     OW15667   4.058   3.034   7.855 -0.1288  0.2529  0.1571
 1344SOL    HW115668   3.996   3.041   7.782  1.3959 -1.3000 -1.2570
 1344SOL    HW215669   3.999   3.006   7.925  0.2064  1.1559  0.8002
 1345SOL     OW15670   3.712   2.335  17.265  0.5367  0.1526 -0.7402
 1345SOL    HW115671   3.728   2.410  17.322  1.6143 -0.5731 -0.1122
 1345SOL    HW215672   3.794   2.314  17.221  2.1092  1.2263  1.7401
 1346SOL     OW15673   1.775   4.050  14.928  0.5907  0.3103 -0.1574
 1346SOL    HW115674   1.853   4.022  14.978  0.2101  1.0813  0.8572
 1346SOL    HW215675   1.785   4.144  14.917  3.0338 -0.2035 -2.3845
 1347SOL     OW15676   2.813   4.421  11.445  0.2911 -0.5610 -0.0838
 1347SOL    HW115677   2.836   4.418  11.538 -1.4325  0.5849  0.3954
 1347SOL    HW215678   2.741   4.359  11.435 -0.2435  0.4403 -2.5545
 1348SOL     OW15679   4.507   3.639   5.513  0.5873 -0.2655  0.0540
 1348SOL    HW115680   4.468   3.649   5.600 -2.9114 -0.3267 -1.5075
 1348SOL    HW215681   4.466   3.716   5.475  0.1661 -0.1636  0.7093
 1349SOL     OW15682   4.644   1.599   5.746  0.1404 -0.3349 -0.2930
 1349SOL    HW115683   4.618   1.563   5.831 -0.3737 -0.8610 -0.6666
 1349SOL    HW215684   4.720   1.542   5.736 -0.7896 -1.7739  0.7669
 1350SOL     OW15685   4.216   3.251   0.277  0.6098 -0.1977 -0.3525
 1350SOL    HW115686   4.293   3.197   0.259  1.1771  0.5215 -0.0842
 1350SOL    HW215687   4.202   3.233   0.370  2.8367  3.0632  0.5898
 1351SOL     OW15688   3.776   2.781   2.555 -0.0384 -0.1212 -0.0318
 1351SOL    HW115689   3.778   2.757   2.648  0.4158 -1.6353 -0.4442
 1351SOL    HW215690   3.703   2.729   2.523  0.6927 -0.9801 -0.2793
 1352SOL     OW15691   3.904   2.960   8.064  0.2656 -0.4171  0.2345
 1352SOL    HW115692   3.971   2.946   8.132 -1.7432 -2.7913  1.7315
 1352SOL    HW215693   3.852   3.034   8.096 -0.2833 -1.2019  1.1483
 1353SOL     OW15694   2.269   0.936  16.658 -1.1301  0.4791  0.6410
 1353SOL    HW115695   2.358   0.962  16.680 -1.4344  1.6433  0.5141
 1353SOL    HW215696   2.237   0.985  16.582  0.6445  0.7442  0.0712
 1354SOL     OW15697   1.727   4.582   8.659 -0.3382  0.1078 -0.2338
 1354SOL    HW115698   1.677   4.506   8.687  0.0735  0.1678  0.6612
 1354SOL    HW215699   1.818   4.559   8.676 -0.3238 -0.5229 -1.1549
 1355SOL     OW15700   3.983   2.969  12.711 -0.3101  0.4161  0.3851
 1355SOL    HW115701   3.896   2.952  12.748 -0.6763 -1.4058 -1.3183
 1355SOL    HW215702   3.948   3.005  12.629 -2.8732  0.0758  1.3518
 1356SOL     OW15703   1.994   1.357   9.886  1.1540  0.2439 -0.3932
 1356SOL    HW115704   2.059   1.308   9.937 -0.0405 -1.5041 -0.5417
 1356SOL    HW215705   2.046   1.436   9.874  3.3665 -0.4473  4.3763
 1357SOL     OW15706   2.076   2.715   5.342  0.2838 -0.4847  0.2810
 1357SOL    HW115707   2.104   2.684   5.256 -0.4979 -1.5974  0.4331
 1357SOL    HW215708   1.990   2.757   5.331  1.3892  1.2190 -1.8943
 1358SOL     OW15709   2.093   3.765   2.923 -0.1455 -0.1658  0.6070
 1358SOL    HW115710   2.179   3.801   2.944 -0.5301  0.8139  0.5361
 1358SOL    HW215711   2.080   3.803   2.835 -2.5284 -3.2103 -0.3458
 1359SOL     OW15712   2.569   0.213   4.010 -0.2892 -0.8404  0.3589
 1359SOL    HW115713   2.506   0.265   4.059  1.0116  0.2359  0.8947
 1359SOL    HW215714   2.536   0.211   3.921 -0.6177 -0.7356  0.4807
 1360SOL     OW15715   3.083   4.260  11.518  1.3885 -0.1524  0.2746
 1360SOL    HW115716   3.058   4.180  11.564  0.4937 -0.5173 -0.8690
 1360SOL    HW215717   3.057   4.243  11.427  2.2263  1.0140 -0.1908
 1361SOL     OW15718   0.393   1.976   6.870 -0.0946 -0.2974 -0.3730
 1361SOL    HW115719   0.316   1.934   6.834 -0.9726  1.0708 -0.0847
 1361SOL    HW215720   0.389   1.949   6.961  0.3946 -1.2146 -0.6249
 1362SOL     OW15721   3.455   3.726  14.909  0.0805 -0.2957 -0.2770
 1362SOL    HW115722   3.477   3.635  14.892 -0.1902 -0.3200 -0.4899
 1362SOL    HW215723   3.376   3.739  14.858 -1.0060 -2.0499  0.9451
 1363SOL     OW15724   2.629   3.558   4.820 -0.0777 -0.5124  0.2642
 1363SOL    HW115725   2.703   3.612   4.848  2.7335 -3.6991 -1.1015
 1363SOL    HW215726   2.662   3.495   4.756  0.5130 -0.0377  0.1057
 1364SOL     OW15727   2.724   0.258   3.160 -0.2005 -0.1307 -0.0041
 1364SOL    HW115728   2.800   0.283   3.107 -1.2467 -0.9823 -1.9126
 1364SOL    HW215729   2.733   0.164   3.168 -0.2647 -0.1845 -0.5098
 1365SOL     OW15730   2.056   0.872   4.914  0.1237 -0.0216  0.1389
 1365SOL    HW115731   2.149   0.868   4.895  0.0806 -1.3679  0.1758
 1365SOL    HW215732   2.017   0.863   4.827  1.7778  1.0401 -0.7103
 1366SOL     OW15733   1.490   1.712  15.418  0.6761 -0.2665 -0.0860
 1366SOL    HW115734   1.481   1.754  15.333  1.2828  0.4743  0.2166
 1366SOL    HW215735   1.526   1.788  15.463  2.4577 -0.5006 -1.1264
 1367SOL     OW15736   2.368   0.809   0.301 -0.1192  0.1785 -0.0616
 1367SOL    HW115737   2.455   0.791   0.265  1.0897  1.0157  2.4329
 1367SOL    HW215738   2.387   0.844   0.388  1.4567  0.0043 -0.3417
 1368SOL     OW15739   1.818   4.129   9.247 -0.7114  0.4458 -0.6946
 1368SOL    HW115740   1.853   4.044   9.221 -0.0141  0.7217 -0.6674
 1368SOL    HW215741   1.864   4.193   9.193 -1.1407  0.5407 -0.9513
 1369SOL     OW15742   0.193   2.091  13.968 -0.2656 -0.7330  0.2028
 1369SOL    HW115743   0.111   2.046  13.950 -0.5157 -0.0597 -0.3357
 1369SOL    HW215744   0.162   2.159  14.029  1.8577 -0.1181  0.6128
 1370SOL     OW15745   3.833   4.224   5.725  0.0123  0.0029 -0.2965
 1370SOL    HW115746   3.924   4.252   5.722  1.5305 -4.8018  0.8508
 1370SOL    HW215747   3.817   4.172   5.647 -0.6773 -0.0206 -0.1447
 1371SOL     OW15748   2.954   0.599   3.238  0.2369  0.5621 -0.3241
 1371SOL    HW115749   3.006   0.534   3.286  1.1089  0.6580 -1.1615
 1371SOL    HW215750   2.918   0.649   3.312  0.8091 -0.1938  0.4672
 1372SOL     OW15751   1.044   1.385   8.624  0.8820  0.2835 -0.2727
 1372SOL    HW115752   1.008   1.328   8.692 -3.4894  2.0939 -1.0429
 1372SOL    HW215753   1.137   1.364   8.618  1.6562  2.6560  3.7637
 1373SOL     OW15754   1.845   1.774   2.436  0.3004  0.7288 -0.5467
 1373SOL    HW115755   1.933   1.801   2.462  0.3187 -0.5710  0.6810
 1373SOL    HW215756   1.871   1.717   2.363  0.3249 -0.9126  0.7448
 1374SOL     OW15757   2.185   3.824   0.497  0.1175  0.0637 -0.6590
 1374SOL    HW115758   2.238   3.852   0.572  1.4829  0.9862 -1.9473
 1374SOL    HW215759   2.133   3.901   0.476 -0.0217 -0.5947 -2.6809
 1375SOL     OW15760   0.083   4.085   5.124  0.3858 -0.1087 -0.0093
 1375SOL    HW115761   0.163   4.124   5.088  0.9198  0.2331  1.5539
 1375SOL    HW215762   0.114   4.026   5.193  1.5326 -0.0679 -0.4751
 1376SOL     OW15763   1.153   2.952   4.658 -0.0471  0.0847  0.1322
 1376SOL    HW115764   1.233   3.004   4.651 -0.9359  1.1237 -2.5010
 1376SOL    HW215765   1.125   2.954   4.566  1.3897 -2.4208 -0.3614
 1377SOL     OW15766   4.142   0.519   3.473  0.0069  0.1578  0.0787
 1377SOL    HW115767   4.093   0.438   3.486 -0.8721  0.9422  1.7048
 1377SOL    HW215768   4.140   0.512   3.377 -3.0026 -1.2951  0.2269
 1378SOL     OW15769   3.367   2.414   1.977 -0.1903  0.2287 -0.3043
 1378SOL    HW115770   3.461   2.399   1.988 -0.0422  2.5429  1.5507
 1378SOL    HW215771   3.374   2.479   1.907  1.3053  1.5859  1.1036
 1379SOL     OW15772   4.658   1.717   3.474  0.0096  0.1031 -0.1766
 1379SOL    HW115773   4.710   1.796   3.489  0.6687 -0.1371 -1.1814
 1379SOL    HW215774   4.695   1.685   3.391 -0.4439 -0.8111 -0.0199
 1380SOL     OW15775   0.866   2.085   8.800  0.1927 -0.1940 -0.0880
 1380SOL    HW115776   0.915   2.167   8.805 -0.4619  0.1850  0.1113
 1380SOL    HW215777   0.791   2.112   8.747  2.2045 -0.3452 -3.0388
 1381SOL     OW15778   3.312   0.061  15.058  0.6685 -0.7272 -0.6074
 1381SOL    HW115779   3.237   0.115  15.032  0.4952 -1.0138 -0.7003
 1381SOL    HW215780   3.378   0.112  15.011 -1.0291  1.0334 -1.1157
 1382SOL     OW15781   0.338   3.875   8.407 -0.3136  0.1749  0.3371
 1382SOL    HW115782   0.310   3.844   8.493 -1.0852  0.1326  0.0677
 1382SOL    HW215783   0.433   3.877   8.421 -0.5050  0.0176  1.6990
 1383SOL     OW15784   1.809   3.794   6.117  0.6033 -0.0741 -0.2140
 1383SOL    HW115785   1.770   3.772   6.201 -0.2197 -2.6264 -1.2794
 1383SOL    HW215786   1.879   3.851   6.148 -1.1103  1.2412  1.2648
 1384SOL     OW15787   1.257   3.422   3.240 -0.0390 -0.3590  0.1347
 1384SOL    HW115788   1.201   3.382   3.306 -0.7495  0.2766 -0.0818
 1384SOL    HW215789   1.333   3.374   3.271  0.5705  0.8974  0.5865
 1385SOL     OW15790   3.983   3.749   6.975 -0.5012 -0.9341  0.7154
 1385SOL    HW115791   4.069   3.731   7.014 -0.4693  0.9015  1.5098
 1385SOL    HW215792   3.985   3.681   6.908  0.3718  1.6839 -1.8827
 1386SOL     OW15793   0.101   2.329  14.077 -0.2762  0.2695  0.0619
 1386SOL    HW115794   0.099   2.319  14.172 -0.6883  2.1622  0.2531
 1386SOL    HW215795   0.034   2.397  14.068 -1.3268 -0.6861  0.6267
 1387SOL     OW15796   3.765   2.657   3.092  0.0127 -0.5479 -0.7937
 1387SOL    HW115797   3.733   2.730   3.144  2.1846 -1.2605  1.5365
 1387SOL    HW215798   3.829   2.625   3.156  1.4960  3.4897 -0.2500
 1388SOL     OW15799   4.400   3.588  16.733  0.0058 -0.0409  0.2368
 1388SOL    HW115800   4.314   3.552  16.755  0.6331 -0.7448  1.5495
 1388SOL    HW215801   4.424   3.542  16.653 -0.8647 -1.8204  0.9900
 1389SOL     OW15802   0.918   0.803   3.234 -0.2167 -0.2339 -0.4225
 1389SOL    HW115803   0.973   0.878   3.257  0.6948 -1.3458  0.9801
 1389SOL    HW215804   0.838   0.827   3.281  0.6198  1.3781  0.1922
 1390SOL     OW15805   4.503   4.383   4.513 -0.0729  0.4024 -0.4068
 1390SOL    HW115806   4.567   4.453   4.520 -0.7715  0.8344  1.8729
 1390SOL    HW215807   4.434   4.407   4.576  0.3880  0.7550 -0.0341
 1391SOL     OW15808   1.390   1.544   5.971  0.2613  0.1606 -0.2097
 1391SOL    HW115809   1.380   1.590   5.888 -1.3756  0.3547  0.0884
 1391SOL    HW215810   1.328   1.600   6.018  0.3550  0.1680 -0.0950
 1392SOL     OW15811   0.310   2.472  14.059 -0.3751  0.2845  0.2314
 1392SOL    HW115812   0.271   2.542  14.007  0.1292 -0.0791 -0.6224
 1392SOL    HW215813   0.236   2.411  14.054  0.6195 -0.6991 -2.5288
 1393SOL     OW15814   0.954   2.202  16.540  0.0154 -0.2593 -0.1998
 1393SOL    HW115815   0.945   2.186  16.634  0.6786 -0.5005 -0.1810
 1393SOL    HW215816   1.025   2.267  16.534 -1.3378  1.2743  0.3063
 1394SOL     OW15817   2.401   1.697  16.842 -0.2488 -0.2672 -0.9053
 1394SOL    HW115818   2.344   1.741  16.904 -2.9858 -1.8793 -2.2659
 1394SOL    HW215819   2.442   1.775  16.803 -2.3925  0.2894 -2.0131
 1395SOL     OW15820   0.513   0.396   4.647  0.1450  0.4256 -0.3996
 1395SOL    HW115821   0.574   0.325   4.667  0.1763  0.1644 -1.4422
 1395SOL    HW215822   0.439   0.369   4.701 -1.0417  1.2407 -1.6185
 1396SOL     OW15823   3.232   1.886   5.992 -0.3321 -0.0578  0.1110
 1396SOL    HW115824   3.224   1.886   5.897 -1.1990  1.9725  0.1675
 1396SOL    HW215825   3.149   1.925   6.018 -0.4456 -0.4600  0.3500
 1397SOL     OW15826   0.857   2.689   7.223 -0.2985 -0.0126 -0.1287
 1397SOL    HW115827   0.944   2.730   7.221  0.8569 -2.4715 -0.5495
 1397SOL    HW215828   0.882   2.597   7.226  0.4322  0.1021 -2.3292
 1398SOL     OW15829   1.585   4.142   1.740  0.0423 -0.6251 -0.2052
 1398SOL    HW115830   1.491   4.153   1.754  0.0519  1.1534 -1.5878
 1398SOL    HW215831   1.613   4.120   1.829  3.2276  1.6459 -0.6621
 1399SOL     OW15832   1.367   0.880   3.710  0.2622  0.4729 -0.2635
 1399SOL    HW115833   1.349   0.850   3.621  1.2905  1.1557 -0.6994
 1399SOL    HW215834   1.387   0.793   3.746 -2.2075 -1.2963 -3.1155
 1400SOL     OW15835   0.354   3.514   9.336 -0.1158  0.9037 -0.6730
 1400SOL    HW115836   0.272   3.494   9.382  1.3788 -1.0672  1.1337
 1400SOL    HW215837   0.351   3.446   9.269  0.8243 -1.3706  1.5695
 1401SOL     OW15838   4.035   0.996   2.154  0.5163 -0.0357  0.2820
 1401SOL    HW115839   4.113   1.041   2.189  1.4697 -0.7101 -0.9695
 1401SOL    HW215840   3.989   1.068   2.111  1.1678 -0.0609 -0.4733
 1402SOL     OW15841   1.653   2.988   3.846  0.4276  0.0708 -0.1255
 1402SOL    HW115842   1.625   2.939   3.924 -0.2576 -0.3999 -0.6580
 1402SOL    HW215843   1.576   3.037   3.818  0.4647 -0.5782 -1.3829
 1403SOL     OW15844   0.008   4.586   5.695  0.0796  0.3324  0.2203
 1403SOL    HW115845   0.017   4.675   5.730 -1.0871  0.8025 -0.6709
 1403SOL    HW215846   0.013   4.540   5.779  0.5831 -1.0696 -0.5706
 1404SOL     OW15847   4.502   1.179   7.932  0.0717 -0.5335 -0.1707
 1404SOL    HW115848   4.546   1.199   8.014 -0.5175  1.5954 -0.3882
 1404SOL    HW215849   4.534   1.254   7.882  2.2217 -1.0980  0.3788
 1405SOL     OW15850   1.046   4.109   9.499  0.6404 -0.3790  0.0110
 1405SOL    HW115851   0.965   4.135   9.542  0.6980  2.5266 -1.6360
 1405SOL    HW215852   1.105   4.177   9.531  0.0147  0.1063  0.1370
 1406SOL     OW15853   2.608   1.931   2.117  0.5359  0.1655  0.1665
 1406SOL    HW115854   2.645   1.938   2.205  0.8705  0.3453  0.0080
 1406SOL    HW215855   2.525   1.975   2.136  0.3975  0.0149 -0.0968
 1407SOL     OW15856   3.629   2.050   4.107  0.2759 -0.6623  0.2369
 1407SOL    HW115857   3.712   2.003   4.120  0.6068 -0.1610 -0.0435
 1407SOL    HW215858   3.575   2.014   4.177 -1.3007  2.1273  0.4462
 1408SOL     OW15859   1.893   0.981   2.648 -0.0050 -1.0377  0.6256
 1408SOL    HW115860   1.854   0.894   2.655 -0.0540 -1.0690 -0.0326
 1408SOL    HW215861   1.882   1.006   2.556 -0.4771  0.2952  1.0340
 1409SOL     OW15862   0.056   1.333   5.714 -0.2803  0.4594 -0.4782
 1409SOL    HW115863   0.032   1.279   5.639 -1.8364 -0.3629  0.6062
 1409SOL    HW215864   0.121   1.393   5.678  0.7695 -1.4407 -1.7533
 1410SOL     OW15865   4.720   0.144   1.694  0.5986 -0.1222  0.0663
 1410SOL    HW115866   0.035   0.208   1.739 -0.1009 -0.1213  0.9136
 1410SOL    HW215867   4.702   0.083   1.766  1.6841 -1.0172 -0.4199
 1411SOL     OW15868   1.395   2.751   7.229 -0.6089 -0.1757  0.1445
 1411SOL    HW115869   1.402   2.728   7.322 -1.2585 -3.1777 -0.5469
 1411SOL    HW215870   1.439   2.835   7.242 -2.2533  0.7195 -0.1477
 1412SOL     OW15871   3.071   0.423   4.093  0.2002  0.1166  0.3292
 1412SOL    HW115872   3.087   0.413   3.999 -0.5174  2.9780 -0.0854
 1412SOL    HW215873   2.996   0.368   4.115 -0.3184 -0.0460 -1.8875
 1413SOL     OW15874   4.387   1.623   1.146  0.4913 -0.0819  0.4005
 1413SOL    HW115875   4.393   1.706   1.192 -0.5752 -0.0920  0.5710
 1413SOL    HW215876   4.468   1.632   1.096 -0.1012 -1.1615 -0.7819
 1414SOL     OW15877   1.434   3.978   6.876  0.3081 -0.3664 -0.3092
 1414SOL    HW115878   1.410   3.952   6.965 -0.3020  1.8609  0.1676
 1414SOL    HW215879   1.525   4.005   6.886  0.2862  0.1470 -1.4262
 1415SOL     OW15880   0.954   3.436  15.134  0.9213 -0.2531  0.1892
 1415SOL    HW115881   0.961   3.341  15.123  1.0219 -0.0459 -1.4397
 1415SOL    HW215882   0.861   3.443  15.152  0.8182 -0.3630 -0.3079
 1416SOL     OW15883   2.326   1.003  12.543  0.0432 -0.4142 -0.1591
 1416SOL    HW115884   2.343   1.095  12.566 -1.6541  0.0718 -0.9057
 1416SOL    HW215885   2.416   0.971  12.534  1.0790  2.7389 -0.8319
 1417SOL     OW15886   2.041   3.156   5.284 -0.2513  0.0911 -0.5063
 1417SOL    HW115887   2.133   3.132   5.271 -0.3057  0.4629 -1.5903
 1417SOL    HW215888   2.034   3.239   5.237 -0.8067 -0.3137 -1.1473
 1418SOL     OW15889   0.151   2.167  12.121  0.3139  0.1943 -0.1501
 1418SOL    HW115890   0.144   2.259  12.147  1.4668  0.6911 -1.6177
 1418SOL    HW215891   0.244   2.148  12.112  0.4792  0.7958  0.2716
 1419SOL     OW15892   3.326   2.266   9.422 -0.0884 -0.0335 -0.1172
 1419SOL    HW115893   3.316   2.261   9.517 -1.8666 -2.7454 -0.4402
 1419SOL    HW215894   3.258   2.203   9.396  0.5669 -0.8119  0.0527
 1420SOL     OW15895   4.100   4.613   7.111  0.0199 -0.1370 -0.1978
 1420SOL    HW115896   4.094   4.630   7.017  2.2276  0.6404 -0.1906
 1420SOL    HW215897   4.151   4.532   7.113 -1.1619 -0.9096 -1.1191
 1421SOL     OW15898   3.840   1.849   1.230  0.6536 -0.1769 -0.2036
 1421SOL    HW115899   3.794   1.838   1.313 -0.9813  0.9173 -0.9480
 1421SOL    HW215900   3.882   1.934   1.244 -2.2488  0.6625  3.4179
 1422SOL     OW15901   1.734   4.695   7.820  0.0606 -0.3075 -0.0197
 1422SOL    HW115902   1.644   4.725   7.811 -1.2616 -3.9312  1.1012
 1422SOL    HW215903   1.714   4.638   7.894  2.4405  0.8511  1.5172
 1423SOL     OW15904   0.372   3.527   7.085  0.4211 -0.2358  0.0069
 1423SOL    HW115905   0.441   3.563   7.029  1.0872  2.1973  2.3941
 1423SOL    HW215906   0.315   3.604   7.087  0.7605 -0.0065  0.8795
 1424SOL     OW15907   3.112   2.540   1.498 -0.3908  0.0657  0.1203
 1424SOL    HW115908   3.085   2.450   1.519  1.4458 -0.6443 -0.5878
 1424SOL    HW215909   3.141   2.566   1.585  1.5926 -0.3639 -0.4271
 1425SOL     OW15910   1.717   0.802  17.757  0.1021  0.0736  0.2790
 1425SOL    HW115911   1.743   0.879  17.705 -0.1024  0.9754  1.5059
 1425SOL    HW215912   1.748   0.822   0.087  1.5282 -0.2779 -0.1535
 1426SOL     OW15913   2.146   0.802  11.719 -0.4276  0.4904  0.2670
 1426SOL    HW115914   2.157   0.897  11.720 -3.1844  0.8213 -1.4444
 1426SOL    HW215915   2.179   0.774  11.804  2.0944 -1.3653 -1.3381
 1427SOL     OW15916   1.899   3.967   8.587 -0.0753  0.5186 -0.2351
 1427SOL    HW115917   1.817   3.940   8.544  0.4525 -1.6479  0.1069
 1427SOL    HW215918   1.871   3.973   8.679 -1.4464 -0.4881 -0.5812
 1428SOL     OW15919   0.796   1.302   4.711 -0.2414 -0.1926 -0.3263
 1428SOL    HW115920   0.738   1.342   4.647 -1.4451 -3.2440 -1.1778
 1428SOL    HW215921   0.753   1.317   4.795 -0.4748 -0.2061 -0.4441
 1429SOL     OW15922   0.926   0.760  17.614  0.0824 -0.6738  0.1721
 1429SOL    HW115923   0.989   0.689  17.603 -1.4633 -2.0497  0.1695
 1429SOL    HW215924   0.969   0.831  17.566 -1.5261 -0.1016 -0.4126
 1430SOL     OW15925   4.393   4.674   4.962 -0.0264 -0.6565 -0.5077
 1430SOL    HW115926   4.317   4.615   4.968 -0.8774  0.5354  0.4079
 1430SOL    HW215927   4.346   0.017   4.972 -2.1920 -1.8017 -1.0190
 1431SOL     OW15928   2.664   2.102   9.129  0.3072  0.0674 -0.6310
 1431SOL    HW115929   2.745   2.131   9.087  0.5564 -0.2196 -0.3528
 1431SOL    HW215930   2.597   2.108   9.061  0.1201  1.5571 -0.3056
 1432SOL     OW15931   4.132   1.654   9.775  0.2688 -0.0342  0.3800
 1432SOL    HW115932   4.167   1.584   9.831 -0.6780  0.0713  1.1102
 1432SOL    HW215933   4.194   1.657   9.703 -0.3905  0.3393 -0.1729
 1433SOL     OW15934   4.455   4.261   1.527 -0.3464 -0.4272  0.3485
 1433SOL    HW115935   4.524   4.306   1.479 -0.3882 -0.2978  0.4092
 1433SOL    HW215936   4.387   4.241   1.462 -0.0933  0.5177 -0.1906
 1434SOL     OW15937   3.712   1.748   6.258  0.3896 -0.0725  0.1832
 1434SOL    HW115938   3.618   1.761   6.243  0.2423 -1.7616 -0.3992
 1434SOL    HW215939   3.710   1.723   6.351 -0.0673 -0.7714 -0.0157
 1435SOL     OW15940   1.542   4.360   7.633 -0.2444 -0.0148 -0.2934
 1435SOL    HW115941   1.494   4.383   7.712  0.9954 -0.5975  0.6141
 1435SOL    HW215942   1.533   4.433   7.571 -0.8305 -0.5139 -0.7841
 1436SOL     OW15943   2.065   0.189  11.253 -0.6537 -0.0054 -0.5325
 1436SOL    HW115944   2.014   0.254  11.205 -1.3681  0.6555  1.1338
 1436SOL    HW215945   2.150   0.231  11.267 -0.1610 -2.1287  2.8928
 1437SOL     OW15946   0.677   0.934  13.633 -0.1957 -0.1271 -0.4322
 1437SOL    HW115947   0.682   0.839  13.623  1.7897 -0.1755  1.0369
 1437SOL    HW215948   0.706   0.967  13.548 -1.7584  2.0006 -0.1430
 1438SOL     OW15949   2.077   0.808   4.067 -0.0823 -0.0194  0.0541
 1438SOL    HW115950   2.164   0.811   4.108 -1.0327 -0.1559  2.1128
 1438SOL    HW215951   2.032   0.772   4.144  0.5540  2.1700  1.4588
 1439SOL     OW15952   4.092   4.375   2.691  0.6767 -0.1313 -0.5465
 1439SOL    HW115953   4.071   4.438   2.622 -2.7184  0.2659  0.8585
 1439SOL    HW215954   4.043   4.424   2.757  0.7768  1.2978 -1.5335
 1440SOL     OW15955   2.340   2.582   8.169  0.3935  0.2112  0.1858
 1440SOL    HW115956   2.379   2.664   8.138 -1.1275  0.3817 -1.2715
 1440SOL    HW215957   2.262   2.568   8.115  1.4356 -1.6282 -0.8414
 1441SOL     OW15958   1.564   2.165   2.839 -0.7587  0.6436  0.1559
 1441SOL    HW115959   1.626   2.092   2.837 -0.2031  1.1077  0.4921
 1441SOL    HW215960   1.608   2.228   2.782  1.0654  1.1314  2.1269
 1442SOL     OW15961   0.447   3.117   6.880 -0.2300  0.3953  0.2807
 1442SOL    HW115962   0.409   3.031   6.895 -1.5453  1.3187  2.1075
 1442SOL    HW215963   0.536   3.093   6.854 -0.6105 -1.0808  0.3939
 1443SOL     OW15964   2.334   3.847  14.906  0.0186  0.2968 -0.7776
 1443SOL    HW115965   2.281   3.832  14.828 -1.4218 -2.9581  0.8255
 1443SOL    HW215966   2.345   3.942  14.904  1.5024  0.1693  1.4259
 1444SOL     OW15967   4.132   3.334   6.583 -0.0338  0.1918 -0.3178
 1444SOL    HW115968   4.079   3.267   6.625 -1.3550  0.6474 -1.2606
 1444SOL    HW215969   4.196   3.345   6.653 -0.7012  0.8347  0.1928
 1445SOL     OW15970   1.462   3.637   7.732 -0.7733  0.0777  0.0661
 1445SOL    HW115971   1.502   3.641   7.645 -0.8232  1.8158  0.1208
 1445SOL    HW215972   1.401   3.563   7.724  0.4764 -0.8480 -0.9159
 1446SOL     OW15973   1.151   2.777  14.698  0.1412  0.2698 -0.0933
 1446SOL    HW115974   1.120   2.690  14.670  1.1738  0.1445 -0.8525
 1446SOL    HW215975   1.192   2.803  14.616 -2.0164  0.3522 -1.1656
 1447SOL     OW15976   2.706   0.755  13.823  0.5493  0.0620 -0.0246
 1447SOL    HW115977   2.688   0.817  13.894 -1.4265 -0.4051 -0.1158
 1447SOL    HW215978   2.786   0.790  13.784  0.4740 -0.6579 -0.8076
 1448SOL     OW15979   3.948   2.357   4.474  0.0088 -0.4874  0.1092
 1448SOL    HW115980   3.866   2.319   4.441 -0.4768  1.3474 -0.8160
 1448SOL    HW215981   3.934   2.451   4.464  2.0284 -0.3226 -1.2336
 1449SOL     OW15982   1.172   1.588  10.320 -0.0340  0.2810  0.6312
 1449SOL    HW115983   1.249   1.537  10.346 -0.3399 -0.9452 -0.8552
 1449SOL    HW215984   1.106   1.559  10.384 -0.3614  0.9519  0.6000
 1450SOL     OW15985   4.535   2.189   3.846 -0.0227 -0.1090 -0.4435
 1450SOL    HW115986   4.588   2.266   3.829  1.2329 -1.0544 -0.7896
 1450SOL    HW215987   4.559   2.151   3.930 -0.3790 -1.8834 -1.1463
 1451SOL     OW15988   1.163   2.365  16.443 -0.0625 -0.3297 -0.1580
 1451SOL    HW115989   1.145   2.455  16.415  2.1225  0.4750  0.9493
 1451SOL    HW215990   1.241   2.382  16.496  0.0793  1.7139 -1.0192
 1452SOL     OW15991   1.842   3.057   8.414  0.9614  0.1931  0.4013
 1452SOL    HW115992   1.848   3.151   8.429  1.1917  0.4042 -1.0617
 1452SOL    HW215993   1.749   3.052   8.391  0.9143 -1.6065  0.9326
 1453SOL     OW15994   2.795   0.440   3.589 -0.1260  0.0945  0.2412
 1453SOL    HW115995   2.743   0.457   3.510 -2.0470 -0.1225  1.4823
 1453SOL    HW215996   2.876   0.423   3.540 -1.6905 -0.7915 -2.0445
 1454SOL     OW15997   0.715   2.466  10.239 -0.2960 -0.4185 -0.0574
 1454SOL    HW115998   0.670   2.535  10.287 -1.8189 -0.1439 -1.8798
 1454SOL    HW215999   0.750   2.410  10.308 -0.3290 -0.1277  0.1897
 1455SOL     OW16000   3.734   3.161  17.481 -0.2822 -0.4895  0.1848
 1455SOL    HW116001   3.733   3.104  17.558 -1.6051 -0.1000  0.4478
 1455SOL    HW216002   3.739   3.248  17.519 -0.1239 -0.3403 -0.1781
 1456SOL     OW16003   4.213   2.609   6.944  0.7496  0.4208  0.0356
 1456SOL    HW116004   4.119   2.622   6.935  0.5499 -1.0673 -0.1540
 1456SOL    HW216005   4.225   2.624   7.038 -1.2412  0.6906  0.2313
 1457SOL     OW16006   2.113   0.521  16.661  0.0192  0.5932 -0.1388
 1457SOL    HW116007   2.132   0.590  16.725  2.5576 -0.5649  0.3685
 1457SOL    HW216008   2.093   0.443  16.712  0.6440 -0.1111 -0.9741
 1458SOL     OW16009   1.783   2.878   7.230  0.3410  0.3298 -0.6759
 1458SOL    HW116010   1.760   2.833   7.149 -0.3735  1.2634 -0.9833
 1458SOL    HW216011   1.697   2.916   7.244  0.2414 -0.1618  0.0835
 1459SOL     OW16012   3.052   1.525   8.323 -0.0051 -0.2157  0.2422
 1459SOL    HW116013   3.101   1.501   8.402 -1.5442  0.4853  1.4262
 1459SOL    HW216014   3.117   1.565   8.265 -0.5222  2.2848  1.3510
 1460SOL     OW16015   0.338   2.472  16.401  0.2979 -0.1728 -0.2089
 1460SOL    HW116016   0.423   2.456  16.360  0.2409  0.0974 -0.4344
 1460SOL    HW216017   0.345   2.567  16.406  2.5985 -0.4369  1.5699
 1461SOL     OW16018   4.142   3.982  16.172  0.1781  0.2550 -0.0154
 1461SOL    HW116019   4.068   3.945  16.123  1.1895  2.0228 -2.8441
 1461SOL    HW216020   4.210   3.971  16.105 -1.1038  1.5244 -1.5319
 1462SOL     OW16021   0.873   0.459   7.764  0.1518  0.4032  0.8753
 1462SOL    HW116022   0.855   0.448   7.670  1.2890 -1.3834  0.8616
 1462SOL    HW216023   0.802   0.416   7.811  0.8957 -0.3972  1.2844
 1463SOL     OW16024   1.067   2.333  15.463 -0.1767  0.1348  0.2332
 1463SOL    HW116025   1.011   2.293  15.397 -0.1702  0.8070 -0.1766
 1463SOL    HW216026   1.143   2.357  15.410  0.8608 -0.3696  1.4677
 1464SOL     OW16027   0.318   0.017   6.635  0.0035 -0.5436 -0.0405
 1464SOL    HW116028   0.310   0.103   6.593  0.1364  0.4161  1.9269
 1464SOL    HW216029   0.407   4.729   6.615  0.8433  1.4057  0.9995
 1465SOL     OW16030   2.414   2.154   4.455  0.2512 -0.0788 -0.4303
 1465SOL    HW116031   2.402   2.245   4.481  0.5382  0.1492 -1.0912
 1465SOL    HW216032   2.326   2.132   4.425  0.4400 -1.2810 -0.1115
 1466SOL     OW16033   0.673   2.328   8.314 -0.2711  0.3653  0.1896
 1466SOL    HW116034   0.627   2.309   8.233  0.5198  0.8160 -0.3750
 1466SOL    HW216035   0.720   2.411   8.301 -0.2858  0.4242  0.5119
 1467SOL     OW16036   2.500   3.031   9.566  0.0888  0.3307  0.0697
 1467SOL    HW116037   2.499   3.123   9.541 -0.3419  0.1843 -0.4527
 1467SOL    HW216038   2.407   3.006   9.558  0.3821 -0.8070  0.2338
 1468SOL     OW16039   0.303   3.233   7.097 -0.2177 -0.4470  0.0942
 1468SOL    HW116040   0.333   3.317   7.061  1.8440 -1.0025  0.5230
 1468SOL    HW216041   0.340   3.178   7.027  1.8602 -1.9216  2.3492
 1469SOL     OW16042   2.202   4.239   6.472  0.1720 -0.1302 -0.0368
 1469SOL    HW116043   2.205   4.255   6.377  1.9033  2.4566  0.4562
 1469SOL    HW216044   2.269   4.299   6.505 -1.7644  0.4833  2.7309
 1470SOL     OW16045   3.202   3.765   9.127  0.1921 -0.2137 -0.2684
 1470SOL    HW116046   3.108   3.779   9.121  0.2686  0.6714  0.6615
 1470SOL    HW216047   3.223   3.773   9.220 -2.6862  1.6001  0.2177
 1471SOL     OW16048   3.140   0.652   8.086  0.3631 -0.0288  0.0844
 1471SOL    HW116049   3.071   0.608   8.036 -1.6521  3.4022 -0.1804
 1471SOL    HW216050   3.087   0.695   8.153 -1.8843 -0.7953 -1.1852
 1472SOL     OW16051   4.656   0.891   8.657 -0.3060 -0.1622 -0.2520
 1472SOL    HW116052   4.699   0.820   8.707 -0.3724  0.9282  1.3624
 1472SOL    HW216053   4.623   0.954   8.721 -0.9102 -1.0119  0.2812
 1473SOL     OW16054   3.814   3.939   6.890  0.1818 -0.7266  0.0676
 1473SOL    HW116055   3.866   4.001   6.941 -0.0789 -0.2827 -0.2037
 1473SOL    HW216056   3.852   3.857   6.923  1.3839  0.7070  2.2456
 1474SOL     OW16057   0.609   2.422   9.266 -0.0587  0.0181 -0.5170
 1474SOL    HW116058   0.592   2.399   9.174  0.6021 -0.3884 -0.5343
 1474SOL    HW216059   0.525   2.466   9.277  1.0275  1.5018  1.7224
 1475SOL     OW16060   2.108   3.127  13.702 -0.3278  0.8356  0.0852
 1475SOL    HW116061   2.018   3.138  13.732 -0.1295 -1.2206  1.4243
 1475SOL    HW216062   2.149   3.173  13.775  1.3867 -2.1381  1.0331
 1476SOL     OW16063   4.267   4.542   3.518 -0.3756  0.3794  0.5106
 1476SOL    HW116064   4.344   4.497   3.483 -1.5038  0.1204 -1.6161
 1476SOL    HW216065   4.286   4.625   3.475  0.9557  0.2568  0.8565
 1477SOL     OW16066   0.927   1.696   8.934  0.2015  0.3785  0.2119
 1477SOL    HW116067   1.011   1.740   8.947 -0.1375  1.0547  0.0861
 1477SOL    HW216068   0.928   1.692   8.839 -1.0681  0.8785  0.1743
 1478SOL     OW16069   2.849   4.493  14.174  0.1922 -0.5504 -0.7155
 1478SOL    HW116070   2.944   4.484  14.178  0.4215  2.3796 -0.0277
 1478SOL    HW216071   2.830   4.466  14.084  0.0776 -0.1857 -0.8008
 1479SOL     OW16072   0.601   4.697   4.664  0.6897 -0.0929 -0.3481
 1479SOL    HW116073   0.586   4.616   4.712  1.0053 -0.2396 -0.4966
 1479SOL    HW216074   0.606   4.660   4.576 -1.1995 -0.6341 -0.2281
 1480SOL     OW16075   0.679   3.219   8.431 -0.1186  0.1418  0.0452
 1480SOL    HW116076   0.648   3.219   8.521 -0.1928 -1.4058  0.0245
 1480SOL    HW216077   0.694   3.124   8.427 -0.9383  0.0287 -0.4289
 1481SOL     OW16078   1.760   3.672   5.284  0.2806 -0.1628 -0.5079
 1481SOL    HW116079   1.813   3.635   5.355 -2.8185 -0.2285  1.7660
 1481SOL    HW216080   1.828   3.708   5.228  0.0476  1.4120  0.2306
 1482SOL     OW16081   3.550   3.231   4.111  0.0788 -0.1989  0.4506
 1482SOL    HW116082   3.503   3.314   4.115  1.2194  0.4673 -0.0786
 1482SOL    HW216083   3.519   3.185   4.033 -4.0735 -1.2468  2.7236
 1483SOL     OW16084   0.545   1.610   4.090  0.0012  0.2298  0.1275
 1483SOL    HW116085   0.455   1.601   4.058  0.4844 -1.2610 -0.8328
 1483SOL    HW216086   0.527   1.569   4.174  2.3629 -0.2339  0.4262
 1484SOL     OW16087   1.687   2.877  15.390 -0.1981  0.0744 -0.6789
 1484SOL    HW116088   1.698   2.856  15.483 -1.3398  0.3843 -0.4761
 1484SOL    HW216089   1.653   2.966  15.388  1.7352  0.8063 -0.7003
 1485SOL     OW16090   2.235   2.315   8.987 -0.0047  0.6004 -0.9288
 1485SOL    HW116091   2.330   2.305   8.986 -0.1613 -1.2788  1.5977
 1485SOL    HW216092   2.222   2.397   8.940 -0.6415  0.6141 -0.7375
 1486SOL     OW16093   2.599   1.187  17.459  0.1129  0.0347 -0.1066
 1486SOL    HW116094   2.608   1.164  17.367 -0.7534  1.7154 -0.6037
 1486SOL    HW216095   2.567   1.276  17.446  0.6338  0.4776  1.6143
 1487SOL     OW16096   4.585   0.626   9.428 -0.2403 -0.7362  0.5776
 1487SOL    HW116097   4.602   0.546   9.479 -0.5416 -1.4020 -0.3837
 1487SOL    HW216098   4.675   0.658   9.424 -0.6500  0.2192 -0.8757
 1488SOL     OW16099   3.768   1.293  15.197 -0.0123 -0.2325  0.5893
 1488SOL    HW116100   3.819   1.354  15.250  0.4864 -2.1763  2.3395
 1488SOL    HW216101   3.788   1.328  15.111 -1.7596  2.6111  1.3292
 1489SOL     OW16102   2.789   2.025   8.710  0.0578 -0.4621 -0.2879
 1489SOL    HW116103   2.803   1.935   8.741 -0.1692 -0.2113  0.5631
 1489SOL    HW216104   2.695   2.039   8.725  0.8169  1.9297  2.1023
 1490SOL     OW16105   3.232   3.171   2.344  0.7913 -0.0989  0.2238
 1490SOL    HW116106   3.150   3.133   2.312  1.5569 -1.6736  0.0886
 1490SOL    HW216107   3.288   3.138   2.274  0.3015  0.4755 -0.4327
 1491SOL     OW16108   1.681   2.125   5.359 -0.5978  0.1588  0.1640
 1491SOL    HW116109   1.745   2.054   5.360  0.7102  1.3515  0.5505
 1491SOL    HW216110   1.652   2.135   5.450 -1.8592  3.6520 -0.6016
 1492SOL     OW16111   0.408   0.119   8.388 -0.9456  0.3775  0.3109
 1492SOL    HW116112   0.418   0.072   8.470  2.4581 -3.4187 -2.3321
 1492SOL    HW216113   0.317   0.095   8.370 -0.8434  0.6873 -0.6656
 1493SOL     OW16114   1.079   2.829   7.361  0.8551 -0.5196 -0.0991
 1493SOL    HW116115   1.086   2.785   7.446 -1.0235  0.2716  0.4695
 1493SOL    HW216116   1.169   2.862   7.365  0.7265 -0.1953  0.1780
 1494SOL     OW16117   2.633   3.312   7.218 -0.0432 -0.2592 -0.2400
 1494SOL    HW116118   2.615   3.222   7.193 -0.8960  0.1375 -1.0561
 1494SOL    HW216119   2.703   3.339   7.158  2.0010 -3.3039  0.8018
 1495SOL     OW16120   0.299   2.373   3.232 -0.1152 -0.2371  0.6713
 1495SOL    HW116121   0.365   2.425   3.278  0.1282 -0.7362  0.8880
 1495SOL    HW216122   0.358   2.303   3.206 -0.5045 -1.5918  3.4390
 1496SOL     OW16123   0.579   1.559  11.794  0.1873  0.5907 -0.1786
 1496SOL    HW116124   0.640   1.503  11.747  1.3146  1.0331  0.7687
 1496SOL    HW216125   0.515   1.558  11.723 -0.8690  1.7321  0.7572
 1497SOL     OW16126   3.281   3.421   8.925 -0.4011  0.2867  0.0324
 1497SOL    HW116127   3.199   3.420   8.974 -0.4049 -0.4699  0.0198
 1497SOL    HW216128   3.282   3.515   8.907 -1.1529  0.5819  1.5143
 1498SOL     OW16129   0.750   1.855   1.469 -0.1518  0.1486 -0.2153
 1498SOL    HW116130   0.713   1.895   1.391  1.0974  1.1865 -0.2698
 1498SOL    HW216131   0.796   1.927   1.511 -1.0603  0.0167  1.0026
 1499SOL     OW16132   0.721   1.340   8.635  0.3120  0.4263 -0.2251
 1499SOL    HW116133   0.631   1.341   8.604  1.1364  3.6572 -2.4921
 1499SOL    HW216134   0.730   1.419   8.688 -0.4836 -0.2383  0.8841
 1500SOL     OW16135   2.689   1.966   8.010 -0.2108  0.4603 -0.7017
 1500SOL    HW116136   2.702   1.916   8.091 -0.5008  2.3849  0.5086
 1500SOL    HW216137   2.734   1.911   7.946  0.3782  0.5999 -0.4023
 1501SOL     OW16138   1.314   1.933   8.160  0.5934 -0.0269  0.2839
 1501SOL    HW116139   1.385   1.917   8.222 -0.0425  1.1541  1.3183
 1501SOL    HW216140   1.313   2.028   8.171  0.1918 -0.1331  1.2024
 1502SOL     OW16141   2.951   0.655   2.345 -0.3607  0.1367  0.1869
 1502SOL    HW116142   2.945   0.686   2.255 -1.4870 -1.3006 -0.2364
 1502SOL    HW216143   3.046   0.665   2.359 -0.4525  0.4858  0.5688
 1503SOL     OW16144   2.857   0.078  11.852 -0.5505 -0.2748 -0.5425
 1503SOL    HW116145   2.794   0.139  11.815 -0.8466  0.3432  0.9604
 1503SOL    HW216146   2.810   0.024  11.916  2.2112 -0.3047  1.4991
 1504SOL     OW16147   1.398   2.640   5.393  0.3408 -0.1178 -0.5942
 1504SOL    HW116148   1.473   2.581   5.389  0.2600 -0.2613  0.0649
 1504SOL    HW216149   1.348   2.613   5.315  0.1525 -1.2516 -0.0861
 1505SOL     OW16150   1.945   0.165   0.964  0.0635 -0.4837 -0.3805
 1505SOL    HW116151   1.873   0.220   0.993  2.3757  2.0230  0.6028
 1505SOL    HW216152   1.972   0.220   0.890 -1.1809  2.6571  1.5073
 1506SOL     OW16153   0.419   3.679  16.335 -0.1363  0.0855  0.2810
 1506SOL    HW116154   0.506   3.666  16.296 -0.2820  1.9365 -0.6373
 1506SOL    HW216155   0.420   3.625  16.414 -2.1311  0.4115  0.5207
 1507SOL     OW16156   2.501   0.267   9.094  0.1973  0.1781 -0.2726
 1507SOL    HW116157   2.562   0.330   9.132  0.9639  1.6194 -3.8895
 1507SOL    HW216158   2.437   0.327   9.055 -1.0546 -0.3397  1.0089
 1508SOL     OW16159   4.064   3.350   9.062 -0.0677 -0.3403  0.1728
 1508SOL    HW116160   4.013   3.394   8.993  0.2522 -1.5867 -0.8612
 1508SOL    HW216161   4.149   3.352   9.018  1.0093 -0.5533  2.2480
 1509SOL     OW16162   4.624   1.554   1.293  0.1780  0.9310 -0.0486
 1509SOL    HW116163   4.607   1.619   1.225  0.7801 -1.0356 -2.0839
 1509SOL    HW216164   4.672   1.484   1.248 -1.0959 -1.6145  2.5219
 1510SOL     OW16165   0.999   0.043   3.150  0.7030 -0.4690  0.0021
 1510SOL    HW116166   0.925   0.079   3.199  0.3989 -2.0953  0.7335
 1510SOL    HW216167   1.052   0.120   3.130 -1.4033  1.2919  1.1287
 1511SOL     OW16168   2.283   2.940   5.449  0.0913 -0.2939  0.5926
 1511SOL    HW116169   2.197   2.897   5.447  0.1181 -0.3288  0.1285
 1511SOL    HW216170   2.346   2.868   5.449 -0.9096 -1.1882  0.0761
 1512SOL     OW16171   2.044   3.437   5.806 -0.1228  0.1773  0.5055
 1512SOL    HW116172   2.072   3.373   5.870  1.6591 -0.4017 -0.8401
 1512SOL    HW216173   1.996   3.498   5.863 -1.4515 -1.0865  0.7314
 1513SOL     OW16174   4.004   1.792   3.487  0.1438  0.0177 -0.2534
 1513SOL    HW116175   4.046   1.713   3.523 -0.7284 -0.7411 -0.8850
 1513SOL    HW216176   4.018   1.845   3.565 -0.8643  2.0579 -1.4595
 1514SOL     OW16177   1.232   4.553   3.883 -0.3722 -0.3177  0.7360
 1514SOL    HW116178   1.254   4.551   3.790 -2.6068 -1.6161  0.2312
 1514SOL    HW216179   1.293   4.486   3.915  2.2722  0.6620 -2.2379
 1515SOL     OW16180   4.538   4.048   2.456  0.1073 -0.1589  1.0519
 1515SOL    HW116181   4.551   3.973   2.514 -1.0640 -0.0737  1.4236
 1515SOL    HW216182   4.631   4.057   2.438 -0.0879  0.9420  0.5731
 1516SOL     OW16183   1.944   1.253   4.823  0.0628  0.3645  0.0941
 1516SOL    HW116184   1.867   1.279   4.874 -0.3963 -0.6749 -0.0710
 1516SOL    HW216185   1.941   1.313   4.749 -0.2342  1.4798  1.0067
 1517SOL     OW16186   3.249   3.353   5.792  0.3625  0.3382 -0.3410
 1517SOL    HW116187   3.324   3.394   5.748  0.5039  0.4568  0.0067
 1517SOL    HW216188   3.200   3.433   5.811  0.2654  0.0342  0.6794
 1518SOL     OW16189   0.364   1.781  16.108  0.2973  0.2604  0.1761
 1518SOL    HW116190   0.333   1.817  16.024  0.9189 -0.2310 -0.2642
 1518SOL    HW216191   0.312   1.700  16.101  0.2955  0.3450 -0.8264
 1519SOL     OW16192   3.303   4.425  12.653 -0.2952  0.0892 -0.5727
 1519SOL    HW116193   3.319   4.333  12.672  1.0183  0.2843 -0.7191
 1519SOL    HW216194   3.295   4.467  12.739 -0.1978  0.5205 -0.7727
 1520SOL     OW16195   2.063   0.504  17.462  0.0857  0.0659  0.3593
 1520SOL    HW116196   2.023   0.425  17.425  0.4647 -0.6104  1.3820
 1520SOL    HW216197   2.044   0.569  17.395 -0.7537 -2.6004 -1.9665
 1521SOL     OW16198   3.051   3.409   7.399  0.6419  0.5313 -0.2633
 1521SOL    HW116199   2.971   3.386   7.446  0.7010 -0.8690 -0.8694
 1521SOL    HW216200   3.065   3.329   7.350  0.5210  0.6295 -0.4568
 1522SOL     OW16201   4.165   2.168   6.416  0.5919  0.3041 -0.0719
 1522SOL    HW116202   4.098   2.236   6.429  0.7159  0.4489 -0.1871
 1522SOL    HW216203   4.111   2.103   6.371  1.8750  0.2930 -1.5947
 1523SOL     OW16204   3.387   0.629   8.182 -0.5115 -0.2187 -0.1716
 1523SOL    HW116205   3.300   0.604   8.148 -1.0168 -1.8001  2.2935
 1523SOL    HW216206   3.394   0.562   8.249 -1.1539  1.0153  1.1282
 1524SOL     OW16207   2.176   2.857   9.298  0.3117  0.1881 -0.0844
 1524SOL    HW116208   2.164   2.763   9.290 -0.8865  0.2370  1.0925
 1524SOL    HW216209   2.088   2.871   9.262  0.4644  1.9504  0.2240
 1525SOL     OW16210   2.254   2.547   6.216  0.2971 -0.0047  0.1371
 1525SOL    HW116211   2.213   2.476   6.264  0.6257 -0.8910 -0.9012
 1525SOL    HW216212   2.330   2.513   6.169 -0.5678 -0.0692 -1.2087
 1526SOL     OW16213   1.796   1.849  14.871  0.1300  0.0270 -0.2500
 1526SOL    HW116214   1.830   1.855  14.960 -0.0240 -1.7723 -0.0665
 1526SOL    HW216215   1.864   1.906  14.837 -0.7003  0.5189 -1.0655
 1527SOL     OW16216   1.124   3.938  13.987 -0.4182  0.5833 -0.6286
 1527SOL    HW116217   1.037   3.917  14.019  1.0746 -1.9352  1.8344
 1527SOL    HW216218   1.135   4.033  13.991  0.2195  0.3226  3.3766
 1528SOL     OW16219   1.941   1.034  15.318 -0.3343 -0.3019  0.0905
 1528SOL    HW116220   1.942   0.971  15.390  2.0087 -0.9024 -0.4476
 1528SOL    HW216221   1.847   1.029  15.298 -0.0832 -1.9613 -0.7422
 1529SOL     OW16222   2.158   1.365  12.315 -0.0630 -0.1802  1.1580
 1529SOL    HW116223   2.108   1.306  12.258  3.7199 -0.4178 -1.8957
 1529SOL    HW216224   2.205   1.423  12.255 -1.2680  1.3623  1.6923
 1530SOL     OW16225   3.177   0.844  13.040  0.6079 -0.0849  0.0465
 1530SOL    HW116226   3.238   0.792  13.092 -0.8262  0.3050  2.1354
 1530SOL    HW216227   3.223   0.926  13.055 -1.9014  1.3424 -0.1088
 1531SOL     OW16228   1.927   2.093   7.269 -0.1404 -0.4766 -0.3938
 1531SOL    HW116229   1.851   2.140   7.234  0.5263  2.6604  2.3530
 1531SOL    HW216230   1.888   2.012   7.301 -0.2348 -0.3334 -0.1513
 1532SOL     OW16231   3.368   1.097   3.058  0.1734 -0.4114  0.2844
 1532SOL    HW116232   3.311   1.021   3.046 -1.7494  0.8662  1.3149
 1532SOL    HW216233   3.306   1.169   3.056 -0.8150 -1.2669  0.0558
 1533SOL     OW16234   3.582   4.663   2.528  0.5200  0.1555 -0.1015
 1533SOL    HW116235   3.634   4.734   2.491 -0.3192 -0.2786 -2.0890
 1533SOL    HW216236   3.650   4.613   2.573 -0.1392 -1.2445 -0.6776
 1534SOL     OW16237   4.253   4.570   9.240 -0.2903 -0.2240 -0.4444
 1534SOL    HW116238   4.206   4.642   9.198 -0.1980 -0.7157 -1.3969
 1534SOL    HW216239   4.273   4.506   9.172  0.9088 -0.2148 -0.0936
 1535SOL     OW16240   3.706   2.139   9.269 -0.0393 -0.3974 -0.0700
 1535SOL    HW116241   3.659   2.222   9.281  1.1697  0.3357 -0.3282
 1535SOL    HW216242   3.778   2.165   9.212 -1.0114 -0.7903 -1.4688
 1536SOL     OW16243   0.856   0.728   8.832  0.6636 -0.0081  0.1024
 1536SOL    HW116244   0.921   0.782   8.877  1.6731 -1.0639 -0.1077
 1536SOL    HW216245   0.794   0.712   8.904 -0.9363 -1.8531 -1.6506
 1537SOL     OW16246   3.466   1.859   3.771  0.4234 -0.1476 -0.3135
 1537SOL    HW116247   3.552   1.819   3.757 -0.4118 -0.8708 -3.2598
 1537SOL    HW216248   3.475   1.945   3.730  1.1144  0.3310  0.8333
 1538SOL     OW16249   3.520   0.101   5.106 -0.5162  0.3590 -0.4205
 1538SOL    HW116250   3.494   0.009   5.107 -0.2025  0.2750  0.2478
 1538SOL    HW216251   3.448   0.133   5.052 -0.7112 -0.3896 -0.6074
 1539SOL     OW16252   2.598   1.146   4.095 -0.5734  0.1305  0.5550
 1539SOL    HW116253   2.608   1.050   4.095 -1.4564  0.0430 -0.8090
 1539SOL    HW216254   2.509   1.175   4.078 -0.9357 -0.2510  1.7837
 1540SOL     OW16255   4.143   2.395  13.885  0.1268  0.1181 -0.5681
 1540SOL    HW116256   4.218   2.341  13.861  1.1593  2.8538 -3.3087
 1540SOL    HW216257   4.130   2.356  13.972 -1.2384 -0.6489 -1.1176
 1541SOL     OW16258   2.042   0.365  10.089 -0.2594  0.2825 -0.1522
 1541SOL    HW116259   1.950   0.384  10.103 -0.9925 -3.5217  0.2018
 1541SOL    HW216260   2.032   0.295  10.024 -1.5042 -1.0362  1.4606
 1542SOL     OW16261   2.780   0.890  13.164  0.3048 -0.7015 -0.2567
 1542SOL    HW116262   2.718   0.831  13.206  1.7183 -1.5109  0.6896
 1542SOL    HW216263   2.721   0.961  13.142  1.2865  0.4546  0.8168
 1543SOL     OW16264   4.261   4.325   9.396  0.5904 -0.3769 -0.0423
 1543SOL    HW116265   4.227   4.342   9.484  0.2737 -1.5203  0.0568
 1543SOL    HW216266   4.233   4.404   9.350 -2.2514 -0.1983  2.0566
 1544SOL     OW16267   1.485   0.343   8.746 -0.3808  0.2136  0.8982
 1544SOL    HW116268   1.410   0.289   8.771 -0.6280  0.9524  1.7441
 1544SOL    HW216269   1.564   0.289   8.749 -1.3715 -1.2247  1.3619
 1545SOL     OW16270   3.319   1.921   4.762  0.2065 -1.1429  0.6854
 1545SOL    HW116271   3.226   1.904   4.748  0.3675 -1.0793 -0.4897
 1545SOL    HW216272   3.312   1.964   4.847 -0.5622 -1.6244  0.8637
 1546SOL     OW16273   0.932   3.139  12.858  0.5423 -0.7946  0.0234
 1546SOL    HW116274   0.879   3.092  12.794  0.9910  0.7538 -1.4787
 1546SOL    HW216275   1.012   3.089  12.866 -0.1218 -2.1065 -1.6220
 1547SOL     OW16276   1.237   3.179  10.915 -0.0300  0.3447 -0.0563
 1547SOL    HW116277   1.273   3.097  10.949 -1.7411  0.8844  2.9846
 1547SOL    HW216278   1.304   3.213  10.856 -1.3472  0.0327 -1.7351
 1548SOL     OW16279   0.417   1.773  13.192 -0.0371  0.3331  0.0852
 1548SOL    HW116280   0.383   1.797  13.106 -3.4252 -1.1945  1.0003
 1548SOL    HW216281   0.464   1.854  13.212  0.3129  0.8594 -2.8613
 1549SOL     OW16282   0.824   4.503  16.072 -0.2693 -0.1348  0.3998
 1549SOL    HW116283   0.730   4.490  16.081 -0.6617  1.5248 -1.2875
 1549SOL    HW216284   0.841   4.442  16.000 -2.5337 -1.6775  1.1634
 1550SOL     OW16285   1.513   3.274   6.604 -0.4773 -0.1711  0.0716
 1550SOL    HW116286   1.567   3.200   6.631 -1.8091 -1.3648 -0.5111
 1550SOL    HW216287   1.545   3.345   6.659  1.1882  0.2882 -1.4909
 1551SOL     OW16288   0.870   3.171   1.158 -1.2456  0.3701  0.3499
 1551SOL    HW116289   0.797   3.208   1.108 -0.3868  0.9730 -0.4570
 1551SOL    HW216290   0.894   3.099   1.101 -1.1245  0.2267  0.5798
 1552SOL     OW16291   0.339   0.299   4.147  0.4880 -0.0063  0.4348
 1552SOL    HW116292   0.390   0.220   4.160 -0.1845 -0.8413 -1.9722
 1552SOL    HW216293   0.262   0.294   4.204  1.5755 -1.9922  1.7073
 1553SOL     OW16294   0.278   3.085   9.758  0.1829  0.2678 -0.3342
 1553SOL    HW116295   0.344   3.154   9.766 -1.2894  1.8463 -1.7896
 1553SOL    HW216296   0.268   3.069   9.664 -1.9533  2.4910 -0.4852
 1554SOL     OW16297   3.743   4.202   4.992 -0.1037 -0.7562 -0.5694
 1554SOL    HW116298   3.719   4.244   4.910  0.3487 -0.3291 -0.4824
 1554SOL    HW216299   3.709   4.116   4.968 -1.7304 -0.1855 -0.3055
 1555SOL     OW16300   4.386   3.083   6.447 -0.6624  0.2839  0.4410
 1555SOL    HW116301   4.340   3.007   6.411  1.1543 -0.3994 -0.4281
 1555SOL    HW216302   4.324   3.097   6.518 -0.5322  3.2941 -0.0517
 1556SOL     OW16303   1.369   0.059   2.264  0.0823  0.9879  0.0467
 1556SOL    HW116304   1.428   0.116   2.214  2.2890 -0.8722  0.5748
 1556SOL    HW216305   1.327   0.019   2.188 -1.8196  0.9523  1.1319
 1557SOL     OW16306   1.485   1.838  14.558  0.2780  0.4018  0.1689
 1557SOL    HW116307   1.450   1.759  14.517  0.2087 -0.5413  2.0395
 1557SOL    HW216308   1.420   1.907  14.545  0.8098  1.0713  1.0109
 1558SOL     OW16309   0.140   0.101   5.986 -0.1282  0.2619 -0.9128
 1558SOL    HW116310   0.089   0.129   5.910 -1.6401 -0.7975 -0.2905
 1558SOL    HW216311   0.076   0.116   6.055  1.2934  1.1371  0.2267
 1559SOL     OW16312   0.230   3.860   1.452  0.0078 -0.4056  0.0247
 1559SOL    HW116313   0.238   3.853   1.357 -2.1216  1.0180 -0.2718
 1559SOL    HW216314   0.218   3.771   1.483 -0.9816 -0.9316 -1.8922
 1560SOL     OW16315   3.496   2.669   1.853  0.4150 -0.3599  0.3423
 1560SOL    HW116316   3.526   2.748   1.897 -0.3140  0.1587 -0.0776
 1560SOL    HW216317   3.566   2.642   1.793  0.9654 -1.0377  1.3042
 1561SOL     OW16318   3.097   1.395  13.367  0.0503  0.2628 -0.5627
 1561SOL    HW116319   3.139   1.428  13.446 -2.5780 -0.6908  1.2018
 1561SOL    HW216320   3.024   1.457  13.356 -1.4988 -1.6757 -1.1560
 1562SOL     OW16321   3.349   2.854   4.116  0.2904 -0.0401  0.1524
 1562SOL    HW116322   3.329   2.945   4.137 -1.2485 -0.4075  0.2560
 1562SOL    HW216323   3.431   2.852   4.165 -0.6437 -0.6595  1.7007
 1563SOL     OW16324   1.067   4.731   5.603 -0.1770 -0.4340 -0.1323
 1563SOL    HW116325   0.987   0.014   5.649 -0.2399 -2.8430  0.9381
 1563SOL    HW216326   1.024   4.685   5.531 -0.8420  1.3776 -0.9092
 1564SOL     OW16327   1.350   4.021   6.615 -0.1029  0.0828 -0.1656
 1564SOL    HW116328   1.270   3.969   6.611  1.1989 -2.0850  1.4363
 1564SOL    HW216329   1.365   4.006   6.708 -0.5587  1.0242  0.0636
 1565SOL     OW16330   1.124   1.880   6.764 -0.4932 -0.1155  0.5455
 1565SOL    HW116331   1.109   1.967   6.727  3.1044 -0.2366 -1.2252
 1565SOL    HW216332   1.034   1.848   6.761 -0.7712  0.7498 -0.4050
 1566SOL     OW16333   3.660   2.515   4.084  0.0181 -0.3099 -0.2871
 1566SOL    HW116334   3.632   2.580   4.019  1.3278  1.4454  0.8732
 1566SOL    HW216335   3.752   2.543   4.082  0.1765 -0.7999  0.2743
 1567SOL     OW16336   2.436   1.850   7.910  0.4628 -0.3332  0.0182
 1567SOL    HW116337   2.387   1.926   7.879  1.1210 -0.2128 -0.7138
 1567SOL    HW216338   2.527   1.879   7.920  0.4503 -0.6385  1.0053
 1568SOL     OW16339   2.895   0.819   4.865  0.1494  0.1712 -0.0668
 1568SOL    HW116340   2.832   0.871   4.815 -0.3518  0.0095  0.4022
 1568SOL    HW216341   2.949   0.882   4.912 -0.9249 -0.8276  2.4713
 1569SOL     OW16342   3.685   1.680   2.740 -0.1322 -0.4969  0.1202
 1569SOL    HW116343   3.757   1.728   2.782  0.6306  0.4798 -2.2975
 1569SOL    HW216344   3.645   1.640   2.817 -0.6865 -0.0956  0.0411
 1570SOL     OW16345   0.703   2.647   6.134 -0.2070  0.2518  0.1277
 1570SOL    HW116346   0.741   2.612   6.053  1.0876 -0.3641  1.0056
 1570SOL    HW216347   0.628   2.697   6.101 -0.4951 -1.0613 -1.2401
 1571SOL     OW16348   0.743   2.736   3.346 -0.1127  0.6683  0.3091
 1571SOL    HW116349   0.810   2.702   3.288  1.3594  1.9873  1.2252
 1571SOL    HW216350   0.661   2.707   3.306 -0.1893  1.0233  0.2068
 1572SOL     OW16351   3.724   4.211   3.632  0.1655  0.2087 -0.0375
 1572SOL    HW116352   3.816   4.224   3.652 -0.2943  1.7929  1.0452
 1572SOL    HW216353   3.721   4.232   3.539 -2.9107  2.6273  0.5962
 1573SOL     OW16354   2.546   0.375   8.257  0.0816  0.3584  0.3519
 1573SOL    HW116355   2.576   0.445   8.316 -2.6015  2.8831 -1.2938
 1573SOL    HW216356   2.516   0.428   8.184 -0.0128  0.0969  0.1998
 1574SOL     OW16357   0.024   4.489   8.541 -0.2602  0.4055  0.0350
 1574SOL    HW116358   0.016   4.584   8.555 -2.5020  0.3346 -0.7894
 1574SOL    HW216359   0.116   4.469   8.524  0.3700  3.4444 -0.2276
 1575SOL     OW16360   0.744   3.671   7.903  0.0362 -0.4102  0.1348
 1575SOL    HW116361   0.671   3.651   7.843  1.0465 -2.3006 -0.4641
 1575SOL    HW216362   0.707   3.639   7.985  0.1642  0.3683  0.4986
 1576SOL     OW16363   0.777   1.405   5.860 -0.2981  0.0426 -0.0817
 1576SOL    HW116364   0.818   1.438   5.780  0.1996 -0.6293 -0.1087
 1576SOL    HW216365   0.846   1.423   5.925 -0.1213 -1.7217  0.2366
 1577SOL     OW16366   0.626   0.145   8.094  0.3863  0.2416 -0.2170
 1577SOL    HW116367   0.597   0.180   8.179  0.4170 -0.9088  0.2740
 1577SOL    HW216368   0.640   0.055   8.125 -0.6783  0.6701  1.5370
 1578SOL     OW16369   3.238   4.126   6.207 -0.3510  0.0273 -0.0802
 1578SOL    HW116370   3.150   4.113   6.244  0.3757 -0.6562  1.4476
 1578SOL    HW216371   3.267   4.208   6.246 -1.8977 -0.4979  2.2143
 1579SOL     OW16372   2.570   2.653   2.473  0.2516 -0.2920 -0.1242
 1579SOL    HW116373   2.625   2.583   2.439 -0.1020 -0.9413  0.6389
 1579SOL    HW216374   2.510   2.664   2.400 -1.4245  2.7955  1.7035
 1580SOL     OW16375   3.212   2.332  12.840  0.5338 -0.2591  0.2588
 1580SOL    HW116376   3.304   2.316  12.860  0.6415  1.1783  0.8900
 1580SOL    HW216377   3.168   2.254  12.874  0.9519 -2.4044 -4.1632
 1581SOL     OW16378   3.170   4.337   1.135  0.0368 -0.4698  0.0047
 1581SOL    HW116379   3.087   4.320   1.179  0.7765  1.1344  2.0452
 1581SOL    HW216380   3.162   4.416   1.081  1.0803  0.1345  0.7365
 1582SOL     OW16381   3.400   0.697   7.907 -0.2222 -0.1310  0.1634
 1582SOL    HW116382   3.306   0.676   7.906 -0.3720  0.5249  1.6542
 1582SOL    HW216383   3.420   0.701   8.000  2.0028 -0.5316 -0.2906
 1583SOL     OW16384   4.413   2.392  10.784  0.2681 -0.2247  0.3799
 1583SOL    HW116385   4.373   2.305  10.783 -0.6181  0.2085 -1.1944
 1583SOL    HW216386   4.407   2.421  10.693 -1.9932 -2.6625 -0.2504
 1584SOL     OW16387   1.931   1.996   6.511  0.0447  0.0039  0.6908
 1584SOL    HW116388   1.837   2.016   6.508  0.2413  0.9250  0.6100
 1584SOL    HW216389   1.936   1.942   6.589  0.9168 -0.9704 -0.0346
 1585SOL     OW16390   1.148   2.559  17.605 -0.0425 -0.4704 -0.6350
 1585SOL    HW116391   1.059   2.590  17.621  0.1811  0.3523 -0.9823
 1585SOL    HW216392   1.133   2.465  17.593 -0.3988 -0.5873  0.7497
 1586SOL     OW16393   4.161   1.214   3.873 -0.1560  0.1436  0.4903
 1586SOL    HW116394   4.086   1.182   3.824 -0.6960  1.2381  0.6000
 1586SOL    HW216395   4.148   1.162   3.951  0.3345  0.7368  0.9746
 1587SOL     OW16396   1.373   2.168   1.763 -1.0018  0.6819  0.0496
 1587SOL    HW116397   1.433   2.238   1.738 -2.5112  2.3414  1.0766
 1587SOL    HW216398   1.321   2.164   1.682 -0.6108 -1.4895 -0.0894
 1588SOL     OW16399   2.410   1.368  17.384  0.4799  0.0635 -0.1502
 1588SOL    HW116400   2.356   1.324  17.320 -0.6631 -1.2129  1.6907
 1588SOL    HW216401   2.353   1.401  17.453  0.3815  0.7744 -0.5712
 1589SOL     OW16402   1.154   3.881   9.616 -0.4338  0.4480 -0.2235
 1589SOL    HW116403   1.235   3.930   9.601  0.0290 -0.9446 -2.1757
 1589SOL    HW216404   1.093   3.953   9.600 -2.0040 -0.6735  0.6798
 1590SOL     OW16405   3.165   0.417  16.904  0.0581  0.0981 -0.6192
 1590SOL    HW116406   3.142   0.476  16.832  0.9271  1.2360  0.0469
 1590SOL    HW216407   3.214   0.474  16.962 -0.8061 -0.5082  0.6982
 1591SOL     OW16408   0.342   3.069   9.505 -0.4802  0.4181  0.9287
 1591SOL    HW116409   0.393   3.004   9.554  0.4572 -0.6670 -1.4571
 1591SOL    HW216410   0.380   3.074   9.418  1.3816 -2.8960  1.5594
 1592SOL     OW16411   3.776   4.252   5.421  0.2385  0.3539  0.3534
 1592SOL    HW116412   3.833   4.192   5.374 -3.8830 -0.9612 -3.0106
 1592SOL    HW216413   3.749   4.313   5.352 -0.8263  0.9207  1.2671
 1593SOL     OW16414   0.227   1.699  14.685 -0.0471 -0.2773  0.8065
 1593SOL    HW116415   0.274   1.616  14.675 -2.4675 -1.3873 -1.4463
 1593SOL    HW216416   0.298   1.755  14.716  0.6947 -0.1915 -1.0452
 1594SOL     OW16417   0.310   4.040   2.844  0.2736  0.5743  0.0199
 1594SOL    HW116418   0.244   4.020   2.777 -0.2647  2.3694  0.0039
 1594SOL    HW216419   0.376   3.973   2.827 -1.1362 -1.0275  0.8696
 1595SOL     OW16420   1.472   0.924  16.686 -0.1383 -0.5506 -0.0966
 1595SOL    HW116421   1.500   0.978  16.759 -4.2705  0.2632  0.8819
 1595SOL    HW216422   1.550   0.945  16.634  0.2701  2.2942  1.7016
 1596SOL     OW16423   3.979   1.792   4.682  0.2050 -0.9312 -0.2335
 1596SOL    HW116424   3.968   1.777   4.776 -1.2101  0.2484 -0.2149
 1596SOL    HW216425   4.043   1.863   4.680 -0.5317 -0.2156  2.4547
 1597SOL     OW16426   2.608   0.915   3.668 -0.2315 -0.1525 -0.0038
 1597SOL    HW116427   2.524   0.922   3.712  0.7695  2.1220  1.5314
 1597SOL    HW216428   2.610   0.997   3.618  0.9091  0.7905  1.5755
 1598SOL     OW16429   4.334   1.523   5.176 -0.5669 -0.3629 -0.7713
 1598SOL    HW116430   4.247   1.558   5.192 -0.8218 -1.1924 -0.3503
 1598SOL    HW216431   4.317   1.443   5.128  2.5871  0.1775 -2.7666
 1599SOL     OW16432   3.152   3.646  16.232  0.0910 -0.0246 -0.1100
 1599SOL    HW116433   3.122   3.722  16.182 -0.8979 -1.3984 -1.6171
 1599SOL    HW216434   3.153   3.585  16.158 -0.1041  0.4159 -0.4726
 1600SOL     OW16435   3.360   3.977   5.985  0.6440  0.0779  0.4242
 1600SOL    HW116436   3.387   3.919   6.057  1.2606 -0.9574 -0.6316
 1600SOL    HW216437   3.307   4.039   6.034 -0.0387  0.2874 -0.5736
 1601SOL     OW16438   0.437   0.170   1.199 -0.1494 -0.1879 -0.5400
 1601SOL    HW116439   0.486   0.239   1.155 -0.9517 -2.1302 -4.4428
 1601SOL    HW216440   0.412   0.215   1.280 -1.8508 -0.5489 -0.8658
 1602SOL     OW16441   1.327   4.456   4.991 -0.0287 -0.0499 -0.4863
 1602SOL    HW116442   1.308   4.372   5.034  0.5364  0.7513  1.3558
 1602SOL    HW216443   1.264   4.511   5.038  0.3048  0.0785 -0.1898
 1603SOL     OW16444   2.614   0.165   2.904 -0.7642  1.2687 -0.0653
 1603SOL    HW116445   2.625   0.219   2.982 -0.6069  1.8043 -0.4606
 1603SOL    HW216446   2.702   0.131   2.887 -0.5842  2.0622 -0.7299
 1604SOL     OW16447   2.006   0.056   2.455  0.0426  0.3676 -0.1758
 1604SOL    HW116448   1.981   0.106   2.533  2.9154  0.2539  0.7862
 1604SOL    HW216449   2.087   0.017   2.487  0.8952  0.1486 -2.5982
 1605SOL     OW16450   0.875   3.303   2.761  0.2333 -0.1676 -0.3573
 1605SOL    HW116451   0.789   3.300   2.720  0.1456 -0.3886 -0.1581
 1605SOL    HW216452   0.858   3.277   2.852 -1.8757  0.8272 -0.4600
 1606SOL     OW16453   0.812   0.314  10.717 -0.2128  0.3500 -0.1758
 1606SOL    HW116454   0.741   0.371  10.746  1.4261  3.3087 -1.9841
 1606SOL    HW216455   0.845   0.343  10.632  0.2071  3.0029  0.8848
 1607SOL     OW16456   2.831   1.484   4.856  0.2418  0.3994 -0.0734
 1607SOL    HW116457   2.906   1.521   4.810  0.0220  1.2838  0.2780
 1607SOL    HW216458   2.766   1.481   4.786 -0.4597  1.6196  0.5195
 1608SOL     OW16459   0.086   3.251   2.796  0.2591 -0.0434  0.2933
 1608SOL    HW116460   0.175   3.286   2.800  0.2525  0.1082 -0.7801
 1608SOL    HW216461   0.108   3.159   2.781  0.5081  0.1951 -0.8109
 1609SOL     OW16462   1.913   3.106   6.647 -0.0772 -0.0305  0.1087
 1609SOL    HW116463   1.915   3.031   6.706  0.1801  0.0719  0.2276
 1609SOL    HW216464   1.873   3.078   6.564  1.8970  0.2644 -0.9450
 1610SOL     OW16465   1.101   1.185   4.362 -0.0634 -0.2285 -0.5391
 1610SOL    HW116466   1.032   1.119   4.366 -0.7064  0.5253  0.7870
 1610SOL    HW216467   1.063   1.251   4.420  1.7373  0.2960  0.0456
 1611SOL     OW16468   1.315   1.013   0.246  0.1816  0.1936 -0.4431
 1611SOL    HW116469   1.274   0.972   0.322 -1.3466 -0.6887 -1.7498
 1611SOL    HW216470   1.331   1.099   0.287  1.5940  0.5026 -1.6376
 1612SOL     OW16471   1.477   4.364   8.458  0.6075  0.5758  0.7467
 1612SOL    HW116472   1.478   4.320   8.373 -0.5579 -0.4167  1.2640
 1612SOL    HW216473   1.397   4.328   8.494  1.5332 -2.0611  0.2002
 1613SOL     OW16474   4.284   3.227   7.608  0.4448 -0.0075 -0.1137
 1613SOL    HW116475   4.286   3.196   7.698  1.3769 -0.9367 -0.4479
 1613SOL    HW216476   4.374   3.259   7.597  0.1581  0.1048 -2.1584
 1614SOL     OW16477   0.380   3.445  13.959  0.6560 -0.5028 -0.3655
 1614SOL    HW116478   0.294   3.427  13.997  0.3062  1.1473 -0.3896
 1614SOL    HW216479   0.440   3.380  13.998  2.0246  1.6942  1.2005
 1615SOL     OW16480   1.585   1.099  15.643 -0.0599 -0.0054 -0.3853
 1615SOL    HW116481   1.605   1.171  15.703 -0.4870 -0.5769  0.4522
 1615SOL    HW216482   1.492   1.108  15.623  0.1885  1.2618 -0.9484
 1616SOL     OW16483   2.862   2.670   1.498 -0.4502  0.4412 -0.2293
 1616SOL    HW116484   2.826   2.587   1.529  1.2418  0.4283  1.7431
 1616SOL    HW216485   2.948   2.637   1.471 -1.0875 -1.9265  0.6682
 1617SOL     OW16486   2.960   3.247   3.056  0.1084  0.1927  0.0287
 1617SOL    HW116487   2.880   3.194   3.058  2.0856 -2.8980 -2.0128
 1617SOL    HW216488   2.929   3.337   3.064  0.1197  0.0293  2.0172
 1618SOL     OW16489   0.165   0.150   5.285  0.3027  0.1012  0.2974
 1618SOL    HW116490   0.081   0.139   5.242  0.6884 -0.6677 -0.2628
 1618SOL    HW216491   0.178   0.244   5.277 -0.8397  0.3061  0.9433
 1619SOL     OW16492   2.175   1.070  11.672  0.2456  0.3771  0.8857
 1619SOL    HW116493   2.221   1.134  11.617  0.2023  0.1607  0.5976
 1619SOL    HW216494   2.110   1.125  11.715  1.3884  1.8461  0.7228
 1620SOL     OW16495   2.939   2.088   6.526 -0.7492  0.4389  0.1066
 1620SOL    HW116496   2.960   2.096   6.619  0.8132 -1.0970 -0.1205
 1620SOL    HW216497   2.893   2.172   6.520 -1.3462  0.0475 -0.8984
 1621SOL     OW16498   2.126   3.267   7.412  0.4055 -0.2188 -0.0332
 1621SOL    HW116499   2.188   3.198   7.388 -0.0118 -1.4587  2.4821
 1621SOL    HW216500   2.127   3.252   7.507 -3.1976 -0.5532 -0.0612
 1622SOL     OW16501   2.493   2.529   5.140  0.0412 -0.3690  0.5521
 1622SOL    HW116502   2.496   2.450   5.086 -0.6713 -0.0285  0.0069
 1622SOL    HW216503   2.577   2.523   5.184  0.8022  0.0452 -0.8258
 1623SOL     OW16504   2.620   2.201   6.937 -0.4936  0.3358 -0.0633
 1623SOL    HW116505   2.560   2.139   6.978 -1.1974  1.1433  0.1257
 1623SOL    HW216506   2.580   2.197   6.850  0.6291 -2.0512 -0.4663
 1624SOL     OW16507   3.278   0.875   3.573 -0.3324  0.0139  0.3791
 1624SOL    HW116508   3.239   0.882   3.661 -1.5845  2.3144 -0.3569
 1624SOL    HW216509   3.371   0.867   3.594 -0.3059  1.3948  0.7795
 1625SOL     OW16510   0.475   0.387   8.419 -0.4422 -0.1422  0.0414
 1625SOL    HW116511   0.570   0.374   8.421 -0.4493 -0.2530 -0.3090
 1625SOL    HW216512   0.445   0.298   8.397 -0.8870 -0.2955  1.2566
 1626SOL     OW16513   3.427   3.643   1.084 -0.2155  0.5537 -0.2446
 1626SOL    HW116514   3.367   3.605   1.148  0.8445 -0.4603  0.1338
 1626SOL    HW216515   3.381   3.633   1.000 -0.1982 -0.5682 -0.1138
 1627SOL     OW16516   2.711   2.357  13.693 -0.6592 -0.2614  0.2461
 1627SOL    HW116517   2.708   2.438  13.743  4.2727 -0.2634  0.4916
 1627SOL    HW216518   2.669   2.392  13.614  1.6724  0.5237 -0.6434
 1628SOL     OW16519   3.753   0.019   3.888 -0.0239 -0.7612 -0.0118
 1628SOL    HW116520   3.759   4.675   3.843 -0.4333  0.4326 -2.3260
 1628SOL    HW216521   3.691   0.057   3.824 -1.4940 -0.8329  1.3607
 1629SOL     OW16522   4.027   1.328   0.174  0.8534  0.2057 -0.9304
 1629SOL    HW116523   4.117   1.356   0.155  0.2979  0.3239 -3.2754
 1629SOL    HW216524   4.000   1.326   0.083 -1.2376 -2.0954 -0.2358
 1630SOL     OW16525   0.151   0.531   7.789  0.6413  0.5494 -0.3263
 1630SOL    HW116526   0.124   0.509   7.700  0.9593  1.0170 -0.5380
 1630SOL    HW216527   0.139   0.446   7.831  1.0321  1.0960  0.9057
 1631SOL     OW16528   3.333   1.573   7.901 -0.7047  0.6162  0.0615
 1631SOL    HW116529   3.270   1.501   7.906  0.7924 -0.6079  1.6758
 1631SOL    HW216530   3.273   1.642   7.928  0.1085  1.1579  0.4742
 1632SOL     OW16531   4.703   4.057   1.320 -0.5244 -0.2855 -0.2256
 1632SOL    HW116532   4.713   4.078   1.413 -2.3052  1.0184 -0.3288
 1632SOL    HW216533   0.032   4.118   1.293 -0.4117  0.9330  2.7402
 1633SOL     OW16534   0.038   1.119   2.565 -0.3547 -0.1259 -0.4755
 1633SOL    HW116535   0.002   1.040   2.606 -0.4073 -0.2767 -0.8102
 1633SOL    HW216536   0.089   1.141   2.642 -1.4237 -0.4242  0.3306
 1634SOL     OW16537   0.622   4.402  13.142  0.2735  0.0390 -0.0231
 1634SOL    HW116538   0.714   4.378  13.127 -0.3429 -1.7393 -1.0689
 1634SOL    HW216539   0.580   4.330  13.095  2.9380 -1.3399 -0.2967
 1635SOL     OW16540   0.085   2.440   4.608 -0.0428 -0.8210 -0.5320
 1635SOL    HW116541   0.093   2.447   4.513  1.2097  0.0620 -0.3553
 1635SOL    HW216542   0.083   2.345   4.624  1.5840 -0.7932 -0.1067
 1636SOL     OW16543   0.177   1.163   1.313  0.3099 -0.5146 -0.7340
 1636SOL    HW116544   0.091   1.150   1.271  0.4015  1.4563 -1.5136
 1636SOL    HW216545   0.170   1.137   1.405  3.8570  3.6593  0.6724
 1637SOL     OW16546   4.273   1.468   0.231  0.0052  0.4832 -0.2533
 1637SOL    HW116547   4.222   1.545   0.206  1.5081  1.9576  1.2456
 1637SOL    HW216548   4.343   1.474   0.166  1.0722 -2.0709  0.6611
 1638SOL     OW16549   1.466   1.260   4.810 -0.1846 -0.3370 -0.2116
 1638SOL    HW116550   1.405   1.333   4.801  0.4405  0.3604  1.1509
 1638SOL    HW216551   1.426   1.196   4.751 -0.3846 -0.9602  0.5976
 1639SOL     OW16552   4.211   2.716   5.622 -0.4212 -0.3957 -0.3075
 1639SOL    HW116553   4.264   2.771   5.680 -0.9286 -0.7213  0.4625
 1639SOL    HW216554   4.241   2.741   5.534  1.3682 -1.4817  0.0125
 1640SOL     OW16555   0.176   2.219   6.031  0.2258 -0.7775 -0.6809
 1640SOL    HW116556   0.083   2.203   6.021 -0.0349 -0.0764  0.6337
 1640SOL    HW216557   0.195   2.172   5.949 -0.6695 -2.0567 -0.1499
 1641SOL     OW16558   4.531   3.043   4.990 -0.0978  0.1000  0.0790
 1641SOL    HW116559   4.438   3.035   5.008 -0.0640  1.5144  0.8872
 1641SOL    HW216560   4.562   2.989   5.063  0.6016  0.9445  0.4013
 1642SOL     OW16561   2.969   4.702   8.825  0.4027  0.3815 -0.1012
 1642SOL    HW116562   3.019   0.042   8.844  1.5714 -0.6386  1.0936
 1642SOL    HW216563   2.882   4.727   8.854 -0.0339 -1.3214  0.0438
 1643SOL     OW16564   3.489   3.931   8.738  0.4447 -0.4253 -0.0961
 1643SOL    HW116565   3.537   3.886   8.806 -0.5959  1.6831  2.0412
 1643SOL    HW216566   3.557   3.984   8.695 -0.6126 -0.9810 -2.4369
 1644SOL     OW16567   3.052   2.304   1.605 -0.0236 -0.0325 -0.5545
 1644SOL    HW116568   2.961   2.279   1.624  0.5562 -1.3986  0.4250
 1644SOL    HW216569   3.087   2.275   1.689 -0.0695  1.9951  0.1456
 1645SOL     OW16570   3.541   1.211   5.545 -0.5700 -0.2794 -0.0206
 1645SOL    HW116571   3.614   1.163   5.583  0.2615  2.0923  1.3959
 1645SOL    HW216572   3.561   1.207   5.451 -1.7026 -0.3268 -0.2647
 1646SOL     OW16573   3.188   0.581   9.877  0.3081  0.0088 -0.0903
 1646SOL    HW116574   3.125   0.646   9.847  0.6302 -0.2377 -1.2911
 1646SOL    HW216575   3.254   0.630   9.926  1.3726  0.5805 -2.0791
 1647SOL     OW16576   3.557   3.266   4.386  0.3590  0.4069  0.4889
 1647SOL    HW116577   3.560   3.258   4.290 -0.7568 -0.5680  0.5406
 1647SOL    HW216578   3.647   3.292   4.404  1.5217 -2.3699 -1.4025
 1648SOL     OW16579   0.827   1.512  17.428 -0.3056  0.0662 -0.6567
 1648SOL    HW116580   0.746   1.477  17.464 -0.7771  0.6578 -1.1500
 1648SOL    HW216581   0.839   1.468  17.344  0.0387 -1.3400  0.1306
 1649SOL     OW16582   0.864   2.891  17.562  0.2568  0.5696  0.7392
 1649SOL    HW116583   0.777   2.926  17.543  0.2206 -0.4947 -1.1493
 1649SOL    HW216584   0.919   2.969  17.567  0.1121  0.8493 -1.9770
 1650SOL     OW16585   1.644   2.552   5.316 -0.1070 -0.1316  0.0262
 1650SOL    HW116586   1.663   2.489   5.246  1.1476  0.6675 -0.3631
 1650SOL    HW216587   1.693   2.518   5.391 -0.2043 -1.6056 -0.5797
 1651SOL     OW16588   3.358   3.967  11.884  0.0876 -0.0279  0.2584
 1651SOL    HW116589   3.420   3.894  11.875  1.3308  0.8297  1.8321
 1651SOL    HW216590   3.281   3.910  11.885  1.3985 -1.8042  0.4492
 1652SOL     OW16591   2.069   1.072  10.580  0.3680  0.6028 -0.2441
 1652SOL    HW116592   2.024   1.073  10.664 -0.7225  0.1547 -0.8225
 1652SOL    HW216593   1.993   1.062  10.522 -0.4423 -0.2925  0.9695
 1653SOL     OW16594   4.184   3.492   3.400 -0.1758  0.3229  0.1457
 1653SOL    HW116595   4.126   3.499   3.476  0.9846 -1.9851  1.2279
 1653SOL    HW216596   4.137   3.544   3.334  0.5026 -1.0964 -1.4633
 1654SOL     OW16597   1.709   2.877   5.051 -0.2604 -0.4630 -0.2290
 1654SOL    HW116598   1.642   2.886   4.983  1.3453  1.0940 -1.6437
 1654SOL    HW216599   1.704   2.958   5.103  1.5733 -1.3280  1.2980
 1655SOL     OW16600   2.953   4.427   4.010  0.4006 -0.0169 -0.8204
 1655SOL    HW116601   2.871   4.444   3.964  0.5275  2.2256 -0.2007
 1655SOL    HW216602   2.929   4.443   4.101 -0.8009  0.3490 -1.2117
 1656SOL     OW16603   3.401   3.126   7.090 -0.7355  0.0017  0.6774
 1656SOL    HW116604   3.307   3.132   7.108 -0.7313 -0.7473  0.9363
 1656SOL    HW216605   3.418   3.189   7.020  0.6945 -1.5098 -0.3467
 1657SOL     OW16606   1.094   0.144   4.952  0.0427 -0.3781 -0.2431
 1657SOL    HW116607   1.045   0.127   5.033  0.5193 -0.0968  0.1111
 1657SOL    HW216608   1.047   0.085   4.894 -1.9976 -1.7015  2.7703
 1658SOL     OW16609   4.722   2.503  15.555 -0.2706  0.2746 -0.1053
 1658SOL    HW116610   4.639   2.530  15.514  0.0710  0.9909 -0.3275
 1658SOL    HW216611   0.028   2.587  15.559 -1.0667  0.7021  0.1147
 1659SOL     OW16612   4.199   2.861   1.591  0.2416 -0.5681 -0.3298
 1659SOL    HW116613   4.116   2.885   1.549  1.3436  0.9172 -1.6577
 1659SOL    HW216614   4.170   2.818   1.671 -2.8958  2.1283 -0.0317
 1660SOL     OW16615   1.531   1.703  14.802  0.1488  0.0516 -0.2152
 1660SOL    HW116616   1.580   1.621  14.797  1.0870  0.7424 -2.1785
 1660SOL    HW216617   1.549   1.741  14.716  1.6176  0.1768  0.1389
 1661SOL     OW16618   1.109   2.446   7.623  0.1024  0.0799 -0.5069
 1661SOL    HW116619   1.051   2.514   7.656  4.3754  3.0052  0.9656
 1661SOL    HW216620   1.200   2.477   7.625  1.0499 -2.6951 -0.0554
 1662SOL     OW16621   1.502   2.364   1.599  0.4888  0.5786 -0.1848
 1662SOL    HW116622   1.489   2.456   1.622 -1.1294  0.2269  0.2978
 1662SOL    HW216623   1.528   2.373   1.507  3.5322 -0.5105  0.5483
 1663SOL     OW16624   3.758   2.419   3.750  0.8131 -0.7600 -0.6560
 1663SOL    HW116625   3.731   2.353   3.815 -1.0958  1.0959  0.4419
 1663SOL    HW216626   3.684   2.479   3.754  1.4109 -0.0962  0.4822
 1664SOL     OW16627   3.105   0.615   5.897 -0.2589  0.1092  0.1777
 1664SOL    HW116628   3.180   0.604   5.956  0.9798  1.6586 -1.0986
 1664SOL    HW216629   3.087   0.709   5.894 -1.4305 -0.0462  3.1665
 1665SOL     OW16630   0.872   1.664   6.502 -0.2087  0.1752 -0.2882
 1665SOL    HW116631   0.935   1.600   6.533 -0.4542  0.3558  0.5718
 1665SOL    HW216632   0.793   1.614   6.479 -0.7377  1.1345 -0.5785
 1666SOL     OW16633   3.029   0.027   3.957  0.1765 -0.1103 -0.1805
 1666SOL    HW116634   3.001   4.726   4.039 -0.2490 -1.5135 -1.0157
 1666SOL    HW216635   2.965   0.097   3.944  0.0897 -0.0421  0.6218
 1667SOL     OW16636   1.667   0.706   6.771  0.1379  0.0379 -0.6993
 1667SOL    HW116637   1.741   0.736   6.719 -0.5653  0.6807 -1.3352
 1667SOL    HW216638   1.646   0.781   6.826 -2.3444 -2.5760  1.9029
 1668SOL     OW16639   3.379   4.509   9.247  0.1365  0.1440 -0.5772
 1668SOL    HW116640   3.343   4.576   9.190 -1.1623  0.1461  0.2481
 1668SOL    HW216641   3.381   4.557   9.330 -1.2209 -0.1122 -0.3864
 1669SOL     OW16642   2.138   4.583  11.485  0.4234  0.4273 -0.3149
 1669SOL    HW116643   2.170   4.495  11.500  1.4079  0.4023 -2.6497
 1669SOL    HW216644   2.096   4.569  11.400 -2.3210  0.3785  1.0240
 1670SOL     OW16645   0.473   1.524   2.884  0.3984 -0.5676  0.3651
 1670SOL    HW116646   0.441   1.493   2.799 -0.4410  2.6724 -0.5052
 1670SOL    HW216647   0.392   1.522   2.935 -0.5606 -0.1196 -1.1252
 1671SOL     OW16648   1.104   2.712   9.136  0.2010  0.2227 -0.9829
 1671SOL    HW116649   1.172   2.679   9.195 -0.3740  0.8666  0.0497
 1671SOL    HW216650   1.144   2.717   9.049  1.0382 -0.6061 -0.6451
 1672SOL     OW16651   4.311   3.646   3.133 -0.1330  0.0956 -0.1358
 1672SOL    HW116652   4.235   3.596   3.106 -2.0576  1.9477  1.9051
 1672SOL    HW216653   4.366   3.577   3.169 -0.1245  1.1658  1.9179
 1673SOL     OW16654   3.691   1.043   3.983 -0.2754  0.3917 -0.4343
 1673SOL    HW116655   3.751   1.069   4.053 -0.4638 -2.6191  0.8330
 1673SOL    HW216656   3.610   1.013   4.023 -0.4186  1.3055 -0.0285
 1674SOL     OW16657   4.116   4.112   9.220 -0.5616  0.6803 -0.2127
 1674SOL    HW116658   4.149   4.180   9.278  1.2280  1.1207 -1.7558
 1674SOL    HW216659   4.077   4.051   9.283  0.9847  1.6106  1.6350
 1675SOL     OW16660   2.341   0.279  11.310  1.0032  0.3474  0.1660
 1675SOL    HW116661   2.435   0.299  11.312  0.5324  2.6479 -0.4407
 1675SOL    HW216662   2.342   0.197  11.360 -0.5847 -0.2961 -0.8543
 1676SOL     OW16663   0.545   1.572  11.250 -0.2015  0.1101  0.1846
 1676SOL    HW116664   0.531   1.611  11.336  1.8275 -0.3499  0.7198
 1676SOL    HW216665   0.640   1.560  11.257 -0.4833 -0.2664  3.2853
 1677SOL     OW16666   1.338   2.712   4.477  0.1582  0.1642  0.0710
 1677SOL    HW116667   1.421   2.703   4.431 -0.4247  0.0400 -0.9377
 1677SOL    HW216668   1.374   2.747   4.559  1.2950 -2.0382  0.5227
 1678SOL     OW16669   0.606   1.156   3.696  0.0934  0.2545  0.2985
 1678SOL    HW116670   0.516   1.131   3.675  0.2654  1.2867 -1.6533
 1678SOL    HW216671   0.601   1.250   3.716  0.5721  0.0699  1.2957
 1679SOL     OW16672   1.750   0.804  10.973  0.1205  0.5484 -0.2277
 1679SOL    HW116673   1.766   0.869  10.905  2.9008  0.5762  0.4811
 1679SOL    HW216674   1.661   0.776  10.953  0.4726  1.6502 -3.2330
 1680SOL     OW16675   3.545   2.617   6.487  0.2005  0.2580 -0.1692
 1680SOL    HW116676   3.476   2.675   6.520 -1.0586 -1.8857  0.9813
 1680SOL    HW216677   3.610   2.621   6.557 -2.1332 -1.7284  2.1169
 1681SOL     OW16678   4.147   0.720   4.353 -0.4257 -0.6359 -0.2168
 1681SOL    HW116679   4.124   0.753   4.440 -1.4214 -0.8137 -0.4230
 1681SOL    HW216680   4.100   0.785   4.301 -1.1299 -0.1721  0.9976
 1682SOL     OW16681   2.578   0.367   1.969 -0.3079  0.3263  0.6209
 1682SOL    HW116682   2.537   0.287   1.936  1.3468  0.0181 -0.6801
 1682SOL    HW216683   2.656   0.362   1.914  1.1676 -0.2101  2.7860
 1683SOL     OW16684   4.271   3.086   2.982 -0.0192  0.2627  0.0229
 1683SOL    HW116685   4.292   3.145   2.910 -0.0505  0.5062  0.2132
 1683SOL    HW216686   4.177   3.099   2.984 -0.3557 -1.9024 -1.3408
 1684SOL     OW16687   3.242   4.409   0.732  0.0983 -0.0884  0.3751
 1684SOL    HW116688   3.155   4.368   0.725  0.5130 -0.7421 -0.9804
 1684SOL    HW216689   3.283   4.372   0.654 -0.5928 -0.3713  0.1414
 1685SOL     OW16690   0.879   0.528   0.261 -0.7969 -0.3763  0.0121
 1685SOL    HW116691   0.966   0.493   0.278 -1.8317 -1.5607  2.8597
 1685SOL    HW216692   0.869   0.538   0.167 -0.6224 -2.5504 -0.2418
 1686SOL     OW16693   3.061   4.089   7.114 -0.3466  0.3570 -0.0520
 1686SOL    HW116694   3.057   4.182   7.137  2.2049 -0.0324  1.9265
 1686SOL    HW216695   3.151   4.077   7.085  0.0083 -0.0960  1.2313
 1687SOL     OW16696   3.098   0.796   9.428  0.0733 -0.1030  0.4325
 1687SOL    HW116697   3.009   0.812   9.460 -0.2549  0.3467 -0.6910
 1687SOL    HW216698   3.146   0.817   9.508 -1.0316 -0.6290  1.2430
 1688SOL     OW16699   2.294   3.869   3.607 -0.3193  0.1811 -0.4034
 1688SOL    HW116700   2.268   3.787   3.649  0.7356 -0.5089 -1.0965
 1688SOL    HW216701   2.312   3.927   3.681  1.9975 -1.8412  0.6610
 1689SOL     OW16702   4.342   0.580   5.170 -0.6064 -0.1278 -0.3803
 1689SOL    HW116703   4.329   0.669   5.203 -1.1031 -0.6596  0.8444
 1689SOL    HW216704   4.334   0.598   5.076 -0.2770  0.6961 -0.2480
 1690SOL     OW16705   0.146   4.570   5.130 -0.1240 -0.4088  0.0718
 1690SOL    HW116706   0.053   4.553   5.117  0.0264  0.6424 -2.3309
 1690SOL    HW216707   0.152   4.553   5.224  0.4878 -2.8085 -0.4098
 1691SOL     OW16708   3.744   1.315   4.241 -0.6383  0.1780  0.1638
 1691SOL    HW116709   3.653   1.328   4.214 -0.5923 -0.3896 -0.2558
 1691SOL    HW216710   3.774   1.406   4.249  0.2567 -0.1886  0.9707
 1692SOL     OW16711   2.610   3.564   9.392  0.6271  0.4488  0.1117
 1692SOL    HW116712   2.677   3.616   9.438  1.3222 -1.0705  0.8404
 1692SOL    HW216713   2.618   3.596   9.302 -0.8729  1.3499  0.2939
 1693SOL     OW16714   1.620   3.512  12.143  0.1682  0.5709 -0.0001
 1693SOL    HW116715   1.665   3.584  12.187  2.3472 -1.0419  0.4190
 1693SOL    HW216716   1.558   3.551  12.082 -0.0864 -2.1289 -1.4730
 1694SOL     OW16717   1.756   2.257   5.859 -0.5230  0.0846 -0.1424
 1694SOL    HW116718   1.841   2.261   5.903 -0.5600  1.7563 -0.2253
 1694SOL    HW216719   1.695   2.268   5.932 -1.2930  0.3038 -0.8150
 1695SOL     OW16720   3.650   2.648   2.134 -0.0848  0.2621 -0.1788
 1695SOL    HW116721   3.700   2.625   2.055  0.0074 -3.3026  0.9169
 1695SOL    HW216722   3.638   2.742   2.121  1.0583  0.2167 -1.6995
 1696SOL     OW16723   1.519   0.506  15.851 -0.0018 -0.1683  0.1852
 1696SOL    HW116724   1.585   0.474  15.790  0.6368 -1.5650  1.6143
 1696SOL    HW216725   1.468   0.427  15.872 -0.0393 -0.3458 -0.5529
 1697SOL     OW16726   2.349   1.170   7.958 -0.1716 -0.5083 -0.0891
 1697SOL    HW116727   2.261   1.135   7.970  0.0433 -0.2735  2.1477
 1697SOL    HW216728   2.383   1.106   7.894  0.2976  1.7672 -2.1183
 1698SOL     OW16729   1.772   0.466  10.086 -0.0018 -0.2011  0.2835
 1698SOL    HW116730   1.685   0.446  10.052 -0.0369  0.1682  0.1511
 1698SOL    HW216731   1.759   0.469  10.181  2.3064  2.0390  0.5477
 1699SOL     OW16732   3.385   4.376   7.237  0.2420  0.1265  0.1409
 1699SOL    HW116733   3.414   4.376   7.146 -0.4834 -1.4294 -0.0814
 1699SOL    HW216734   3.290   4.368   7.223  0.1307  1.1191  0.3572
 1700SOL     OW16735   1.848   1.952   3.839 -0.1106 -0.0300 -0.2538
 1700SOL    HW116736   1.759   1.929   3.868 -0.3022  0.6030 -0.3305
 1700SOL    HW216737   1.906   1.935   3.913  1.2446  3.2339 -0.5601
 1701SOL     OW16738   0.042   2.312  12.346  0.7900  0.0996 -0.3511
 1701SOL    HW116739   0.125   2.273  12.372 -1.5557 -2.7028  3.0151
 1701SOL    HW216740   4.732   2.328  12.426 -0.3726 -0.5364 -0.9305
 1702SOL     OW16741   4.611   2.689   3.241  0.0206 -0.2127  0.4112
 1702SOL    HW116742   4.580   2.599   3.231 -1.7415  0.3180  1.0268
 1702SOL    HW216743   4.653   2.705   3.157 -1.5356  0.6725 -0.1973
 1703SOL     OW16744   2.480   2.244  11.883 -0.0380  0.3076  0.2448
 1703SOL    HW116745   2.574   2.259  11.877 -0.0928  0.9909  1.1188
 1703SOL    HW216746   2.451   2.286  11.964  1.4416  0.8957  0.4760
 1704SOL     OW16747   1.615   2.174  11.197  0.1680  0.2237 -0.1549
 1704SOL    HW116748   1.705   2.149  11.215  0.7769  0.6705 -2.5429
 1704SOL    HW216749   1.604   2.157  11.103  4.9150 -1.8930 -0.3125
 1705SOL     OW16750   2.525   1.340   3.195  0.3077  0.4835  0.4976
 1705SOL    HW116751   2.545   1.261   3.145  1.8754  0.7418  0.7066
 1705SOL    HW216752   2.469   1.380   3.128 -1.2185  0.0798  1.5422
 1706SOL     OW16753   2.782   3.079   0.914  0.2283  0.1995 -0.5212
 1706SOL    HW116754   2.743   3.143   0.855  1.0094  0.7126 -0.4796
 1706SOL    HW216755   2.802   3.007   0.854 -2.6753 -0.3303 -0.8275
 1707SOL     OW16756   0.262   3.310  12.044 -0.1459 -0.6846  0.2364
 1707SOL    HW116757   0.310   3.327  12.125  1.8008 -0.6546 -0.9044
 1707SOL    HW216758   0.265   3.393  11.996 -1.6051 -0.8165 -0.0900
 1708SOL     OW16759   0.235   0.968  10.730  0.5495 -0.4274  0.6394
 1708SOL    HW116760   0.208   0.951  10.820  0.3298  0.9524  0.8323
 1708SOL    HW216761   0.329   0.989  10.733  0.2628  1.0055  0.0317
 1709SOL     OW16762   3.067   3.686   5.281 -0.2700  0.1774 -0.5950
 1709SOL    HW116763   3.112   3.698   5.364 -0.7911  2.1926 -0.6144
 1709SOL    HW216764   3.020   3.604   5.296  0.9373 -0.2558  0.8132
 1710SOL     OW16765   3.601   1.897   5.396  0.0723 -0.1665 -0.3545
 1710SOL    HW116766   3.627   1.971   5.342  1.0705 -0.0095  0.3159
 1710SOL    HW216767   3.610   1.814   5.350 -0.9428 -1.5222  1.8668
 1711SOL     OW16768   0.649   1.376   0.773  0.0106  0.3524 -0.2522
 1711SOL    HW116769   0.668   1.291   0.813  1.9307  0.6467 -0.5393
 1711SOL    HW216770   0.565   1.392   0.816  0.2885 -0.3927  0.5835
 1712SOL     OW16771   2.164   1.522  17.081  0.4117  0.9822 -0.1624
 1712SOL    HW116772   2.220   1.599  17.092  0.5381  1.0516 -1.2927
 1712SOL    HW216773   2.091   1.551  17.135  0.9769  1.8729  0.1331
 1713SOL     OW16774   1.779   0.486   2.401 -0.1940  0.0413 -0.0995
 1713SOL    HW116775   1.816   0.432   2.331 -0.7291 -0.3130 -0.1095
 1713SOL    HW216776   1.839   0.465   2.472  0.3304 -0.7483 -0.7744
 1714SOL     OW16777   4.652   1.523  12.377  0.2669 -0.4596 -0.1131
 1714SOL    HW116778   4.643   1.474  12.458 -1.2678  2.4377  1.4620
 1714SOL    HW216779   0.007   1.532  12.366  0.1754  0.2657 -0.3018
 1715SOL     OW16780   1.658   3.119   3.058 -0.3365 -0.0765 -0.1869
 1715SOL    HW116781   1.710   3.039   3.047 -0.8247 -0.7332  2.1427
 1715SOL    HW216782   1.569   3.088   3.039 -0.1125 -1.1187  0.4451
 1716SOL     OW16783   2.500   3.335  14.122  0.2561  0.3990  0.1763
 1716SOL    HW116784   2.532   3.376  14.202 -1.0369 -2.6409  2.2729
 1716SOL    HW216785   2.443   3.267  14.159 -1.9015  1.3102 -1.4768
 1717SOL     OW16786   3.310   0.904   7.180 -0.5648 -0.4710  0.2069
 1717SOL    HW116787   3.237   0.957   7.213 -2.1461 -3.9495  2.3144
 1717SOL    HW216788   3.272   0.820   7.208 -2.2400  0.1260 -0.2636
 1718SOL     OW16789   4.412   1.568   2.057  0.0428  0.0678  0.0625
 1718SOL    HW116790   4.337   1.627   2.063 -0.6530 -0.9583  1.4514
 1718SOL    HW216791   4.468   1.613   1.994  0.2812 -2.3268 -1.4464
 1719SOL     OW16792   0.600   4.251   5.581  0.2664  0.3577 -0.1944
 1719SOL    HW116793   0.559   4.277   5.500 -0.0397 -1.8688 -0.7561
 1719SOL    HW216794   0.561   4.165   5.599  2.2984 -0.0856  2.2332
 1720SOL     OW16795   0.427   3.762   8.178 -0.2972 -0.0547 -0.4507
 1720SOL    HW116796   0.366   3.814   8.230 -0.0627  0.3500 -0.5771
 1720SOL    HW216797   0.498   3.728   8.231 -1.7834 -0.8609  1.0138
 1721SOL     OW16798   1.339   0.533   3.034  0.1502 -0.0015 -0.6100
 1721SOL    HW116799   1.390   0.464   3.078 -1.3430 -1.1997 -0.7258
 1721SOL    HW216800   1.273   0.545   3.103  0.9722  2.4585 -0.2684
 1722SOL     OW16801   4.316   0.290   8.375  0.0158  0.2853 -0.2057
 1722SOL    HW116802   4.353   0.356   8.435  1.7171 -1.1651  0.3331
 1722SOL    HW216803   4.373   0.292   8.298  1.8877 -1.2618  1.1383
 1723SOL     OW16804   3.607   1.177  14.141 -0.0486  0.0660  0.5523
 1723SOL    HW116805   3.557   1.258  14.142  2.0729  1.3314  3.2094
 1723SOL    HW216806   3.695   1.208  14.122  0.7592 -0.7135  3.1017
 1724SOL     OW16807   2.276   4.433  15.443  0.2706 -0.4655  0.3002
 1724SOL    HW116808   2.340   4.380  15.395 -1.6107 -0.5311 -2.1518
 1724SOL    HW216809   2.309   4.520  15.421 -2.1022  0.0134 -1.3365
 1725SOL     OW16810   1.404   0.365   5.780 -0.0063 -0.0620  0.0176
 1725SOL    HW116811   1.345   0.358   5.705 -1.2307  4.1975  0.5855
 1725SOL    HW216812   1.436   0.275   5.775  0.4217  0.1881 -1.7335
 1726SOL     OW16813   2.377   3.666  17.208  0.2909  0.0151 -0.3683
 1726SOL    HW116814   2.330   3.740  17.170 -0.3479 -0.6087 -0.8111
 1726SOL    HW216815   2.452   3.655  17.149  1.5247 -0.0727  1.2408
 1727SOL     OW16816   3.922   1.371  15.759 -0.0796  0.0895 -0.1315
 1727SOL    HW116817   3.990   1.359  15.825 -0.0546 -0.8308 -0.3238
 1727SOL    HW216818   3.891   1.281  15.746  0.0882 -0.2232  1.6070
 1728SOL     OW16819   3.807   1.722   5.602  0.1055 -0.0671  0.7465
 1728SOL    HW116820   3.779   1.778   5.674  1.1056  1.2471  0.1107
 1728SOL    HW216821   3.742   1.652   5.604 -2.9377  2.7470  0.6279
 1729SOL     OW16822   4.087   1.007   2.562  0.5455  0.0594 -0.6171
 1729SOL    HW116823   4.137   1.074   2.608 -0.8050  0.7413 -0.1521
 1729SOL    HW216824   4.154   0.986   2.496 -1.5145 -2.3157 -1.9555
 1730SOL     OW16825   0.869   0.686   9.603  0.0629  0.1008 -0.1573
 1730SOL    HW116826   0.842   0.648   9.520 -1.3076 -0.5475  0.5902
 1730SOL    HW216827   0.880   0.605   9.653  1.1431 -0.3141 -1.0640
 1731SOL     OW16828   2.248   0.572   8.375  0.1593  0.3177 -0.1534
 1731SOL    HW116829   2.283   0.523   8.449  1.2143  0.8485 -0.3125
 1731SOL    HW216830   2.210   0.645   8.424 -0.3077 -1.1997  1.7791
 1732SOL     OW16831   2.017   2.254   1.674 -0.3914  0.2125 -0.7760
 1732SOL    HW116832   1.933   2.221   1.705 -0.9758  3.8022  1.4732
 1732SOL    HW216833   2.079   2.208   1.731 -1.8253 -0.4624  0.2387
 1733SOL     OW16834   0.634   1.665   2.079 -0.3667 -0.2838  0.4676
 1733SOL    HW116835   0.610   1.577   2.109  1.8269 -0.8480  0.5858
 1733SOL    HW216836   0.565   1.727   2.104  1.0936  0.6708  2.1306
 1734SOL     OW16837   2.048   4.192   8.861 -0.4229  0.2662  0.1967
 1734SOL    HW116838   2.136   4.209   8.826 -0.1795  1.7330  1.5186
 1734SOL    HW216839   2.028   4.105   8.827 -0.4130  0.5203 -0.4576
 1735SOL     OW16840   4.368   4.490   0.975 -0.0025 -0.0393  0.3786
 1735SOL    HW116841   4.422   4.535   1.040 -0.4814  1.4878 -0.2639
 1735SOL    HW216842   4.281   4.516   1.007 -0.0710 -0.1210  0.2591
 1736SOL     OW16843   3.524   2.030  13.070 -0.2712 -0.0876 -0.0411
 1736SOL    HW116844   3.488   2.118  13.060 -0.0923  0.1237  1.1952
 1736SOL    HW216845   3.611   2.039  13.109  0.3579 -0.7073 -1.3236
 1737SOL     OW16846   3.311   1.363  12.471 -0.1559  0.2210 -0.2057
 1737SOL    HW116847   3.401   1.330  12.481  0.4858  1.9551 -0.2820
 1737SOL    HW216848   3.305   1.428  12.541 -1.3671  2.2449 -2.2301
 1738SOL     OW16849   0.635   1.009   3.094  0.5097 -0.2139  0.3783
 1738SOL    HW116850   0.554   1.040   3.135 -0.2861 -0.7200 -0.8268
 1738SOL    HW216851   0.638   0.914   3.107 -1.1153 -0.2761  0.2864
 1739SOL     OW16852   4.146   1.449  11.629  0.4995 -0.0295 -0.2280
 1739SOL    HW116853   4.221   1.410  11.674  0.6013 -1.8342 -1.9878
 1739SOL    HW216854   4.083   1.464  11.699  1.1228 -2.0191  0.7466
 1740SOL     OW16855   2.507   3.680   7.353  0.4977  0.0868 -0.2356
 1740SOL    HW116856   2.459   3.600   7.333  0.4131  0.6546 -2.3393
 1740SOL    HW216857   2.429   3.733   7.367  0.6596 -0.1061  1.4173
 1741SOL     OW16858   4.710   0.829   0.178  0.3784  0.0226  0.5599
 1741SOL    HW116859   4.666   0.779   0.246 -0.9625  0.6663  0.1840
 1741SOL    HW216860   4.634   0.842   0.120  1.0522 -1.1921 -0.6039
 1742SOL     OW16861   1.862   3.329   4.599 -0.4476 -0.9625  0.1283
 1742SOL    HW116862   1.864   3.271   4.675 -0.7538 -0.8247  0.2398
 1742SOL    HW216863   1.955   3.353   4.599 -0.5314 -0.6438  0.5454
 1743SOL     OW16864   0.251   3.425   3.777  0.4110  0.7751 -0.5133
 1743SOL    HW116865   0.335   3.425   3.822 -0.2043 -1.6396  0.6632
 1743SOL    HW216866   0.220   3.513   3.799 -1.7697 -0.4179  1.2296
 1744SOL     OW16867   2.675   3.305   3.200  0.2430 -0.0305 -0.3187
 1744SOL    HW116868   2.720   3.224   3.176 -1.2487 -1.4686  1.7568
 1744SOL    HW216869   2.738   3.335   3.265 -0.2242 -2.1194  1.1189
 1745SOL     OW16870   0.381   2.644   2.859  0.1296  0.3257 -0.4271
 1745SOL    HW116871   0.301   2.626   2.809 -0.4454 -2.9762  1.6364
 1745SOL    HW216872   0.445   2.611   2.796 -1.6768  1.0383 -2.6164
 1746SOL     OW16873   3.434   0.866   2.201 -0.2168 -0.5802 -0.3278
 1746SOL    HW116874   3.463   0.777   2.183  0.1120  0.2037 -3.7281
 1746SOL    HW216875   3.470   0.917   2.128  0.3517  0.0412  0.3764
 1747SOL     OW16876   2.634   2.406   4.395  0.3350 -0.0522  0.9531
 1747SOL    HW116877   2.558   2.450   4.433 -0.3068 -0.6299  0.3577
 1747SOL    HW216878   2.602   2.396   4.305  1.3804 -0.8682  0.6682
 1748SOL     OW16879   1.938   3.763   5.124  0.5112  0.1713 -0.1830
 1748SOL    HW116880   1.996   3.833   5.155  0.9434  0.3354 -1.3519
 1748SOL    HW216881   1.874   3.809   5.070  0.1744  1.7179  1.5021
 1749SOL     OW16882   0.727   0.574  16.592 -0.3324 -0.3497 -0.3741
 1749SOL    HW116883   0.771   0.489  16.588  0.6161 -0.0097  2.8886
 1749SOL    HW216884   0.776   0.627  16.529 -0.0952 -1.1070 -0.8223
 1750SOL     OW16885   0.028   3.792   6.354 -0.5342 -0.1383 -0.2638
 1750SOL    HW116886   0.072   3.858   6.299  0.0507 -1.6244 -1.5784
 1750SOL    HW216887   4.682   3.833   6.356 -1.4049 -2.0547  0.4026
 1751SOL     OW16888   1.709   1.859   5.847 -0.1782 -0.0453  0.5502
 1751SOL    HW116889   1.620   1.885   5.822  0.0628 -0.0550 -0.3394
 1751SOL    HW216890   1.717   1.923   5.917  2.1615 -1.3244  1.4357
 1752SOL     OW16891   2.979   1.576   7.341  0.1565  0.3175 -0.6860
 1752SOL    HW116892   3.013   1.629   7.268 -1.6769  1.3731 -0.7769
 1752SOL    HW216893   2.979   1.633   7.418  4.0430 -0.7179  0.1056
 1753SOL     OW16894   0.603   0.803   7.001  0.0304  0.0646 -0.4831
 1753SOL    HW116895   0.624   0.820   6.909  2.4183  0.1098  0.0727
 1753SOL    HW216896   0.620   0.710   7.014  2.0914  0.5147 -0.0216
 1754SOL     OW16897   0.474   0.871  11.946  0.3261  0.0230  0.1765
 1754SOL    HW116898   0.517   0.956  11.942 -0.7154  0.5138 -0.7834
 1754SOL    HW216899   0.538   0.800  11.951  0.9143  0.6409  1.1493
 1755SOL     OW16900   4.604   4.423   1.840  0.5209  0.1588  0.1210
 1755SOL    HW116901   4.676   4.386   1.789 -0.2037 -1.4161  0.2595
 1755SOL    HW216902   4.594   4.369   1.919 -2.2201  1.8217  0.9269
 1756SOL     OW16903   3.386   0.552   4.862  0.1859 -0.0849  0.2600
 1756SOL    HW116904   3.349   0.463   4.866  0.6475 -0.3644 -1.4852
 1756SOL    HW216905   3.396   0.565   4.956 -0.0400  0.4412  0.2102
 1757SOL     OW16906   0.416   2.144  12.123 -0.3085  0.3479  0.6483
 1757SOL    HW116907   0.444   2.185  12.042 -2.1659 -0.3182 -0.3310
 1757SOL    HW216908   0.468   2.064  12.119 -0.4470  0.2651  0.4974
 1758SOL     OW16909   2.724   2.342   5.460 -0.2460  0.1773 -0.0637
 1758SOL    HW116910   2.662   2.412   5.479  2.2799  1.4542  3.4173
 1758SOL    HW216911   2.793   2.358   5.524 -0.1208 -0.9017  0.0685
 1759SOL     OW16912   0.629   4.280   7.388 -0.2647  0.8165 -0.2261
 1759SOL    HW116913   0.586   4.299   7.304 -1.6144 -0.8154  0.1139
 1759SOL    HW216914   0.601   4.360   7.432  1.0658  0.6691  0.8975
 1760SOL     OW16915   0.120   0.146   8.267 -0.3117 -0.5401 -0.2345
 1760SOL    HW116916   0.076   0.061   8.265 -0.6889 -0.3360 -0.5972
 1760SOL    HW216917   0.073   0.191   8.337  0.4080  0.5980 -0.4927
 1761SOL     OW16918   3.745   0.674  13.716  0.0510 -0.4436  0.2187
 1761SOL    HW116919   3.659   0.650  13.750  0.2816 -0.3928  0.8511
 1761SOL    HW216920   3.748   0.761  13.755  3.4759  0.1575 -1.4340
 1762SOL     OW16921   1.313   2.471  14.588 -0.1133 -0.7059  0.1341
 1762SOL    HW116922   1.262   2.403  14.632 -0.5681 -1.0921 -1.0069
 1762SOL    HW216923   1.242   2.530  14.563  0.9881 -1.3485 -4.4475
 1763SOL     OW16924   2.932   4.722   4.223 -0.0729  0.1188  0.1437
 1763SOL    HW116925   2.947   4.659   4.294 -0.0759  0.0889  0.1181
 1763SOL    HW216926   2.937   0.070   4.259 -0.3951 -0.7076  2.2614
 1764SOL     OW16927   0.596   1.877   3.852 -0.2666 -0.4280 -0.5100
 1764SOL    HW116928   0.550   1.836   3.779  0.4724 -2.1214 -0.0033
 1764SOL    HW216929   0.655   1.946   3.821  0.7492  0.0010  2.4432
 1765SOL     OW16930   3.031   1.048   9.255  0.4739  0.2974 -0.6117
 1765SOL    HW116931   3.050   1.141   9.262 -0.4977  0.3472  1.3082
 1765SOL    HW216932   3.061   1.011   9.338 -1.0751 -0.7144 -0.4925
 1766SOL     OW16933   4.299   4.038   7.205  0.0268  0.3422 -0.0505
 1766SOL    HW116934   4.235   3.978   7.243 -1.4344  1.6286 -0.5145
 1766SOL    HW216935   4.382   3.998   7.232  0.0770 -0.5208 -1.4345
 1767SOL     OW16936   0.338   1.151  11.075 -0.1375  0.1425  0.8804
 1767SOL    HW116937   0.420   1.144  11.027 -0.4320 -1.1844  0.5757
 1767SOL    HW216938   0.361   1.208  11.149 -1.1325  0.5378  0.8944
 1768SOL     OW16939   0.510   1.200   8.885 -0.3350 -0.3422 -0.3265
 1768SOL    HW116940   0.551   1.276   8.925 -0.0443 -0.3727 -0.5647
 1768SOL    HW216941   0.534   1.210   8.792 -0.7033 -1.0041 -0.4921
 1769SOL     OW16942   0.244   2.174   7.277 -0.2601  0.1458  0.5907
 1769SOL    HW116943   0.196   2.171   7.194  0.4418 -2.9713  0.2800
 1769SOL    HW216944   0.230   2.267   7.294  0.6720  0.2653  0.7098
 1770SOL     OW16945   2.449   1.361   0.996 -0.0304  0.3938  0.3110
 1770SOL    HW116946   2.521   1.424   0.994 -1.2876  1.8901  1.6958
 1770SOL    HW216947   2.474   1.294   0.933  1.8531  1.2432  0.1464
 1771SOL     OW16948   4.103   2.068   9.379  0.5047 -0.2704 -0.0264
 1771SOL    HW116949   4.102   2.162   9.399  0.6017 -0.6199  1.5920
 1771SOL    HW216950   4.044   2.059   9.304  0.5710  1.6582 -0.3205
 1772SOL     OW16951   0.018   0.792  11.771  0.1261 -0.4367 -0.1014
 1772SOL    HW116952   4.697   0.863  11.792  0.0384 -1.1589  2.1713
 1772SOL    HW216953   0.086   0.803  11.838  0.4869 -1.4144 -0.3011
 1773SOL     OW16954   0.986   0.505  10.278 -0.1094  0.0259  0.0907
 1773SOL    HW116955   1.029   0.505  10.193  0.7983  1.5919  0.5456
 1773SOL    HW216956   0.927   0.578  10.260  0.4072  1.2248  3.2079
 1774SOL     OW16957   4.404   4.349  11.269  0.2209 -0.0666 -0.3931
 1774SOL    HW116958   4.420   4.383  11.358  3.2637  0.6933 -1.2350
 1774SOL    HW216959   4.456   4.404  11.211 -2.1297  3.1404  0.5135
 1775SOL     OW16960   4.509   1.962  11.755  0.3105 -0.5300  0.0583
 1775SOL    HW116961   4.537   2.011  11.833  0.3259  2.5786 -1.8674
 1775SOL    HW216962   4.543   2.020  11.687 -3.6055  3.1254  1.1883
 1776SOL     OW16963   4.350   3.117  14.775  0.4993 -0.5580 -0.3445
 1776SOL    HW116964   4.322   3.192  14.828 -1.7200 -1.5768 -0.0689
 1776SOL    HW216965   4.306   3.046  14.822  0.5061  0.2385  0.8777
 1777SOL     OW16966   3.883   1.565   4.314 -0.0071 -0.3439 -0.1728
 1777SOL    HW116967   3.867   1.551   4.407  0.4201 -2.1677 -0.3840
 1777SOL    HW216968   3.938   1.643   4.322 -0.4377  0.3381 -3.7539
 1778SOL     OW16969   4.172   0.353   9.285 -0.4024 -0.0367 -0.0481
 1778SOL    HW116970   4.140   0.285   9.225  1.1142 -2.6002  2.0373
 1778SOL    HW216971   4.258   0.323   9.315  0.7452  1.4217 -1.8862
 1779SOL     OW16972   1.207   1.035   7.079  0.3912 -0.4934 -0.0016
 1779SOL    HW116973   1.153   0.970   7.125 -0.9069  1.0484  0.6456
 1779SOL    HW216974   1.206   0.993   6.993  0.6499 -1.0072  0.2466
 1780SOL     OW16975   2.542   2.905  17.711 -0.1335  0.0637 -0.5780
 1780SOL    HW116976   2.459   2.888  17.757 -0.6750 -0.3431 -1.6922
 1780SOL    HW216977   2.604   2.948   0.012 -0.1966 -0.8363  0.1595
 1781SOL     OW16978   2.735   0.644  16.780 -0.3775  0.1458  0.5604
 1781SOL    HW116979   2.732   0.561  16.827 -0.8529 -0.0579  0.1742
 1781SOL    HW216980   2.670   0.699  16.824 -0.8698 -0.8346  1.0670
 1782SOL     OW16981   2.921   3.845   3.082  0.5043 -0.2206 -1.2627
 1782SOL    HW116982   2.873   3.764   3.097  0.0988  0.0694 -1.0143
 1782SOL    HW216983   2.860   3.915   3.103 -0.5647 -0.2949 -4.0835
 1783SOL     OW16984   4.255   0.485  13.093  0.4666 -0.4164  0.6731
 1783SOL    HW116985   4.266   0.576  13.067  0.8737 -0.8547 -0.6843
 1783SOL    HW216986   4.346   0.457  13.098  0.6578  0.1540  0.4429
 1784SOL     OW16987   2.376   4.689   7.911 -0.2959 -0.3775 -0.3097
 1784SOL    HW116988   2.325   4.709   7.833 -0.0424  0.6698 -0.2035
 1784SOL    HW216989   2.315   4.736   7.967  0.1289  0.0533 -0.2077
 1785SOL     OW16990   1.418   2.355  17.577  0.0774  0.1334  0.2318
 1785SOL    HW116991   1.365   2.329  17.652  1.6243 -2.7919  0.2964
 1785SOL    HW216992   1.409   2.285  17.513 -0.4066 -1.8597  2.4803
 1786SOL     OW16993   2.147   0.115   1.928 -0.7477  0.2286  0.4507
 1786SOL    HW116994   2.154   0.020   1.929 -1.1327  0.2064  1.2171
 1786SOL    HW216995   2.126   0.135   2.019 -0.0585 -2.2580  1.1389
 1787SOL     OW16996   1.655   1.533   6.320 -0.0672 -0.0446  0.0610
 1787SOL    HW116997   1.718   1.594   6.359  0.1175 -0.9262  1.1150
 1787SOL    HW216998   1.706   1.506   6.243  0.6933  1.2851  0.0844
 1788SOL     OW16999   3.626   0.850  10.280 -0.2114 -0.1075  0.5711
 1788SOL    HW117000   3.536   0.871  10.303 -0.1295 -1.1103  1.7926
 1788SOL    HW217001   3.685   0.925  10.290 -1.7425  1.2442 -0.5406
 1789SOL     OW17002   3.632   1.629   5.320 -0.1563 -0.5496 -0.1389
 1789SOL    HW117003   3.659   1.585   5.401 -0.3986  1.0172  0.7952
 1789SOL    HW217004   3.564   1.567   5.296 -0.8845 -1.4022  4.1807
 1790SOL     OW17005   2.154   1.620  16.708  0.3469  0.1093 -0.6746
 1790SOL    HW117006   2.234   1.613  16.760 -0.3165  0.4193  0.3957
 1790SOL    HW217007   2.178   1.659  16.624  1.1811  0.7032 -0.1571
 1791SOL     OW17008   1.846   3.567   2.951  0.1659  0.0004 -0.2952
 1791SOL    HW117009   1.932   3.593   2.983  0.8622  0.2133 -2.3452
 1791SOL    HW217010   1.801   3.650   2.940  0.9670  0.7297  1.7905
 1792SOL     OW17011   0.857   0.424   9.721 -0.1593 -0.1911  0.1892
 1792SOL    HW117012   0.935   0.390   9.677 -1.3993 -1.1514 -1.2794
 1792SOL    HW217013   0.806   0.343   9.726  0.1562 -0.3295  1.2118
 1793SOL     OW17014   2.453   4.088  16.100  0.4742 -0.1530 -0.3099
 1793SOL    HW117015   2.520   4.081  16.032  0.3860  1.0808 -0.5274
 1793SOL    HW217016   2.385   4.030  16.066  0.9301 -1.6402  1.2821
 1794SOL     OW17017   4.393   3.229  10.368 -0.1976 -0.5122 -0.2010
 1794SOL    HW117018   4.381   3.322  10.348  0.9819 -0.0352  1.2083
 1794SOL    HW217019   4.332   3.179  10.314 -0.4617  0.9533 -1.2571
 1795SOL     OW17020   1.270   4.666  15.188 -0.3608 -0.0161 -0.0790
 1795SOL    HW117021   1.325   0.005  15.193 -0.0520 -0.1109 -2.0403
 1795SOL    HW217022   1.295   4.626  15.272 -1.1559  0.3351  0.3225
 1796SOL     OW17023   4.687   3.466   2.242 -0.3397 -0.1138 -0.0312
 1796SOL    HW117024   4.671   3.450   2.335 -1.7305 -0.5313 -0.3279
 1796SOL    HW217025   4.634   3.411   2.183  0.2959  1.4675 -2.0783
 1797SOL     OW17026   3.978   2.452   5.940 -0.1259  0.6358  0.0959
 1797SOL    HW117027   4.051   2.470   5.998 -0.2444 -0.8129  0.6815
 1797SOL    HW217028   3.912   2.457   6.009 -0.8097  1.9543 -0.6297
 1798SOL     OW17029   0.300   1.239   4.666 -0.0387 -0.5282 -0.3830
 1798SOL    HW117030   0.276   1.147   4.674 -0.1109 -0.2651  2.2401
 1798SOL    HW217031   0.351   1.252   4.746  1.9073 -0.0019 -1.7118
 1799SOL     OW17032   2.428   0.350   7.242 -0.2504  0.1258 -0.0318
 1799SOL    HW117033   2.396   0.262   7.224 -0.5311  0.6512 -2.0779
 1799SOL    HW217034   2.484   0.376   7.169  1.1144 -0.3867  0.8278
 1800SOL     OW17035   2.615   1.548  16.746  0.2301  0.2837 -1.0373
 1800SOL    HW117036   2.552   1.476  16.745  1.2636 -0.6187  0.2121
 1800SOL    HW217037   2.548   1.617  16.750  0.0864  0.0712  0.1474
 1801SOL     OW17038   2.935   0.674   4.428 -0.3258  0.3910 -0.4795
 1801SOL    HW117039   2.968   0.592   4.392 -1.3549 -1.2217  2.2164
 1801SOL    HW217040   2.876   0.697   4.356 -1.0534 -1.7014 -0.5360
 1802SOL     OW17041   0.098   3.821   1.890  0.2994  0.3993  0.0480
 1802SOL    HW117042   0.046   3.793   1.814  1.4055 -2.5871  0.3915
 1802SOL    HW217043   0.031   3.832   1.957  0.4740 -0.5355  0.3641
 1803SOL     OW17044   2.098   0.851  12.493 -0.0280 -0.1915  0.1293
 1803SOL    HW117045   2.172   0.911  12.495  0.0500 -0.1994 -2.7015
 1803SOL    HW217046   2.102   0.793  12.417 -2.7578  0.7185 -0.7118
 1804SOL     OW17047   4.179   1.749   8.413 -0.4119 -0.0610 -0.2860
 1804SOL    HW117048   4.144   1.773   8.499 -1.8867 -3.6924  0.1104
 1804SOL    HW217049   4.190   1.827   8.358 -0.7979  0.2976  0.1500
 1805SOL     OW17050   0.201   2.264  12.651  0.2153  0.5992 -0.3768
 1805SOL    HW117051   0.176   2.274  12.743 -0.5626  1.0257 -0.6450
 1805SOL    HW217052   0.242   2.346  12.625  0.0009  1.0728  0.7788
 1806SOL     OW17053   3.649   0.049   8.021  0.4536  0.2152 -1.1219
 1806SOL    HW117054   3.664   0.141   8.043 -1.2427  1.0450 -3.4670
 1806SOL    HW217055   3.705   0.005   8.084 -3.6288 -1.6255  1.2337
 1807SOL     OW17056   3.670   2.695   1.484 -0.7849 -0.2050 -0.3856
 1807SOL    HW117057   3.577   2.712   1.472 -0.4492  1.0850 -1.1492
 1807SOL    HW217058   3.669   2.610   1.527 -1.8679 -0.4902 -0.9838
 1808SOL     OW17059   4.036   3.331   4.763  0.1977  0.0921  0.1663
 1808SOL    HW117060   4.008   3.271   4.694 -0.4705  3.6848 -2.6719
 1808SOL    HW217061   4.091   3.395   4.719  0.6201 -0.0622  0.4729
 1809SOL     OW17062   3.823   4.404   8.615  0.3774  0.6718  0.0598
 1809SOL    HW117063   3.767   4.384   8.690 -2.6462  0.1693 -2.3196
 1809SOL    HW217064   3.865   4.488   8.635 -0.9614  1.2414  0.4520
 1810SOL     OW17065   0.525   0.417   1.112 -0.2535  0.0666  0.1566
 1810SOL    HW117066   0.472   0.496   1.114 -2.8163 -1.6035 -1.4780
 1810SOL    HW217067   0.581   0.442   1.039  1.7594 -0.0843  1.6550
 1811SOL     OW17068   4.533   1.007   3.725 -0.1928  0.9715  0.0013
 1811SOL    HW117069   4.460   0.947   3.739  0.1132  1.0211  1.8158
 1811SOL    HW217070   4.488   1.086   3.695  1.8562  3.4836  3.4784
 1812SOL     OW17071   3.886   0.992  15.500  0.1219  0.3518  0.3942
 1812SOL    HW117072   3.821   1.024  15.437 -0.4194 -1.3278  0.0980
 1812SOL    HW217073   3.957   0.974  15.439 -0.4879 -2.5305  0.5440
 1813SOL     OW17074   2.749   3.162  11.499 -0.0911  0.2414  0.1102
 1813SOL    HW117075   2.771   3.169  11.406  1.3836  0.5459  0.4796
 1813SOL    HW217076   2.706   3.244  11.522 -1.3342  0.1695 -1.9906
 1814SOL     OW17077   1.566   0.477   9.849  0.4660 -0.0134  0.4450
 1814SOL    HW117078   1.573   0.568   9.876 -0.1339  0.2910 -0.4040
 1814SOL    HW217079   1.516   0.441   9.922  0.8674 -0.2522  0.5981
 1815SOL     OW17080   1.934   0.796   4.692 -0.1945  0.4491  0.9196
 1815SOL    HW117081   1.957   0.861   4.626 -0.7585 -1.5781 -1.2650
 1815SOL    HW217082   1.839   0.792   4.682 -0.2390 -0.1985  1.6036
 1816SOL     OW17083   3.549   0.839   3.660 -0.3858  0.1105 -0.8874
 1816SOL    HW117084   3.610   0.811   3.591 -0.7296  0.0677 -1.1687
 1816SOL    HW217085   3.590   0.923   3.680 -1.4910  0.3356  0.4421
 1817SOL     OW17086   4.206   1.449   9.375 -0.4867  0.7614 -0.4809
 1817SOL    HW117087   4.208   1.504   9.453  0.8823 -0.5446  0.4214
 1817SOL    HW217088   4.299   1.447   9.352 -0.9133 -2.5117 -1.8787
 1818SOL     OW17089   0.257   4.511   7.168 -0.3313  0.2220 -0.5374
 1818SOL    HW117090   0.218   4.585   7.122 -1.3768 -0.5873 -0.9453
 1818SOL    HW217091   0.334   4.549   7.210 -1.5921 -0.0962  2.0391
 1819SOL     OW17092   1.398   1.730   4.953  0.2180  0.3539  0.5023
 1819SOL    HW117093   1.388   1.752   4.861  0.5185 -2.5937 -0.2540
 1819SOL    HW217094   1.483   1.768   4.977  1.5241 -2.0608 -0.2604
 1820SOL     OW17095   4.444   2.305  14.970 -0.1287  0.1036 -0.1592
 1820SOL    HW117096   4.391   2.364  15.024 -1.4315  0.2882 -1.6252
 1820SOL    HW217097   4.374   2.266  14.917 -0.5040 -1.0094  1.1695
 1821SOL     OW17098   1.346   2.739   3.325 -0.4078  0.4011 -0.5129
 1821SOL    HW117099   1.412   2.719   3.258 -0.7016  1.5667 -1.1447
 1821SOL    HW217100   1.321   2.649   3.345  1.2003 -0.0021 -0.2748
 1822SOL     OW17101   1.753   4.020   5.771 -0.3750  0.0668  0.7390
 1822SOL    HW117102   1.780   4.107   5.741 -0.1030 -0.2295  0.1251
 1822SOL    HW217103   1.800   4.010   5.854 -1.2015  1.0076  1.3159
 1823SOL     OW17104   1.206   3.328   9.217  0.1895 -0.5270  0.3785
 1823SOL    HW117105   1.253   3.272   9.155 -0.0859  2.3566 -2.4979
 1823SOL    HW217106   1.173   3.259   9.273  0.7306  1.4974  3.1860
 1824SOL     OW17107   2.964   0.919   6.571 -0.0644  0.1668  0.1023
 1824SOL    HW117108   3.012   0.843   6.605 -0.0059  0.1204 -0.0827
 1824SOL    HW217109   2.914   0.933   6.651 -0.5987 -2.1978  0.1982
 1825SOL     OW17110   0.609   3.339  12.095  0.4390  0.2673 -0.1202
 1825SOL    HW117111   0.643   3.415  12.048 -0.5711  0.2170 -0.9420
 1825SOL    HW217112   0.537   3.369  12.151  0.2783  2.2124 -1.3670
 1826SOL     OW17113   3.599   2.351   7.693  0.0789  0.1322  0.2537
 1826SOL    HW117114   3.539   2.415   7.655 -0.5915  0.0048  1.1028
 1826SOL    HW217115   3.536   2.279   7.694 -0.4730  0.6328  1.1756
 1827SOL     OW17116   4.512   3.889   6.204 -0.1412  0.7605 -0.3452
 1827SOL    HW117117   4.584   3.927   6.154  0.3061  0.0888 -0.2221
 1827SOL    HW217118   4.452   3.960   6.223 -0.5232  0.4974 -0.5539
 1828SOL     OW17119   1.110   2.705  10.080  0.0235 -0.5222 -0.1948
 1828SOL    HW117120   1.045   2.770  10.107 -1.5357 -1.3952 -1.8367
 1828SOL    HW217121   1.186   2.762  10.071  0.0550 -0.9840 -2.7492
 1829SOL     OW17122   4.689   4.685   8.294  0.6817 -0.3172  0.2750
 1829SOL    HW117123   4.672   4.710   8.385  0.3606  2.6886 -0.6406
 1829SOL    HW217124   4.610   4.694   8.240  2.1548  0.1892 -1.8044
 1830SOL     OW17125   3.883   3.991   1.743  0.1582 -0.4676  0.2646
 1830SOL    HW117126   3.867   4.048   1.668 -1.7323 -0.5373  0.6004
 1830SOL    HW217127   3.846   3.909   1.708 -1.5616 -0.1261  1.2634
 1831SOL     OW17128   2.251   3.086   4.662 -0.3524 -0.2200 -0.5731
 1831SOL    HW117129   2.333   3.049   4.630 -0.4737 -1.0205  0.0711
 1831SOL    HW217130   2.280   3.177   4.668  0.3591 -0.4735 -0.2184
 1832SOL     OW17131   2.227   0.715   5.575  0.0772 -0.2873 -0.7931
 1832SOL    HW117132   2.215   0.727   5.669 -0.1186 -0.7614 -0.7619
 1832SOL    HW217133   2.323   0.715   5.575  0.0704 -1.2577 -1.7136
 1833SOL     OW17134   2.709   1.464  11.764 -0.2806  0.3999  0.0300
 1833SOL    HW117135   2.796   1.485  11.797 -0.5245  2.8205 -0.8299
 1833SOL    HW217136   2.721   1.416  11.682  1.6091 -0.2902  0.7207
 1834SOL     OW17137   0.874   2.112   4.386  0.8950  0.0242 -0.8816
 1834SOL    HW117138   0.881   2.028   4.433 -2.0394 -0.6315 -1.6506
 1834SOL    HW217139   0.785   2.099   4.353  1.4330  0.5711 -2.5213
 1835SOL     OW17140   4.352   3.670   3.633 -0.1676  0.1960  0.1763
 1835SOL    HW117141   4.404   3.655   3.555 -1.4305  0.0131 -0.6319
 1835SOL    HW217142   4.357   3.583   3.672 -0.7255 -0.9438 -2.3083
 1836SOL     OW17143   2.351   0.018  11.802 -0.1130  0.5361  0.4226
 1836SOL    HW117144   2.277   4.716  11.845 -0.0731 -1.3405 -1.3045
 1836SOL    HW217145   2.324   0.024  11.710  0.2123 -1.8881  0.1520
 1837SOL     OW17146   1.783   1.500   4.114 -1.0936 -0.3594 -0.2053
 1837SOL    HW117147   1.765   1.428   4.176 -0.5038 -1.1762 -0.9886
 1837SOL    HW217148   1.857   1.546   4.154 -0.8479 -1.1438  0.2625
 1838SOL     OW17149   0.469   1.764   3.616  0.0628 -0.3871 -0.6194
 1838SOL    HW117150   0.381   1.775   3.580 -0.4947  0.8346  1.1047
 1838SOL    HW217151   0.518   1.758   3.534  2.4415  1.3429  0.6955
 1839SOL     OW17152   3.697   2.025   7.656  0.0580  0.6437 -0.0816
 1839SOL    HW117153   3.720   1.939   7.621 -0.5418  2.0563 -4.0051
 1839SOL    HW217154   3.723   2.011   7.747 -0.9746 -0.4115  0.0393
 1840SOL     OW17155   3.084   1.148   7.690 -0.2927  0.1263  0.4689
 1840SOL    HW117156   3.025   1.078   7.661  0.9619 -1.0798  0.8352
 1840SOL    HW217157   3.079   1.210   7.617  2.5045  0.7701  0.8236
 1841SOL     OW17158   0.324   0.585  10.423 -0.6357  0.5572  0.6021
 1841SOL    HW117159   0.319   0.662  10.479  0.8855  2.1005 -1.3757
 1841SOL    HW217160   0.269   0.616  10.351 -1.2625 -2.6869 -0.3143
 1842SOL     OW17161   3.114   2.943   2.973 -0.7844  0.0917 -0.4716
 1842SOL    HW117162   3.107   3.003   2.898 -1.7985  0.2651 -0.2329
 1842SOL    HW217163   3.072   2.860   2.948 -0.7389 -0.4426  1.2828
 1843SOL     OW17164   0.284   2.853   8.016 -0.9383  0.1262  0.2990
 1843SOL    HW117165   0.202   2.883   7.979 -0.9802  1.0035  1.1067
 1843SOL    HW217166   0.263   2.831   8.107 -1.2733 -1.9289 -0.2776
 1844SOL     OW17167   0.928   0.631   8.538  0.3459  0.1686  0.4003
 1844SOL    HW117168   1.017   0.658   8.518  1.3180 -1.2444  2.8587
 1844SOL    HW217169   0.925   0.657   8.630  1.2506  0.9049  0.2148
 1845SOL     OW17170   4.471   2.499   6.833  0.1764 -0.2461  0.3035
 1845SOL    HW117171   4.528   2.439   6.881  0.7529  1.9601  2.3527
 1845SOL    HW217172   4.385   2.481   6.871 -1.0801 -0.6681 -2.7248
 1846SOL     OW17173   2.891   2.970   9.157  0.1035  0.6639  0.0968
 1846SOL    HW117174   2.924   2.944   9.243  0.7043  1.9011  0.2381
 1846SOL    HW217175   2.958   3.030   9.123 -0.2452 -0.6314 -2.8270
 1847SOL     OW17176   2.072   1.660  10.467  0.1683 -1.2892  0.5985
 1847SOL    HW117177   1.992   1.642  10.416 -1.3276  0.2689  2.4065
 1847SOL    HW217178   2.142   1.629  10.409  0.2224  0.2768 -0.1674
 1848SOL     OW17179   1.566   0.848   4.429  0.9353 -0.4076  0.2203
 1848SOL    HW117180   1.476   0.881   4.423  1.3055  0.0653 -3.0054
 1848SOL    HW217181   1.556   0.779   4.362 -2.9086 -1.0161  1.4125
 1849SOL     OW17182   2.886   2.660   9.689  0.2234  0.4473  0.3557
 1849SOL    HW117183   2.836   2.588   9.650 -0.7343  1.7630 -0.8567
 1849SOL    HW217184   2.822   2.711   9.739  0.3760  0.8040  0.1869
 1850SOL     OW17185   0.452   1.808   7.829 -0.0665  0.3833 -0.4858
 1850SOL    HW117186   0.377   1.750   7.831 -0.2161  0.5550 -1.1226
 1850SOL    HW217187   0.497   1.772   7.753  0.3158 -1.8802  0.8165
 1851SOL     OW17188   2.476   1.339   2.136  1.4747 -0.5017 -0.7787
 1851SOL    HW117189   2.515   1.263   2.094 -1.2251 -1.5451 -1.4022
 1851SOL    HW217190   2.481   1.405   2.067  0.0548  0.9451  0.5031
 1852SOL     OW17191   2.668   1.512   8.023  0.5774 -0.4289  0.4548
 1852SOL    HW117192   2.632   1.594   8.056  0.7319 -0.7115  1.3474
 1852SOL    HW217193   2.704   1.464   8.098  0.9509 -2.3130 -0.9228
 1853SOL     OW17194   1.053   3.135  16.054 -0.1137  0.0159  0.3881
 1853SOL    HW117195   1.109   3.183  15.994  0.6823 -0.4186  0.7913
 1853SOL    HW217196   0.987   3.200  16.080  0.6144  0.7586  0.3698
 1854SOL     OW17197   4.731   2.663   4.970  0.0140 -0.5199 -0.1852
 1854SOL    HW117198   4.701   2.621   4.890 -1.8298 -0.5007  0.4934
 1854SOL    HW217199   4.682   2.621   5.040 -1.3194  1.1917 -0.0787
 1855SOL     OW17200   1.488   2.452   3.336 -0.6116 -0.2827 -0.2421
 1855SOL    HW117201   1.441   2.369   3.342  2.1368 -1.7401  1.4399
 1855SOL    HW217202   1.578   2.420   3.329  0.1188  1.0721  2.9103
 1856SOL     OW17203   2.989   4.063   7.481  0.3656  0.1312 -0.0645
 1856SOL    HW117204   3.070   4.071   7.533  1.2379  0.5607 -1.5047
 1856SOL    HW217205   2.982   4.149   7.440  0.8017  1.1434  1.9462
 1857SOL     OW17206   2.449   2.942   4.567  0.6379  0.1018 -0.4812
 1857SOL    HW117207   2.499   2.910   4.641  0.4402  1.3339  0.1820
 1857SOL    HW217208   2.435   2.863   4.514  0.6383 -1.5813  2.0502
 1858SOL     OW17209   1.573   3.792   9.659 -0.0866  0.3650 -0.5683
 1858SOL    HW117210   1.631   3.762   9.729 -0.2205 -0.0545 -0.6359
 1858SOL    HW217211   1.635   3.774   9.589  0.1462  0.2589 -0.3348
 1859SOL     OW17212   3.746   1.815   5.020 -0.8679  0.0662 -0.2715
 1859SOL    HW117213   3.698   1.829   4.938  1.4162 -4.0012 -2.3003
 1859SOL    HW217214   3.704   1.878   5.078 -3.2943 -1.5722 -0.2565
 1860SOL     OW17215   3.929   0.082   2.851 -0.2423 -0.3897  0.3749
 1860SOL    HW117216   3.877   0.136   2.911 -1.7359  0.8382 -1.9857
 1860SOL    HW217217   3.896   0.121   2.769  0.7692 -0.5520 -0.1031
 1861SOL     OW17218   1.144   2.309  14.744  0.4053  0.4539  0.6551
 1861SOL    HW117219   1.061   2.290  14.788 -0.7147 -0.4379 -1.8591
 1861SOL    HW217220   1.189   2.230  14.774  0.3075  0.1577  0.0261
 1862SOL     OW17221   2.633   0.987   7.647  0.3054 -0.4305  0.0334
 1862SOL    HW117222   2.562   0.996   7.710  1.0486  0.7372  0.7094
 1862SOL    HW217223   2.657   1.079   7.632 -0.2226 -0.0510  1.4708
 1863SOL     OW17224   0.367   2.902  16.202  0.3009  0.6161 -0.0398
 1863SOL    HW117225   0.441   2.842  16.211 -1.4915 -2.0069 -2.8189
 1863SOL    HW217226   0.399   2.974  16.256  2.5469  0.5919 -1.3443
 1864SOL     OW17227   2.888   1.290  10.293  0.0466  0.1051 -0.0113
 1864SOL    HW117228   2.901   1.367  10.236  2.1635 -0.0884  0.2083
 1864SOL    HW217229   2.881   1.331  10.379 -2.0699 -3.2488  1.4213
 1865SOL     OW17230   0.451   0.070   9.561 -0.7191  0.1728  0.1904
 1865SOL    HW117231   0.424   4.731   9.608  1.7737 -0.2327  0.9527
 1865SOL    HW217232   0.436   0.145   9.619  1.1089  0.5679  0.1645
 1866SOL     OW17233   2.395   2.022   4.900 -0.0787 -0.3952 -1.1048
 1866SOL    HW117234   2.439   1.948   4.857  0.7760 -0.2426 -0.4988
 1866SOL    HW217235   2.314   2.034   4.851 -0.5190 -2.7477 -0.9944
 1867SOL     OW17236   3.694   0.245   1.965  0.1225 -0.0622 -0.1437
 1867SOL    HW117237   3.789   0.237   1.961 -0.1774 -3.6637  0.0966
 1867SOL    HW217238   3.672   0.161   1.926  0.5542 -0.5058  0.5651
 1868SOL     OW17239   2.492   2.390   6.511 -0.5643  0.1645  0.2257
 1868SOL    HW117240   2.410   2.439   6.515 -0.0572  0.9329  1.3282
 1868SOL    HW217241   2.521   2.443   6.436  0.6761 -1.2886 -0.3192
 1869SOL     OW17242   1.287   1.817   7.555  0.0151 -0.0427 -0.0434
 1869SOL    HW117243   1.258   1.823   7.464 -1.1853  0.7180  0.3907
 1869SOL    HW217244   1.207   1.824   7.606 -0.1003  0.1598 -0.2576
 1870SOL     OW17245   1.457   2.896   1.443  0.6865  0.5300 -0.8698
 1870SOL    HW117246   1.473   2.901   1.537  0.7763  0.5647 -0.8869
 1870SOL    HW217247   1.388   2.830   1.435 -0.0526  1.1904  0.0049
 1871SOL     OW17248   0.548   2.826  12.219  0.0064 -0.3214 -0.0884
 1871SOL    HW117249   0.636   2.828  12.255 -0.3759  0.2203  0.8027
 1871SOL    HW217250   0.501   2.777  12.286  1.8024  1.4535  2.4330
 1872SOL     OW17251   0.382   0.830  17.466  0.0134  0.2042 -0.0965
 1872SOL    HW117252   0.416   0.741  17.452  0.7501  0.4004  0.4414
 1872SOL    HW217253   0.434   0.868  17.396 -0.5795 -0.6610 -1.0097
 1873SOL     OW17254   3.146   2.295   9.109  0.2414 -0.1706 -1.2122
 1873SOL    HW117255   3.120   2.236   9.179 -0.2201  0.0338 -1.2066
 1873SOL    HW217256   3.108   2.377   9.141 -0.6865 -1.1529  0.1860
 1874SOL     OW17257   0.236   0.026  12.699 -0.1943  0.3793 -0.2423
 1874SOL    HW117258   0.151   0.027  12.744  0.3453  0.5988  0.7673
 1874SOL    HW217259   0.293   4.712  12.753 -0.0814  1.6589  0.9031
 1875SOL     OW17260   1.358   4.162   2.264  0.0698 -0.5784  0.1676
 1875SOL    HW117261   1.353   4.137   2.172  0.4999 -0.0713  0.0083
 1875SOL    HW217262   1.374   4.080   2.310  2.2748 -0.7788 -0.9573
 1876SOL     OW17263   1.282   2.124  16.389 -0.0702  0.4720  0.4130
 1876SOL    HW117264   1.345   2.128  16.461  1.2653 -0.9340 -0.6563
 1876SOL    HW217265   1.239   2.209  16.389 -0.1972  0.4127 -0.5433
 1877SOL     OW17266   2.059   0.248  15.637  0.1736  0.4131 -0.2066
 1877SOL    HW117267   2.141   0.280  15.601  0.4524  1.7642  1.6441
 1877SOL    HW217268   2.067   0.259  15.732 -0.6178  2.0046 -0.3311
 1878SOL     OW17269   2.585   3.754   3.895 -0.1760 -0.0883  0.4395
 1878SOL    HW117270   2.490   3.761   3.899 -0.3800 -2.0738 -1.0032
 1878SOL    HW217271   2.612   3.668   3.864 -0.1505 -0.2845  1.0194
 1879SOL     OW17272   3.200   2.297   6.393 -0.6556  0.3664 -0.9808
 1879SOL    HW117273   3.116   2.281   6.350 -0.1206 -1.6968 -1.2662
 1879SOL    HW217274   3.175   2.365   6.455  1.6658  0.7733 -0.5136
 1880SOL     OW17275   3.225   3.080  16.023 -0.1904  0.1153  0.3989
 1880SOL    HW117276   3.202   2.988  16.034 -1.8953  0.1748 -2.7334
 1880SOL    HW217277   3.174   3.096  15.943 -0.1656 -1.2321  0.1189
 1881SOL     OW17278   1.019   2.757  15.899  0.0368  0.0714  0.2852
 1881SOL    HW117279   0.973   2.797  15.826  1.2054 -2.3464 -1.7899
 1881SOL    HW217280   0.999   2.663  15.900 -0.3724  0.1295 -2.4232
 1882SOL     OW17281   4.169   3.502  16.819  0.3221  0.1010  0.1133
 1882SOL    HW117282   4.102   3.446  16.781  0.8985  0.5815 -1.6157
 1882SOL    HW217283   4.122   3.541  16.893  0.3175  0.9887 -0.3587
 1883SOL     OW17284   4.626   2.284  10.586 -0.1230  0.1507  0.3734
 1883SOL    HW117285   4.538   2.258  10.558  0.8755 -0.9281 -1.7408
 1883SOL    HW217286   4.679   2.258  10.511 -2.2080  0.8836 -1.3717
 1884SOL     OW17287   0.619   0.187   4.809  0.2217 -0.0563  0.1947
 1884SOL    HW117288   0.584   0.173   4.897  1.5932  1.3819  0.9705
 1884SOL    HW217289   0.596   0.106   4.764  0.4550  0.0062 -0.0422
 1885SOL     OW17290   0.249   0.311   2.886 -0.1321 -0.2467  0.0059
 1885SOL    HW117291   0.185   0.290   2.953  0.4634  0.0657  0.6743
 1885SOL    HW217292   0.305   0.238   2.913 -1.0116 -0.6968  0.5992
 1886SOL     OW17293   2.425   3.607   5.465 -0.6664  0.4983 -0.3901
 1886SOL    HW117294   2.473   3.690   5.466  0.1468  0.0310 -1.6023
 1886SOL    HW217295   2.487   3.548   5.423 -0.1701 -0.4132  1.5885
 1887SOL     OW17296   4.676   4.306   8.958  0.1364  0.6340  0.0928
 1887SOL    HW117297   4.592   4.275   8.925 -0.0692 -1.4286  2.5457
 1887SOL    HW217298   4.729   4.227   8.963  0.3962  0.9912  3.5648
 1888SOL     OW17299   1.572   1.172   8.385  0.6520 -0.1602 -0.9594
 1888SOL    HW117300   1.581   1.248   8.328 -1.6189  1.2341  0.5561
 1888SOL    HW217301   1.608   1.103   8.328  0.1541  0.3748 -1.9173
 1889SOL     OW17302   0.926   2.244   5.564 -0.1490  0.1681  0.6619
 1889SOL    HW117303   0.912   2.313   5.500  2.7958 -0.4648 -0.6764
 1889SOL    HW217304   0.869   2.281   5.631 -0.6956 -0.7750  0.7216
 1890SOL     OW17305   3.329   2.269  14.649 -0.2618 -0.3233  0.6046
 1890SOL    HW117306   3.244   2.267  14.604 -0.6117 -1.9962  1.3518
 1890SOL    HW217307   3.327   2.189  14.700  0.7742 -0.3639  0.5772
 1891SOL     OW17308   0.264   0.654  12.169  0.3977 -0.1403 -0.3264
 1891SOL    HW117309   0.264   0.576  12.114 -0.9044 -0.4085  0.0572
 1891SOL    HW217310   0.237   0.726  12.112 -1.9218 -2.3660 -2.0314
 1892SOL     OW17311   4.435   1.601   3.217  0.1489 -0.0052 -0.3174
 1892SOL    HW117312   4.530   1.609   3.210  0.2898 -1.2767  0.1122
 1892SOL    HW217313   4.431   1.506   3.230 -3.4060  0.1398 -0.3936
 1893SOL     OW17314   0.104   0.074   2.100  0.0284  0.1297  0.3186
 1893SOL    HW117315   0.117   0.018   2.177 -2.2711  2.5874  2.5216
 1893SOL    HW217316   0.174   0.137   2.119  0.3244  0.8589 -3.2395
 1894SOL     OW17317   1.741   1.868   2.133 -0.0315 -0.6353 -0.5068
 1894SOL    HW117318   1.807   1.808   2.098  1.1520 -0.2859  1.1081
 1894SOL    HW217319   1.703   1.908   2.055  1.6487  0.8102 -0.5812
 1895SOL     OW17320   3.682   2.042   3.054 -0.2980  0.0466 -0.2123
 1895SOL    HW117321   3.617   2.030   3.123 -1.2694  0.0224 -1.1286
 1895SOL    HW217322   3.624   2.055   2.979  0.2792 -0.8048 -0.8113
 1896SOL     OW17323   2.787   2.139   3.761 -0.2796 -0.9885 -0.2033
 1896SOL    HW117324   2.782   2.055   3.807 -0.4285  0.1875  1.8997
 1896SOL    HW217325   2.727   2.194   3.812  1.3024  0.3901  0.1780
 1897SOL     OW17326   3.128   1.159   7.196  0.0260  0.4541 -0.0756
 1897SOL    HW117327   3.049   1.168   7.142  1.6678  0.1884 -2.5289
 1897SOL    HW217328   3.090   1.148   7.283  2.6413 -0.4845  0.9468
 1898SOL     OW17329   3.402   2.769   1.477  0.5599  0.3730 -0.3542
 1898SOL    HW117330   3.336   2.707   1.507  1.6263 -0.4992  0.1691
 1898SOL    HW217331   3.396   2.835   1.546 -0.8028 -3.7164  3.4620
 1899SOL     OW17332   2.827   0.705   7.843 -0.6568 -0.0899  0.0993
 1899SOL    HW117333   2.847   0.790   7.882  2.2111  0.0231 -1.6486
 1899SOL    HW217334   2.766   0.727   7.772  0.0744  1.1552 -0.1537
 1900SOL     OW17335   3.263   2.654   1.718 -0.5537 -0.4764  0.3596
 1900SOL    HW117336   3.232   2.629   1.805 -0.0150  1.6836  1.1920
 1900SOL    HW217337   3.355   2.665   1.740 -0.0687 -1.2611 -1.2963
 1901SOL     OW17338   0.340   3.058   3.715  0.4133  0.8666 -0.0636
 1901SOL    HW117339   0.357   3.140   3.668 -0.0645  0.4922 -0.8932
 1901SOL    HW217340   0.252   3.069   3.752  1.1731  1.1172  1.6833
 1902SOL     OW17341   2.029   2.627  14.646 -0.1855  0.9375  0.0233
 1902SOL    HW117342   2.043   2.704  14.590 -1.2743  0.4819 -0.8510
 1902SOL    HW217343   2.056   2.671  14.727  1.8334 -1.6370  0.7314
 1903SOL     OW17344   2.982   1.879   5.153  0.3082  0.2191 -0.3133
 1903SOL    HW117345   2.921   1.829   5.098 -0.4200 -0.2125  0.8799
 1903SOL    HW217346   2.988   1.969   5.122  1.9607  0.1005 -0.3078
 1904SOL     OW17347   0.194   3.344   8.237 -0.1556 -0.6059 -0.3831
 1904SOL    HW117348   0.204   3.287   8.160 -1.0407 -0.8537 -0.3109
 1904SOL    HW217349   0.282   3.342   8.273 -0.2687  1.5200 -0.0108
 1905SOL     OW17350   0.140   0.281   6.304  0.3524 -0.4619  0.0131
 1905SOL    HW117351   0.153   0.356   6.245 -1.2648 -0.4247 -0.3192
 1905SOL    HW217352   0.094   0.315   6.381 -1.2141 -1.8946 -0.2953
 1906SOL     OW17353   1.770   2.313   4.589  0.2583  0.1614  0.5536
 1906SOL    HW117354   1.687   2.294   4.632  0.4551 -0.1778  0.7829
 1906SOL    HW217355   1.828   2.322   4.664  0.9805 -0.3697  0.0632
 1907SOL     OW17356   1.672   2.043   6.507 -0.0527  0.8685 -0.2583
 1907SOL    HW117357   1.639   2.129   6.481  1.3757  1.3317 -0.5498
 1907SOL    HW217358   1.591   1.994   6.518 -0.2656  1.1230 -0.6581
 1908SOL     OW17359   3.379   3.489  10.839  0.2291 -0.3460 -0.0290
 1908SOL    HW117360   3.450   3.536  10.883 -0.8363  0.8377  0.4112
 1908SOL    HW217361   3.309   3.547  10.868 -0.0798 -0.4604 -0.5386
 1909SOL     OW17362   4.181   0.027   5.934 -0.6212  0.1679 -0.3228
 1909SOL    HW117363   4.152   0.028   5.842  0.6064 -0.4995 -0.7099
 1909SOL    HW217364   4.135   4.696   5.979 -0.1139  0.7641  1.1329
 1910SOL     OW17365   1.934   1.591   7.061  0.8249  0.5262  0.9077
 1910SOL    HW117366   1.946   1.679   7.097  0.7433  1.2208 -0.7675
 1910SOL    HW217367   1.838   1.593   7.058  0.8755 -0.4989 -1.6548
 1911SOL     OW17368   3.082   3.340   6.104 -0.2277 -0.0676  0.8888
 1911SOL    HW117369   3.141   3.368   6.034 -2.2045  0.8043 -0.4557
 1911SOL    HW217370   3.098   3.410   6.168  0.6260  0.1019  0.4941
 1912SOL     OW17371   2.474   3.874   9.390 -1.2073 -0.2923  0.6442
 1912SOL    HW117372   2.496   3.896   9.481 -2.8079  1.3865  0.6285
 1912SOL    HW217373   2.565   3.862   9.363 -1.0478  0.1059  0.9960
 1913SOL     OW17374   1.608   3.224  10.124  0.8344  0.1306  0.0774
 1913SOL    HW117375   1.515   3.222  10.150  0.4572 -1.6295 -1.3826
 1913SOL    HW217376   1.652   3.230  10.209  0.7479 -1.9356  0.2627
 1914SOL     OW17377   3.859   0.382   2.549 -0.5501  0.0342  0.0639
 1914SOL    HW117378   3.943   0.372   2.504 -0.5266  1.4110 -0.1736
 1914SOL    HW217379   3.812   0.441   2.490 -0.7120 -0.8516 -0.6907
 1915SOL     OW17380   4.458   3.986   5.211  0.2926 -0.0464  0.4530
 1915SOL    HW117381   4.484   4.066   5.166 -0.6070  0.9345  1.6657
 1915SOL    HW217382   4.395   3.945   5.152 -0.7677  2.6008 -0.2386
 1916SOL     OW17383   2.433   3.641   3.102 -0.0813  0.0865  0.2075
 1916SOL    HW117384   2.411   3.554   3.067 -1.8414  0.5773  0.1113
 1916SOL    HW217385   2.393   3.621   3.187  2.7153 -0.0331  1.4738
 1917SOL     OW17386   4.251   3.361   5.299  0.1989  0.6099  0.4392
 1917SOL    HW117387   4.328   3.400   5.258  2.1332  0.0037  3.4912
 1917SOL    HW217388   4.242   3.420   5.374 -0.7790  0.7231  0.2336
 1918SOL     OW17389   3.505   4.544  13.858 -0.2447  0.1965  0.1114
 1918SOL    HW117390   3.436   4.495  13.813 -0.7782 -2.2342  3.5703
 1918SOL    HW217391   3.577   4.499  13.815  1.9483  3.4784  0.3422
 1919SOL     OW17392   3.712   0.508   8.365  0.0390  0.6775 -0.1652
 1919SOL    HW117393   3.662   0.429   8.385  0.5391  0.2613 -0.5566
 1919SOL    HW217394   3.676   0.566   8.432  1.7437  1.7090 -0.1317
 1920SOL     OW17395   1.138   2.441   5.464 -0.0136 -0.2865 -0.1039
 1920SOL    HW117396   1.153   2.498   5.539  1.5544 -0.9091  0.0544
 1920SOL    HW217397   1.093   2.504   5.406  2.0376  0.5654 -0.7752
 1921SOL     OW17398   2.938   1.627  13.326 -0.2586 -0.3314 -0.1469
 1921SOL    HW117399   2.846   1.655  13.323 -0.4685 -1.2018 -1.7022
 1921SOL    HW217400   2.945   1.592  13.237 -1.0018  0.0477 -0.3487
 1922SOL     OW17401   2.360   3.114   2.482  0.2446 -0.1016 -0.2047
 1922SOL    HW117402   2.439   3.060   2.481  0.5978  0.3685  1.5285
 1922SOL    HW217403   2.399   3.194   2.448  0.1398 -0.0070 -0.1042
 1923SOL     OW17404   3.104   2.197  12.142 -0.3430 -0.4226 -0.0501
 1923SOL    HW117405   3.160   2.121  12.156  0.5538  0.5070  1.3101
 1923SOL    HW217406   3.012   2.170  12.140 -0.2811 -0.5926 -1.0029
 1924SOL     OW17407   1.368   3.742   6.400  0.6124 -0.1143 -0.3281
 1924SOL    HW117408   1.353   3.835   6.385  0.5892  0.0326  0.6040
 1924SOL    HW217409   1.286   3.724   6.446  0.1647  0.5324 -0.8642
 1925SOL     OW17410   0.155   2.768  16.098  0.2782  0.1866 -0.1127
 1925SOL    HW117411   0.234   2.809  16.132 -0.3786  1.4905 -0.1532
 1925SOL    HW217412   0.123   2.712  16.169  0.5693  0.3722  0.1627
 1926SOL     OW17413   0.056   1.672  12.135 -0.1756 -0.2508  0.1044
 1926SOL    HW117414   0.062   1.765  12.154  0.8562 -0.0391 -1.2841
 1926SOL    HW217415   0.118   1.627  12.193 -0.4312 -0.1494  0.4543
 1927SOL     OW17416   4.187   3.248   9.686  0.0476 -0.2139 -0.3491
 1927SOL    HW117417   4.257   3.304   9.718  0.5027 -0.0968 -1.5340
 1927SOL    HW217418   4.221   3.161   9.706 -0.6961 -0.9155 -2.1393
 1928SOL     OW17419   3.655   4.060   8.552  0.6997 -0.4779 -0.1589
 1928SOL    HW117420   3.600   4.061   8.473 -0.8419 -1.7710  0.9249
 1928SOL    HW217421   3.638   4.148   8.585  0.5444  0.4319 -2.6210
 1929SOL     OW17422   3.030   4.102  14.767 -0.1730 -0.0984 -0.1419
 1929SOL    HW117423   3.078   4.157  14.706  0.0857 -0.1277  0.0328
 1929SOL    HW217424   3.100   4.096  14.832 -0.7007 -0.1070  0.4279
 1930SOL     OW17425   4.084   0.773   8.765  0.1952  0.3656 -0.1926
 1930SOL    HW117426   4.124   0.806   8.685  2.1724 -1.6165 -0.0453
 1930SOL    HW217427   4.005   0.827   8.769 -0.3150 -0.2805 -1.2097
 1931SOL     OW17428   2.848   2.871  10.078 -0.5047 -0.0072  0.0826
 1931SOL    HW117429   2.852   2.788  10.126 -2.1781  1.3935  2.6673
 1931SOL    HW217430   2.819   2.832   9.995  0.9524 -1.9715  0.4989
 1932SOL     OW17431   2.083   2.294   3.493 -0.2841 -0.0100  0.5566
 1932SOL    HW117432   2.125   2.326   3.573  2.6952 -0.6629 -0.7431
 1932SOL    HW217433   2.006   2.247   3.525  1.7418 -3.3931  0.4282
 1933SOL     OW17434   4.492   1.379   6.861 -0.3236  0.7566 -0.2171
 1933SOL    HW117435   4.432   1.453   6.848  0.0641  0.7854 -1.7318
 1933SOL    HW217436   4.448   1.303   6.823  2.1784 -0.6917 -0.1674
 1934SOL     OW17437   2.540   3.400   7.528 -0.2892 -0.3885  0.3680
 1934SOL    HW117438   2.553   3.489   7.496 -3.0876 -0.1777 -0.1938
 1934SOL    HW217439   2.508   3.362   7.446 -2.1582  2.5815 -0.2684
 1935SOL     OW17440   2.087   1.374  16.869 -0.0811 -0.1331  0.2828
 1935SOL    HW117441   2.096   1.420  16.953 -0.4878 -2.3326  1.5422
 1935SOL    HW217442   2.049   1.438  16.809 -0.0466  1.4267  1.9435
 1936SOL     OW17443   1.231   0.818  16.706  0.3738 -0.0428 -0.1869
 1936SOL    HW117444   1.190   0.882  16.648  1.4065  0.1289 -0.7340
 1936SOL    HW217445   1.318   0.858  16.707  0.1938  0.3092  2.5436
 1937SOL     OW17446   2.781   1.287   3.278  1.0716 -0.2019  0.3849
 1937SOL    HW117447   2.808   1.230   3.206 -0.2096  0.0255 -0.2839
 1937SOL    HW217448   2.693   1.324   3.265  1.3401  0.5430  0.6858
 1938SOL     OW17449   4.582   1.005   1.934 -0.5494  0.1990  0.6817
 1938SOL    HW117450   4.627   1.020   2.016 -0.2517 -1.8196  0.8934
 1938SOL    HW217451   4.510   1.067   1.940 -1.4279 -0.9817  2.2581
 1939SOL     OW17452   3.486   3.596   7.558  0.2244  0.7315 -0.0394
 1939SOL    HW117453   3.559   3.539   7.581  0.5647  0.8380 -0.8712
 1939SOL    HW217454   3.497   3.596   7.463  0.4254 -0.2821 -0.0125
 1940SOL     OW17455   1.077   2.098   7.941 -0.0055  0.0207 -0.8459
 1940SOL    HW117456   1.089   2.003   7.946 -0.8815  0.0019  1.1312
 1940SOL    HW217457   0.983   2.102   7.926 -0.1417 -0.3862 -0.1266
 1941SOL     OW17458   0.146   0.806  15.869  0.5629  0.3524 -0.1799
 1941SOL    HW117459   0.085   0.816  15.795 -1.4228  1.6774  1.6262
 1941SOL    HW217460   0.204   0.877  15.841 -1.1095  2.2535  1.1763
 1942SOL     OW17461   3.261   2.453   4.557  0.5085 -0.1477 -0.5126
 1942SOL    HW117462   3.302   2.366   4.562 -0.0709 -0.5120 -1.9797
 1942SOL    HW217463   3.185   2.424   4.506 -0.3625  0.5047  0.4100
 1943SOL     OW17464   2.968   2.948   7.616 -0.0108  0.2809  0.2017
 1943SOL    HW117465   3.027   3.007   7.663 -0.9615  0.4134  1.2051
 1943SOL    HW217466   2.975   2.857   7.647  1.6981  0.1128 -0.6581
 1944SOL     OW17467   1.392   3.945   1.396 -0.5198  0.1409  0.4672
 1944SOL    HW117468   1.298   3.960   1.407 -0.4969 -0.2539  1.2333
 1944SOL    HW217469   1.410   4.015   1.333 -1.6682  0.8703  0.9499
 1945SOL     OW17470   4.176   1.998   4.719  0.3564 -0.1790 -0.4748
 1945SOL    HW117471   4.133   2.038   4.644  0.9364  1.6431  0.1714
 1945SOL    HW217472   4.265   2.003   4.684 -1.3674  2.4342 -4.4930
 1946SOL     OW17473   2.751   2.796  12.816 -0.5968  0.2720  0.0130
 1946SOL    HW117474   2.724   2.705  12.824  1.0592 -0.3443 -1.3797
 1946SOL    HW217475   2.719   2.833  12.898  0.0188 -1.1489  0.8883
 1947SOL     OW17476   0.967   2.753   9.815 -0.0222 -0.3656 -0.2812
 1947SOL    HW117477   1.023   2.719   9.886 -1.3129 -1.4657  0.2023
 1947SOL    HW217478   0.890   2.699   9.828  1.4474 -2.3695  0.0961
 1948SOL     OW17479   0.551   2.128   8.804  0.0055 -0.4211  0.2612
 1948SOL    HW117480   0.578   2.054   8.750  0.2093  0.7480 -1.2355
 1948SOL    HW217481   0.456   2.133   8.788 -0.1856 -1.6575  0.9899
 1949SOL     OW17482   2.132   1.679  12.086 -0.3627  0.3601 -0.2398
 1949SOL    HW117483   2.058   1.622  12.067 -0.3646  0.2142  0.2071
 1949SOL    HW217484   2.200   1.612  12.097 -0.4898  0.4850  1.3596
 1950SOL     OW17485   3.472   3.796  14.317  0.1783 -0.4683 -0.0383
 1950SOL    HW117486   3.561   3.763  14.328  1.3636  2.3436 -1.2272
 1950SOL    HW217487   3.497   3.888  14.322  4.0794 -1.5587  0.3402
 1951SOL     OW17488   2.815   0.121   3.505  0.1034  0.2276 -0.0502
 1951SOL    HW117489   2.843   0.041   3.462 -0.9752 -0.7853  1.1339
 1951SOL    HW217490   2.850   0.190   3.449  0.6412 -0.4904 -0.5903
 1952SOL     OW17491   3.731   0.782  17.716  0.3904  0.2504  0.0448
 1952SOL    HW117492   3.650   0.803   0.005  0.7130 -1.1064  1.2061
 1952SOL    HW217493   3.729   0.863  17.664 -2.5091  0.8200  1.0252
 1953SOL     OW17494   0.130   2.446   4.304  0.2574 -0.2417 -0.0410
 1953SOL    HW117495   0.184   2.422   4.230  0.2091 -1.3824  0.2914
 1953SOL    HW217496   0.168   2.531   4.325  1.2877 -0.2443 -1.9546
 1954SOL     OW17497   3.841   0.268   6.153  0.5491  0.1052  0.3404
 1954SOL    HW117498   3.859   0.357   6.125 -0.8546  0.7295  1.3998
 1954SOL    HW217499   3.855   0.220   6.072 -2.2430 -0.7899  0.3975
 1955SOL     OW17500   4.281   3.734   9.410  0.1212 -0.1423 -0.5615
 1955SOL    HW117501   4.260   3.717   9.501 -0.8488 -2.8028 -1.2797
 1955SOL    HW217502   4.226   3.669   9.366  1.6286 -1.1117 -1.0058
 1956SOL     OW17503   0.554   1.080   1.115  0.0070 -0.5725 -0.0270
 1956SOL    HW117504   0.567   1.105   1.207  1.1752  1.0288 -0.6281
 1956SOL    HW217505   0.480   1.135   1.089  0.7811  1.3834  1.9030
 1957SOL     OW17506   3.652   2.667   5.749  0.1400  0.3936 -0.2536
 1957SOL    HW117507   3.714   2.738   5.728  0.7782  0.2527  1.1546
 1957SOL    HW217508   3.567   2.700   5.722 -0.1698  1.5895  2.1656
 1958SOL     OW17509   3.419   3.653  14.057 -0.2216 -0.5917 -0.3404
 1958SOL    HW117510   3.497   3.602  14.036  1.4572  2.4012 -1.1853
 1958SOL    HW217511   3.432   3.687  14.145 -3.2237  1.0996 -0.5358
 1959SOL     OW17512   4.264   2.528   0.672 -0.1447 -0.5430  0.8174
 1959SOL    HW117513   4.189   2.490   0.719  0.4414 -0.4335  1.8579
 1959SOL    HW217514   4.233   2.618   0.668  0.5274 -0.2228  2.6425
 1960SOL     OW17515   4.665   1.864   2.424 -0.2606 -0.0483 -0.3907
 1960SOL    HW117516   4.664   1.935   2.488  0.7703 -0.0606 -0.3681
 1960SOL    HW217517   4.572   1.839   2.422  0.4022 -2.5561  0.2407
 1961SOL     OW17518   0.133   1.364   9.080 -0.2786 -0.7256  0.6820
 1961SOL    HW117519   0.205   1.421   9.054  0.6312 -1.5716  1.3833
 1961SOL    HW217520   0.069   1.400   9.018 -0.7753 -3.0808 -0.1662
 1962SOL     OW17521   3.630   0.569   3.379 -0.2050  0.1369 -0.2077
 1962SOL    HW117522   3.665   0.645   3.426 -0.8932  0.2463  0.1426
 1962SOL    HW217523   3.698   0.535   3.321 -0.7534  1.0797 -1.4038
 1963SOL     OW17524   4.237   4.173   3.475  0.6872  0.5027  0.1949
 1963SOL    HW117525   4.320   4.219   3.459 -0.0165  1.7331  0.0475
 1963SOL    HW217526   4.269   4.122   3.549  1.6946  0.4097 -0.3056
 1964SOL     OW17527   3.576   4.172   6.451  0.3373  0.1603  0.4577
 1964SOL    HW117528   3.496   4.120   6.443 -0.9504  2.3848 -1.0281
 1964SOL    HW217529   3.639   4.117   6.404 -1.6413 -1.9905  0.3401
 1965SOL     OW17530   2.203   0.223   2.745 -0.2276 -0.0947  0.0723
 1965SOL    HW117531   2.183   0.139   2.704 -1.9280 -0.6418  2.0222
 1965SOL    HW217532   2.187   0.276   2.667 -0.8506 -0.4127 -0.0145
 1966SOL     OW17533   4.706   0.470  15.160 -0.1671 -0.0771 -0.5980
 1966SOL    HW117534   4.658   0.496  15.082 -1.5589  0.5458  0.4793
 1966SOL    HW217535   0.053   0.492  15.125  0.3422 -1.7759 -0.4248
 1967SOL     OW17536   0.219   4.412  15.767 -0.1192 -0.1635  0.1330
 1967SOL    HW117537   0.226   4.468  15.690 -2.6174 -1.8782 -1.3590
 1967SOL    HW217538   0.308   4.381  15.784  0.8093  1.6076 -1.5353
 1968SOL     OW17539   4.316   0.415   4.805  0.4866 -0.3285  0.1774
 1968SOL    HW117540   4.342   0.404   4.714 -1.4575 -0.1710 -0.3948
 1968SOL    HW217541   4.248   0.482   4.802 -0.3915 -1.2489 -0.5788
 1969SOL     OW17542   4.016   2.558  16.343 -0.4451  0.1412 -0.2862
 1969SOL    HW117543   4.101   2.600  16.356 -0.8775  0.4391  1.7095
 1969SOL    HW217544   3.960   2.615  16.396  0.1522 -1.0147  1.5889
 1970SOL     OW17545   1.053   0.822   2.780  0.0626  0.7497 -0.0055
 1970SOL    HW117546   0.968   0.854   2.813  0.2378  0.7991  0.4012
 1970SOL    HW217547   1.041   0.728   2.765 -0.0843  0.6989  0.4094
 1971SOL     OW17548   4.573   2.575  11.583 -0.0917  0.0208  0.1545
 1971SOL    HW117549   4.599   2.544  11.670  2.3250  0.7226 -0.3097
 1971SOL    HW217550   4.481   2.550  11.578 -0.0920  0.2836 -0.9522
 1972SOL     OW17551   0.724   2.617   2.126  0.1474 -0.3870 -0.3946
 1972SOL    HW117552   0.817   2.635   2.118 -0.3228  1.0077 -2.5883
 1972SOL    HW217553   0.705   2.536   2.079 -1.0532 -1.2024  1.4549
 1973SOL     OW17554   1.376   3.042   1.870 -0.4920  0.1120 -0.1667
 1973SOL    HW117555   1.357   3.131   1.841 -1.8632 -0.1582 -0.1069
 1973SOL    HW217556   1.431   3.061   1.946 -0.9695 -0.1241  0.2318
 1974SOL     OW17557   1.182   2.904   4.368 -0.9483  0.0774 -0.0788
 1974SOL    HW117558   1.235   2.846   4.423 -0.9730 -0.2150 -0.3647
 1974SOL    HW217559   1.100   2.855   4.376 -0.9074 -0.0923 -0.7141
 1975SOL     OW17560   4.157   2.358  11.613  0.0019 -0.5075 -0.4153
 1975SOL    HW117561   4.176   2.450  11.598  0.2376 -0.5517 -0.3869
 1975SOL    HW217562   4.235   2.312  11.582  0.3950 -0.9232  1.2170
 1976SOL     OW17563   2.130   2.362   8.024 -0.3344  0.2867  0.0523
 1976SOL    HW117564   2.050   2.414   8.033 -0.4478  0.4039 -1.5787
 1976SOL    HW217565   2.124   2.356   7.928 -1.4298 -0.2084  0.1495
 1977SOL     OW17566   1.869   1.093  17.321 -0.0159  0.9923  0.2616
 1977SOL    HW117567   1.822   1.171  17.292 -0.5581  0.9302  0.9719
 1977SOL    HW217568   1.901   1.065  17.236  0.0780  0.2018  0.5547
 1978SOL     OW17569   3.053   2.508  12.983 -0.2288  0.1265 -0.7067
 1978SOL    HW117570   3.059   2.593  12.939 -0.8175  1.3062  1.4829
 1978SOL    HW217571   3.124   2.463  12.937 -0.7523 -0.8998 -0.5129
 1979SOL     OW17572   3.202   1.885   0.954  0.1443  0.0032 -0.5518
 1979SOL    HW117573   3.168   1.799   0.979 -1.5722  1.3795  1.7953
 1979SOL    HW217574   3.245   1.907   1.037  0.1252 -1.1923 -0.2183
 1980SOL     OW17575   3.913   1.751   1.935  0.7873 -0.2895  0.1111
 1980SOL    HW117576   3.888   1.686   2.000  0.4636  1.2698  1.5419
 1980SOL    HW217577   3.850   1.725   1.868 -2.0353 -0.1748  2.7615
 1981SOL     OW17578   1.179   4.449   5.834 -0.1653 -0.0310  0.0218
 1981SOL    HW117579   1.192   4.544   5.839  1.0214 -0.2375  0.9508
 1981SOL    HW217580   1.181   4.421   5.925 -1.3704 -2.2622 -0.6409
 1982SOL     OW17581   4.300   4.558   5.267  0.1014  0.0319  0.5158
 1982SOL    HW117582   4.359   4.583   5.338 -0.0080  0.6868  0.3793
 1982SOL    HW217583   4.280   4.648   5.239 -0.9048 -1.0748 -2.3235
 1983SOL     OW17584   0.841   2.794   8.414 -0.2920  0.1583 -0.4133
 1983SOL    HW117585   0.798   2.733   8.354 -0.3274  1.0829 -1.3291
 1983SOL    HW217586   0.912   2.736   8.442 -0.8421 -1.0659 -1.5662
 1984SOL     OW17587   0.339   3.379  11.323 -0.2737  0.7535 -0.2045
 1984SOL    HW117588   0.368   3.288  11.325  0.0784  0.9130  1.8664
 1984SOL    HW217589   0.376   3.409  11.240 -1.2903  1.2812 -0.4718
 1985SOL     OW17590   4.602   3.010  10.361 -0.5601  0.0123 -0.5732
 1985SOL    HW117591   4.545   3.082  10.332 -0.8956  0.6418  1.6665
 1985SOL    HW217592   4.686   3.053  10.346 -0.8988  0.7346 -0.3878
 1986SOL     OW17593   3.206   0.819  12.721 -0.0296  0.3963 -0.1811
 1986SOL    HW117594   3.165   0.851  12.801  0.8940  0.8084  0.1251
 1986SOL    HW217595   3.300   0.817  12.741 -0.2455  0.0955  0.7684
 1987SOL     OW17596   3.548   0.602   1.184 -0.4585 -0.0426 -0.2414
 1987SOL    HW117597   3.516   0.688   1.157  2.5985  0.6365 -1.7603
 1987SOL    HW217598   3.564   0.568   1.096 -3.3070 -2.2935  0.1060
 1988SOL     OW17599   0.271   0.200  17.318 -0.2881  0.1669  0.2750
 1988SOL    HW117600   0.365   0.209  17.299 -0.2841 -2.1281 -0.7773
 1988SOL    HW217601   0.237   0.132  17.259 -0.8948  0.4728  0.2772
 1989SOL     OW17602   2.076   2.728   7.384  0.1720 -0.6535 -0.1308
 1989SOL    HW117603   2.124   2.752   7.304 -1.4864 -0.8889 -1.1997
 1989SOL    HW217604   1.996   2.780   7.379 -0.9999 -2.4591 -0.2014
 1990SOL     OW17605   3.965   3.832   9.753 -0.3138 -0.6227 -0.7219
 1990SOL    HW117606   4.053   3.869   9.739 -0.9386  1.3604  0.6226
 1990SOL    HW217607   3.952   3.844   9.847 -1.9125 -0.9731 -0.8997
 1991SOL     OW17608   0.086   1.329   6.534 -0.6275 -0.3113 -0.0023
 1991SOL    HW117609   0.023   1.343   6.464 -0.1816 -0.7473 -0.4912
 1991SOL    HW217610   0.161   1.316   6.476 -1.4504 -1.4657 -0.8083
 1992SOL     OW17611   2.046   0.540  15.508  0.3597  0.3260 -0.2185
 1992SOL    HW117612   2.003   0.484  15.444  1.4702  0.1268 -0.7970
 1992SOL    HW217613   2.011   0.500  15.588 -1.6336  1.7375 -0.3754
 1993SOL     OW17614   2.258   3.511   0.530 -0.2495  0.4187 -0.6060
 1993SOL    HW117615   2.298   3.597   0.545  2.1582 -1.2806  2.5371
 1993SOL    HW217616   2.186   3.518   0.592 -1.2937 -1.0594 -1.6655
 1994SOL     OW17617   1.304   2.910  11.010 -0.4621 -0.5297  0.1494
 1994SOL    HW117618   1.215   2.879  11.026 -0.9400  1.0596  0.5778
 1994SOL    HW217619   1.345   2.911  11.097  0.4842  1.5424 -0.3034
 1995SOL     OW17620   1.361   0.567   0.326  0.2180 -0.2551  0.6533
 1995SOL    HW117621   1.453   0.546   0.343  0.5353  0.8658  0.3032
 1995SOL    HW217622   1.331   0.600   0.411  1.5169 -0.3098  1.1325
 1996SOL     OW17623   4.145   2.857  16.984 -0.6021  0.3188  0.5059
 1996SOL    HW117624   4.093   2.827  17.058 -1.6429  3.1100  0.9214
 1996SOL    HW217625   4.230   2.824  17.009  0.3096  0.5375 -2.2367
 1997SOL     OW17626   2.272   3.487   3.636  0.2463  0.3422  0.0150
 1997SOL    HW117627   2.199   3.437   3.599  0.8563 -0.0314 -0.6934
 1997SOL    HW217628   2.234   3.524   3.715  0.2248  0.7418 -0.1834
 1998SOL     OW17629   2.870   2.304   6.098 -0.0305 -0.2231 -0.1912
 1998SOL    HW117630   2.873   2.295   6.003 -0.3598  1.0358 -0.3248
 1998SOL    HW217631   2.936   2.371   6.116 -1.0521  0.6564  0.3178
 1999SOL     OW17632   2.959   0.575  15.677 -0.0220  0.1769 -0.2445
 1999SOL    HW117633   2.920   0.577  15.590  1.0478 -2.0389 -0.7831
 1999SOL    HW217634   2.881   0.574  15.731 -0.8789 -4.5016 -1.5871
 2000SOL     OW17635   4.044   1.437   1.799  0.8427 -0.0927  0.0454
 2000SOL    HW117636   4.090   1.409   1.878 -0.0449 -1.8938 -0.0895
 2000SOL    HW217637   3.957   1.422   1.836  0.2115  2.3680 -0.4156
 2001SOL     OW17638   2.808   0.950   3.822 -0.0604 -0.4595  0.0673
 2001SOL    HW117639   2.738   0.923   3.763 -0.0613 -0.6142  0.1405
 2001SOL    HW217640   2.772   0.936   3.909 -0.3899  2.8075  0.4524
 2002SOL     OW17641   0.116   1.666   7.105  0.2372  0.4097  0.2937
 2002SOL    HW117642   0.134   1.619   7.024 -0.5239 -3.0145  2.0861
 2002SOL    HW217643   0.168   1.614   7.167  2.6880 -1.4856 -3.3136
 2003SOL     OW17644   4.433   3.701  14.374  0.3239 -0.9650 -0.2548
 2003SOL    HW117645   4.433   3.795  14.352 -0.6636 -1.3110 -1.7530
 2003SOL    HW217646   4.367   3.680  14.308 -0.0060 -2.5550  0.6115
 2004SOL     OW17647   2.175   3.322  12.317 -0.3684  0.7530  0.2530
 2004SOL    HW117648   2.247   3.287  12.263  0.7606  0.6162  1.8409
 2004SOL    HW217649   2.205   3.299  12.405  3.2585  0.2558 -1.0916
 2005SOL     OW17650   2.974   0.363   6.334  0.0789 -0.2857 -0.7323
 2005SOL    HW117651   2.924   0.319   6.265  1.1754 -1.1484 -0.9690
 2005SOL    HW217652   2.932   0.323   6.410 -1.4135  1.7243 -0.5073
 2006SOL     OW17653   4.288   2.964   1.146  0.1661  0.4081 -0.2411
 2006SOL    HW117654   4.197   2.981   1.172 -0.3578 -3.0217  0.0969
 2006SOL    HW217655   4.303   3.050   1.106  0.9572  1.0526  1.4076
 2007SOL     OW17656   4.554   4.338   8.361  0.2601  0.1502  0.5568
 2007SOL    HW117657   4.595   4.423   8.378  1.3900 -0.5330  1.2719
 2007SOL    HW217658   4.618   4.291   8.308  0.4898  0.9647  0.1174
 2008SOL     OW17659   3.060   2.408   7.950  0.6196 -0.6605  0.0687
 2008SOL    HW117660   3.018   2.366   8.025 -0.1204 -1.3785 -0.7428
 2008SOL    HW217661   2.996   2.379   7.885 -0.3416 -2.2914  1.7424
 2009SOL     OW17662   0.318   0.626   5.123  0.1692 -0.4538  0.4591
 2009SOL    HW117663   0.407   0.655   5.143  1.0647 -0.5724 -3.2490
 2009SOL    HW217664   0.267   0.667   5.193  2.6130  2.7304  0.3712
 2010SOL     OW17665   4.277   0.798   3.243  0.2959  0.3583  0.3304
 2010SOL    HW117666   4.318   0.750   3.315  0.4936 -0.3586 -0.2626
 2010SOL    HW217667   4.190   0.820   3.275  0.1916  1.4518 -0.7239
 2011SOL     OW17668   3.733   0.499   0.752 -0.2386  0.5394  0.9780
 2011SOL    HW117669   3.672   0.541   0.691  0.4226  0.2764  0.1502
 2011SOL    HW217670   3.736   0.568   0.819 -1.3737 -0.2417  1.8375
 2012SOL     OW17671   3.900   4.376   9.525 -0.1831 -0.0801  0.0221
 2012SOL    HW117672   3.874   4.431   9.450  0.0657  0.5069  0.3723
 2012SOL    HW217673   3.994   4.384   9.539  0.6172 -0.4398 -5.1619
 2013SOL     OW17674   2.441   1.462   6.404  0.4905 -0.2560  0.2818
 2013SOL    HW117675   2.418   1.370   6.387  1.5987 -0.5739  0.4954
 2013SOL    HW217676   2.376   1.488   6.469  2.0181  1.2080  1.2058
 2014SOL     OW17677   1.665   1.426  15.154  0.4255 -0.1008  0.2220
 2014SOL    HW117678   1.653   1.521  15.166 -1.9200 -0.5144  1.1308
 2014SOL    HW217679   1.678   1.402  15.246 -0.6944 -0.3319  0.3120
 2015SOL     OW17680   4.686   1.347  12.059 -0.0293  0.2846  0.3047
 2015SOL    HW117681   4.619   1.311  12.117  1.6405 -0.4420  1.7938
 2015SOL    HW217682   4.648   1.324  11.974  1.5640  0.2478 -0.3934
 2016SOL     OW17683   0.723   1.700  15.230 -0.8736  0.5291 -1.0584
 2016SOL    HW117684   0.749   1.617  15.268  0.6138  1.3866 -0.2051
 2016SOL    HW217685   0.771   1.701  15.147 -0.6694 -1.9846 -0.9553
 2017SOL     OW17686   3.077   0.640   3.599 -0.1798 -0.2984  0.2626
 2017SOL    HW117687   3.011   0.707   3.581 -2.0809 -2.3903 -0.5391
 2017SOL    HW217688   3.154   0.692   3.575 -0.6356 -0.6078 -1.8361
 2018SOL     OW17689   2.333   1.946   2.171  0.1631  0.4435  0.1535
 2018SOL    HW117690   2.299   1.919   2.086  0.1781 -0.2470  0.3649
 2018SOL    HW217691   2.299   2.035   2.172  0.2346  0.4662  2.3095
 2019SOL     OW17692   2.141   0.609   0.264  0.4695  0.3418  0.3435
 2019SOL    HW117693   2.205   0.675   0.289  2.5018 -0.9790 -1.3575
 2019SOL    HW217694   2.157   0.612   0.169  2.1558 -0.0512  0.6117
 2020SOL     OW17695   3.645   0.037   9.197  0.1204  0.5533  0.5796
 2020SOL    HW117696   3.641   0.059   9.290 -0.2736 -1.0769  0.9437
 2020SOL    HW217697   3.738   0.056   9.186 -0.5157  2.0167 -2.2204
 2021SOL     OW17698   3.711   4.525   3.442 -0.6447  0.6253 -0.0684
 2021SOL    HW117699   3.617   4.517   3.460 -0.6630  2.1787  0.5129
 2021SOL    HW217700   3.729   4.437   3.410 -0.1441  0.4530  0.6775
 2022SOL     OW17701   3.343   1.585  15.846 -0.5680  1.2443 -0.2543
 2022SOL    HW117702   3.403   1.510  15.841 -5.3653 -2.5685 -0.6811
 2022SOL    HW217703   3.326   1.595  15.752 -1.6222  1.6238 -0.0185
 2023SOL     OW17704   4.625   4.684  12.439 -1.3603  0.1356  0.1573
 2023SOL    HW117705   4.710   4.717  12.467 -1.4009  0.2790  0.1107
 2023SOL    HW217706   4.593   4.662  12.527  2.4848 -0.6579  1.3911
 2024SOL     OW17707   0.613   2.074   4.318  0.1033 -0.2970 -0.6115
 2024SOL    HW117708   0.526   2.101   4.289  0.6824  1.3701 -0.7490
 2024SOL    HW217709   0.601   1.979   4.325 -1.7021  0.2314  3.1504
 2025SOL     OW17710   3.787   1.971   3.457  0.0929  0.3161  0.6100
 2025SOL    HW117711   3.824   2.015   3.534  0.9219  2.2092 -0.8729
 2025SOL    HW217712   3.865   1.919   3.436  0.2946  1.0901 -0.5191
 2026SOL     OW17713   1.403   0.139   6.668  0.6215  0.0943 -0.0786
 2026SOL    HW117714   1.343   0.070   6.641  0.7640  0.1216 -0.4659
 2026SOL    HW217715   1.460   0.147   6.591  0.5083  1.4489 -0.0254
 2027SOL     OW17716   0.210   1.204   2.371 -0.2511 -0.0611  0.4427
 2027SOL    HW117717   0.173   1.193   2.458  2.4888  0.1560  1.6338
 2027SOL    HW217718   0.201   1.113   2.342 -2.0678  0.3914 -0.4382
 2028SOL     OW17719   0.645   3.368  11.519  0.0787 -0.1724 -0.0240
 2028SOL    HW117720   0.623   3.289  11.567  0.8220 -0.6981 -0.5493
 2028SOL    HW217721   0.568   3.369  11.462 -0.0635  0.8456  0.1917
 2029SOL     OW17722   4.095   1.721  17.132  0.4139 -0.1293 -0.1167
 2029SOL    HW117723   4.113   1.651  17.194  1.2352 -0.9488 -1.2647
 2029SOL    HW217724   4.036   1.772  17.186  1.5625 -1.7698  2.6672
 2030SOL     OW17725   4.213   2.728  15.578  0.5322  0.9546 -0.0918
 2030SOL    HW117726   4.223   2.723  15.482  0.7546  2.3833 -0.1398
 2030SOL    HW217727   4.187   2.638  15.600  1.5531  0.4611 -0.8790
 2031SOL     OW17728   4.571   2.259   8.991 -0.2150 -0.3950  0.2534
 2031SOL    HW117729   4.502   2.228   8.932  0.0915  0.4459 -0.5467
 2031SOL    HW217730   4.629   2.188   8.964  0.8614  0.1061  1.2810
 2032SOL     OW17731   3.941   4.487   2.067  0.3549 -0.0029 -0.0217
 2032SOL    HW117732   3.984   4.570   2.085  0.3695 -0.2060  0.8799
 2032SOL    HW217733   4.012   4.423   2.065  1.9762  1.9542 -3.4176
 2033SOL     OW17734   4.345   2.859  10.345 -0.5887 -0.4470 -0.0538
 2033SOL    HW117735   4.367   2.819  10.428 -1.9617 -0.9043  0.0964
 2033SOL    HW217736   4.422   2.831  10.296 -1.4951 -0.7666 -1.3201
 2034SOL     OW17737   3.738   1.091  14.964  0.1261 -0.2360  0.2153
 2034SOL    HW117738   3.737   1.164  14.902 -1.5268 -1.5577 -1.3438
 2034SOL    HW217739   3.657   1.046  14.938  1.4855 -1.9243 -1.1530
 2035SOL     OW17740   4.447   2.755   7.162 -0.4363  0.1545  0.5526
 2035SOL    HW117741   4.388   2.680   7.167  0.3948 -0.5104  0.3995
 2035SOL    HW217742   4.531   2.710   7.172 -0.2677  0.5680  0.9955
 2036SOL     OW17743   0.295   0.052  17.011 -0.4180 -0.1241 -0.3167
 2036SOL    HW117744   0.289   4.709  17.059  1.7483 -0.6176 -0.9174
 2036SOL    HW217745   0.284   0.036  16.918 -1.7776 -0.2586 -0.1311
 2037SOL     OW17746   0.635   2.386   6.639 -0.2152  0.3163  0.1588
 2037SOL    HW117747   0.572   2.344   6.698  0.5744 -0.6969  0.2939
 2037SOL    HW217748   0.591   2.381   6.555  1.1563 -1.1560 -0.4709
 2038SOL     OW17749   1.287   4.674   9.108  0.5177 -0.3997 -0.0781
 2038SOL    HW117750   1.339   4.728   9.049  0.3791  0.2825  0.4351
 2038SOL    HW217751   1.347   4.599   9.099 -0.8205 -1.6667  1.5409
 2039SOL     OW17752   4.423   0.220   9.695  0.1357  0.1267  0.1962
 2039SOL    HW117753   4.351   0.157   9.688 -0.9489  1.5829 -1.9795
 2039SOL    HW217754   4.430   0.248   9.786  0.3756 -0.6736  0.4258
 2040SOL     OW17755   3.658   4.215  15.846  0.4069 -0.5927  0.5468
 2040SOL    HW117756   3.739   4.250  15.810 -0.4858  0.7824 -0.1649
 2040SOL    HW217757   3.633   4.292  15.898 -1.9914 -1.1791  0.2886
 2041SOL     OW17758   2.837   3.267   8.895 -0.4213 -0.3079 -0.0609
 2041SOL    HW117759   2.831   3.192   8.835 -0.7742 -1.3885  1.3109
 2041SOL    HW217760   2.838   3.218   8.977  0.4732 -0.6849 -0.2900
 2042SOL     OW17761   1.406   3.318   4.504  0.3784 -0.0768  0.0928
 2042SOL    HW117762   1.313   3.340   4.500  0.5049  0.6612  1.1509
 2042SOL    HW217763   1.436   3.373   4.576 -1.2730  1.8618 -0.7161
 2043SOL     OW17764   2.328   4.064   3.803 -1.4625  0.0857 -0.6376
 2043SOL    HW117765   2.273   4.140   3.787 -2.8148 -0.2413  2.4063
 2043SOL    HW217766   2.357   4.066   3.894  1.5265 -3.1793 -1.4812
 2044SOL     OW17767   2.364   2.365  12.124 -0.3235  0.9800 -0.5191
 2044SOL    HW117768   2.410   2.305  12.183 -0.3656  0.3557 -1.1189
 2044SOL    HW217769   2.362   2.444  12.178 -2.3185 -0.2741  1.2350
 2045SOL     OW17770   3.329   2.804   2.320  0.6143  0.3500  0.4625
 2045SOL    HW117771   3.238   2.833   2.308 -0.2757 -1.7446  2.0288
 2045SOL    HW217772   3.386   2.856   2.263 -0.7873  0.5852 -0.7583
 2046SOL     OW17773   3.791   2.883   5.664 -0.1516  0.4316 -0.0000
 2046SOL    HW117774   3.802   2.965   5.616 -0.4032  0.4707  0.0111
 2046SOL    HW217775   3.881   2.870   5.696 -0.8662  0.5332  2.0394
 2047SOL     OW17776   3.315   0.133   6.842  0.6860  0.0065  0.3251
 2047SOL    HW117777   3.297   0.199   6.775 -2.2907 -1.4780 -0.3343
 2047SOL    HW217778   3.369   0.192   6.895 -0.6860 -1.4210  3.2935
 2048SOL     OW17779   3.278   1.122   5.518  0.0106 -0.0794  0.0850
 2048SOL    HW117780   3.311   1.049   5.464  0.7376  0.2605  0.0741
 2048SOL    HW217781   3.358   1.174   5.526  0.6200 -1.1719  1.1347
 2049SOL     OW17782   4.452   1.840   3.706  0.5597  0.5570 -0.0347
 2049SOL    HW117783   4.395   1.916   3.717 -1.3088 -0.8346 -0.0556
 2049SOL    HW217784   4.381   1.775   3.713  1.0288 -0.3265 -3.9290
 2050SOL     OW17785   1.842   4.456  15.618  0.1734 -0.1567  0.7063
 2050SOL    HW117786   1.923   4.407  15.610  0.2763 -0.0272  0.9841
 2050SOL    HW217787   1.843   4.487  15.527 -1.5419  0.0467  0.7582
 2051SOL     OW17788   3.686   2.251   3.960  0.0947 -0.1423 -0.0976
 2051SOL    HW117789   3.660   2.184   4.023  0.6178  0.3945  0.6828
 2051SOL    HW217790   3.632   2.323   3.993  1.4644  1.0754 -0.4733
 2052SOL     OW17791   2.437   0.799   9.036 -0.1068  0.0757 -0.5689
 2052SOL    HW117792   2.442   0.845   9.120 -0.0370 -1.6056  0.3448
 2052SOL    HW217793   2.346   0.771   9.044 -0.1247  0.2785 -0.0268
 2053SOL     OW17794   0.321   3.919   4.068  0.3256 -0.6051 -0.1153
 2053SOL    HW117795   0.348   4.007   4.039  0.9226 -0.1045  1.9196
 2053SOL    HW217796   0.388   3.865   4.028  2.0078  0.3804  1.3368
 2054SOL     OW17797   1.049   0.522   1.481 -0.0446  0.1197  0.1710
 2054SOL    HW117798   1.121   0.536   1.542 -1.1066  0.7785  1.2866
 2054SOL    HW217799   0.988   0.585   1.521  1.5747  2.3094 -0.8302
 2055SOL     OW17800   1.532   3.649  13.974 -0.2268 -0.1433 -0.3875
 2055SOL    HW117801   1.524   3.554  13.988 -0.6110  0.2714  2.2629
 2055SOL    HW217802   1.439   3.666  13.986 -0.7196 -1.6837 -1.9450
 2056SOL     OW17803   3.040   2.134   3.632  0.0190  0.0023  0.2464
 2056SOL    HW117804   3.009   2.095   3.550 -0.4381  0.4201  0.2211
 2056SOL    HW217805   2.960   2.145   3.683  0.6812  2.1892  0.7945
 2057SOL     OW17806   1.895   1.282  16.251 -0.1302  0.2485  0.0033
 2057SOL    HW117807   1.876   1.189  16.234  2.2460 -0.4692  1.3543
 2057SOL    HW217808   1.809   1.306  16.286 -0.7366 -1.6187 -0.1744
 2058SOL     OW17809   0.666   0.553  12.801  0.0932  0.6071 -0.4411
 2058SOL    HW117810   0.671   0.626  12.862 -2.7459  0.3931  0.0339
 2058SOL    HW217811   0.656   0.597  12.716  1.4884  1.1604 -0.3127
 2059SOL     OW17812   1.117   2.031   5.606 -0.3775  0.2510 -0.4848
 2059SOL    HW117813   1.060   2.106   5.589 -0.6860 -0.4790 -2.6348
 2059SOL    HW217814   1.119   1.989   5.520 -0.1784 -0.1214 -0.2972
 2060SOL     OW17815   2.597   4.442   2.873 -0.0392  0.4349 -0.2695
 2060SOL    HW117816   2.692   4.452   2.873 -0.3230  3.0616 -0.0010
 2060SOL    HW217817   2.595   4.350   2.899 -1.5370 -0.0810 -2.1075
 2061SOL     OW17818   2.894   0.941   7.680 -0.1232  0.0452 -0.2336
 2061SOL    HW117819   2.866   0.978   7.764 -0.2825  2.6366 -1.4363
 2061SOL    HW217820   2.810   0.949   7.636  0.7442 -1.3065 -2.1008
 2062SOL     OW17821   0.721   0.425   1.652 -0.2124 -0.4835 -0.0149
 2062SOL    HW117822   0.706   0.353   1.590  1.4399 -0.9296  0.0910
 2062SOL    HW217823   0.789   0.387   1.708 -1.3594 -0.1927  1.5618
 2063SOL     OW17824   0.451   4.629   8.955  0.0873 -0.7303 -0.5511
 2063SOL    HW117825   0.456   4.553   9.012 -0.0230 -0.0223  0.4083
 2063SOL    HW217826   0.404   4.599   8.877 -1.2472 -1.9193  0.7356
 2064SOL     OW17827   1.061   2.954   3.056  0.2838 -0.4767  0.0485
 2064SOL    HW117828   1.022   2.875   3.020 -0.3798 -0.7101  1.2624
 2064SOL    HW217829   1.036   2.960   3.148  0.0654  2.6866 -0.2183
 2065SOL     OW17830   1.953   0.427   1.649 -0.5127  0.5780 -0.1900
 2065SOL    HW117831   2.041   0.465   1.661  0.6203 -1.3315 -2.2964
 2065SOL    HW217832   1.959   0.347   1.700 -0.5266  0.1596 -0.8368
 2066SOL     OW17833   3.457   1.414  12.204 -0.0792  0.0510  0.0574
 2066SOL    HW117834   3.524   1.476  12.231 -0.4787  0.2067  0.6843
 2066SOL    HW217835   3.393   1.430  12.273  1.5398  0.5227  1.4567
 2067SOL     OW17836   1.343   3.643   5.906  0.4328 -0.3390  0.8816
 2067SOL    HW117837   1.332   3.736   5.924  0.4550 -0.3497  0.9545
 2067SOL    HW217838   1.438   3.638   5.918  0.5099 -0.2535  0.2845
 2068SOL     OW17839   3.950   4.436   6.443 -0.4173 -0.7262  0.2989
 2068SOL    HW117840   4.021   4.380   6.409  0.9266  0.1397  1.7042
 2068SOL    HW217841   3.970   4.436   6.536 -2.0549 -2.2574  0.6562
 2069SOL     OW17842   0.946   1.485   5.656 -0.0555 -0.2304  0.1603
 2069SOL    HW117843   1.025   1.431   5.663 -0.1004 -0.7565 -3.1386
 2069SOL    HW217844   0.990   1.569   5.645 -2.0411  0.7622 -0.0798
 2070SOL     OW17845   3.186   2.256   7.482  0.0420  0.1166  0.5220
 2070SOL    HW117846   3.190   2.337   7.532  1.9430  0.6110 -0.4298
 2070SOL    HW217847   3.095   2.236   7.501  0.2064 -1.2534 -0.1286
 2071SOL     OW17848   1.997   0.070  10.214  0.2473 -0.7860 -0.4012
 2071SOL    HW117849   2.044   0.026  10.143 -1.6069 -3.3269 -0.0316
 2071SOL    HW217850   1.914   0.103  10.181  0.1017  1.7924  2.5373
 2072SOL     OW17851   4.725   0.889   0.524 -0.2614 -0.5916  0.1043
 2072SOL    HW117852   0.046   0.939   0.471 -1.0451 -0.3418 -0.5615
 2072SOL    HW217853   0.032   0.871   0.606  3.1894  2.1824 -1.3443
 2073SOL     OW17854   0.166   1.088   0.422  0.6694  0.1547 -0.0290
 2073SOL    HW117855   0.241   1.123   0.372 -0.3957  0.9567 -1.0648
 2073SOL    HW217856   0.096   1.138   0.382 -0.4482 -1.3067  0.1017
 2074SOL     OW17857   4.007   3.280   9.420  0.2759 -0.5033 -0.1742
 2074SOL    HW117858   4.042   3.285   9.508 -0.5815 -1.7724  0.2488
 2074SOL    HW217859   3.970   3.191   9.416  2.7454 -1.5911  0.7567
 2075SOL     OW17860   2.249   3.393   5.420  0.0055  0.1680  0.1070
 2075SOL    HW117861   2.295   3.476   5.432 -2.9427  1.8631 -0.1473
 2075SOL    HW217862   2.175   3.426   5.369  0.1093 -1.6380 -1.1921
 2076SOL     OW17863   2.131   2.277   4.494 -0.0022 -0.0392 -0.4820
 2076SOL    HW117864   2.121   2.333   4.572 -0.8817 -1.6295  0.5502
 2076SOL    HW217865   2.049   2.227   4.498  0.1756 -0.2350  1.0587
 2077SOL     OW17866   3.234   1.134   8.984 -0.3832 -0.3228 -0.9914
 2077SOL    HW117867   3.149   1.104   9.018 -0.3820 -1.8457 -2.3673
 2077SOL    HW217868   3.255   1.174   9.069 -0.1155 -3.8769  0.6019
 2078SOL     OW17869   3.105   0.810   7.833  0.0962  0.0657  0.4715
 2078SOL    HW117870   3.080   0.879   7.772 -0.1347 -0.5584 -0.1358
 2078SOL    HW217871   3.054   0.736   7.800  1.4930 -1.2006  1.1647
 2079SOL     OW17872   3.675   1.730   6.546 -0.4134 -0.2112  0.1025
 2079SOL    HW117873   3.754   1.732   6.601 -0.6343 -0.5761  0.4343
 2079SOL    HW217874   3.623   1.772   6.615 -2.1887 -0.2754 -1.2174
 2080SOL     OW17875   4.636   0.276  12.973  0.6260  0.1594  0.6294
 2080SOL    HW117876   4.600   0.214  13.037  0.9988 -0.7158 -0.0129
 2080SOL    HW217877   4.612   0.359  13.014  0.3870  1.3475 -1.9748
 2081SOL     OW17878   3.280   0.909   8.641 -0.1996  0.6653  0.5625
 2081SOL    HW117879   3.242   0.995   8.625 -2.1036 -0.8343 -2.9361
 2081SOL    HW217880   3.344   0.897   8.570  1.5791  0.7920  2.1279
 2082SOL     OW17881   1.617   2.292  14.636  0.9491  0.7561 -0.2375
 2082SOL    HW117882   1.650   2.237  14.564 -0.0547  1.0659 -0.9342
 2082SOL    HW217883   1.693   2.342  14.666  0.8028  0.3485  0.8236
 2083SOL     OW17884   0.537   2.873   5.007  0.2885  0.1711  0.0834
 2083SOL    HW117885   0.540   2.853   4.914  0.8453 -0.7157  0.2873
 2083SOL    HW217886   0.578   2.959   4.999 -1.4119  1.0138  0.2746
 2084SOL     OW17887   4.228   2.471   5.315  0.2552  0.5871  0.0106
 2084SOL    HW117888   4.258   2.560   5.296 -0.1093 -0.0165 -3.5710
 2084SOL    HW217889   4.297   2.411   5.285  1.5561  0.9021  2.3841
 2085SOL     OW17890   1.683   4.283   5.911  0.6698  0.2645  0.3990
 2085SOL    HW117891   1.759   4.239   5.950 -0.2259  0.8553  2.8190
 2085SOL    HW217892   1.613   4.251   5.968  1.3219 -0.4603  0.8091
 2086SOL     OW17893   3.285   3.723  11.177 -0.0254 -0.1359 -0.0029
 2086SOL    HW117894   3.368   3.675  11.176  0.5859  0.8824  2.2891
 2086SOL    HW217895   3.254   3.699  11.090  0.8107 -1.5433  0.0916
 2087SOL     OW17896   2.323   4.170   8.847  0.3568  0.0573 -0.2066
 2087SOL    HW117897   2.396   4.216   8.805 -0.4557  1.1990 -0.3692
 2087SOL    HW217898   2.333   4.078   8.821 -0.5150 -1.1229  3.6757
 2088SOL     OW17899   3.702   4.299  13.145 -0.0730 -0.4549 -0.2384
 2088SOL    HW117900   3.759   4.365  13.105  1.0953 -0.9694  0.5752
 2088SOL    HW217901   3.749   4.221  13.116  0.8051  0.0906 -0.2512
 2089SOL     OW17902   1.325   1.407  15.624 -0.2518 -0.6475  0.1529
 2089SOL    HW117903   1.322   1.388  15.531 -1.3216 -1.3893  0.3345
 2089SOL    HW217904   1.315   1.322  15.667  0.7656 -0.0432  1.6170
 2090SOL     OW17905   1.833   4.000   8.239 -0.0542  0.0903  0.1282
 2090SOL    HW117906   1.782   3.995   8.319 -0.9213  1.5122 -0.3429
 2090SOL    HW217907   1.786   4.028   8.161 -0.9907 -0.2306  0.5827
 2091SOL     OW17908   2.535   4.456   0.802 -0.0604 -0.6298  0.8087
 2091SOL    HW117909   2.496   4.428   0.884  0.3058 -0.1174  1.1602
 2091SOL    HW217910   2.593   4.529   0.824 -0.1279 -0.3281  0.0066
 2092SOL     OW17911   1.221   2.183   9.886  0.3923  0.1081 -0.6423
 2092SOL    HW117912   1.171   2.251   9.931 -2.6535 -2.5972  0.0373
 2092SOL    HW217913   1.278   2.142   9.951  1.0948 -1.1146 -2.0156
 2093SOL     OW17914   1.421   2.777  15.567  0.2740 -0.6653 -0.4323
 2093SOL    HW117915   1.503   2.760  15.613 -0.4716 -0.0373  1.1351
 2093SOL    HW217916   1.434   2.738  15.481 -0.7197 -2.9737  0.4873
 2094SOL     OW17917   1.534   4.195   0.434 -0.5832 -0.2510  0.3045
 2094SOL    HW117918   1.480   4.152   0.368  0.7843  0.3636 -1.2372
 2094SOL    HW217919   1.473   4.256   0.476 -2.1791 -1.0967 -0.8072
 2095SOL     OW17920   3.931   3.153   4.596  0.2270  0.3459  0.3467
 2095SOL    HW117921   3.883   3.072   4.614  0.3658 -0.0635 -1.1171
 2095SOL    HW217922   3.885   3.179   4.517  1.1115  1.1006  0.0818
 2096SOL     OW17923   2.551   2.487   0.730 -0.6145  0.1942 -0.1381
 2096SOL    HW117924   2.555   2.572   0.685 -1.1662  0.2033 -0.1681
 2096SOL    HW217925   2.474   2.490   0.788 -0.7447 -0.2183 -0.2940
 2097SOL     OW17926   2.200   0.743  11.973  0.0539  0.0130 -0.1299
 2097SOL    HW117927   2.117   0.700  11.996  0.6663 -0.3423  1.4265
 2097SOL    HW217928   2.262   0.678  12.006 -0.0095 -0.8568 -1.7171
 2098SOL     OW17929   1.733   0.212  15.181 -0.0019 -0.0800  0.2622
 2098SOL    HW117930   1.812   0.254  15.216 -0.1608  1.3415 -1.0725
 2098SOL    HW217931   1.749   0.124  15.217 -3.0247 -0.5359  0.4909
 2099SOL     OW17932   0.430   1.692   5.675 -0.3232 -0.7450 -0.4560
 2099SOL    HW117933   0.432   1.787   5.668  3.2217 -0.6588  1.6696
 2099SOL    HW217934   0.500   1.653   5.623  0.3763 -1.8828  1.3478
 2100SOL     OW17935   2.145   0.386   9.245 -0.0869 -0.2458  0.0464
 2100SOL    HW117936   2.181   0.350   9.326  1.6362  1.8831  0.2142
 2100SOL    HW217937   2.076   0.323   9.223 -0.5106  0.3467 -0.3173
 2101SOL     OW17938   1.102   1.784   3.263  0.2457  0.2537  0.1626
 2101SOL    HW117939   1.036   1.853   3.254  1.3468  1.3273  0.3885
 2101SOL    HW217940   1.059   1.717   3.317 -0.5089 -1.5252 -2.6231
 2102SOL     OW17941   0.451   3.696   2.581 -0.2742  0.3732  0.0214
 2102SOL    HW117942   0.520   3.637   2.550  0.2097 -0.0135  1.8057
 2102SOL    HW217943   0.413   3.738   2.504 -0.4166  1.0376  0.4586
 2103SOL     OW17944   2.863   3.081  12.569 -0.4579  0.3615  0.4038
 2103SOL    HW117945   2.796   3.141  12.603 -1.1078  0.6888 -1.4313
 2103SOL    HW217946   2.876   3.111  12.478  0.2800  1.1271  0.7584
 2104SOL     OW17947   2.494   2.375   3.571 -0.3600 -0.2507 -0.2011
 2104SOL    HW117948   2.452   2.289   3.569  0.1897 -0.5468  0.7298
 2104SOL    HW217949   2.422   2.434   3.550 -0.8180 -0.8560 -0.3359
 2105SOL     OW17950   1.484   0.936   6.810  0.2636  0.3001 -0.3411
 2105SOL    HW117951   1.397   0.898   6.804  0.0017  0.8533 -0.0219
 2105SOL    HW217952   1.509   0.932   6.902 -0.1618 -0.3291 -0.2520
 2106SOL     OW17953   2.056   0.440   5.302  0.7267 -0.0970  0.1816
 2106SOL    HW117954   2.139   0.455   5.257  0.5635 -1.0224 -0.4253
 2106SOL    HW217955   2.017   0.524   5.322 -0.0199 -0.2283 -0.7242
 2107SOL     OW17956   3.865   1.445   5.245  0.3013 -0.3795 -0.2240
 2107SOL    HW117957   3.932   1.473   5.182 -1.1168 -0.7104 -1.8716
 2107SOL    HW217958   3.788   1.465   5.192  0.8853  1.8384 -0.2336
 2108SOL     OW17959   1.241   4.500   3.262  0.5964 -0.0504 -0.3028
 2108SOL    HW117960   1.307   4.444   3.303  0.2945 -0.0984  0.1163
 2108SOL    HW217961   1.298   4.574   3.241  0.8942  0.0599  0.8976
 2109SOL     OW17962   1.764   2.472   1.404  0.2993  0.2852  0.5168
 2109SOL    HW117963   1.717   2.554   1.391 -1.7893 -1.0881 -0.7292
 2109SOL    HW217964   1.835   2.504   1.458  0.5191 -1.1743  1.1013
 2110SOL     OW17965   0.799   0.888  12.014  0.4826  0.0870 -0.6434
 2110SOL    HW117966   0.748   0.808  12.000 -1.8625  0.9249  3.1006
 2110SOL    HW217967   0.853   0.862  12.088  0.5172  2.4907  0.1648
 2111SOL     OW17968   0.402   3.799  10.699  0.2051  0.1838  0.1598
 2111SOL    HW117969   0.397   3.885  10.659  0.4043  1.1430  2.1830
 2111SOL    HW217970   0.355   3.736  10.644  0.5527  0.1355 -0.0816
 2112SOL     OW17971   0.862   2.608  16.433 -0.8727 -0.5644 -0.1028
 2112SOL    HW117972   0.904   2.587  16.350  0.1458 -2.3822  0.8525
 2112SOL    HW217973   0.922   2.667  16.480 -1.3075 -0.6768  0.6047
 2113SOL     OW17974   3.333   3.055   8.603 -0.2472 -0.0640  0.5015
 2113SOL    HW117975   3.398   3.096   8.660  1.9154 -0.8759 -1.3732
 2113SOL    HW217976   3.392   3.020   8.536 -0.9473 -0.0722 -0.1215
 2114SOL     OW17977   1.269   3.687  14.030  0.4673  0.0455 -0.4360
 2114SOL    HW117978   1.192   3.640  14.063  0.0502  0.0956 -1.3303
 2114SOL    HW217979   1.223   3.768  14.005  0.3968  0.6513  1.6337
 2115SOL     OW17980   0.098   3.198  15.801 -0.3394  0.3826  0.6727
 2115SOL    HW117981   0.152   3.236  15.870 -0.9882 -0.4795  1.6465
 2115SOL    HW217982   0.102   3.104  15.819  4.7096  0.3740 -0.6959
 2116SOL     OW17983   3.074   2.393   6.900 -0.3755  0.4392 -0.0974
 2116SOL    HW117984   3.025   2.429   6.826 -1.4113 -1.7832 -0.4635
 2116SOL    HW217985   3.165   2.420   6.887 -0.6462  0.2469 -2.2996
 2117SOL     OW17986   1.437   4.602  14.954 -0.0920  0.5577  0.3517
 2117SOL    HW117987   1.389   4.624  15.034  0.2621  0.0539  0.7004
 2117SOL    HW217988   1.515   4.657  14.964  0.6203 -0.4720  0.3850
 2118SOL     OW17989   3.305   0.592   1.896  0.1068 -0.1198 -0.2946
 2118SOL    HW117990   3.361   0.669   1.887 -0.7553  0.4203 -1.0187
 2118SOL    HW217991   3.295   0.590   1.991  0.5870 -0.0100 -0.2409
 2119SOL     OW17992   0.070   3.833   2.308 -0.4239  0.2802 -0.0500
 2119SOL    HW117993   0.033   3.774   2.242  1.2202  1.8300 -2.3451
 2119SOL    HW217994   0.064   3.912   2.254  0.8292  0.4858  0.1142
 2120SOL     OW17995   1.182   4.204   2.991 -0.1778  0.1379 -0.0161
 2120SOL    HW117996   1.260   4.255   2.969 -1.4297  1.3506 -1.5764
 2120SOL    HW217997   1.212   4.169   3.075  0.3178 -1.0627 -0.6899
 2121SOL     OW17998   1.863   2.039  12.021 -0.9149  0.5586 -0.0628
 2121SOL    HW117999   1.807   2.089  12.080 -1.3227 -0.2129  0.2078
 2121SOL    HW218000   1.948   2.060  12.058  0.3228 -1.0584 -2.0038
 2122SOL     OW18001   2.203   2.249   1.452  0.5459 -0.6492  0.4057
 2122SOL    HW118002   2.143   2.285   1.518 -0.0384 -1.4171  0.2950
 2122SOL    HW218003   2.138   2.219   1.388  0.8608  1.1977 -0.7707
 2123SOL     OW18004   1.681   2.029  14.463  0.3473 -0.1537  0.5495
 2123SOL    HW118005   1.601   2.040  14.411  0.8496  2.5575  0.3502
 2123SOL    HW218006   1.655   1.961  14.525 -0.9153 -0.0435  0.1538
 2124SOL     OW18007   1.995   3.672   8.816 -0.5537 -0.1850  0.2394
 2124SOL    HW118008   2.079   3.658   8.860 -1.1063 -0.0863  1.3328
 2124SOL    HW218009   2.018   3.636   8.730  0.5012  2.6934 -0.7011
 2125SOL     OW18010   4.537   3.108   4.274  0.4787 -0.4449 -0.8198
 2125SOL    HW118011   4.615   3.158   4.300  0.5392 -1.0404  0.1374
 2125SOL    HW218012   4.565   3.051   4.202 -1.6107 -0.3431 -1.7009
 2126SOL     OW18013   1.953   1.218   5.646 -0.3272 -0.1183  0.2324
 2126SOL    HW118014   2.035   1.261   5.620 -0.2413  0.0023  0.6997
 2126SOL    HW218015   1.938   1.247   5.736 -1.4134  1.8327 -0.5787
 2127SOL     OW18016   4.259   0.622  13.889 -0.2188  0.4006 -0.1803
 2127SOL    HW118017   4.174   0.632  13.847 -0.3381 -1.4653 -0.3738
 2127SOL    HW218018   4.296   0.705  13.859 -0.7306 -0.0735 -2.0973
 2128SOL     OW18019   2.850   0.682  15.450 -0.3471  0.1878 -0.0194
 2128SOL    HW118020   2.907   0.751  15.416  0.9510  0.3917  2.5456
 2128SOL    HW218021   2.768   0.722  15.476  0.2934  1.0462  0.6660
 2129SOL     OW18022   0.677   0.792   7.633  0.0144 -0.2255 -0.2928
 2129SOL    HW118023   0.629   0.712   7.612 -0.4285 -0.4156  1.4198
 2129SOL    HW218024   0.614   0.852   7.672 -1.5615 -2.2293  0.2219
 2130SOL     OW18025   2.247   2.611   2.953 -0.0164  0.4525 -0.1780
 2130SOL    HW118026   2.312   2.680   2.962  0.3713  0.3788 -2.3861
 2130SOL    HW218027   2.310   2.540   2.941 -1.3416 -0.9156  1.1107
 2131SOL     OW18028   2.800   3.408   3.397  0.3501 -0.0373 -0.0293
 2131SOL    HW118029   2.892   3.424   3.418  0.5125 -0.0950 -0.6760
 2131SOL    HW218030   2.767   3.498   3.391 -2.2971 -0.9207  1.1072
 2132SOL     OW18031   3.241   1.293   4.326  0.6841 -0.3194 -0.4085
 2132SOL    HW118032   3.161   1.241   4.329  1.9411 -2.3346 -1.7254
 2132SOL    HW218033   3.206   1.381   4.313 -0.0259 -0.6901 -0.9899
 2133SOL     OW18034   4.309   1.314   4.786 -0.2279  0.2706  0.5616
 2133SOL    HW118035   4.330   1.307   4.879  0.0963 -0.7903  0.4015
 2133SOL    HW218036   4.390   1.323   4.737 -0.7391 -1.8398 -0.6794
 2134SOL     OW18037   1.334   1.464  10.835 -0.2441  0.2225  0.6890
 2134SOL    HW118038   1.283   1.456  10.754  1.3667 -1.1421 -0.1879
 2134SOL    HW218039   1.353   1.372  10.854 -0.4402 -0.6760 -3.4946
 2135SOL     OW18040   0.585   1.406  13.482 -0.3788 -0.1354 -0.0775
 2135SOL    HW118041   0.548   1.351  13.413  0.5944  1.9611 -2.2775
 2135SOL    HW218042   0.581   1.344  13.555  0.3583  0.4982  0.5060
 2136SOL     OW18043   2.952   0.003   6.468 -0.2609 -0.3540 -0.2907
 2136SOL    HW118044   2.948   4.657   6.510 -0.7012  0.2387  0.8818
 2136SOL    HW218045   2.993   4.716   6.386  0.5387  1.8729 -0.6224
 2137SOL     OW18046   0.612   1.676  13.438 -0.3815 -0.0360  0.4972
 2137SOL    HW118047   0.604   1.581  13.446  0.3727 -0.2410 -1.2222
 2137SOL    HW218048   0.524   1.695  13.404 -0.0685  1.9402  0.8314
 2138SOL     OW18049   3.028   3.064  12.928 -0.3139  0.2230  0.6935
 2138SOL    HW118050   2.939   3.061  12.963  0.6965  5.4457  3.7549
 2138SOL    HW218051   3.025   2.987  12.871 -1.2473  0.9311 -0.2192
 2139SOL     OW18052   3.195   2.846   3.236 -0.1325  0.1595  0.9265
 2139SOL    HW118053   3.114   2.874   3.278  1.3730  2.7867  2.0282
 2139SOL    HW218054   3.167   2.807   3.153 -2.2497 -1.3197  2.3340
 2140SOL     OW18055   0.220   1.057   4.096  1.0508 -0.1011  0.2797
 2140SOL    HW118056   0.285   0.993   4.067  1.1021 -0.8724  2.0878
 2140SOL    HW218057   0.150   1.048   4.031  1.7363 -0.4431 -0.4129
 2141SOL     OW18058   2.795   0.346   7.524  0.0875 -0.2444  0.3423
 2141SOL    HW118059   2.709   0.383   7.504 -0.1926 -1.3207 -0.4543
 2141SOL    HW218060   2.826   0.352   7.434 -1.3970  1.1894 -0.0695
 2142SOL     OW18061   4.168   1.082   4.416  0.2478  0.4422  0.3967
 2142SOL    HW118062   4.155   1.169   4.452  0.4601  1.1779 -1.2993
 2142SOL    HW218063   4.216   1.097   4.335 -0.3475  2.2283  0.3854
 2143SOL     OW18064   4.413   0.432  17.722 -0.7015 -0.2027  0.1311
 2143SOL    HW118065   4.347   0.405  17.658  0.8475 -2.2117 -0.6439
 2143SOL    HW218066   4.368   0.510  17.754  0.5005 -0.0530  1.4341
 2144SOL     OW18067   0.857   2.206   2.602  0.1706  0.2542  0.5375
 2144SOL    HW118068   0.900   2.128   2.567 -0.1051 -0.3499  1.5721
 2144SOL    HW218069   0.861   2.265   2.526 -0.3902 -2.5334 -1.6421
 2145SOL     OW18070   2.149   4.589   8.479  1.0252 -0.1639  0.2842
 2145SOL    HW118071   2.122   4.497   8.483 -1.4605  0.5701  0.4123
 2145SOL    HW218072   2.199   4.584   8.397  0.5419  1.1632 -0.0889
 2146SOL     OW18073   0.556   1.706  10.143 -1.3088 -0.3221  0.1649
 2146SOL    HW118074   0.591   1.784  10.185  1.6387 -1.2509 -0.6197
 2146SOL    HW218075   0.469   1.740  10.120 -0.4784  2.1516  0.7184
 2147SOL     OW18076   4.632   2.025   2.645 -0.0088  0.3195  0.0458
 2147SOL    HW118077   4.683   1.991   2.718 -1.6760 -0.4903  0.8120
 2147SOL    HW218078   4.546   2.029   2.686 -0.2316  1.1815 -0.4855
 2148SOL     OW18079   3.105   2.315   3.905 -0.3366  0.4068 -0.5241
 2148SOL    HW118080   3.146   2.271   3.830  0.1480 -0.6969  0.3882
 2148SOL    HW218081   3.147   2.399   3.923  0.5664  0.5875 -3.5438
 2149SOL     OW18082   1.067   1.958   4.712  0.0260  0.0312  0.0222
 2149SOL    HW118083   1.084   1.874   4.669 -0.8881 -0.4957  0.6903
 2149SOL    HW218084   0.990   1.979   4.660 -0.8314  1.7186  1.9991
 2150SOL     OW18085   3.736   0.398  12.825  0.3446 -0.3253  0.5206
 2150SOL    HW118086   3.754   0.444  12.743 -0.9571 -0.6825  0.0182
 2150SOL    HW218087   3.684   0.467  12.864  1.1565  0.8392 -0.4546
 2151SOL     OW18088   3.989   4.520   8.362 -0.7735 -0.3237  0.1316
 2151SOL    HW118089   3.992   4.566   8.446  3.7289 -2.6253  1.2326
 2151SOL    HW218090   4.059   4.455   8.357  1.0376  1.6479 -0.1380
 2152SOL     OW18091   0.517   1.968   2.475  0.0869  0.1462  0.2859
 2152SOL    HW118092   0.596   1.953   2.527  0.7837 -1.5433 -1.2541
 2152SOL    HW218093   0.493   1.878   2.453 -0.0998  0.2514  0.0548
 2153SOL     OW18094   2.429   3.308   6.704  0.8969 -0.2826 -0.0402
 2153SOL    HW118095   2.444   3.341   6.616 -1.1970 -1.1285 -0.6996
 2153SOL    HW218096   2.349   3.255   6.697  0.7333 -0.0439  0.0211
 2154SOL     OW18097   0.597   0.513   6.860  0.2840 -0.2699 -1.0628
 2154SOL    HW118098   0.510   0.507   6.900  1.0663 -0.4321  0.6376
 2154SOL    HW218099   0.664   0.493   6.925  0.1904  1.6810 -0.3596
 2155SOL     OW18100   1.654   0.937  17.152  0.6162  0.1042  0.6040
 2155SOL    HW118101   1.572   0.972  17.187  0.2748 -1.1074  1.0300
 2155SOL    HW218102   1.630   0.876  17.081  0.7495  1.2542 -0.4264
 2156SOL     OW18103   0.089   0.524  14.235  0.3711 -0.2277  0.2473
 2156SOL    HW118104   0.100   0.560  14.323 -0.6887  1.9821 -0.5391
 2156SOL    HW218105   0.041   0.588  14.184 -0.3223  0.3852  1.6779
 2157SOL     OW18106   0.797   2.050  17.540  0.4110 -0.9160 -0.3931
 2157SOL    HW118107   0.798   2.067  17.446 -1.4638 -1.1075 -0.4547
 2157SOL    HW218108   0.788   1.955  17.551 -2.5971 -0.1706  3.4631
 2158SOL     OW18109   2.518   2.291   8.930  0.3854 -0.0099 -0.3338
 2158SOL    HW118110   2.543   2.274   8.839  0.7702 -0.2755 -0.1792
 2158SOL    HW218111   2.601   2.331   8.957  1.4579 -1.6786 -1.1714
 2159SOL     OW18112   4.264   0.105   5.204  0.3462  0.6355  0.0994
 2159SOL    HW118113   4.243   0.123   5.112 -2.8420 -0.6179  0.5752
 2159SOL    HW218114   4.313   0.184   5.225  1.1761 -0.3972  2.0107
 2160SOL     OW18115   0.011   4.369   9.392  0.0851  0.5003  0.4854
 2160SOL    HW118116   0.068   4.299   9.425  0.9600 -0.2634 -2.5588
 2160SOL    HW218117   4.715   4.327   9.314 -1.6062  0.4182  1.3160
 2161SOL     OW18118   2.249   0.368  10.589 -0.2483 -0.2415 -0.4781
 2161SOL    HW118119   2.322   0.316  10.558 -0.1963  0.6714 -1.8946
 2161SOL    HW218120   2.279   0.435  10.651  1.7984 -2.2759  0.7185
 2162SOL     OW18121   4.336   4.109  14.526 -1.0893 -0.0355  0.1265
 2162SOL    HW118122   4.379   4.065  14.453  1.3300 -0.8717  2.0445
 2162SOL    HW218123   4.260   4.146  14.481  1.0437  1.7143 -1.9697
 2163SOL     OW18124   4.502   1.472   0.086  0.4371 -0.4926  0.2704
 2163SOL    HW118125   4.548   1.395   0.054  1.8219  0.0421  0.9900
 2163SOL    HW218126   4.576   1.532   0.094 -0.6764  1.1165 -1.2674
 2164SOL     OW18127   1.359   0.764  13.787  0.3545  0.1104 -0.2361
 2164SOL    HW118128   1.288   0.701  13.771  1.8779 -1.9645  1.1103
 2164SOL    HW218129   1.331   0.800  13.871 -0.5501  1.0995 -0.9606
 2165SOL     OW18130   4.587   1.685   7.414  0.1335 -0.3963  0.7653
 2165SOL    HW118131   4.579   1.779   7.428 -3.5537 -0.4828 -0.7831
 2165SOL    HW218132   4.542   1.673   7.330 -0.4756 -1.5304  1.2508
 2166SOL     OW18133   0.395   2.767  17.102 -0.0531  0.2637  0.4307
 2166SOL    HW118134   0.327   2.807  17.048  0.9459  0.9519 -0.3250
 2166SOL    HW218135   0.339   2.709  17.153  2.0778 -0.7325  1.6329
 2167SOL     OW18136   0.299   2.555   5.104 -0.2104 -0.1019 -0.1947
 2167SOL    HW118137   0.292   2.603   5.186 -1.2420 -0.7698  0.1082
 2167SOL    HW218138   0.301   2.623   5.037  0.0895 -1.1270 -1.2484
 2168SOL     OW18139   3.781   0.750   2.696  0.0253  0.0090 -0.4867
 2168SOL    HW118140   3.744   0.813   2.759  0.7080 -0.8850  0.7867
 2168SOL    HW218141   3.840   0.701   2.752 -0.3689 -0.4300 -0.4566
 2169SOL     OW18142   3.105   1.296   3.083  0.7700  0.5024  0.3473
 2169SOL    HW118143   3.069   1.213   3.051 -0.8725  1.1788  0.4494
 2169SOL    HW218144   3.037   1.362   3.070 -0.8791 -1.3572 -0.4820
 2170SOL     OW18145   1.916   0.849   6.781 -0.0214 -0.3001  0.0187
 2170SOL    HW118146   1.939   0.893   6.862 -1.7214 -0.8552  0.8026
 2170SOL    HW218147   1.901   0.926   6.726 -2.6243  0.8080  2.2925
 2171SOL     OW18148   1.918   4.276   7.383 -0.2561  0.3378 -0.1719
 2171SOL    HW118149   1.923   4.371   7.397  0.0044  0.3597 -0.4103
 2171SOL    HW218150   1.865   4.252   7.459  1.4012 -2.5233  0.0746
 2172SOL     OW18151   0.349   2.898   9.965 -0.2034 -0.8185 -0.5288
 2172SOL    HW118152   0.320   2.984   9.935  0.9199  0.4924  2.1469
 2172SOL    HW218153   0.444   2.902   9.975 -0.2474 -1.4763  0.1505
 2173SOL     OW18154   4.107   1.385  17.673 -0.7612  0.2090 -0.0036
 2173SOL    HW118155   4.061   1.316  17.626 -1.0560  1.8786 -2.1347
 2173SOL    HW218156   4.042   1.455  17.668  1.3325  2.2620  1.0420
 2174SOL     OW18157   1.848   4.554   3.412 -0.3432 -0.3712  0.1747
 2174SOL    HW118158   1.906   4.628   3.431 -0.0337 -0.0042 -2.1937
 2174SOL    HW218159   1.761   4.591   3.428 -1.1403 -1.9701 -0.5099
 2175SOL     OW18160   0.715   0.208   9.765  0.1100 -0.2062  0.5640
 2175SOL    HW118161   0.705   0.115   9.747  0.2014 -0.1263  0.0931
 2175SOL    HW218162   0.630   0.223   9.807  0.1508 -0.9455  0.9131
 2176SOL     OW18163   0.757   0.692   0.480  0.4546  0.0499  0.0398
 2176SOL    HW118164   0.819   0.661   0.547  0.6703 -1.3402 -0.8006
 2176SOL    HW218165   0.749   0.606   0.439 -2.7795 -0.5787  1.9577
 2177SOL     OW18166   4.176   0.354   7.787 -0.1635  0.5084 -0.3016
 2177SOL    HW118167   4.196   0.400   7.868  1.5075 -3.0929  1.3564
 2177SOL    HW218168   4.254   0.299   7.783 -0.7973 -0.4268  0.1801
 2178SOL     OW18169   2.076   3.867   5.887 -0.0269  0.4284 -0.2264
 2178SOL    HW118170   2.095   3.876   5.980 -2.4977 -1.4060  0.4481
 2178SOL    HW218171   2.067   3.958   5.860 -0.5214  0.2268 -0.7501
 2179SOL     OW18172   0.381   3.784   9.505 -0.1746 -0.2898  0.8153
 2179SOL    HW118173   0.296   3.814   9.474  0.5772  1.0560  0.0690
 2179SOL    HW218174   0.430   3.772   9.423 -1.8492  0.5191 -0.3069
 2180SOL     OW18175   2.983   4.294  10.819 -0.7123 -0.2894 -0.1240
 2180SOL    HW118176   3.017   4.221  10.872  0.6595 -0.1111 -0.7575
 2180SOL    HW218177   2.894   4.299  10.853  0.3232 -1.4984  2.8058
 2181SOL     OW18178   2.308   1.317  11.364  0.3694 -0.4734 -0.2886
 2181SOL    HW118179   2.224   1.348  11.399  1.2865  0.9916  0.6279
 2181SOL    HW218180   2.289   1.230  11.329  0.2582 -0.6336  0.1647
 2182SOL     OW18181   4.069   2.857   2.076  0.5948  0.1259 -0.0858
 2182SOL    HW118182   4.073   2.866   1.981 -1.2072  1.8152 -0.0028
 2182SOL    HW218183   4.081   2.762   2.081  1.4494  0.2013 -0.6980
 2183SOL     OW18184   3.976   4.052   4.488  0.1157 -0.0163  0.0766
 2183SOL    HW118185   4.035   4.100   4.429 -0.8041  1.1669  0.1264
 2183SOL    HW218186   3.968   3.969   4.442 -1.2975 -0.8810  1.8645
 2184SOL     OW18187   4.519   2.777   7.881  0.0624 -0.1257 -0.1675
 2184SOL    HW118188   4.440   2.827   7.900 -0.0823 -0.3630 -0.1481
 2184SOL    HW218189   4.523   2.790   7.786 -0.8640  0.0339 -0.1818
 2185SOL     OW18190   3.552   4.708   2.233 -0.3816  0.3425  0.2305
 2185SOL    HW118191   3.602   4.630   2.254 -0.1208  0.2191 -0.8846
 2185SOL    HW218192   3.573   0.023   2.309 -0.2873 -1.0202  1.1880
 2186SOL     OW18193   0.190   3.004   4.824 -0.0151 -0.1377  0.0504
 2186SOL    HW118194   0.265   3.063   4.820 -0.6862  0.8951  2.4983
 2186SOL    HW218195   0.131   3.068   4.865 -0.1647 -0.3546  0.1738
 2187SOL     OW18196   1.869   4.502   3.981 -0.2000 -0.0898 -0.7199
 2187SOL    HW118197   1.896   4.467   3.896  0.6764 -1.2913  0.0461
 2187SOL    HW218198   1.934   4.462   4.040 -0.4479 -2.3341 -1.9775
 2188SOL     OW18199   4.612   1.716   9.824 -0.0107 -0.1658 -0.5322
 2188SOL    HW118200   4.640   1.800   9.788 -0.3195 -0.2696 -1.0139
 2188SOL    HW218201   4.692   1.672   9.851 -0.7934 -0.5345  1.1474
 2189SOL     OW18202   4.346   3.757   8.016  0.2380 -0.3462 -0.8340
 2189SOL    HW118203   4.392   3.816   7.957 -0.2576 -0.1503 -1.0207
 2189SOL    HW218204   4.427   3.718   8.051  0.6756  1.6049  0.3219
 2190SOL     OW18205   0.805   3.253   5.969  0.6594 -0.1581  0.3611
 2190SOL    HW118206   0.898   3.278   5.972  0.1613  2.0624 -2.1719
 2190SOL    HW218207   0.804   3.185   6.036  0.7661 -1.1586 -0.6571
 2191SOL     OW18208   0.373   2.987  11.765  0.0541 -0.3751 -0.7650
 2191SOL    HW118209   0.334   3.047  11.828 -2.8910  0.4676 -3.4223
 2191SOL    HW218210   0.444   2.962  11.824 -1.9299 -0.5009  1.5663
 2192SOL     OW18211   4.235   4.230   8.618  0.0353 -0.0700 -0.4809
 2192SOL    HW118212   4.254   4.292   8.688  2.5722  2.2100 -3.2091
 2192SOL    HW218213   4.306   4.168   8.639  1.3559  1.5657 -0.0917
 2193SOL     OW18214   0.658   0.230  15.152 -0.1664 -0.7728 -0.0413
 2193SOL    HW118215   0.692   0.172  15.221  1.4087  1.1847  0.8501
 2193SOL    HW218216   0.572   0.187  15.153 -0.6394  0.1886  0.4317
 2194SOL     OW18217   4.298   0.870   3.773  0.5191 -0.8043  0.0357
 2194SOL    HW118218   4.218   0.844   3.727  0.1469  0.0348  0.2178
 2194SOL    HW218219   4.331   0.783   3.797 -1.5509 -0.9651  2.3768
 2195SOL     OW18220   1.760   2.752   4.176 -0.1077  0.2243  0.1211
 2195SOL    HW118221   1.697   2.773   4.107  1.3296 -0.9982 -1.5845
 2195SOL    HW218222   1.787   2.834   4.216 -1.7046 -0.3335  2.3303
 2196SOL     OW18223   0.757   3.865   2.916 -0.1639  0.4977 -0.1586
 2196SOL    HW118224   0.812   3.940   2.892 -0.6973  0.3061 -1.9426
 2196SOL    HW218225   0.819   3.792   2.918  1.6643  2.0655  1.4578
 2197SOL     OW18226   2.708   0.250  11.617  0.0251 -0.0827 -0.2649
 2197SOL    HW118227   2.693   0.158  11.639  2.1979  0.1448  2.2805
 2197SOL    HW218228   2.763   0.235  11.540 -0.7578  3.2487 -1.4731
 2198SOL     OW18229   4.704   4.031   5.625 -0.1019  0.0068  0.2338
 2198SOL    HW118230   0.053   4.000   5.638 -0.4284 -1.4918 -1.1332
 2198SOL    HW218231   4.653   3.963   5.669  2.0988 -2.0108 -0.3091
 2199SOL     OW18232   1.749   1.350   2.490 -0.2086  0.2088 -0.0156
 2199SOL    HW118233   1.680   1.283   2.497 -1.6384  1.5151 -1.9373
 2199SOL    HW218234   1.723   1.405   2.418  0.6354  1.1949  0.4309
 2200SOL     OW18235   1.022   4.395   6.974  0.2007 -0.5206  0.0442
 2200SOL    HW118236   1.070   4.336   7.032  0.6871  0.5532  0.7370
 2200SOL    HW218237   0.997   4.458   7.042  0.5054 -0.7853  0.4030
 2201SOL     OW18238   2.241   0.158   6.127  0.6271 -0.1820 -0.3497
 2201SOL    HW118239   2.231   0.250   6.150  0.4368 -0.4762  0.7657
 2201SOL    HW218240   2.157   0.151   6.081  0.3517 -0.3243  0.1719
 2202SOL     OW18241   4.193   1.202   5.409 -0.2533  0.9967 -0.0504
 2202SOL    HW118242   4.205   1.259   5.485  0.7604  0.7364 -0.0213
 2202SOL    HW218243   4.116   1.155   5.442  1.7083 -0.5786  2.2132
 2203SOL     OW18244   1.392   3.891   6.073 -0.3771 -0.3424  0.0611
 2203SOL    HW118245   1.328   3.947   6.116  0.5717 -1.1053  2.4699
 2203SOL    HW218246   1.471   3.930   6.109  0.8095 -1.5077 -1.2407
 2204SOL     OW18247   2.106   1.276  13.520 -0.5445 -0.4190 -0.7260
 2204SOL    HW118248   2.043   1.251  13.587 -0.7848  0.2819 -0.6929
 2204SOL    HW218249   2.140   1.359  13.554 -0.0946 -1.0734  0.4053
 2205SOL     OW18250   4.207   2.809   6.539 -0.5000 -0.4084  0.2357
 2205SOL    HW118251   4.221   2.846   6.452  1.1679 -2.0763 -0.1970
 2205SOL    HW218252   4.116   2.836   6.555 -0.5451 -0.3523 -0.1138
 2206SOL     OW18253   0.890   2.522  16.156 -0.2283 -0.5515 -0.1475
 2206SOL    HW118254   0.811   2.485  16.118 -0.0304  0.4602 -1.5616
 2206SOL    HW218255   0.960   2.465  16.124 -0.2205 -0.4413 -0.3305
 2207SOL     OW18256   2.607   3.365   6.127 -0.2403  0.3824 -0.3862
 2207SOL    HW118257   2.653   3.327   6.052  1.5055  2.2662 -0.2651
 2207SOL    HW218258   2.517   3.354   6.096  0.1332  0.5884 -1.5458
 2208SOL     OW18259   0.402   3.981   7.543  0.0252  0.3041  0.1320
 2208SOL    HW118260   0.450   3.963   7.463  3.3314 -1.5322  2.5556
 2208SOL    HW218261   0.320   3.931   7.541 -0.4096  0.9454  1.7640
 2209SOL     OW18262   0.902   2.947   5.820  0.3763 -0.3911  0.3019
 2209SOL    HW118263   0.946   3.002   5.755 -0.8418 -0.0542 -0.2352
 2209SOL    HW218264   0.817   2.991   5.826  0.9064  0.8953 -1.8598
 2210SOL     OW18265   2.682   3.003  10.976  0.2066  0.1013 -0.1116
 2210SOL    HW118266   2.754   3.004  10.912 -0.3898 -0.3039 -0.7820
 2210SOL    HW218267   2.683   2.915  11.013 -0.2738  0.5924  1.0733
 2211SOL     OW18268   0.416   2.435   8.045  0.3180  0.3255  0.6566
 2211SOL    HW118269   0.369   2.425   8.127  0.1853 -1.6903  0.3373
 2211SOL    HW218270   0.341   2.463   7.992  0.3763  1.5008  1.1936
 2212SOL     OW18271   0.419   1.881   6.228  0.3181 -0.2373  0.0835
 2212SOL    HW118272   0.327   1.858   6.236  0.4388 -0.5997  0.4724
 2212SOL    HW218273   0.415   1.914   6.139 -3.3943  1.9760  1.1023
 2213SOL     OW18274   2.893   3.292   5.679  0.6535  0.2690 -0.5829
 2213SOL    HW118275   2.832   3.321   5.611  0.1080  1.4603  0.4358
 2213SOL    HW218276   2.880   3.357   5.748  0.8174  0.3899 -0.6648
 2214SOL     OW18277   3.715   1.689  11.920  0.1654 -0.8275  0.2501
 2214SOL    HW118278   3.652   1.718  11.855 -0.1604 -2.7116 -0.2571
 2214SOL    HW218279   3.771   1.758  11.957 -0.5080  0.4509 -1.1256
 2215SOL     OW18280   2.474   1.924   3.520  0.1083 -0.4297  0.2860
 2215SOL    HW118281   2.519   1.953   3.440 -1.9739  3.7651  0.6282
 2215SOL    HW218282   2.403   1.869   3.488 -0.7028 -0.0008  1.3524
 2216SOL     OW18283   2.996   2.878  12.702  0.0437 -0.2678  0.2275
 2216SOL    HW118284   2.964   2.954  12.654 -0.8356  0.3477  1.7944
 2216SOL    HW218285   2.917   2.847  12.747  0.1467 -0.3791  0.3295
 2217SOL     OW18286   1.360   0.281  17.489  0.5184 -0.1670 -0.3149
 2217SOL    HW118287   1.378   0.190  17.515 -1.1398 -0.2907  0.3658
 2217SOL    HW218288   1.341   0.275  17.395 -0.6488  0.3663 -0.1104
 2218SOL     OW18289   3.123   2.566   5.363  0.4101 -0.1134 -0.5303
 2218SOL    HW118290   3.175   2.495   5.399  2.4695  1.1258 -1.0948
 2218SOL    HW218291   3.121   2.620   5.441 -1.9935 -2.5045  1.0801
 2219SOL     OW18292   3.838   1.122   1.724  0.2239  0.4610 -0.4740
 2219SOL    HW118293   3.909   1.071   1.683 -0.0963  1.9409 -2.8564
 2219SOL    HW218294   3.868   1.123   1.815  2.1894  1.6153 -1.1282
 2220SOL     OW18295   1.927   2.949   9.773  0.4730 -0.6350  0.2329
 2220SOL    HW118296   1.969   2.921   9.854  1.8565  0.0427 -0.2407
 2220SOL    HW218297   1.940   3.043   9.786 -3.1724 -0.1807  0.4009
 2221SOL     OW18298   2.596   3.208   1.622  0.2626 -0.0959 -0.4741
 2221SOL    HW118299   2.643   3.176   1.545 -0.7644 -4.2006  0.6165
 2221SOL    HW218300   2.564   3.129   1.665 -2.0687  1.5316  0.7543
 2222SOL     OW18301   2.055   0.345   5.974  0.5870 -0.3035 -0.1802
 2222SOL    HW118302   1.964   0.372   5.987  0.7387  1.4657 -2.8141
 2222SOL    HW218303   2.039   0.252   5.956  0.7323 -0.5312  0.8269
 2223SOL     OW18304   0.183   3.026   1.402 -0.2107 -0.0780 -0.4903
 2223SOL    HW118305   0.154   2.958   1.342 -4.0212 -0.2009  1.4660
 2223SOL    HW218306   0.208   3.090   1.335  0.9932  0.2232  0.2461
 2224SOL     OW18307   0.807   2.516   0.906 -0.0524 -0.0791 -0.2475
 2224SOL    HW118308   0.788   2.425   0.886 -0.3874  0.1517 -0.9573
 2224SOL    HW218309   0.783   2.515   0.999  1.0421  0.0724  0.0484
 2225SOL     OW18310   1.496   4.541   2.045  0.0693  0.4834 -0.6455
 2225SOL    HW118311   1.558   4.526   1.974  2.9037 -0.4098  1.9899
 2225SOL    HW218312   1.550   4.519   2.121 -2.1477 -0.0228  0.7774
 2226SOL     OW18313   2.844   2.281   9.000  0.1774 -0.3799  0.8874
 2226SOL    HW118314   2.888   2.364   9.022 -0.5279  1.1370 -3.3623
 2226SOL    HW218315   2.905   2.255   8.931  0.4129 -2.3123  1.8289
 2227SOL     OW18316   1.587   3.016  10.777 -0.0286 -0.0858 -0.4408
 2227SOL    HW118317   1.495   3.038  10.758  0.3019  1.7747  0.1560
 2227SOL    HW218318   1.591   3.037  10.870 -0.7969 -0.1843 -0.3791
 2228SOL     OW18319   1.333   4.709  15.446  0.2258 -0.3166  0.0085
 2228SOL    HW118320   1.319   0.041  15.508  0.3831  0.1158 -0.4584
 2228SOL    HW218321   1.394   4.649  15.490 -2.0294 -1.4844  1.5324
 2229SOL     OW18322   3.061   4.476   8.160 -0.8057  0.3279 -0.4424
 2229SOL    HW118323   3.078   4.527   8.239 -2.2898  1.1526 -0.6558
 2229SOL    HW218324   3.048   4.545   8.096 -1.9441  2.3538  1.9769
 2230SOL     OW18325   1.430   0.851  11.748  0.3320  0.2577  0.3406
 2230SOL    HW118326   1.367   0.888  11.810 -0.1689  2.1566 -1.3084
 2230SOL    HW218327   1.496   0.919  11.758 -1.0236  1.4733  0.9904
 2231SOL     OW18328   0.178   0.686   8.031  0.5343  0.0681 -0.1696
 2231SOL    HW118329   0.272   0.680   8.014  0.5602  2.8812 -0.9581
 2231SOL    HW218330   0.157   0.596   8.006 -1.9329  0.4609  0.4900
 2232SOL     OW18331   4.065   2.314   3.345  0.5763  0.2941  0.7942
 2232SOL    HW118332   3.972   2.318   3.369  0.3106 -1.4808  0.0408
 2232SOL    HW218333   4.052   2.280   3.257  0.1234  0.7795  0.6719
 2233SOL     OW18334   1.057   2.469   9.718  0.1592 -0.9545 -0.0123
 2233SOL    HW118335   1.002   2.537   9.679  1.9143 -0.3526 -1.4152
 2233SOL    HW218336   1.141   2.514   9.731 -0.0911 -0.5382  0.1897
 2234SOL     OW18337   2.547   1.165  14.129 -0.4720  0.2278  0.2224
 2234SOL    HW118338   2.454   1.173  14.108  0.3871 -0.0508 -3.6491
 2234SOL    HW218339   2.539   1.126  14.216  1.3348  1.1430  0.8122
 2235SOL     OW18340   2.257   4.116   8.505 -0.2026  0.2433  0.0754
 2235SOL    HW118341   2.196   4.097   8.433 -0.2116  1.2829 -0.1931
 2235SOL    HW218342   2.250   4.031   8.548  2.0281 -1.3098 -2.6273
 2236SOL     OW18343   0.259   4.115   3.881 -0.2064  0.3268  0.2150
 2236SOL    HW118344   0.181   4.127   3.935  0.4523 -0.3256  1.2968
 2236SOL    HW218345   0.221   4.131   3.794 -1.4894 -0.3769  0.6591
 2237SOL     OW18346   3.324   1.562   5.486 -0.1572 -0.2655  0.9216
 2237SOL    HW118347   3.344   1.498   5.417 -0.1834  1.3334 -0.5797
 2237SOL    HW218348   3.294   1.638   5.435  0.9601  1.8592  3.4451
 2238SOL     OW18349   2.343   1.385  16.019  0.3812 -0.1620  0.0416
 2238SOL    HW118350   2.353   1.290  16.028  0.1308 -0.0560  1.4567
 2238SOL    HW218351   2.327   1.411  16.110 -0.9572  0.4438 -0.3662
 2239SOL     OW18352   4.525   4.221   7.318  0.0324 -0.4252 -0.0514
 2239SOL    HW118353   4.557   4.131   7.309 -1.7798 -1.3880  3.3304
 2239SOL    HW218354   4.567   4.253   7.398 -1.3608  0.7655  0.1931
 2240SOL     OW18355   2.621   4.130  13.253  0.1224 -0.6620 -0.1603
 2240SOL    HW118356   2.640   4.127  13.159  1.2790 -0.2568  0.0720
 2240SOL    HW218357   2.683   4.186  13.299 -1.0814 -0.5843  1.3578
 2241SOL     OW18358   2.586   3.509   6.822 -0.9092  0.4936 -0.0325
 2241SOL    HW118359   2.532   3.451   6.769 -0.4811  0.2163 -0.1694
 2241SOL    HW218360   2.654   3.541   6.762 -1.0452 -2.5758 -1.8168
 2242SOL     OW18361   3.125   1.223   0.212  0.0727  0.6280  0.4049
 2242SOL    HW118362   3.123   1.319   0.213 -1.9964  0.5856 -0.0181
 2242SOL    HW218363   3.042   1.200   0.172  1.3611  0.1043 -1.9417
 2243SOL     OW18364   0.055   1.074   7.660  0.3310 -0.1421 -0.0873
 2243SOL    HW118365   4.718   1.070   7.717  0.9196  2.0440  0.8546
 2243SOL    HW218366   0.098   0.992   7.684  1.0254  0.3447  0.3346
 2244SOL     OW18367   2.430   1.133   4.660  1.2600  0.4659  0.4754
 2244SOL    HW118368   2.507   1.189   4.671 -0.3018  2.4457  1.3676
 2244SOL    HW218369   2.363   1.172   4.715  0.4682  0.6903 -0.6546
 2245SOL     OW18370   3.862   0.945   8.697 -0.4137 -0.5377  0.1698
 2245SOL    HW118371   3.904   1.004   8.635 -1.2151  1.3349  1.4456
 2245SOL    HW218372   3.771   0.973   8.696 -0.3315 -0.3410 -1.3248
 2246SOL     OW18373   3.836   3.367   6.679  0.6707 -0.1287 -0.3485
 2246SOL    HW118374   3.846   3.376   6.774  1.1619 -0.8581 -0.3373
 2246SOL    HW218375   3.895   3.296   6.656 -0.7881 -1.7355  0.9013
 2247SOL     OW18376   0.489   3.661   3.494  0.1664  0.3644 -0.2659
 2247SOL    HW118377   0.468   3.608   3.571 -0.4653  1.2234  0.1539
 2247SOL    HW218378   0.407   3.706   3.476 -0.0854  0.0011 -0.0326
 2248SOL     OW18379   2.589   0.522   8.499  0.0667 -0.4715  0.1959
 2248SOL    HW118380   2.513   0.468   8.520 -0.8180  0.8762  0.4578
 2248SOL    HW218381   2.651   0.493   8.566  1.0818  1.4801  0.0919
 2249SOL     OW18382   2.927   4.407  11.704 -0.7030  0.5935  0.3687
 2249SOL    HW118383   2.968   4.357  11.633 -0.4521  0.1390  0.8328
 2249SOL    HW218384   2.996   4.430  11.765 -1.4743  1.5792  0.8572
 2250SOL     OW18385   2.248   2.862   6.753  0.4101 -0.0924 -0.5762
 2250SOL    HW118386   2.314   2.800   6.785  0.5367 -0.2235 -1.0917
 2250SOL    HW218387   2.201   2.818   6.682 -1.9273 -1.1849  1.6374
 2251SOL     OW18388   1.831   2.807   5.290 -0.6647  0.0983  0.2629
 2251SOL    HW118389   1.755   2.751   5.302  0.9478 -1.7670  1.6040
 2251SOL    HW218390   1.800   2.851   5.211  2.3926  0.1386 -0.9205
 2252SOL     OW18391   3.745   4.729   9.479  0.3688 -0.7689 -0.0259
 2252SOL    HW118392   3.729   4.685   9.563 -0.3724  1.9984  1.2759
 2252SOL    HW218393   3.814   4.673   9.442 -1.8764 -1.0378 -3.7654
 2253SOL     OW18394   0.467   0.952   4.498 -0.3118 -0.0802  0.0206
 2253SOL    HW118395   0.490   1.006   4.422  0.6113  0.0695  0.4017
 2253SOL    HW218396   0.533   0.978   4.563 -0.1760  0.2009 -0.2303
 2254SOL     OW18397   0.259   1.723   3.386 -0.5229 -0.2995  0.2967
 2254SOL    HW118398   0.256   1.815   3.359 -2.2057  0.2479  2.3201
 2254SOL    HW218399   0.188   1.675   3.344 -1.1146  0.1767  0.7449
 2255SOL     OW18400   2.244   0.568   2.017  0.3047 -0.6083  0.4813
 2255SOL    HW118401   2.315   0.545   2.077  2.6315  3.3156 -0.7606
 2255SOL    HW218402   2.273   0.516   1.942 -0.7475  1.6435 -1.4635
 2256SOL     OW18403   1.332   3.128   1.364  0.4539 -0.4793 -0.2031
 2256SOL    HW118404   1.257   3.099   1.311  0.1327 -0.5696  0.3048
 2256SOL    HW218405   1.379   3.048   1.388  0.9922  0.2938  1.2946
 2257SOL     OW18406   2.137   0.860  17.404 -0.1855  0.0662 -0.1206
 2257SOL    HW118407   2.071   0.800  17.369  1.3510 -2.2390  0.9506
 2257SOL    HW218408   2.209   0.857  17.341  1.2866 -0.5726  1.6102
 2258SOL     OW18409   4.599   1.486   1.565 -0.2079  0.7826 -0.8851
 2258SOL    HW118410   4.624   1.509   1.476  0.6195 -1.8598 -1.3267
 2258SOL    HW218411   4.575   1.394   1.562 -1.7477  1.0701  2.2013
 2259SOL     OW18412   0.659   0.014  10.003 -0.5548  0.0927 -0.2727
 2259SOL    HW118413   0.652   0.095  10.053  1.0351  1.0055 -1.5080
 2259SOL    HW218414   0.745   4.721  10.031 -0.8720 -1.9816 -1.7335
 2260SOL     OW18415   3.328   4.624   1.355 -0.0428 -0.5517  0.2648
 2260SOL    HW118416   3.284   4.703   1.325 -0.2559  0.1054  2.3300
 2260SOL    HW218417   3.327   4.565   1.279  1.8724 -0.3316  0.0736
 2261SOL     OW18418   4.204   3.282  17.082 -0.0466  0.1648  0.2239
 2261SOL    HW118419   4.238   3.372  17.086  0.5400 -0.0555  0.2261
 2261SOL    HW218420   4.200   3.269  16.987 -0.4893  1.8741  0.0040
 2262SOL     OW18421   4.146   3.333   8.107 -0.2241 -0.2963 -0.4365
 2262SOL    HW118422   4.057   3.322   8.141 -0.2204 -1.0220 -0.6665
 2262SOL    HW218423   4.204   3.273   8.154 -0.1598 -0.5829 -0.8820
 2263SOL     OW18424   0.665   2.675   8.835  0.2259  0.0341  0.2423
 2263SOL    HW118425   0.693   2.755   8.791  1.5396 -0.2064  0.6428
 2263SOL    HW218426   0.745   2.626   8.855 -0.0774 -0.9879 -1.0824
 2264SOL     OW18427   4.736   0.952  14.088 -0.4200 -0.1465  0.5753
 2264SOL    HW118428   0.002   0.867  14.045  0.7940  0.4515 -0.4232
 2264SOL    HW218429   0.089   0.958  14.106  0.1169 -0.4042 -2.1238
 2265SOL     OW18430   2.726   4.296  10.937  0.9002 -0.1888  0.4455
 2265SOL    HW118431   2.631   4.299  10.937  0.8642 -1.3156 -1.8929
 2265SOL    HW218432   2.738   4.356  11.010  0.2375 -0.0627  0.4518
 2266SOL     OW18433   3.886   3.205  16.952  0.2422 -0.5953 -0.6341
 2266SOL    HW118434   3.933   3.280  16.915  0.5796 -1.0254 -1.0779
 2266SOL    HW218435   3.954   3.140  16.967  0.8355  0.4767  1.2806
 2267SOL     OW18436   0.834   3.606   8.840  0.2036  0.4961 -0.0499
 2267SOL    HW118437   0.847   3.683   8.895 -0.0160  0.4897  0.0097
 2267SOL    HW218438   0.927   3.593   8.820  0.6353 -0.7593  2.7976
 2268SOL     OW18439   3.588   0.255   8.416  0.7086 -0.0745  0.2762
 2268SOL    HW118440   3.539   0.180   8.452 -0.4745  0.6163  0.0998
 2268SOL    HW218441   3.676   0.217   8.419  0.4428 -0.6030  1.4996
 2269SOL     OW18442   3.215   4.528   2.769 -0.2739  0.1531 -0.2812
 2269SOL    HW118443   3.279   4.583   2.724 -0.5581  0.0548 -0.8107
 2269SOL    HW218444   3.143   4.535   2.706 -1.1362 -1.9875  0.4592
 2270SOL     OW18445   0.569   0.417   4.103  0.2097  0.6417 -0.1471
 2270SOL    HW118446   0.493   0.364   4.128  0.0386 -0.1000 -2.2965
 2270SOL    HW218447   0.590   0.450   4.191  1.5847 -1.2132  0.2085
 2271SOL     OW18448   2.842   0.189  10.410  0.2471 -0.9328  0.2492
 2271SOL    HW118449   2.767   0.216  10.357 -1.2771  0.3499  3.0740
 2271SOL    HW218450   2.883   0.275  10.419 -1.1049 -0.0996 -1.6701
 2272SOL     OW18451   3.718   4.328   8.374  0.4933 -0.1221 -0.4384
 2272SOL    HW118452   3.626   4.354   8.382  1.5188  3.0899  0.7043
 2272SOL    HW218453   3.747   4.369   8.455 -1.7694  1.0183 -0.1938
 2273SOL     OW18454   1.125   0.166   9.279 -0.5164 -0.2352 -0.5824
 2273SOL    HW118455   1.167   0.157   9.193 -0.8918 -0.1941 -0.7724
 2273SOL    HW218456   1.033   0.149   9.258 -0.5295 -3.2229  2.0524
 2274SOL     OW18457   3.099   1.423   3.536 -0.3639 -0.0835 -0.7471
 2274SOL    HW118458   3.117   1.338   3.497  2.3661  0.5773 -0.9624
 2274SOL    HW218459   3.024   1.448   3.482 -0.9503 -0.7301 -0.2276
 2275SOL     OW18460   2.317   3.157   5.261 -0.0362 -0.0561  0.3543
 2275SOL    HW118461   2.334   3.094   5.332 -1.4617 -0.7033  0.1299
 2275SOL    HW218462   2.328   3.243   5.300  1.3768  0.5276 -1.3317
 2276SOL     OW18463   2.998   3.075  11.085  0.1045  0.0592 -0.2445
 2276SOL    HW118464   3.000   2.980  11.081  5.5959  0.1506  0.6456
 2276SOL    HW218465   3.086   3.088  11.048 -0.0067 -2.5468 -1.4440
 2277SOL     OW18466   2.806   1.122   2.276  0.0555  0.0679 -0.2594
 2277SOL    HW118467   2.726   1.082   2.242  0.4832  0.8310 -2.1138
 2277SOL    HW218468   2.832   1.064   2.348 -0.3469 -0.1872 -0.3181
 2278SOL     OW18469   1.247   4.086   6.190  0.5044  0.3734  0.0943
 2278SOL    HW118470   1.172   4.135   6.223 -0.5814 -1.1233 -0.1344
 2278SOL    HW218471   1.272   4.152   6.125 -1.1608  1.6687  0.7839
 2279SOL     OW18472   4.215   0.556   5.545  0.3500  0.1172  0.4676
 2279SOL    HW118473   4.209   0.615   5.620  0.0465 -0.5633  0.9837
 2279SOL    HW218474   4.214   0.619   5.473 -0.7895 -0.9250 -0.4268
 2280SOL     OW18475   2.948   1.017   2.038  0.3547 -0.2603  0.3686
 2280SOL    HW118476   2.993   1.077   1.979 -1.7325 -0.5502 -1.5418
 2280SOL    HW218477   2.935   1.068   2.118 -1.2857 -0.0516 -0.0331
 2281SOL     OW18478   4.097   4.729   7.364 -0.1020  0.0055 -0.1433
 2281SOL    HW118479   4.089   4.702   7.273 -0.1294  2.8049 -0.9458
 2281SOL    HW218480   4.191   4.738   7.379 -0.0411  0.1594 -0.6365
 2282SOL     OW18481   2.076   3.268   5.989 -0.1609  0.3113  0.0208
 2282SOL    HW118482   2.136   3.200   6.019 -1.3573 -1.5044 -1.7026
 2282SOL    HW218483   2.026   3.277   6.070  0.3925 -2.7113  0.7066
 2283SOL     OW18484   1.222   1.166  11.592  1.0238 -0.3931  0.2187
 2283SOL    HW118485   1.276   1.100  11.547  0.1872 -0.7143 -0.3176
 2283SOL    HW218486   1.239   1.150  11.685  0.4920 -0.2020  0.3455
 2284SOL     OW18487   1.353   0.401   3.805 -0.5180 -0.3714 -0.1289
 2284SOL    HW118488   1.305   0.386   3.887 -0.4883  0.8364  0.1075
 2284SOL    HW218489   1.399   0.479   3.837  0.3274  0.6842 -3.9312
 2285SOL     OW18490   3.493   4.564   5.074  0.4251 -0.0328  0.4234
 2285SOL    HW118491   3.568   4.514   5.104  0.7402  0.7937  1.0134
 2285SOL    HW218492   3.476   4.540   4.982 -2.7327 -3.1723  1.8183
 2286SOL     OW18493   3.803   2.377   2.924  0.0406  0.4692  0.0812
 2286SOL    HW118494   3.825   2.466   2.954  2.7328  0.5638 -2.1871
 2286SOL    HW218495   3.880   2.328   2.953 -2.2107 -3.1115 -0.0901
 2287SOL     OW18496   1.083   2.435   6.749  0.2260  0.1277 -0.6479
 2287SOL    HW118497   1.041   2.508   6.703 -0.0378  0.7038  0.4915
 2287SOL    HW218498   1.011   2.377   6.772 -0.2044  0.7943 -0.3037
 2288SOL     OW18499   4.617   0.720   2.491  0.0826  0.2454 -0.1093
 2288SOL    HW118500   4.686   0.654   2.481 -0.2078 -0.1384  0.4446
 2288SOL    HW218501   4.548   0.668   2.532  1.1855 -1.0174  0.1495
 2289SOL     OW18502   2.370   3.139   1.989 -0.0671 -0.7106  0.0412
 2289SOL    HW118503   2.279   3.143   1.957  1.1715  1.0600 -3.2604
 2289SOL    HW218504   2.382   3.045   1.974 -0.6056 -0.7759 -0.0035
 2290SOL     OW18505   3.402   0.540  12.266 -0.3968 -0.0063  0.2293
 2290SOL    HW118506   3.414   0.465  12.208 -1.8398 -2.5175  3.2084
 2290SOL    HW218507   3.329   0.510  12.320 -0.3333 -1.0599 -0.2814
 2291SOL     OW18508   2.546   4.479   9.867 -0.1001  0.2450 -0.9294
 2291SOL    HW118509   2.592   4.522   9.794 -0.1797 -0.5476 -1.4395
 2291SOL    HW218510   2.608   4.497   9.938 -0.8516 -1.0059  0.0235
 2292SOL     OW18511   0.569   3.076   3.427 -0.4302  0.8351  0.6580
 2292SOL    HW118512   0.523   3.142   3.479 -0.4278  2.4039 -1.2912
 2292SOL    HW218513   0.617   3.029   3.494 -0.5831  3.0210  2.3066
 2293SOL     OW18514   0.301   2.845   5.823 -1.0804  0.3951  0.3331
 2293SOL    HW118515   0.225   2.793   5.795  0.4749 -1.8249  0.2596
 2293SOL    HW218516   0.336   2.885   5.743 -0.3830 -1.6933 -0.3895
 2294SOL     OW18517   0.151   4.095   8.434  0.6981  0.1144 -0.1387
 2294SOL    HW118518   0.190   4.126   8.516 -0.2594  0.7722  0.0601
 2294SOL    HW218519   0.200   4.014   8.417  0.0705 -0.4408  0.7087
 2295SOL     OW18520   3.234   4.570  10.010 -0.0578 -0.0493  0.0978
 2295SOL    HW118521   3.194   4.562  10.097  1.3917  1.2812  0.8803
 2295SOL    HW218522   3.257   4.479   9.988  1.3720  0.3059  0.1386
 2296SOL     OW18523   2.691   0.979   8.427 -0.0184  0.7307 -0.2121
 2296SOL    HW118524   2.736   1.006   8.507 -2.0447 -1.8598  1.7979
 2296SOL    HW218525   2.614   0.932   8.459  0.4832 -1.1466 -1.7144
 2297SOL     OW18526   3.919   3.516   8.446 -0.0119  0.2563 -0.4313
 2297SOL    HW118527   3.861   3.513   8.522  1.3466 -0.9492  0.5498
 2297SOL    HW218528   3.882   3.593   8.403 -0.7859  0.4342  0.5628
 2298SOL     OW18529   0.613   4.004  16.060 -0.0260 -0.9511 -0.3066
 2298SOL    HW118530   0.665   3.924  16.062  0.3737 -0.6786  0.3999
 2298SOL    HW218531   0.645   4.043  16.142 -0.0279  1.2340 -1.3286
 2299SOL     OW18532   4.694   1.286   2.858 -0.0553  0.3938 -0.3825
 2299SOL    HW118533   4.626   1.265   2.921  0.7736 -2.2792 -0.3714
 2299SOL    HW218534   0.014   1.215   2.880 -3.1751 -1.7666  0.9702
 2300SOL     OW18535   1.987   1.448  12.003  1.0063 -0.4671  0.2144
 2300SOL    HW118536   1.985   1.427  11.910  2.5512  0.8928 -0.1211
 2300SOL    HW218537   2.016   1.365  12.040  0.0898 -0.7744  0.2447
 2301SOL     OW18538   3.679   0.254   7.562 -0.2498  0.1863 -0.0743
 2301SOL    HW118539   3.662   0.342   7.527 -0.3752  0.5129  0.8137
 2301SOL    HW218540   3.772   0.253   7.585 -0.2899 -2.6400 -0.0657
 2302SOL     OW18541   1.937   0.980   3.393  0.0635 -0.4776  0.5609
 2302SOL    HW118542   1.871   1.027   3.445 -0.6549  0.8118 -1.4951
 2302SOL    HW218543   1.918   0.887   3.396 -2.6074  0.1343  2.7323
 2303SOL     OW18544   3.150   3.473   8.500 -0.6653 -0.7110  0.8968
 2303SOL    HW118545   3.059   3.500   8.509 -0.7021 -0.7001  0.4889
 2303SOL    HW218546   3.195   3.553   8.527 -2.5749  0.2933  1.0812
 2304SOL     OW18547   3.562   1.441  14.950  0.2889  0.2209 -0.5221
 2304SOL    HW118548   3.623   1.390  14.896 -1.0274 -1.2251 -0.6718
 2304SOL    HW218549   3.621   1.511  14.977  2.0535 -0.9729 -1.2986
 2305SOL     OW18550   1.353   4.290  11.179 -0.0142  0.3678 -0.0250
 2305SOL    HW118551   1.413   4.363  11.162  0.3166  0.4889  1.6705
 2305SOL    HW218552   1.347   4.249  11.093 -0.0813 -0.5501  0.4196
 2306SOL     OW18553   3.345   2.961   8.108 -0.4122  0.6182  0.3458
 2306SOL    HW118554   3.286   2.896   8.069  0.6906 -0.4995  0.5381
 2306SOL    HW218555   3.429   2.926   8.080 -1.3902 -0.4555 -1.2598
 2307SOL     OW18556   2.719   1.227   7.562 -0.1960  0.3037 -0.3488
 2307SOL    HW118557   2.733   1.292   7.494  1.4660  1.7247  1.3516
 2307SOL    HW218558   2.693   1.290   7.630 -2.1979 -0.6635 -0.2050
 2308SOL     OW18559   0.535   0.217   0.514 -0.0408  0.3823  0.0168
 2308SOL    HW118560   0.524   0.312   0.514 -1.3837  0.2396 -0.6365
 2308SOL    HW218561   0.441   0.198   0.521 -0.2831  1.0271 -1.4869
 2309SOL     OW18562   4.523   2.646   1.998 -0.5387 -0.1913  0.3522
 2309SOL    HW118563   4.535   2.567   1.944 -1.5924 -1.9862  2.7278
 2309SOL    HW218564   4.570   2.710   1.946 -0.7031 -0.3599 -0.0011
 2310SOL     OW18565   4.413   3.780  17.652 -0.0913  0.3779 -0.3808
 2310SOL    HW118566   4.383   3.834  17.579 -0.5921  0.5786 -0.0319
 2310SOL    HW218567   4.398   3.845  17.722 -0.6020  1.5108 -1.5459
 2311SOL     OW18568   1.554   2.257   4.126 -0.6848  0.5090 -0.3702
 2311SOL    HW118569   1.578   2.349   4.112 -0.7881  0.5535 -0.2607
 2311SOL    HW218570   1.555   2.218   4.039  1.1478 -0.8673  0.2707
 2312SOL     OW18571   3.825   4.487   6.996  0.3944 -0.0574  0.3071
 2312SOL    HW118572   3.799   4.524   6.911 -0.4501  2.6621  1.7438
 2312SOL    HW218573   3.830   4.562   7.056  1.4473 -0.0480  0.2002
 2313SOL     OW18574   0.868   0.592   2.277  0.2224  0.7082 -0.5503
 2313SOL    HW118575   0.953   0.573   2.237 -0.3004  0.3750 -1.5053
 2313SOL    HW218576   0.887   0.559   2.365 -0.2738  1.0675 -0.3074
 2314SOL     OW18577   2.169   0.574   1.688 -0.6921 -0.3209 -0.0309
 2314SOL    HW118578   2.199   0.644   1.630 -1.1200  0.9284  1.2564
 2314SOL    HW218579   2.250   0.550   1.734 -0.4723 -0.3492 -0.4350
 2315SOL     OW18580   3.855   2.895   6.488 -0.1696 -0.5811  0.0304
 2315SOL    HW118581   3.854   2.800   6.501  0.1792 -0.3354  1.9090
 2315SOL    HW218582   3.876   2.912   6.397 -1.4731 -0.7077 -0.2911
 2316SOL     OW18583   2.585   1.856  12.393 -0.1824  0.0859 -0.3756
 2316SOL    HW118584   2.646   1.929  12.386 -0.0452 -0.1122 -1.1779
 2316SOL    HW218585   2.574   1.850  12.488  1.9203 -2.2970 -0.2797
 2317SOL     OW18586   1.132   1.236  17.231  0.8902 -0.2479 -0.3014
 2317SOL    HW118587   1.145   1.299  17.303 -1.2496 -1.1402  0.8534
 2317SOL    HW218588   1.085   1.287  17.166  1.0884  0.3071 -0.0130
 2318SOL     OW18589   1.082   4.240   6.615  0.2578 -0.1889  0.2932
 2318SOL    HW118590   1.017   4.307   6.635 -1.3876 -1.8714  0.5148
 2318SOL    HW218591   1.058   4.156   6.653 -0.3426  1.0350  2.5996
 2319SOL     OW18592   2.660   0.660   7.625 -0.2435  0.3052 -0.1853
 2319SOL    HW118593   2.654   0.736   7.566  2.0033  0.1638 -0.5770
 2319SOL    HW218594   2.694   0.587   7.574  0.2249 -0.1800  0.8261
 2320SOL     OW18595   0.197   1.391   7.195 -0.2577  0.6481 -0.0042
 2320SOL    HW118596   0.144   1.387   7.116  0.1394  1.4947 -0.3139
 2320SOL    HW218597   0.285   1.362   7.169 -0.3221  0.4227  0.0319
 2321SOL     OW18598   3.262   1.338   2.525  0.1332 -0.5317 -0.4300
 2321SOL    HW118599   3.174   1.318   2.558  0.0756  1.1964  0.4590
 2321SOL    HW218600   3.238   1.414   2.471  0.7491  0.8037  1.1940
 2322SOL     OW18601   3.000   2.784   3.418 -0.4775 -0.5065  0.0380
 2322SOL    HW118602   2.942   2.857   3.442 -1.2638 -1.6062  1.4811
 2322SOL    HW218603   3.050   2.798   3.499 -1.7787 -1.9362  1.0776
 2323SOL     OW18604   3.001   3.845  14.580 -0.1476 -0.4267  0.3702
 2323SOL    HW118605   3.015   3.924  14.632  0.3000 -0.0827 -0.2782
 2323SOL    HW218606   3.091   3.836  14.549  0.0797 -0.3920  1.0115
 2324SOL     OW18607   2.495   2.625   9.749  0.2574 -0.0987 -0.5024
 2324SOL    HW118608   2.442   2.590   9.822  1.4704  1.1886  0.9929
 2324SOL    HW218609   2.429   2.654   9.686 -0.3654  1.0834  0.6871
 2325SOL     OW18610   0.321   1.025   3.247  0.4274 -0.7838 -0.4274
 2325SOL    HW118611   0.271   1.013   3.328  0.2336  1.9502 -0.1281
 2325SOL    HW218612   0.341   1.118   3.256 -0.5214 -0.7654  1.5289
 2326SOL     OW18613   1.836   4.698   1.968 -0.6537  0.7611  0.0938
 2326SOL    HW118614   1.878   0.015   1.904  0.1458 -0.5490 -0.5474
 2326SOL    HW218615   1.886   4.704   2.050  1.3675  2.1321 -1.2445
 2327SOL     OW18616   1.491   2.119  17.042 -0.0003  0.0698  0.3656
 2327SOL    HW118617   1.550   2.193  17.055  1.4497 -1.1400  0.5828
 2327SOL    HW218618   1.405   2.162  17.052 -1.2908 -2.2857 -0.6925
 2328SOL     OW18619   1.298   1.308   2.595 -0.1075  0.5166 -0.4647
 2328SOL    HW118620   1.215   1.343   2.562 -0.9197 -2.5156 -1.6643
 2328SOL    HW218621   1.310   1.230   2.541  3.2332  0.2310  0.7235
 2329SOL     OW18622   0.204   4.576   9.440 -0.0938  0.6044 -0.0629
 2329SOL    HW118623   0.142   4.634   9.394  0.2336 -0.1706 -1.4720
 2329SOL    HW218624   0.172   4.488   9.420 -2.0811  1.7747 -2.1645
 2330SOL     OW18625   4.418   2.955   2.678  0.0711 -0.5023  0.5223
 2330SOL    HW118626   4.362   3.028   2.703  0.3765 -0.2985  0.6046
 2330SOL    HW218627   4.493   3.005   2.646  1.4889 -2.3810  0.9048
 2331SOL     OW18628   1.566   1.876   8.551  0.1520  0.6538  0.0737
 2331SOL    HW118629   1.659   1.899   8.552  0.4918 -0.7001 -1.0261
 2331SOL    HW218630   1.545   1.865   8.459  0.1733 -1.1643  0.2938
 2332SOL     OW18631   0.819   0.844   2.326 -0.1132 -0.2580  0.0077
 2332SOL    HW118632   0.896   0.863   2.379  0.7708 -3.8263  0.0342
 2332SOL    HW218633   0.846   0.764   2.279  0.2470 -1.4037  2.1668
 2333SOL     OW18634   0.083   1.969   3.566  0.3279 -0.1822  1.0966
 2333SOL    HW118635   0.078   2.053   3.609 -3.1857  1.1368 -1.9127
 2333SOL    HW218636   0.167   1.984   3.522  0.1433 -0.7343  0.5494
 2334SOL     OW18637   3.544   1.547  12.823 -0.9440  0.3642  0.1540
 2334SOL    HW118638   3.463   1.497  12.821 -0.7056  0.0499 -1.6473
 2334SOL    HW218639   3.526   1.626  12.875 -0.8133 -1.3885  2.8318
 2335SOL     OW18640   1.349   2.418   8.571  0.0053 -0.5037 -0.4374
 2335SOL    HW118641   1.389   2.504   8.554 -0.1712 -0.2816  0.2500
 2335SOL    HW218642   1.273   2.441   8.624  1.4617  2.0743  0.5465
 2336SOL     OW18643   4.348   3.728   8.482 -0.5976 -0.2526  0.8975
 2336SOL    HW118644   4.289   3.661   8.448  1.1877 -1.4133  0.1174
 2336SOL    HW218645   4.313   3.734   8.571  1.0248 -1.2516  1.5911
 2337SOL     OW18646   2.728   4.137   9.484  0.2339  0.2947  0.1142
 2337SOL    HW118647   2.686   4.191   9.416  1.0285  0.8850  0.0997
 2337SOL    HW218648   2.796   4.192   9.522  1.3710  1.7092 -3.9290
 2338SOL     OW18649   2.678   2.774   6.752  1.0821 -0.0065  0.1557
 2338SOL    HW118650   2.739   2.726   6.809  0.9542 -2.4821 -1.7651
 2338SOL    HW218651   2.605   2.712   6.753 -0.5068  1.8329 -1.0627
 2339SOL     OW18652   3.117   3.461   0.484  0.0860 -0.7682 -0.5858
 2339SOL    HW118653   3.050   3.423   0.541  0.3998 -1.2370 -0.5272
 2339SOL    HW218654   3.146   3.537   0.534  2.0917  0.4814 -3.6304
 2340SOL     OW18655   3.705   1.131   6.655  0.4181 -0.5482  0.2418
 2340SOL    HW118656   3.649   1.081   6.715  0.7808  0.6843  1.6010
 2340SOL    HW218657   3.671   1.218   6.671  2.6158  0.7236 -1.9708
 2341SOL     OW18658   2.670   4.088   7.737  0.3717  0.0093  0.5465
 2341SOL    HW118659   2.604   4.043   7.789  0.3232  0.3594  0.7923
 2341SOL    HW218660   2.700   4.163   7.789  1.7511 -0.8625  1.0069
 2342SOL     OW18661   0.400   3.559   4.621 -0.3332  0.0989  0.1954
 2342SOL    HW118662   0.318   3.605   4.604 -0.6905 -0.7128 -0.2954
 2342SOL    HW218663   0.404   3.584   4.713 -2.1897 -0.4550  0.4223
 2343SOL     OW18664   3.291   0.820  17.642 -0.2920 -0.4036 -0.2198
 2343SOL    HW118665   3.367   0.876  17.631 -1.3744  1.0821 -0.0924
 2343SOL    HW218666   3.236   0.850  17.569 -1.2567 -0.1429  0.6121
 2344SOL     OW18667   2.240   2.228   6.063  0.1481 -0.9585  0.4187
 2344SOL    HW118668   2.265   2.162   5.998 -2.3400 -1.9974  0.5395
 2344SOL    HW218669   2.313   2.290   6.071  1.4749 -2.4804  0.1637
 2345SOL     OW18670   2.247   2.152   6.873  0.1091 -0.4119  0.4619
 2345SOL    HW118671   2.174   2.097   6.846  0.1710  0.9797 -2.4706
 2345SOL    HW218672   2.313   2.142   6.804 -2.0863 -1.0234 -1.5260
 2346SOL     OW18673   3.491   1.535  13.172 -0.3162  0.2054  0.2356
 2346SOL    HW118674   3.468   1.484  13.095  1.3950  1.5156 -1.1287
 2346SOL    HW218675   3.409   1.584  13.178 -0.0447  0.3593  2.7792
 2347SOL     OW18676   1.868   1.027   6.225 -0.7059  0.1903  0.1747
 2347SOL    HW118677   1.932   1.074   6.278  0.5119  0.0133 -1.1217
 2347SOL    HW218678   1.818   1.102   6.193 -0.6920  0.1108 -0.0332
 2348SOL     OW18679   1.754   1.400   8.147 -0.3405 -0.0477  0.2317
 2348SOL    HW118680   1.768   1.467   8.214 -0.6486 -2.3252  2.5541
 2348SOL    HW218681   1.724   1.462   8.080 -0.1116  1.2018  1.2757
 2349SOL     OW18682   2.344   2.148   3.587 -0.0375  0.6232  0.0196
 2349SOL    HW118683   2.273   2.127   3.648  1.4114 -0.3509  1.3500
 2349SOL    HW218684   2.404   2.074   3.596 -0.2682  0.2383 -1.5369
 2350SOL     OW18685   1.525   4.088  10.527  0.3427  0.6248 -0.0155
 2350SOL    HW118686   1.443   4.043  10.548 -0.0670  1.8450  0.9958
 2350SOL    HW218687   1.507   4.177  10.556  1.7546  1.0221 -0.3429
 2351SOL     OW18688   2.623   2.362   3.821  0.0196 -0.5733  0.3873
 2351SOL    HW118689   2.600   2.376   3.729  1.7488 -1.3489 -0.1502
 2351SOL    HW218690   2.536   2.362   3.863 -0.3297  1.5375 -0.3366
 2352SOL     OW18691   1.676   3.394   6.969  0.3129  0.3438  0.0199
 2352SOL    HW118692   1.638   3.397   6.882  3.3455  3.8501 -1.1858
 2352SOL    HW218693   1.740   3.323   6.970  0.8695  0.8358 -0.7934
 2353SOL     OW18694   2.664   2.603   7.263 -0.8711 -0.1482  0.2362
 2353SOL    HW118695   2.703   2.542   7.200 -0.0042  1.7830 -1.0914
 2353SOL    HW218696   2.588   2.548   7.283 -0.4052 -0.1028  2.1082
 2354SOL     OW18697   1.371   1.828   6.691  0.1552 -0.5249  0.2606
 2354SOL    HW118698   1.278   1.833   6.714 -0.2159  1.4886 -1.6280
 2354SOL    HW218699   1.357   1.840   6.597  0.5574  0.5706  0.3442
 2355SOL     OW18700   2.323   2.359   9.880  0.7330 -0.3871  0.7939
 2355SOL    HW118701   2.361   2.271   9.884  1.2077 -0.1674  1.1212
 2355SOL    HW218702   2.389   2.419   9.915 -1.0458  1.5217  0.8516
 2356SOL     OW18703   0.547   2.956  11.983 -0.1143  0.1685  0.5778
 2356SOL    HW118704   0.624   2.996  12.023  0.5213 -0.2870 -0.1913
 2356SOL    HW218705   0.525   2.896  12.055 -2.3197 -0.6393 -0.7707
 2357SOL     OW18706   2.321   2.961   8.458 -0.4992  0.1454  0.2751
 2357SOL    HW118707   2.339   3.041   8.408  1.1132  0.4433  1.3378
 2357SOL    HW218708   2.250   2.926   8.404 -0.5607  0.0954  0.3896
 2358SOL     OW18709   1.941   0.854  15.521 -0.1414  0.0824  0.2191
 2358SOL    HW118710   1.863   0.847  15.575  0.2984  0.7673  0.9583
 2358SOL    HW218711   2.010   0.829  15.582 -1.1305 -0.8055  0.9529
 2359SOL     OW18712   2.908   2.045   2.136 -0.5501  0.1359 -0.4756
 2359SOL    HW118713   2.921   1.992   2.057  0.9449 -0.6836  0.3069
 2359SOL    HW218714   2.999   2.043   2.166 -0.0742  0.5715 -1.8490
 2360SOL     OW18715   3.349   4.380  16.643  0.5737 -0.5394  0.5125
 2360SOL    HW118716   3.362   4.392  16.737  1.6963 -1.6847  0.5112
 2360SOL    HW218717   3.263   4.337  16.640  0.5428 -0.3510 -1.1865
 2361SOL     OW18718   1.765   3.276   8.776  0.0302 -0.7828  0.0529
 2361SOL    HW118719   1.814   3.209   8.824  0.3145 -0.6193 -0.0108
 2361SOL    HW218720   1.693   3.284   8.839  2.1500  0.8330  2.3069
 2362SOL     OW18721   2.607   1.636   7.114 -0.1880 -0.0719  0.0511
 2362SOL    HW118722   2.513   1.652   7.126 -0.4652 -1.5934 -0.0428
 2362SOL    HW218723   2.652   1.671   7.190 -2.0790 -2.4649  2.2931
 2363SOL     OW18724   1.120   1.041  14.304 -0.7946  0.2229  0.0987
 2363SOL    HW118725   1.122   1.094  14.384  2.9212  1.0247 -0.5232
 2363SOL    HW218726   1.213   1.021  14.290 -0.7514  0.2630  0.3342
 2364SOL     OW18727   1.077   2.759   3.986  0.2860 -0.3123 -0.9887
 2364SOL    HW118728   1.007   2.709   4.027 -1.1497  1.8399 -0.7911
 2364SOL    HW218729   1.050   2.849   4.003  1.2686 -0.5417  1.7337
 2365SOL     OW18730   3.492   1.737   7.496 -0.0316  0.1682 -0.0393
 2365SOL    HW118731   3.557   1.747   7.566 -0.4263  3.0722 -0.0790
 2365SOL    HW218732   3.463   1.823   7.465  1.4265  1.3308  1.8317
 2366SOL     OW18733   0.668   1.835   5.970 -0.0880  0.7313  0.4996
 2366SOL    HW118734   0.698   1.824   5.880  0.3599  1.5245  0.5468
 2366SOL    HW218735   0.574   1.830   5.957 -0.1395  0.6279  0.9159
 2367SOL     OW18736   0.730   3.096   2.361  0.2684  0.9057  0.1951
 2367SOL    HW118737   0.688   3.011   2.375  0.2180  0.7174 -1.0444
 2367SOL    HW218738   0.735   3.122   2.453  0.5788  0.1048  0.4016
 2368SOL     OW18739   4.406   0.728   7.317  0.4917 -0.4848  0.4045
 2368SOL    HW118740   4.377   0.803   7.265 -0.4830 -0.0033  1.6473
 2368SOL    HW218741   4.467   0.774   7.375  0.3212 -1.1005  1.0727
 2369SOL     OW18742   1.960   0.115  15.389 -0.7686  0.0766 -0.0206
 2369SOL    HW118743   1.966   0.128  15.484 -2.1559  1.0862 -0.0564
 2369SOL    HW218744   1.989   0.203  15.366 -0.4596  0.2101  0.8428
 2370SOL     OW18745   0.961   4.690   5.988 -0.1164 -0.2079 -0.2734
 2370SOL    HW118746   0.938   4.618   6.046 -0.6118 -0.5622 -0.9151
 2370SOL    HW218747   0.879   4.696   5.940  0.5042  0.4188 -1.2507
 2371SOL     OW18748   0.227   2.577  17.335 -0.1798 -0.2540  0.8206
 2371SOL    HW118749   0.270   2.496  17.361  1.2397 -0.6050 -2.6329
 2371SOL    HW218750   0.138   2.544  17.325 -1.1333  1.8361  2.2251
 2372SOL     OW18751   0.956   3.631   2.920 -0.6749  0.1330 -0.0344
 2372SOL    HW118752   1.044   3.656   2.947 -1.4260 -0.1845  2.6986
 2372SOL    HW218753   0.935   3.546   2.958  1.5464 -1.0192 -1.3623
 2373SOL     OW18754   2.592   2.153  12.431  0.3434  0.5445 -0.8332
 2373SOL    HW118755   2.629   2.160  12.343  0.8877 -1.4001 -0.7531
 2373SOL    HW218756   2.508   2.111  12.415  0.1697  0.2582  0.8370
 2374SOL     OW18757   3.857   0.278   6.563  0.0262 -0.3604 -0.3284
 2374SOL    HW118758   3.907   0.236   6.492  0.0243 -3.3377  1.4286
 2374SOL    HW218759   3.911   0.357   6.554 -1.5811  0.7208 -0.4832
 2375SOL     OW18760   3.830   3.910   5.209  0.0556 -0.3901  0.3154
 2375SOL    HW118761   3.888   3.985   5.194  1.9591 -2.0517 -0.5446
 2375SOL    HW218762   3.857   3.847   5.142 -1.6262 -0.1758 -0.5668
 2376SOL     OW18763   4.645   2.264  11.674  0.1410  0.8658  0.3343
 2376SOL    HW118764   4.614   2.348  11.708  0.3775  1.6162 -1.3403
 2376SOL    HW218765   4.718   2.237  11.729 -0.4737  0.4895  0.9709
 2377SOL     OW18766   0.351   2.453   9.600  0.4510  0.5568 -0.0297
 2377SOL    HW118767   0.360   2.414   9.687  0.1092  0.8827  0.1503
 2377SOL    HW218768   0.262   2.486   9.612  1.2178  3.5026 -2.5344
 2378SOL     OW18769   4.191   2.220   1.983 -0.1741 -0.1923 -0.5831
 2378SOL    HW118770   4.228   2.142   2.024  0.3131 -0.1109 -0.8695
 2378SOL    HW218771   4.121   2.176   1.935 -1.0676  0.0495  0.5008
 2379SOL     OW18772   1.309   1.211   6.572  0.3181  0.0389 -0.3792
 2379SOL    HW118773   1.243   1.152   6.537 -1.6603  1.6278  0.6509
 2379SOL    HW218774   1.288   1.214   6.665  2.3514  0.2478  0.0841
 2380SOL     OW18775   3.758   1.354  10.691  0.0877  0.0726 -0.3022
 2380SOL    HW118776   3.795   1.270  10.716 -0.8151 -0.2935 -0.1921
 2380SOL    HW218777   3.738   1.345  10.598  0.0266  3.7009 -0.6529
 2381SOL     OW18778   3.555   4.227   8.095 -0.1622  0.1089  0.9601
 2381SOL    HW118779   3.497   4.238   8.170  2.0981 -0.4476  2.7760
 2381SOL    HW218780   3.516   4.300   8.045  0.8222  0.3947  0.6159
 2382SOL     OW18781   2.235   1.057   5.750  0.3066 -0.3261 -0.3037
 2382SOL    HW118782   2.275   1.112   5.818  1.9426  0.3695 -1.8245
 2382SOL    HW218783   2.157   1.014   5.784  0.8295  0.0945  1.4271
 2383SOL     OW18784   4.440   3.853  15.418  0.1416 -0.0592 -0.4930
 2383SOL    HW118785   4.384   3.793  15.468 -1.4564  2.8313  1.1316
 2383SOL    HW218786   4.387   3.932  15.412  0.1340 -0.1242 -1.3038
 2384SOL     OW18787   1.978   0.075   3.492 -0.1460 -0.0260  0.7401
 2384SOL    HW118788   1.932   0.144   3.443 -1.0534 -1.1657 -0.0252
 2384SOL    HW218789   2.062   0.110   3.521 -0.5528  0.9617  0.7233
 2385SOL     OW18790   0.811   3.117  13.978  0.4012 -0.3403  0.7652
 2385SOL    HW118791   0.865   3.042  14.001  0.3684 -0.1381  1.5140
 2385SOL    HW218792   0.768   3.081  13.900 -0.5333  1.8489  0.2718
 2386SOL     OW18793   2.067   1.256   5.179  0.2258  0.2194  0.1078
 2386SOL    HW118794   2.032   1.169   5.159 -2.7600  1.0242  1.7541
 2386SOL    HW218795   2.152   1.235   5.217  1.1448  0.7983 -1.6475
 2387SOL     OW18796   4.008   1.590   8.274  0.1019 -0.1558 -0.2749
 2387SOL    HW118797   4.083   1.643   8.302 -0.2516 -1.1272  2.5058
 2387SOL    HW218798   4.048   1.512   8.313  0.0454 -0.3449 -0.5869
 2388SOL     OW18799   4.301   1.166   4.180 -0.1602 -0.2124  0.5537
 2388SOL    HW118800   4.269   1.246   4.138 -0.2935  0.3032  1.6355
 2388SOL    HW218801   4.307   1.108   4.104 -2.7403  0.2858 -0.0273
 2389SOL     OW18802   3.336   1.894   5.095 -0.4643  0.2528 -0.8076
 2389SOL    HW118803   3.301   1.852   5.174 -0.0214 -1.7106 -1.6480
 2389SOL    HW218804   3.387   1.970   5.123  0.6324 -0.4375 -0.9389
 2390SOL     OW18805   1.600   0.999   2.544  0.5338  0.1897  0.0626
 2390SOL    HW118806   1.603   1.052   2.624  0.2659  2.4006 -1.3805
 2390SOL    HW218807   1.512   0.963   2.550  1.1612 -1.3434 -0.0313
 2391SOL     OW18808   0.915   0.958   1.545 -0.4597 -0.1520 -0.2080
 2391SOL    HW118809   0.913   0.961   1.450  0.0444 -0.4186 -0.2261
 2391SOL    HW218810   0.891   0.866   1.554  0.4307 -0.1869  1.9674
 2392SOL     OW18811   1.034   1.965  16.366 -0.7451 -0.3949  0.3947
 2392SOL    HW118812   1.015   1.962  16.272  0.5351 -0.1460  0.1291
 2392SOL    HW218813   1.097   2.036  16.375 -0.8529 -0.4570  1.5309
 2393SOL     OW18814   0.549   1.687  11.506 -0.3365  0.4168  0.1998
 2393SOL    HW118815   0.488   1.631  11.556  2.2291 -2.2694  0.3266
 2393SOL    HW218816   0.503   1.770  11.515  0.9589  1.1675 -0.1700
 2394SOL     OW18817   3.326   0.776  14.012 -0.0050  0.3976 -0.5225
 2394SOL    HW118818   3.354   0.847  14.070  1.7406 -0.1613 -0.6704
 2394SOL    HW218819   3.253   0.819  13.967 -1.6202 -0.6219  1.1367
 2395SOL     OW18820   1.558   1.613  12.786  0.0185  0.0676 -0.0222
 2395SOL    HW118821   1.639   1.652  12.819 -1.6468  3.1379  0.5040
 2395SOL    HW218822   1.501   1.690  12.793  0.1236  0.1881 -0.4818
 2396SOL     OW18823   4.442   3.811   3.905  0.0577  0.0818  0.0592
 2396SOL    HW118824   4.460   3.836   3.815 -0.5205  0.8635  0.1569
 2396SOL    HW218825   4.413   3.720   3.908  1.2520 -0.2809  0.3760
 2397SOL     OW18826   2.802   0.967   7.260 -0.4962  0.0091 -0.1927
 2397SOL    HW118827   2.887   0.924   7.257 -0.4332  0.1550 -0.5082
 2397SOL    HW218828   2.782   0.966   7.354  1.0065 -2.7627  0.1012
 2398SOL     OW18829   1.701   2.012  10.225  0.0996  0.1099 -0.1910
 2398SOL    HW118830   1.765   1.952  10.263 -1.3474 -1.1427  0.2589
 2398SOL    HW218831   1.716   2.007  10.130  2.3278  1.1755  0.1032
 2399SOL     OW18832   2.149   1.031   1.613  0.2274  0.0999  0.3337
 2399SOL    HW118833   2.069   1.007   1.660  1.3394  0.0398  2.1653
 2399SOL    HW218834   2.196   0.948   1.615  2.9867  1.5908 -1.9616
 2400SOL     OW18835   3.015   4.674  11.350  0.6955  0.5071  0.5091
 2400SOL    HW118836   3.067   4.676  11.431  0.2102 -1.3438  0.8737
 2400SOL    HW218837   3.039   4.587  11.319 -0.7755 -0.0610  0.9358
 2401SOL     OW18838   0.459   2.607   8.367 -0.2573 -0.1701  0.8891
 2401SOL    HW118839   0.455   2.611   8.463 -2.0836  3.8766  0.6543
 2401SOL    HW218840   0.393   2.539   8.355 -1.0939  0.4697  1.9150
 2402SOL     OW18841   2.116   4.394   7.735 -0.2372 -0.2021  0.2251
 2402SOL    HW118842   2.043   4.447   7.765 -0.6777  0.2621 -1.7057
 2402SOL    HW218843   2.105   4.314   7.787  0.5639  0.4544  1.4082
 2403SOL     OW18844   1.111   2.307   2.496  0.2046 -0.1236  0.4166
 2403SOL    HW118845   1.144   2.218   2.492 -1.1732 -0.5787 -0.7435
 2403SOL    HW218846   1.191   2.353   2.473  0.0185  0.4227  0.8429
 2404SOL     OW18847   2.745   0.778  11.048  0.2007  0.2126 -0.0101
 2404SOL    HW118848   2.831   0.762  11.008  1.0652  1.0178  1.5118
 2404SOL    HW218849   2.749   0.733  11.132  0.3527 -0.4733 -0.3929
 2405SOL     OW18850   0.818   2.422   3.011 -0.2582  0.3280 -0.2667
 2405SOL    HW118851   0.786   2.333   2.997  1.0244 -0.1277 -0.3244
 2405SOL    HW218852   0.907   2.404   3.042 -1.0672 -1.1500  1.2040
 2406SOL     OW18853   1.788   1.311   6.600  0.0428  0.0435  0.2072
 2406SOL    HW118854   1.842   1.387   6.580  0.1542  0.6479  2.8075
 2406SOL    HW218855   1.714   1.319   6.540  0.4378 -3.7842 -0.8131
 2407SOL     OW18856   2.286   1.199  10.504  0.1896 -0.0082 -0.4824
 2407SOL    HW118857   2.337   1.144  10.563 -0.7161  0.2095  0.5039
 2407SOL    HW218858   2.202   1.169  10.538 -0.5783  3.1277  0.4003
 2408SOL     OW18859   2.458   4.465   5.703 -0.3129  0.1189 -0.3738
 2408SOL    HW118860   2.545   4.503   5.690  0.0899 -1.1368 -1.2701
 2408SOL    HW218861   2.474   4.394   5.764 -1.4717  2.9438  3.2106
 2409SOL     OW18862   2.592   0.636   5.406 -0.1506 -0.1521  0.0546
 2409SOL    HW118863   2.675   0.679   5.388  0.5357 -2.2187 -1.5991
 2409SOL    HW218864   2.560   0.684   5.482 -1.5932 -1.0401  0.0132
 2410SOL     OW18865   3.921   1.484  11.183 -0.0763 -0.3234 -0.0497
 2410SOL    HW118866   4.007   1.492  11.224  0.3991  0.7511 -1.2587
 2410SOL    HW218867   3.878   1.469  11.267 -0.1165  2.5354  0.4175
 2411SOL     OW18868   2.037   2.741  16.506 -0.1699 -0.0137 -0.2950
 2411SOL    HW118869   1.967   2.798  16.537  0.9579  1.0597  0.3127
 2411SOL    HW218870   2.119   2.784  16.530 -0.4126  0.3885 -0.1861
 2412SOL     OW18871   2.320   3.809   4.046 -0.3244  0.5593 -0.1940
 2412SOL    HW118872   2.316   3.905   4.055  2.5595  0.5475  1.1744
 2412SOL    HW218873   2.356   3.792   4.133 -0.1375 -1.3054 -0.6469
 2413SOL     OW18874   4.151   3.414   6.966 -0.0506  0.0055 -0.0155
 2413SOL    HW118875   4.181   3.502   6.990 -1.3630  0.1680  1.0732
 2413SOL    HW218876   4.057   3.431   6.961 -0.0620 -0.2951 -0.8591
 2414SOL     OW18877   0.709   3.145  16.819  0.6788 -0.5622  0.2218
 2414SOL    HW118878   0.649   3.186  16.880  0.1852 -1.4503  0.3278
 2414SOL    HW218879   0.767   3.098  16.879 -0.0910 -0.8101  0.7728
 2415SOL     OW18880   0.627   3.589   2.205 -0.8020  0.3402  0.0981
 2415SOL    HW118881   0.608   3.670   2.252  1.9543  1.8627 -1.4474
 2415SOL    HW218882   0.550   3.592   2.148  1.6108 -0.4126 -3.1643
 2416SOL     OW18883   4.598   4.421  11.106 -0.6326  0.0425  0.5300
 2416SOL    HW118884   4.599   4.377  11.021  0.1930 -0.7426  0.9458
 2416SOL    HW218885   4.693   4.421  11.116 -0.1970  3.2561 -3.1962
 2417SOL     OW18886   4.646   3.373   3.687 -0.0656 -0.2313 -0.8255
 2417SOL    HW118887   4.707   3.386   3.614 -2.3429  1.5279 -2.4126
 2417SOL    HW218888   4.663   3.455   3.734  0.6762  0.1290 -1.7241
 2418SOL     OW18889   4.140   3.453   2.981 -0.3532  0.2689  0.5002
 2418SOL    HW118890   4.046   3.454   2.964 -0.2268 -0.8480 -0.2334
 2418SOL    HW218891   4.165   3.525   2.923  0.5837  0.0212  0.5961
 2419SOL     OW18892   0.215   1.642   7.884 -0.7566  0.3192 -0.4391
 2419SOL    HW118893   0.147   1.617   7.822 -0.3244  2.9431 -1.9895
 2419SOL    HW218894   0.197   1.603   7.969 -0.3962 -0.0145 -0.5150
 2420SOL     OW18895   1.868   3.322   6.201  0.1725  0.3493  0.0492
 2420SOL    HW118896   1.784   3.316   6.246  1.0601  3.7543  2.0753
 2420SOL    HW218897   1.919   3.313   6.281  1.3196  0.8037 -0.6445
 2421SOL     OW18898   0.491   1.134   6.033 -0.4332 -0.2499  0.0063
 2421SOL    HW118899   0.535   1.218   6.048 -0.2924 -0.0850 -1.3689
 2421SOL    HW218900   0.409   1.166   5.994  0.8218  0.9090 -1.6532
 2422SOL     OW18901   0.672   0.795   6.727  0.5447  0.0603 -0.4040
 2422SOL    HW118902   0.676   0.713   6.678 -2.0368 -0.2154 -0.1643
 2422SOL    HW218903   0.616   0.840   6.664  0.6260 -0.3303 -0.7542
 2423SOL     OW18904   2.769   3.534  17.543 -0.0069  0.1451 -0.0618
 2423SOL    HW118905   2.849   3.571  17.505 -0.8847  1.7544 -0.3425
 2423SOL    HW218906   2.713   3.611  17.554  0.3777  0.6824 -1.8494
 2424SOL     OW18907   0.261   1.494   2.264  0.0804  0.1585 -0.0836
 2424SOL    HW118908   0.205   1.492   2.187  0.2656 -0.0282 -0.2131
 2424SOL    HW218909   0.208   1.442   2.325 -0.8629  0.2273 -0.8587
 2425SOL     OW18910   0.438   0.572  17.383  0.2215 -0.0761  0.8826
 2425SOL    HW118911   0.487   0.618  17.315  0.4795 -2.3211 -0.4621
 2425SOL    HW218912   0.362   0.542  17.334  1.2552  0.7032 -1.1965
 2426SOL     OW18913   4.360   0.053   1.657  0.0353  0.4661 -0.7213
 2426SOL    HW118914   4.319   0.081   1.575 -2.1451 -0.2311  0.1099
 2426SOL    HW218915   4.371   4.698   1.650 -0.8613  0.2111  1.2635
 2427SOL     OW18916   3.704   1.049  16.206  0.1998  0.4794  0.1333
 2427SOL    HW118917   3.736   1.125  16.157 -0.2998  0.4901 -0.1784
 2427SOL    HW218918   3.667   0.998  16.134 -0.2862  0.2680  0.5409
 2428SOL     OW18919   0.352   3.218  11.586 -0.1465  0.7451  0.1304
 2428SOL    HW118920   0.372   3.149  11.523  0.0257  0.4632  0.4864
 2428SOL    HW218921   0.390   3.180  11.666 -2.1985  0.8666  1.1568
 2429SOL     OW18922   2.871   0.057   4.554  0.1396  0.3485 -0.1318
 2429SOL    HW118923   2.900   0.113   4.482 -1.8632  0.6094 -0.7345
 2429SOL    HW218924   2.906   0.118   4.619  1.4519 -0.6307  0.0703
 2430SOL     OW18925   2.428   1.813   8.581  0.2160 -0.0078 -0.1025
 2430SOL    HW118926   2.351   1.759   8.599  0.8938 -1.0774 -0.3604
 2430SOL    HW218927   2.501   1.751   8.575  0.1735 -0.1145  0.4853
 2431SOL     OW18928   0.387   2.527  12.218 -0.2350  0.7124  0.2025
 2431SOL    HW118929   0.347   2.450  12.259 -0.1958  1.5908  1.8673
 2431SOL    HW218930   0.416   2.570  12.297 -1.8207 -0.6929  1.5542
 2432SOL     OW18931   4.343   3.518   2.673 -0.3998  0.1369 -0.0125
 2432SOL    HW118932   4.255   3.537   2.706  0.1839  0.5581  1.3028
 2432SOL    HW218933   4.389   3.509   2.756  1.9601 -1.5102 -1.5129
 2433SOL     OW18934   4.342   4.461   8.804  0.3361 -1.3133  0.4586
 2433SOL    HW118935   4.412   4.434   8.744  0.5069  0.6439 -0.2152
 2433SOL    HW218936   4.397   4.471   8.883 -1.4563 -0.3207  1.5828
 2434SOL     OW18937   2.040   2.374   2.650 -0.0983 -0.1222  0.3297
 2434SOL    HW118938   2.013   2.284   2.631 -3.5829  1.0620 -0.2858
 2434SOL    HW218939   2.107   2.347   2.713  0.9336  1.6903  0.0195
 2435SOL     OW18940   4.331   3.359   6.750  0.5663  0.2956  0.1049
 2435SOL    HW118941   4.426   3.371   6.742  0.6601 -0.5477 -0.0542
 2435SOL    HW218942   4.311   3.396   6.836  3.1953  0.3967  0.6553
 2436SOL     OW18943   3.014   2.624   4.566  0.2559  0.2967 -0.8270
 2436SOL    HW118944   2.979   2.574   4.492  0.8028  0.7464 -1.3933
 2436SOL    HW218945   3.097   2.580   4.584  1.6492  2.1993 -2.6524
 2437SOL     OW18946   3.605   0.341   5.226  0.7829  0.5013 -0.1366
 2437SOL    HW118947   3.580   0.303   5.310 -0.3440  2.2557  0.3171
 2437SOL    HW218948   3.581   0.265   5.173 -1.8789  0.4228  1.1837
 2438SOL     OW18949   1.165   3.635   1.359  0.0636 -0.4160  0.0561
 2438SOL    HW118950   1.085   3.600   1.318  0.8177  1.4660 -3.0095
 2438SOL    HW218951   1.211   3.663   1.280  0.3056 -2.0531 -0.3803
 2439SOL     OW18952   0.836   0.275   6.385 -0.4471  0.4205 -0.7266
 2439SOL    HW118953   0.838   0.240   6.296  0.3626  1.2269 -1.0287
 2439SOL    HW218954   0.759   0.332   6.392 -1.6793 -1.0864 -2.1553
 2440SOL     OW18955   1.935   4.699  11.249 -0.7441  0.3536  0.4641
 2440SOL    HW118956   1.998   0.031  11.250 -0.7995  0.3977  0.8081
 2440SOL    HW218957   1.982   4.626  11.210 -0.4476  0.6966  0.1775
 2441SOL     OW18958   0.142   3.057  17.159 -0.2555 -0.3290  0.1986
 2441SOL    HW118959   0.225   3.060  17.206 -0.7903 -0.5442  1.1574
 2441SOL    HW218960   0.160   2.986  17.097  2.6388 -0.4601  1.1976
 2442SOL     OW18961   0.202   0.850  12.001 -0.0973 -0.4548 -0.1291
 2442SOL    HW118962   0.297   0.853  11.987  0.4771  1.1331  3.9885
 2442SOL    HW218963   0.178   0.942  12.005 -1.2282 -0.6818 -1.8438
 2443SOL     OW18964   1.688   1.201   5.402 -0.4149  0.7257 -0.1501
 2443SOL    HW118965   1.658   1.138   5.337 -1.8474  1.4167 -0.1548
 2443SOL    HW218966   1.703   1.139   5.472  1.4689 -1.3379 -2.3781
 2444SOL     OW18967   3.887   2.014   8.308 -0.1249 -0.4929  0.5360
 2444SOL    HW118968   3.812   1.996   8.252 -0.7666 -3.4617  2.2990
 2444SOL    HW218969   3.869   1.946   8.374  0.9308 -2.8802 -1.6470
 2445SOL     OW18970   2.453   2.336  11.147  0.4951 -0.0215 -0.0883
 2445SOL    HW118971   2.445   2.370  11.058 -1.2088  1.0161  0.4534
 2445SOL    HW218972   2.409   2.409  11.190  1.6455 -0.3877  1.7135
 2446SOL     OW18973   3.472   4.366   2.653 -0.2939  0.2552 -0.0237
 2446SOL    HW118974   3.539   4.434   2.663 -0.7977  0.6100  0.9470
 2446SOL    HW218975   3.421   4.405   2.583 -1.0127  0.5972  0.6935
 2447SOL     OW18976   0.745   3.034   3.226 -0.2998 -0.1168  0.2545
 2447SOL    HW118977   0.696   3.046   3.307 -1.1187  0.2705 -0.2932
 2447SOL    HW218978   0.832   3.002   3.248 -0.0968 -0.2364 -0.6834
 2448SOL     OW18979   2.362   0.914   3.743 -0.1470  0.3586 -0.4916
 2448SOL    HW118980   2.277   0.909   3.698  0.3871 -1.3073 -1.3352
 2448SOL    HW218981   2.350   0.998   3.787 -0.7021 -0.2525  0.5281
 2449SOL     OW18982   0.756   1.103   3.950 -0.0016 -0.6757 -0.2336
 2449SOL    HW118983   0.710   1.091   3.867  1.8655  1.5296 -1.5849
 2449SOL    HW218984   0.770   1.197   3.945  0.0782 -0.7020 -0.4672
 2450SOL     OW18985   4.546   1.324   2.614 -0.4323 -0.3954  0.4797
 2450SOL    HW118986   4.618   1.273   2.577 -0.4474 -0.9990  1.2787
 2450SOL    HW218987   4.576   1.342   2.703 -0.5456  1.3098  0.1854
 2451SOL     OW18988   0.465   3.184  10.134 -0.5798 -0.1450 -0.3954
 2451SOL    HW118989   0.561   3.180  10.140 -0.6448  1.6583  1.6387
 2451SOL    HW218990   0.450   3.106  10.189 -0.2841 -0.6883 -1.0845
 2452SOL     OW18991   1.742   4.040  11.644  0.3108  0.3122 -0.1312
 2452SOL    HW118992   1.676   3.982  11.681  1.9314 -0.3623  1.6623
 2452SOL    HW218993   1.821   3.986  11.633 -2.2676 -3.4517 -0.1377
 2453SOL     OW18994   2.070   3.945   2.008 -0.2431  0.5353  0.5042
 2453SOL    HW118995   2.090   4.030   1.968  1.1907  0.7884  1.7684
 2453SOL    HW218996   2.099   3.956   2.099 -1.4616  1.3902  0.7841
 2454SOL     OW18997   3.345   0.197  10.217  0.5082 -0.4117  0.3846
 2454SOL    HW118998   3.400   0.275  10.211 -1.1611  0.6100 -1.7423
 2454SOL    HW218999   3.312   0.184  10.306  0.8412 -0.3528  0.5188
 2455SOL     OW19000   3.551   1.584   3.162  0.1602  0.2668 -0.4493
 2455SOL    HW119001   3.484   1.520   3.187 -1.3802  2.3589  0.7992
 2455SOL    HW219002   3.513   1.657   3.210 -1.8800 -1.4473  0.5445
 2456SOL     OW19003   0.968   3.265   8.810 -0.2171 -0.4421 -0.5676
 2456SOL    HW119004   0.993   3.229   8.725 -0.5487  0.6894 -1.1482
 2456SOL    HW219005   1.047   3.317   8.825  0.6475 -2.0180  0.3981
 2457SOL     OW19006   1.639   0.808   3.841  0.9050 -0.3771 -0.0046
 2457SOL    HW119007   1.668   0.875   3.903  0.6417  0.1281 -0.4298
 2457SOL    HW219008   1.722   0.763   3.823  0.0025 -1.3436 -1.6911
 2458SOL     OW19009   0.657   1.120  17.621 -0.3853  0.4324 -0.0588
 2458SOL    HW119010   0.719   1.113  17.548 -1.2299  1.0907 -0.8394
 2458SOL    HW219011   0.682   1.041  17.669 -1.0702  0.6123  0.5838
 2459SOL     OW19012   1.026   3.196   8.557 -0.3538 -0.1240  0.3600
 2459SOL    HW119013   0.988   3.137   8.492  0.3676  0.0490 -0.2179
 2459SOL    HW219014   1.114   3.160   8.547  0.4209  1.6839  0.7575
 2460SOL     OW19015   3.056   2.020   4.494 -0.2759 -0.4541 -0.5325
 2460SOL    HW119016   3.076   1.975   4.412 -0.2236 -1.5294  0.0611
 2460SOL    HW219017   3.099   2.102   4.471  1.8037 -2.1043 -2.5368
 2461SOL     OW19018   2.398   1.597   1.571 -0.5775 -0.4413  0.0468
 2461SOL    HW119019   2.460   1.528   1.596  0.7576  1.8568  3.1600
 2461SOL    HW219020   2.330   1.566   1.631 -0.4436 -1.1291 -0.1581
 2462SOL     OW19021   4.041   0.810   0.591  0.5280  0.5274  0.7722
 2462SOL    HW119022   4.024   0.831   0.499 -0.9728 -0.4315  0.8317
 2462SOL    HW219023   3.977   0.866   0.633 -0.4042  0.6141 -0.7544
 2463SOL     OW19024   0.936   2.120   4.068  0.2244  0.1495 -0.1977
 2463SOL    HW119025   0.962   2.080   3.985 -0.7768 -1.3214  0.2006
 2463SOL    HW219026   0.940   2.047   4.130 -1.0205  1.7407  1.7120
 2464SOL     OW19027   0.520   4.010   9.652  0.7070  0.3497  0.1505
 2464SOL    HW119028   0.518   4.021   9.747  0.9838  1.0982  0.0643
 2464SOL    HW219029   0.500   3.917   9.642 -1.3321  0.9239 -1.1595
 2465SOL     OW19030   0.285   4.693  16.486  0.3764 -0.1739 -0.0863
 2465SOL    HW119031   0.298   4.598  16.488  0.5419 -0.0866  2.0768
 2465SOL    HW219032   0.368   4.721  16.447  2.0196 -2.3376  1.8153
 2466SOL     OW19033   3.616   3.609   7.902  0.4545 -0.0608 -0.2751
 2466SOL    HW119034   3.546   3.574   7.958 -0.4267  1.1030 -0.6563
 2466SOL    HW219035   3.670   3.530   7.902  0.9055  0.2519 -0.3680
 2467SOL     OW19036   0.122   1.935   5.956  0.1657  0.0679  0.1322
 2467SOL    HW119037   0.050   1.998   5.961 -0.3139 -0.5190  0.6591
 2467SOL    HW219038   0.113   1.880   6.034  1.4184 -1.9665 -1.1615
 2468SOL     OW19039   3.482   1.321  15.268 -0.0767  0.3453 -0.8895
 2468SOL    HW119040   3.459   1.403  15.225  1.2959  0.6553 -1.0178
 2468SOL    HW219041   3.562   1.295  15.222 -0.2318 -0.3895 -0.7479
 2469SOL     OW19042   2.678   0.454  12.261 -0.0130 -0.2086  0.7467
 2469SOL    HW119043   2.674   0.453  12.165  0.5847  0.2213  0.7150
 2469SOL    HW219044   2.604   0.398  12.285 -1.4166  1.2072 -0.2910
 2470SOL     OW19045   4.409   4.643   2.448  0.2775 -0.5247  0.2827
 2470SOL    HW119046   4.337   4.605   2.397  0.6249  1.0038 -1.3422
 2470SOL    HW219047   4.388   4.736   2.441  0.6061 -0.3232  2.0440
 2471SOL     OW19048   0.581   4.488   6.322 -0.2048  0.1335  0.3517
 2471SOL    HW119049   0.614   4.425   6.257  2.3961  1.7620  0.1111
 2471SOL    HW219050   0.572   4.573   6.279  0.3042 -1.2342 -2.4517
 2472SOL     OW19051   4.525   2.382   2.949  0.9668 -0.2436  0.2404
 2472SOL    HW119052   4.498   2.426   3.030  1.3085  0.4371 -0.0149
 2472SOL    HW219053   4.524   2.288   2.970 -0.6489  0.1527  1.8686
 2473SOL     OW19054   2.075   4.148   2.500 -0.4857  0.4489 -0.2755
 2473SOL    HW119055   2.139   4.216   2.523 -0.8556  0.2335  1.3934
 2473SOL    HW219056   2.017   4.159   2.576 -0.3337  0.6752 -0.1908
 2474SOL     OW19057   1.042   3.934   3.235  0.1118  0.4956 -0.1869
 2474SOL    HW119058   0.949   3.908   3.231  0.5285 -1.3191  2.0890
 2474SOL    HW219059   1.082   3.858   3.277 -1.2156 -0.4728 -0.6461
 2475SOL     OW19060   4.500   3.332   2.091  0.6425  0.3033  0.3428
 2475SOL    HW119061   4.436   3.399   2.115  0.9867  0.1238  1.8023
 2475SOL    HW219062   4.458   3.304   2.009  2.1480  0.8450 -0.5990
 2476SOL     OW19063   1.713   0.536  12.905 -0.1586  0.2132 -0.5605
 2476SOL    HW119064   1.734   0.471  12.839 -0.9563 -1.7434  1.1091
 2476SOL    HW219065   1.796   0.581  12.918  1.3088 -2.5505 -0.5502
 2477SOL     OW19066   1.073   1.135   3.154 -0.4098  0.0642 -0.0666
 2477SOL    HW119067   1.003   1.188   3.115 -0.0473  1.1713  0.8158
 2477SOL    HW219068   1.111   1.095   3.076 -0.7721  1.2362 -0.8414
 2478SOL     OW19069   3.919   1.885   7.020 -0.4808 -0.1897 -0.5404
 2478SOL    HW119070   3.996   1.829   7.012  1.4788  2.3892  0.1589
 2478SOL    HW219071   3.951   1.961   6.972  1.6069 -0.1081  0.9958
 2479SOL     OW19072   0.630   0.204   2.616  0.8959  0.4909  0.0916
 2479SOL    HW119073   0.582   0.159   2.686 -1.3668  2.7370  0.0019
 2479SOL    HW219074   0.589   0.185   2.532  0.4487 -2.1158  0.8915
 2480SOL     OW19075   1.209   3.613   3.009 -0.2549  0.9152  0.4047
 2480SOL    HW119076   1.233   3.561   2.932  0.2330  1.8721 -0.0929
 2480SOL    HW219077   1.213   3.547   3.078 -0.5061  2.8042  2.2064
 2481SOL     OW19078   1.320   1.355   9.792 -0.0508  0.2353 -0.0048
 2481SOL    HW119079   1.415   1.346   9.800  0.1502 -0.2481 -2.8371
 2481SOL    HW219080   1.303   1.296   9.718 -2.5655 -0.3029  0.9986
 2482SOL     OW19081   2.630   1.195  14.854  0.2078  0.0353  0.3327
 2482SOL    HW119082   2.554   1.191  14.913  0.7157  0.0849  0.9921
 2482SOL    HW219083   2.668   1.118  14.896 -1.4382 -1.4541 -0.8721
 2483SOL     OW19084   3.463   2.496  14.588  0.3018 -0.1509  0.6083
 2483SOL    HW119085   3.427   2.419  14.632 -2.7740  1.6009  1.1499
 2483SOL    HW219086   3.398   2.500  14.518 -0.5096 -1.3062  1.2962
 2484SOL     OW19087   0.638   2.238   9.874  0.5527 -0.2221 -0.6739
 2484SOL    HW119088   0.730   2.232   9.901  0.0565 -0.6329  0.9621
 2484SOL    HW219089   0.641   2.163   9.815 -0.1609 -0.9859  0.2538
 2485SOL     OW19090   3.226   4.309   5.292 -0.6005 -0.4338 -0.3470
 2485SOL    HW119091   3.157   4.300   5.227  1.2118  0.5490 -2.3940
 2485SOL    HW219092   3.298   4.250   5.271  1.2644  2.2856 -1.5763
 2486SOL     OW19093   0.915   4.323  15.913  0.0365  0.1463 -0.4409
 2486SOL    HW119094   1.007   4.299  15.912  0.3049  1.2043 -0.8908
 2486SOL    HW219095   0.864   4.248  15.880  0.8893 -0.1570 -1.0729
 2487SOL     OW19096   2.569   1.258   7.243  1.3971 -0.3348  0.2547
 2487SOL    HW119097   2.631   1.210   7.299 -0.4696 -3.2721 -0.1875
 2487SOL    HW219098   2.594   1.348   7.263  2.1941 -0.1618 -1.5162
 2488SOL     OW19099   2.052   2.627   9.082  0.2865 -0.1580 -0.4168
 2488SOL    HW119100   2.113   2.606   9.011  0.5513  1.5519 -0.6879
 2488SOL    HW219101   1.990   2.556   9.094 -0.4125  0.3952 -0.7640
 2489SOL     OW19102   2.954   1.466   6.303  1.0278 -0.0256  0.2031
 2489SOL    HW119103   2.941   1.372   6.291 -0.2074  0.0459  0.9622
 2489SOL    HW219104   2.991   1.506   6.224  0.0810  2.2097  0.8691
 2490SOL     OW19105   1.650   0.246   4.407  1.0481  0.4767 -0.1019
 2490SOL    HW119106   1.683   0.193   4.334 -0.7079  0.9405 -1.2388
 2490SOL    HW219107   1.655   0.170   4.465 -2.1663  0.1348 -0.2501
 2491SOL     OW19108   3.195   1.024   6.474  0.0056  0.2146  0.0441
 2491SOL    HW119109   3.105   0.991   6.474  0.3728 -0.7659  1.1568
 2491SOL    HW219110   3.180   1.115   6.496  1.0078 -0.3193  2.9295
 2492SOL     OW19111   0.732   1.024  13.131 -0.1138 -0.4869 -0.1895
 2492SOL    HW119112   0.690   1.048  13.049  0.5949  0.9100 -0.1425
 2492SOL    HW219113   0.762   1.109  13.162 -0.4744 -0.5440  0.3310
 2493SOL     OW19114   1.323   3.862   3.733  0.0596  0.1428  0.0124
 2493SOL    HW119115   1.240   3.818   3.752 -1.1120  1.9871 -0.8673
 2493SOL    HW219116   1.325   3.863   3.638 -0.6305  0.2461  0.0013
 2494SOL     OW19117   0.104   1.452   2.673  0.1561  0.0904 -0.6781
 2494SOL    HW119118   0.024   1.504   2.672  0.3810  0.4660  1.1934
 2494SOL    HW219119   0.083   1.382   2.734 -0.4690 -0.2415 -1.2798
 2495SOL     OW19120   2.444   3.221   3.363 -0.5276  0.8699 -0.3031
 2495SOL    HW119121   2.516   3.268   3.320 -0.7419  0.6069 -0.9403
 2495SOL    HW219122   2.469   3.129   3.354 -1.8580  0.4794  0.0091
 2496SOL     OW19123   4.565   2.964  14.746  0.6013 -0.5621  0.2634
 2496SOL    HW119124   4.515   3.043  14.770  0.7195 -0.5718  0.5435
 2496SOL    HW219125   4.498   2.917  14.697  0.9164 -0.5552 -0.1756
 2497SOL     OW19126   3.174   1.354   5.823 -0.0730 -0.6603  0.3393
 2497SOL    HW119127   3.106   1.291   5.799  0.8134 -2.0026  1.4189
 2497SOL    HW219128   3.236   1.292   5.859  0.3425  0.0744  0.8969
 2498SOL     OW19129   2.264   4.093  15.266  0.5166  0.0355 -0.2144
 2498SOL    HW119130   2.260   4.007  15.308 -0.0683  1.6694  3.0805
 2498SOL    HW219131   2.355   4.097  15.235  0.6364 -1.3458 -0.0495
 2499SOL     OW19132   0.193   1.582  16.051  0.4394  0.0956 -0.4998
 2499SOL    HW119133   0.109   1.560  16.011  0.6778 -3.6929  1.0305
 2499SOL    HW219134   0.244   1.551  15.976  1.6941 -2.4851  1.4083
 2500SOL     OW19135   4.580   4.001  16.343 -0.5057  0.2352 -0.2185
 2500SOL    HW119136   4.573   3.908  16.324  0.9347 -0.0443  0.6548
 2500SOL    HW219137   4.550   4.001  16.434  0.7746 -0.7777  0.1960
 2501SOL     OW19138   3.859   0.887   8.253 -0.7589 -0.0038  0.6054
 2501SOL    HW119139   3.804   0.940   8.195 -0.6473 -0.1637  0.3553
 2501SOL    HW219140   3.806   0.808   8.259 -0.9893  0.1468  0.5678
 2502SOL     OW19141   3.264   4.693  14.751  0.1223  0.3180 -0.3013
 2502SOL    HW119142   3.233   4.628  14.815 -0.2465  0.4534 -0.3455
 2502SOL    HW219143   3.218   4.656  14.676  0.2106  0.5364 -0.4620
 2503SOL     OW19144   1.636   1.401   5.188 -0.0502 -0.2077 -0.0890
 2503SOL    HW119145   1.663   1.318   5.227 -0.0985 -0.1291  0.1111
 2503SOL    HW219146   1.612   1.445   5.269 -1.7284 -0.4780 -0.4316
 2504SOL     OW19147   1.541   3.098  12.024  0.0335 -0.7242 -0.3719
 2504SOL    HW119148   1.527   3.161  11.953 -0.0918  0.7850  0.9913
 2504SOL    HW219149   1.546   3.016  11.975 -1.6382 -0.8130 -0.3816
 2505SOL     OW19150   2.877   3.531  10.431  0.2500 -0.6064  0.1579
 2505SOL    HW119151   2.954   3.475  10.441 -0.9978 -2.3692 -0.1051
 2505SOL    HW219152   2.835   3.486  10.358 -0.2786  2.8261 -1.6648
 2506SOL     OW19153   1.970   0.943   0.447  0.0378  0.2683 -0.0770
 2506SOL    HW119154   2.037   1.009   0.433  0.3461  0.2447  1.3136
 2506SOL    HW219155   1.932   0.976   0.528  0.8476  1.6643 -0.2776
 2507SOL     OW19156   4.197   0.095   2.823 -0.0005 -0.6294 -0.4530
 2507SOL    HW119157   4.219   0.010   2.861  2.0073 -0.0395 -0.2950
 2507SOL    HW219158   4.112   0.111   2.863  1.1507  0.2338  1.6395
 2508SOL     OW19159   4.226   3.601   3.969 -0.0438 -0.2542  0.3509
 2508SOL    HW119160   4.143   3.630   3.931 -0.1797 -0.3431  0.5799
 2508SOL    HW219161   4.229   3.522   3.914  3.3794  1.2537 -1.6725
 2509SOL     OW19162   3.131   1.381   7.501  0.3330  0.0888  0.1559
 2509SOL    HW119163   3.218   1.401   7.468  0.5190 -2.9383 -1.2050
 2509SOL    HW219164   3.080   1.446   7.453  0.9197  2.1663  2.4077
 2510SOL     OW19165   2.815   2.277   7.850  0.0796 -0.4424  0.4609
 2510SOL    HW119166   2.739   2.331   7.831  0.3583 -1.6982 -4.2336
 2510SOL    HW219167   2.787   2.187   7.870 -1.0687 -0.4707 -1.3077
 2511SOL     OW19168   4.266   4.203   5.113  0.0315 -0.3323  0.2667
 2511SOL    HW119169   4.263   4.263   5.038  2.0112 -0.8105 -0.1896
 2511SOL    HW219170   4.292   4.124   5.067  2.0206 -0.1586  1.1079
 2512SOL     OW19171   3.351   0.605   6.742 -0.3614  0.2987  0.1057
 2512SOL    HW119172   3.379   0.594   6.833 -0.6253  0.5234  0.2144
 2512SOL    HW219173   3.430   0.638   6.698 -3.1080  2.4470 -3.2095
 2513SOL     OW19174   0.032   0.700  13.985 -0.3270  0.2392 -0.0191
 2513SOL    HW119175   0.113   0.665  13.948 -1.0925 -2.0952  0.4710
 2513SOL    HW219176   4.726   0.679  13.904  0.8753 -1.4837 -0.2703
 2514SOL     OW19177   0.003   2.589   9.451  0.0378 -0.0477 -0.5505
 2514SOL    HW119178   0.021   2.670   9.404 -0.3547  1.1834  1.4460
 2514SOL    HW219179   0.055   2.531   9.395  1.1015  0.7313 -0.3703
 2515SOL     OW19180   3.426   3.828   6.231  0.6050 -0.0818  0.1365
 2515SOL    HW119181   3.469   3.842   6.315  0.4211 -1.3492  0.4418
 2515SOL    HW219182   3.495   3.773   6.195 -1.6446 -1.7068 -1.6411
 2516SOL     OW19183   4.273   1.836   1.798 -0.6513  0.0927  0.0015
 2516SOL    HW119184   4.233   1.801   1.718  0.4229  0.0510 -0.5118
 2516SOL    HW219185   4.231   1.775   1.858  1.6598 -1.1964  0.2956
 2517SOL     OW19186   2.282   3.808   7.080  0.5256  0.8236  0.0831
 2517SOL    HW119187   2.365   3.761   7.074  0.3353  0.1681  2.3418
 2517SOL    HW219188   2.284   3.829   7.174  0.7890 -0.1605  0.2942
 2518SOL     OW19189   2.971   3.496   4.969  0.2619  0.1790  0.4090
 2518SOL    HW119190   2.995   3.422   5.024  0.1889 -1.0481 -1.2189
 2518SOL    HW219191   2.929   3.450   4.896 -1.4216 -0.3739  1.7079
 2519SOL     OW19192   2.563   1.968   4.597  0.4589 -0.5447 -0.5111
 2519SOL    HW119193   2.481   2.007   4.566  1.4820  2.7985  1.0246
 2519SOL    HW219194   2.625   1.995   4.528  0.5344 -0.6619 -0.4893
 2520SOL     OW19195   4.027   0.108   2.353  0.1186  0.3881  0.5933
 2520SOL    HW119196   4.021   0.186   2.299  0.3737 -0.1390 -0.1929
 2520SOL    HW219197   4.097   0.139   2.411  0.4357 -1.3825  1.1437
 2521SOL     OW19198   1.354   4.112   8.379 -0.5374 -0.3441 -0.1274
 2521SOL    HW119199   1.349   4.161   8.297 -0.2421 -1.2517 -0.6888
 2521SOL    HW219200   1.418   4.049   8.346  0.9314  0.1545  1.7448
 2522SOL     OW19201   0.511   2.677   4.513 -0.1711  0.3045  1.0957
 2522SOL    HW119202   0.604   2.691   4.531 -0.3023  3.3928 -0.5868
 2522SOL    HW219203   0.472   2.742   4.572 -1.3751  0.6625 -0.0992
 2523SOL     OW19204   4.231   4.512  17.631 -0.0806 -0.4295 -0.0317
 2523SOL    HW119205   4.156   4.549  17.677  1.7723  0.6164  2.1043
 2523SOL    HW219206   4.296   4.547  17.691 -2.8578  1.5350  1.8523
 2524SOL     OW19207   0.215   3.392   2.495 -0.2308 -0.5441 -0.4354
 2524SOL    HW119208   0.305   3.423   2.486  0.1925 -1.4534  0.6901
 2524SOL    HW219209   0.210   3.308   2.449  1.8299 -1.5580  1.2276
 2525SOL     OW19210   4.602   2.866  10.610  0.3865 -0.4904 -0.0840
 2525SOL    HW119211   4.648   2.924  10.671  3.1270 -1.1355 -1.5396
 2525SOL    HW219212   4.613   2.916  10.529  2.1729 -0.5963  0.1082
 2526SOL     OW19213   1.422   1.045  17.461 -0.1357  0.1064 -0.3951
 2526SOL    HW119214   1.366   1.030  17.536 -1.0864  1.3863 -0.8548
 2526SOL    HW219215   1.505   1.007  17.491 -0.4131 -0.3576 -0.2149
 2527SOL     OW19216   0.030   3.365   5.119 -1.0088 -0.0948 -0.0479
 2527SOL    HW119217   0.044   3.396   5.209  1.8763  0.6471 -0.7457
 2527SOL    HW219218   0.068   3.442   5.077  2.9594 -0.7144  2.4468
 2528SOL     OW19219   3.634   0.017   3.313  0.1310 -0.6311 -0.2762
 2528SOL    HW119220   3.555   4.717   3.277  0.7918  0.1689 -2.5969
 2528SOL    HW219221   3.671   4.684   3.361 -0.8219  0.8038  2.6609
 2529SOL     OW19222   4.137   1.544  13.199 -0.3618 -0.0193 -0.3712
 2529SOL    HW119223   4.070   1.496  13.149 -2.2747  1.5153  0.7349
 2529SOL    HW219224   4.124   1.498  13.282  0.0525  0.3636 -0.0990
 2530SOL     OW19225   2.547   3.237  10.947  0.5416  0.5888  0.0412
 2530SOL    HW119226   2.594   3.154  10.956  1.6473  0.8900 -2.9986
 2530SOL    HW219227   2.555   3.272  11.035  1.2837  1.5270 -0.4045
 2531SOL     OW19228   0.433   0.905   7.776  0.1150  0.0600 -0.5292
 2531SOL    HW119229   0.507   0.904   7.836 -0.5805  0.7821  0.3352
 2531SOL    HW219230   0.411   0.998   7.775 -3.4458 -0.7685 -0.8117
 2532SOL     OW19231   2.960   2.374   5.589  0.0180 -0.7489 -0.1857
 2532SOL    HW119232   3.050   2.344   5.602  1.0167  1.5871 -1.8006
 2532SOL    HW219233   2.960   2.458   5.635 -0.1632  0.0693 -1.6865
 2533SOL     OW19234   1.394   1.860   5.211  0.0865 -0.0756  0.2021
 2533SOL    HW119235   1.338   1.904   5.147 -0.2258  0.4025  0.7991
 2533SOL    HW219236   1.393   1.769   5.182  0.9031 -0.3444  1.0384
 2534SOL     OW19237   3.495   3.815   3.219  0.8858 -0.4679  0.4308
 2534SOL    HW119238   3.506   3.875   3.145  2.6837 -1.7957 -0.3811
 2534SOL    HW219239   3.441   3.866   3.279 -0.8899 -2.8413  0.8097
 2535SOL     OW19240   0.146   2.156   5.701  0.1235 -0.6514  0.3027
 2535SOL    HW119241   0.086   2.083   5.687  1.1534 -1.4568  0.0424
 2535SOL    HW219242   0.185   2.168   5.614  0.8642 -0.8731  0.6079
 2536SOL     OW19243   0.981   2.255   3.783  0.3662 -0.2381  0.1636
 2536SOL    HW119244   0.989   2.160   3.783  1.5566 -0.1298  1.0833
 2536SOL    HW219245   0.906   2.259   3.842  0.1691 -1.2260 -0.0171
 2537SOL     OW19246   0.189   3.210   8.757 -0.7392 -0.3296  0.3971
 2537SOL    HW119247   0.171   3.130   8.806  0.8988 -0.9264  0.0071
 2537SOL    HW219248   0.204   3.270   8.831  0.0065  0.0131 -0.0421
 2538SOL     OW19249   1.139   0.606  13.833  0.2478  0.8688  0.2170
 2538SOL    HW119250   1.118   0.536  13.771  1.6200  0.1122  0.6290
 2538SOL    HW219251   1.060   0.659  13.848  1.8898  3.2023  0.5889
 2539SOL     OW19252   1.241   4.340   6.376  0.1698  0.5649 -0.0282
 2539SOL    HW119253   1.200   4.298   6.451  0.0169 -0.4420 -0.6747
 2539SOL    HW219254   1.180   4.413   6.373 -0.4091  0.0509 -0.8758
 2540SOL     OW19255   2.095   1.334  16.591 -0.4223 -0.4210  0.0985
 2540SOL    HW119256   2.113   1.306  16.681 -0.1548  0.2295  0.2469
 2540SOL    HW219257   2.130   1.423  16.591 -1.1339 -0.1444 -0.2738
 2541SOL     OW19258   1.830   2.870   5.622 -0.1677 -0.0153  0.0463
 2541SOL    HW119259   1.749   2.882   5.573 -0.3792 -1.4743  0.0497
 2541SOL    HW219260   1.842   2.775   5.619 -1.1717 -0.1115 -0.9485
 2542SOL     OW19261   0.684   3.835   6.971 -0.2309  0.2428 -0.1778
 2542SOL    HW119262   0.620   3.898   7.004 -0.4816 -0.5017  0.7467
 2542SOL    HW219263   0.742   3.829   7.046  0.8659  0.2184 -1.0199
 2543SOL     OW19264   2.239   0.142   3.590  0.1076 -0.3014 -0.1442
 2543SOL    HW119265   2.308   0.102   3.643 -0.3048  0.7729  1.2013
 2543SOL    HW219266   2.236   0.234   3.615  1.8496  0.4561 -2.7221
 2544SOL     OW19267   4.413   3.561   4.182  0.1958  0.0167 -0.0382
 2544SOL    HW119268   4.431   3.598   4.268 -0.7321  1.2084 -0.3606
 2544SOL    HW219269   4.352   3.625   4.146 -0.2176 -0.9076 -0.9984
 2545SOL     OW19270   2.025   1.270  15.191 -0.4139  0.5317  0.0668
 2545SOL    HW119271   2.012   1.248  15.099 -3.6627 -1.7308  1.0390
 2545SOL    HW219272   1.987   1.197  15.240 -1.1475 -0.7569 -2.4246
 2546SOL     OW19273   0.125   2.188   5.346 -0.2939 -0.9893 -1.0281
 2546SOL    HW119274   0.096   2.155   5.262 -0.7430  2.3029 -2.1667
 2546SOL    HW219275   0.175   2.269   5.329 -0.9537 -0.0363  1.4996
 2547SOL     OW19276   0.269   0.279   4.790  1.1543  0.0503  0.4071
 2547SOL    HW119277   0.238   0.211   4.850  1.3455 -2.4481 -2.3153
 2547SOL    HW219278   0.273   0.360   4.840  1.0867 -0.0257  0.5371
 2548SOL     OW19279   3.878   2.578   3.569 -0.1221 -0.4994 -0.0929
 2548SOL    HW119280   3.827   2.548   3.494 -1.4725  1.4069  0.0737
 2548SOL    HW219281   3.845   2.514   3.633 -1.0506  0.2637  0.1999
 2549SOL     OW19282   0.742   4.006   2.475 -0.0724 -0.2420  0.2063
 2549SOL    HW119283   0.837   3.995   2.483 -0.1388 -1.4363 -0.7486
 2549SOL    HW219284   0.727   4.061   2.552 -0.6984  1.3767 -1.0488
 2550SOL     OW19285   2.408   1.560   8.341 -0.2832  0.2410 -0.2238
 2550SOL    HW119286   2.495   1.599   8.335  0.6891 -2.0414 -0.7895
 2550SOL    HW219287   2.361   1.597   8.266 -0.5106 -0.5894 -0.4826
 2551SOL     OW19288   1.719   0.672   8.391 -0.1254  0.2084  0.2764
 2551SOL    HW119289   1.632   0.668   8.351  0.6509 -0.2968 -1.3821
 2551SOL    HW219290   1.699   0.683   8.483 -3.1206 -0.3505 -0.3138
 2552SOL     OW19291   1.647   0.438   6.941 -0.0165 -0.2995  0.2167
 2552SOL    HW119292   1.675   0.490   7.016 -0.8681 -1.6429  1.4674
 2552SOL    HW219293   1.655   0.505   6.874 -0.1001 -1.3360 -0.8417
 2553SOL     OW19294   1.157   3.022   9.198  0.2736 -0.1350  0.2749
 2553SOL    HW119295   1.104   2.948   9.167  0.5920  0.3838 -1.5231
 2553SOL    HW219296   1.191   2.998   9.284 -0.7459 -1.5062  0.2913
 2554SOL     OW19297   0.107   3.430  16.282  0.4757 -0.0921 -0.3749
 2554SOL    HW119298   0.164   3.481  16.224  0.9822  0.1974  0.3764
 2554SOL    HW219299   0.048   3.496  16.317  0.4533  0.0009 -0.5855
 2555SOL     OW19300   3.763   1.959  10.295  0.2284  0.6723  0.1182
 2555SOL    HW119301   3.690   1.962  10.357 -0.4892 -3.1364 -0.5698
 2555SOL    HW219302   3.832   2.008  10.341 -1.5620  1.9850  1.4080
 2556SOL     OW19303   4.176   4.328   4.860  0.2386 -0.0767  0.2984
 2556SOL    HW119304   4.116   4.276   4.807 -0.5111  1.0129  0.0827
 2556SOL    HW219305   4.254   4.281   4.830  1.0233  0.8714  0.8535
 2557SOL     OW19306   2.185   3.725   4.945 -0.0145 -0.1911 -0.7763
 2557SOL    HW119307   2.126   3.780   4.996  1.1724 -0.8726  1.3550
 2557SOL    HW219308   2.148   3.740   4.858 -2.1730 -4.2016 -0.5524
 2558SOL     OW19309   1.974   2.374  12.162 -0.4236 -0.1679 -0.5746
 2558SOL    HW119310   2.021   2.312  12.107  0.4273  0.1943 -0.2504
 2558SOL    HW219311   2.032   2.449  12.161  0.4037 -0.7662  2.8127
 2559SOL     OW19312   0.442   2.352   4.489  0.3737  0.5697  0.5596
 2559SOL    HW119313   0.385   2.427   4.506  1.3918  1.6618 -0.8400
 2559SOL    HW219314   0.529   2.392   4.485  0.0345  1.0320 -2.2099
 2560SOL     OW19315   3.515   2.107   3.679  0.6082  0.5508  0.2422
 2560SOL    HW119316   3.462   2.160   3.619 -0.6411 -0.6396  0.2942
 2560SOL    HW219317   3.608   2.113   3.657  0.7837 -1.4264  0.4989
 2561SOL     OW19318   0.144   1.517  10.871  0.1202 -0.7659 -0.8873
 2561SOL    HW119319   0.177   1.478  10.953 -0.1279 -0.3714 -0.6011
 2561SOL    HW219320   0.058   1.540  10.906  0.3162 -1.0410 -0.2172
 2562SOL     OW19321   1.422   2.682   9.611 -0.2187  0.3635  1.0936
 2562SOL    HW119322   1.375   2.752   9.655  1.1683  1.6876  0.4740
 2562SOL    HW219323   1.394   2.608   9.666 -0.7616 -0.2713 -0.0239
 2563SOL     OW19324   4.058   2.051   1.284 -0.2436 -0.1176  0.0453
 2563SOL    HW119325   4.137   1.996   1.291 -0.2139 -0.3886 -2.5617
 2563SOL    HW219326   4.092   2.136   1.256  3.2014 -1.0920  1.2200
 2564SOL     OW19327   3.024   2.575   8.337  0.0051  0.0057 -0.0236
 2564SOL    HW119328   3.024   2.563   8.432  2.8555  0.8074  0.0889
 2564SOL    HW219329   2.999   2.667   8.346 -1.8478 -0.5487  0.4048
 2565SOL     OW19330   2.011   3.439  11.316  0.3783  0.3101 -0.2719
 2565SOL    HW119331   2.082   3.398  11.366  0.3569 -0.4534 -0.8604
 2565SOL    HW219332   2.037   3.413  11.227 -0.1473 -2.4127  0.3538
 2566SOL     OW19333   3.806   2.205  13.552 -0.0273  0.7744 -0.2195
 2566SOL    HW119334   3.813   2.111  13.566 -0.7887  0.9698  1.5083
 2566SOL    HW219335   3.895   2.238  13.539  0.7027 -1.6529 -1.2964
 2567SOL     OW19336   0.509   2.559  10.456 -0.5614  0.1253 -0.0934
 2567SOL    HW119337   0.470   2.472  10.450 -0.0875 -0.0829 -0.1339
 2567SOL    HW219338   0.546   2.558  10.544 -0.2716 -0.2517 -0.2195
 2568SOL     OW19339   2.721   1.009   5.495  0.5569 -0.2116 -0.0191
 2568SOL    HW119340   2.783   0.980   5.563 -2.0773 -0.4444  2.2710
 2568SOL    HW219341   2.638   0.997   5.540  1.0790 -1.6566  0.5662
 2569SOL     OW19342   1.533   2.316   6.497  0.6916  0.4590  0.2844
 2569SOL    HW119343   1.440   2.313   6.520  0.7240  2.5963  0.7158
 2569SOL    HW219344   1.528   2.403   6.457  0.3135 -1.2602 -3.3822
 2570SOL     OW19345   4.530   0.286   5.516  0.3845 -0.3864 -0.1613
 2570SOL    HW119346   4.484   0.213   5.557 -0.8034  0.3726 -0.1149
 2570SOL    HW219347   4.623   0.278   5.537  0.2556  1.1192  1.0323
 2571SOL     OW19348   0.771   0.622  15.442 -0.4379 -0.1929 -0.4222
 2571SOL    HW119349   0.791   0.561  15.513  0.6960  2.2903  1.3771
 2571SOL    HW219350   0.794   0.559  15.373  3.2652  2.2292 -1.3950
 2572SOL     OW19351   2.864   3.543   2.016 -0.2177 -0.3763  0.1050
 2572SOL    HW119352   2.830   3.629   1.990 -4.0182 -1.4274  1.5058
 2572SOL    HW219353   2.782   3.520   2.060 -0.0013 -1.9762 -0.3576
 2573SOL     OW19354   3.111   2.930  17.154 -0.5904  0.3422  0.2357
 2573SOL    HW119355   3.042   2.870  17.123 -0.5554  0.5716 -0.2815
 2573SOL    HW219356   3.152   2.952  17.070  0.0479  0.8797  0.7004
 2574SOL     OW19357   1.857   4.030   2.859 -0.6376  0.4898  0.1062
 2574SOL    HW119358   1.913   4.080   2.800  0.1061  0.8936  1.1520
 2574SOL    HW219359   1.877   4.068   2.945  0.1686 -0.1288  0.1940
 2575SOL     OW19360   1.575   0.055   2.490  0.5858 -0.3138 -0.0510
 2575SOL    HW119361   1.533   0.019   2.412  2.1362 -0.6048 -0.7458
 2575SOL    HW219362   1.581   0.147   2.465  1.9830 -0.2317  0.5874
 2576SOL     OW19363   4.497   1.162   9.158 -0.1256 -0.3505  0.1120
 2576SOL    HW119364   4.577   1.197   9.198 -0.8305  1.4841 -0.0795
 2576SOL    HW219365   4.440   1.236   9.140 -2.1450 -2.1516 -0.8200
 2577SOL     OW19366   0.692   0.461  16.202 -0.0336 -0.5046 -0.2005
 2577SOL    HW119367   0.718   0.370  16.185 -2.2997 -1.4508  1.4147
 2577SOL    HW219368   0.708   0.470  16.296  1.8123 -0.7875 -0.4833
 2578SOL     OW19369   1.664   3.985   7.706  0.3657  0.4040 -0.0739
 2578SOL    HW119370   1.680   3.904   7.753  0.5262  0.0384 -0.7480
 2578SOL    HW219371   1.586   3.963   7.655 -0.2845 -0.7856  1.4348
 2579SOL     OW19372   1.927   0.314   4.780 -0.5495  0.5122  0.3717
 2579SOL    HW119373   1.834   0.302   4.800 -0.7070  0.5411 -0.3449
 2579SOL    HW219374   1.962   0.300   4.869  2.4064  0.9741 -0.7271
 2580SOL     OW19375   1.977   4.679   2.216  0.3168  0.3147  0.0173
 2580SOL    HW119376   1.987   4.587   2.241  0.1261  0.2494 -0.1467
 2580SOL    HW219377   1.999   4.723   2.298  2.4964 -0.9579  0.1025
 2581SOL     OW19378   3.567   2.819   8.659 -0.0999 -0.2097  0.3079
 2581SOL    HW119379   3.658   2.815   8.630  0.6722 -1.0350  2.8356
 2581SOL    HW219380   3.519   2.776   8.589 -0.6185  1.7809 -0.5671
 2582SOL     OW19381   1.446   0.447   4.977 -0.1536 -0.0621  0.5142
 2582SOL    HW119382   1.473   0.488   4.895 -0.9500  1.3060  0.9533
 2582SOL    HW219383   1.530   0.416   5.012  0.9081  0.7386 -1.3415
 2583SOL     OW19384   2.946   2.686   7.691 -0.0140  0.1502  0.3889
 2583SOL    HW119385   2.914   2.643   7.771  2.2625 -2.3375 -0.0338
 2583SOL    HW219386   2.862   2.707   7.651 -0.0486 -0.6017  0.0570
 2584SOL     OW19387   4.645   0.664   8.324  0.0852 -0.0486  0.3482
 2584SOL    HW119388   4.728   0.695   8.359  0.7532 -1.6824  0.1964
 2584SOL    HW219389   4.647   0.698   8.234  0.9650 -0.0737  0.3626
 2585SOL     OW19390   2.185   3.444   3.051  0.4162  0.1946  0.3172
 2585SOL    HW119391   2.277   3.430   3.072  0.8582 -0.4773 -2.1023
 2585SOL    HW219392   2.154   3.356   3.029  0.9154 -0.2555  1.4214
 2586SOL     OW19393   4.295   4.720   0.477 -0.0069 -0.1038  0.3878
 2586SOL    HW119394   4.369   0.031   0.444  0.7694 -2.2680 -1.2199
 2586SOL    HW219395   4.327   4.722   0.567 -4.1231  0.6316  1.8168
 2587SOL     OW19396   2.918   2.953   5.094 -0.1903 -0.2187 -0.2209
 2587SOL    HW119397   3.008   2.982   5.080 -0.3522 -0.6399 -2.1107
 2587SOL    HW219398   2.905   2.899   5.016 -0.3241  0.2082 -0.4910
 2588SOL     OW19399   1.652   2.212   5.632 -0.1806 -0.6029  0.4113
 2588SOL    HW119400   1.706   2.221   5.710 -0.6820 -0.7345  0.7714
 2588SOL    HW219401   1.603   2.294   5.634 -0.0180 -0.4710 -0.8271
 2589SOL     OW19402   2.308   3.498   4.022  0.2996 -0.3239 -0.4470
 2589SOL    HW119403   2.396   3.472   4.048  0.0234  0.0746  0.8697
 2589SOL    HW219404   2.310   3.591   4.046 -1.6649 -0.5103  0.4042
 2590SOL     OW19405   0.043   2.023   5.134 -0.0505 -0.5732  0.1578
 2590SOL    HW119406   4.721   1.988   5.198  0.5203 -2.9052 -0.5771
 2590SOL    HW219407   4.724   2.023   5.059 -2.3283 -1.4855  1.9329
 2591SOL     OW19408   1.517   2.758   2.009  0.1546  0.2450 -0.1106
 2591SOL    HW119409   1.436   2.708   1.995  0.6632 -0.5065 -0.4269
 2591SOL    HW219410   1.478   2.821   2.069  0.4522  1.4277 -1.1612
 2592SOL     OW19411   0.080   0.048   7.033  0.0419 -1.1746  0.4713
 2592SOL    HW119412   0.075   0.136   7.071  1.2308 -0.6403 -0.6224
 2592SOL    HW219413   0.167   0.055   6.994  0.2796 -0.6615  1.0898
 2593SOL     OW19414   0.769   4.404   8.856 -0.3437  0.2054  0.0931
 2593SOL    HW119415   0.768   4.424   8.762 -0.6651 -1.7983 -0.3170
 2593SOL    HW219416   0.861   4.379   8.867  0.0090  0.7577 -1.5359
 2594SOL     OW19417   0.767   2.597  10.000  0.0193  0.2573  0.5808
 2594SOL    HW119418   0.726   2.530   9.946 -0.3639 -0.8016  2.1724
 2594SOL    HW219419   0.766   2.548  10.083 -2.7131 -1.3543 -0.4401
 2595SOL     OW19420   3.730   1.442  11.016 -0.3310  0.3394  0.1844
 2595SOL    HW119421   3.710   1.355  11.052  0.7891 -0.0710 -0.1705
 2595SOL    HW219422   3.775   1.485  11.088 -0.6208 -0.8592  1.0846
 2596SOL     OW19423   0.844   4.566  17.554  0.4580  0.5314  0.1258
 2596SOL    HW119424   0.781   4.597  17.620 -2.0992 -1.3688 -1.4210
 2596SOL    HW219425   0.928   4.556  17.598  0.4432 -1.2746 -0.2810
 2597SOL     OW19426   1.676   1.835   1.511 -0.4860  0.1563  0.1591
 2597SOL    HW119427   1.582   1.830   1.494 -0.5164 -1.1678  0.7530
 2597SOL    HW219428   1.708   1.849   1.422  2.0128 -1.7761  0.7299
 2598SOL     OW19429   3.033   1.418   5.141 -0.1525 -0.6542 -0.0019
 2598SOL    HW119430   2.962   1.457   5.193 -0.3647 -1.0532  0.0082
 2598SOL    HW219431   2.998   1.425   5.052 -0.6027  0.0669  0.2264
 2599SOL     OW19432   0.463   0.666   8.422  0.0610  0.3923  0.1877
 2599SOL    HW119433   0.516   0.695   8.496 -0.5139 -2.8112  1.8486
 2599SOL    HW219434   0.468   0.572   8.442 -1.1866 -0.0444 -1.5215
 2600SOL     OW19435   1.182   1.858   7.267 -0.0549  0.1431 -0.2884
 2600SOL    HW119436   1.223   1.853   7.180 -1.3190 -0.2666 -0.8714
 2600SOL    HW219437   1.127   1.933   7.241 -1.8211 -0.8149  0.6997
 2601SOL     OW19438   2.479   4.609   3.396 -0.3868 -0.3743  1.2428
 2601SOL    HW119439   2.478   4.625   3.490 -2.3403 -0.7856  1.2869
 2601SOL    HW219440   2.483   4.699   3.362  1.0026 -0.7156  0.4875
 2602SOL     OW19441   4.203   3.444   5.024 -0.1714  0.5708  0.1645
 2602SOL    HW119442   4.140   3.422   4.956  1.3562 -1.7665 -0.5113
 2602SOL    HW219443   4.161   3.421   5.106  1.6054  3.0896  1.7837
 2603SOL     OW19444   0.663   0.295   2.314  0.3280  0.3831  0.0709
 2603SOL    HW119445   0.658   0.342   2.231  0.2221 -0.2284 -0.2603
 2603SOL    HW219446   0.665   0.364   2.381  0.0731  0.0053  0.4691
 2604SOL     OW19447   0.076   2.168   9.306  0.3092 -0.1966 -0.5095
 2604SOL    HW119448   0.132   2.244   9.289  0.9017 -0.2137  1.4051
 2604SOL    HW219449   0.122   2.107   9.249  1.1022 -1.8939  1.9577
 2605SOL     OW19450   3.780   0.702  14.768 -0.1120  0.2794  0.2863
 2605SOL    HW119451   3.789   0.664  14.681  0.2185 -2.5087  1.5298
 2605SOL    HW219452   3.820   0.789  14.761  0.3421 -0.0851 -1.4124
 2606SOL     OW19453   2.826   0.439   6.619  0.2223 -0.3577  0.0596
 2606SOL    HW119454   2.811   0.345   6.607 -1.1934 -0.2451  0.9687
 2606SOL    HW219455   2.899   0.439   6.681 -1.3700 -2.4617  1.9305
 2607SOL     OW19456   3.872   3.127   5.490 -0.1911 -0.0047 -0.6128
 2607SOL    HW119457   3.959   3.164   5.474  0.5697 -1.9422 -0.9280
 2607SOL    HW219458   3.862   3.164   5.578  1.3115 -0.0366 -0.4240
 2608SOL     OW19459   1.587   1.472  13.626 -0.1393  0.7994 -0.2540
 2608SOL    HW119460   1.609   1.554  13.581  1.1575  0.6609  0.1109
 2608SOL    HW219461   1.494   1.483  13.644 -0.4247 -1.7591 -0.2007
 2609SOL     OW19462   1.698   4.512   5.321 -0.0630 -0.4865 -0.4534
 2609SOL    HW119463   1.784   4.494   5.359  0.9045  0.7822 -2.0576
 2609SOL    HW219464   1.671   4.431   5.278  0.1296 -1.3050  0.9773
 2610SOL     OW19465   2.036   1.341   0.119 -0.4659 -0.1463  0.0701
 2610SOL    HW119466   2.122   1.383   0.126 -0.9191  0.7982 -0.1501
 2610SOL    HW219467   2.058   1.253   0.088  2.4130  0.2903  0.8374
 2611SOL     OW19468   0.241   3.740  10.972  0.2339  0.3480 -0.5123
 2611SOL    HW119469   0.177   3.695  10.917  1.1150 -0.5591 -0.7994
 2611SOL    HW219470   0.285   3.799  10.911 -0.0394 -0.4848 -1.5229
 2612SOL     OW19471   2.651   1.569   5.719 -0.0711  0.1738  0.7936
 2612SOL    HW119472   2.603   1.566   5.636 -0.0119  2.3631  0.6719
 2612SOL    HW219473   2.697   1.653   5.713 -0.2652  0.2148 -0.1295
 2613SOL     OW19474   3.697   1.404  11.952 -0.2720  0.5938  0.0647
 2613SOL    HW119475   3.696   1.500  11.959  0.8058  0.3143  4.2911
 2613SOL    HW219476   3.604   1.382  11.948  0.6166 -2.7662 -1.8364
 2614SOL     OW19477   4.637   2.272   8.361 -0.2687 -0.3948 -0.0597
 2614SOL    HW119478   4.611   2.216   8.434  1.6123  0.8245  1.5842
 2614SOL    HW219479   4.728   2.241   8.363 -0.5396 -1.1121  0.8573
 2615SOL     OW19480   0.854   2.579   6.647 -0.5963  0.0049 -0.1041
 2615SOL    HW119481   0.826   2.644   6.711  0.0980 -1.6174  1.8318
 2615SOL    HW219482   0.782   2.516   6.641  0.1851 -0.8471 -0.6259
 2616SOL     OW19483   4.253   0.690  15.007 -0.5548  0.5849  0.7081
 2616SOL    HW119484   4.279   0.707  15.098  1.5596  1.0277  0.0350
 2616SOL    HW219485   4.159   0.672  15.013 -0.0218 -0.9575  4.4233
 2617SOL     OW19486   2.607   3.824   5.431 -0.9955 -0.0876 -0.0891
 2617SOL    HW119487   2.675   3.872   5.479 -0.6520 -0.9683  0.3049
 2617SOL    HW219488   2.556   3.895   5.392 -0.1681  0.6526  0.1673
 2618SOL     OW19489   0.979   0.645   6.993 -0.1645 -0.9262  1.0741
 2618SOL    HW119490   0.982   0.726   7.044 -3.9989 -0.7292  0.9665
 2618SOL    HW219491   0.890   0.613   7.008 -1.2503  1.2751 -0.6258
 2619SOL     OW19492   2.513   0.767   5.642 -0.0761 -0.0264  0.5339
 2619SOL    HW119493   2.494   0.855   5.609 -1.8799  0.0336  1.7731
 2619SOL    HW219494   2.504   0.793   5.734 -0.3742  1.9902 -0.0692
 2620SOL     OW19495   1.395   2.934   9.787  0.7146  0.2539 -0.8830
 2620SOL    HW119496   1.314   2.979   9.812  1.1461  0.0831  0.8071
 2620SOL    HW219497   1.447   2.944   9.866 -0.6791 -0.5260  0.1388
 2621SOL     OW19498   2.714   3.785   9.668  0.5016  0.4850  0.3082
 2621SOL    HW119499   2.721   3.828   9.753  1.5816 -2.5734  1.7500
 2621SOL    HW219500   2.677   3.701   9.697  2.5422 -0.0563  1.3253
 2622SOL     OW19501   0.538   1.192   8.435  0.7189  0.0901 -0.4237
 2622SOL    HW119502   0.451   1.231   8.425  0.5654  0.4910  2.3230
 2622SOL    HW219503   0.518   1.103   8.462 -1.9023 -0.1872 -3.2470
 2623SOL     OW19504   4.179   1.524   7.490  0.2020 -0.0907 -0.0345
 2623SOL    HW119505   4.209   1.559   7.406  2.1809 -0.6420  0.4396
 2623SOL    HW219506   4.254   1.550   7.544 -0.1762  0.8346  0.0321
 2624SOL     OW19507   2.680   0.389   2.431  0.0956  0.0420 -0.4820
 2624SOL    HW119508   2.768   0.402   2.466 -1.0269 -1.0753  2.6930
 2624SOL    HW219509   2.694   0.433   2.347  2.4377  0.8241  0.3145
 2625SOL     OW19510   3.835   3.268  11.502 -0.1069 -0.2653 -0.5390
 2625SOL    HW119511   3.884   3.217  11.437 -0.6602 -0.4411 -0.8172
 2625SOL    HW219512   3.856   3.224  11.585  1.4944  0.0203 -0.7958
 2626SOL     OW19513   1.471   1.335  11.812  0.5519  0.3149  0.0012
 2626SOL    HW119514   1.453   1.368  11.724 -1.3349 -0.9057 -0.0642
 2626SOL    HW219515   1.495   1.419  11.853 -0.0596 -0.1185  1.2392
 2627SOL     OW19516   0.307   0.700  14.197  0.5760 -0.0512  0.0870
 2627SOL    HW119517   0.353   0.662  14.123  2.3553  1.8956  0.1990
 2627SOL    HW219518   0.231   0.643  14.185  0.4011  0.1902  0.0387
 2628SOL     OW19519   1.186   4.469   4.226  0.7248  0.2619  0.0089
 2628SOL    HW119520   1.177   4.375   4.209  3.8837 -0.3957  1.9632
 2628SOL    HW219521   1.243   4.505   4.158 -0.5959 -0.6633 -1.5968
 2629SOL     OW19522   1.744   1.291  13.414 -0.6136 -0.1598  0.0620
 2629SOL    HW119523   1.719   1.267  13.325 -2.2184 -0.7455  0.6837
 2629SOL    HW219524   1.671   1.332  13.461 -0.1751 -1.0423  1.5111
 2630SOL     OW19525   4.431   0.959   2.755 -0.2876 -0.2150  0.2540
 2630SOL    HW119526   4.388   0.874   2.742 -1.5412  0.3251  0.9049
 2630SOL    HW219527   4.426   0.963   2.850  1.3568  2.4359  0.2350
 2631SOL     OW19528   1.505   2.148   3.282 -0.1549 -0.1511  0.2308
 2631SOL    HW119529   1.589   2.111   3.307 -0.5922 -0.4316  1.2849
 2631SOL    HW219530   1.473   2.096   3.208 -0.7874  0.6185 -0.0377
 2632SOL     OW19531   2.143   1.489  15.874  0.4147 -0.0051 -0.1373
 2632SOL    HW119532   2.074   1.441  15.921  1.8889 -1.1483  0.8592
 2632SOL    HW219533   2.211   1.468  15.938 -0.3337 -1.2912  0.2566
 2633SOL     OW19534   2.889   0.904   5.677  0.2645  0.5876 -0.4708
 2633SOL    HW119535   2.972   0.885   5.633 -0.6447 -2.1582 -1.0214
 2633SOL    HW219536   2.905   0.848   5.753 -0.9431 -0.6065 -1.0910
 2634SOL     OW19537   3.682   2.316   5.369 -0.2592  0.6370  0.0209
 2634SOL    HW119538   3.751   2.254   5.392 -1.8272 -0.5892  1.4202
 2634SOL    HW219539   3.701   2.397   5.416 -1.1089  1.2387 -0.6528
 2635SOL     OW19540   4.263   2.218   1.176 -0.1178  0.4192  0.3238
 2635SOL    HW119541   4.301   2.289   1.124  1.2672  0.2662  1.1307
 2635SOL    HW219542   4.289   2.135   1.136 -0.1576  1.6185 -2.2029
 2636SOL     OW19543   1.381   2.611  15.353  0.9122 -0.5265 -0.2659
 2636SOL    HW119544   1.345   2.542  15.297  1.5040 -0.5470 -0.6145
 2636SOL    HW219545   1.341   2.691  15.319 -2.0818 -1.1846  1.7291
 2637SOL     OW19546   4.121   3.889   8.733 -0.2598  0.1295  0.5391
 2637SOL    HW119547   4.034   3.916   8.702 -0.0955  1.8341  1.6082
 2637SOL    HW219548   4.124   3.931   8.819 -2.2192 -0.0048  0.6811
 2638SOL     OW19549   3.636   0.955   5.718  0.1972  0.9301 -0.5765
 2638SOL    HW119550   3.576   0.920   5.652  2.6103 -1.0799 -1.7138
 2638SOL    HW219551   3.708   0.891   5.717  0.5992  1.3818 -0.5332
 2639SOL     OW19552   4.316   3.024   9.722 -0.4490 -0.2592  0.0582
 2639SOL    HW119553   4.344   2.939   9.753 -0.1797 -0.9451 -2.0541
 2639SOL    HW219554   4.400   3.062   9.696 -0.8747  0.7317  0.1044
 2640SOL     OW19555   4.495   0.835   6.107 -0.3350  0.3797 -0.2556
 2640SOL    HW119556   4.406   0.827   6.139 -0.6456 -1.1112 -1.4861
 2640SOL    HW219557   4.550   0.788   6.170 -0.1288 -0.8453 -1.3187
 2641SOL     OW19558   3.031   0.801   7.295  0.2351 -0.1634 -0.4042
 2641SOL    HW119559   3.112   0.817   7.343 -1.0477  2.9622  0.7697
 2641SOL    HW219560   2.993   0.728   7.344 -0.2449  1.8062  2.1807
 2642SOL     OW19561   4.400   3.969  14.278 -0.2439 -0.0375  0.1449
 2642SOL    HW119562   4.493   3.969  14.256  0.1744 -0.3307  1.9637
 2642SOL    HW219563   4.356   3.950  14.195 -1.9198  0.9397  0.7926
 2643SOL     OW19564   1.220   1.406   1.110 -0.0384 -0.2680  0.0808
 2643SOL    HW119565   1.159   1.469   1.073 -0.0541  0.2883  1.0621
 2643SOL    HW219566   1.256   1.457   1.183 -0.8235 -0.1634  0.3904
 2644SOL     OW19567   2.961   4.201   3.589  0.4477  0.0854 -0.4544
 2644SOL    HW119568   2.957   4.170   3.680  3.4535 -0.6420 -0.5699
 2644SOL    HW219569   2.905   4.277   3.600 -0.9040 -0.8589 -0.8439
 2645SOL     OW19570   1.931   0.428   1.375  0.4421 -0.4839  0.1817
 2645SOL    HW119571   1.924   0.416   1.470  2.4744  0.1438  0.4085
 2645SOL    HW219572   1.857   0.379   1.337 -0.0994 -0.4081  1.1233
 2646SOL     OW19573   1.021   1.041   8.576  0.1436  0.1646 -0.3896
 2646SOL    HW119574   1.053   0.952   8.590 -0.5061 -0.1382 -0.7761
 2646SOL    HW219575   0.962   1.020   8.503  2.0112 -0.9534 -1.5714
 2647SOL     OW19576   4.191   3.692   2.824 -0.1435 -0.0255 -0.0395
 2647SOL    HW119577   4.155   3.758   2.764  3.6131  1.7799 -0.2944
 2647SOL    HW219578   4.269   3.732   2.862 -0.4150 -1.4730  2.0516
 2648SOL     OW19579   4.034   2.719   3.897  0.1467  0.2243 -0.4953
 2648SOL    HW119580   4.011   2.812   3.901 -0.5420 -0.0880  2.8595
 2648SOL    HW219581   4.073   2.712   3.810 -0.2740 -2.1821 -0.4759
 2649SOL     OW19582   2.510   2.708   4.399  0.0349  0.6352 -0.5053
 2649SOL    HW119583   2.469   2.693   4.314  1.4260  2.6512 -1.5258
 2649SOL    HW219584   2.579   2.769   4.372 -0.3358  0.9990 -0.6343
 2650SOL     OW19585   3.879   1.761   2.489  0.1951 -0.0088  0.1511
 2650SOL    HW119586   3.789   1.754   2.519  0.2440 -2.9878 -0.3814
 2650SOL    HW219587   3.895   1.667   2.478  2.6938  0.2182  1.9560
 2651SOL     OW19588   0.832   1.776   1.915 -0.1108 -0.4687  0.2875
 2651SOL    HW119589   0.752   1.731   1.941 -0.6908 -0.1055 -0.8796
 2651SOL    HW219590   0.829   1.849   1.977 -0.3034 -1.2654  1.2142
 2652SOL     OW19591   0.182   2.398   6.815  0.0263  0.3532  0.0171
 2652SOL    HW119592   0.227   2.421   6.733  0.5535 -0.8074 -0.0106
 2652SOL    HW219593   0.162   2.305   6.804  1.7211 -0.3829  3.1833
 2653SOL     OW19594   3.883   1.205   3.169 -0.4070  0.3654  0.0131
 2653SOL    HW119595   3.862   1.175   3.258  0.7259  2.7573  1.0842
 2653SOL    HW219596   3.795   1.202   3.132 -0.3469 -0.8527 -0.0518
 2654SOL     OW19597   0.583   0.833   7.981 -0.0054 -0.3142 -0.5206
 2654SOL    HW119598   0.665   0.846   8.027  0.4005 -2.1807 -0.7179
 2654SOL    HW219599   0.572   0.743   8.013 -4.2635 -0.3364 -1.9019
 2655SOL     OW19600   4.148   3.721   7.518 -0.2285  0.2531  0.0075
 2655SOL    HW119601   4.088   3.713   7.592 -2.2137 -0.2064 -1.6447
 2655SOL    HW219602   4.089   3.762   7.455 -1.4721  1.9432  2.3049
 2656SOL     OW19603   1.735   3.507  10.227 -0.2509  0.3955 -0.4514
 2656SOL    HW119604   1.685   3.438  10.183  0.6927 -0.3659 -0.3397
 2656SOL    HW219605   1.706   3.594  10.200 -3.0372 -1.1704 -2.5432
 2657SOL     OW19606   3.537   4.560   4.336 -0.0001 -0.3517 -0.4675
 2657SOL    HW119607   3.581   4.632   4.381 -1.1343  1.0151 -1.5396
 2657SOL    HW219608   3.502   4.596   4.255 -1.2385  2.3366  1.2959
 2658SOL     OW19609   1.900   1.170  16.512  0.2753 -0.4380 -0.2063
 2658SOL    HW119610   1.949   1.229  16.569 -0.1933  2.2969 -2.6351
 2658SOL    HW219611   1.913   1.207  16.425 -5.0978  1.3822 -0.2275
 2659SOL     OW19612   3.942   1.876   9.228  0.7423 -0.2168 -0.0787
 2659SOL    HW119613   3.862   1.907   9.269  1.2988  0.4099  0.5443
 2659SOL    HW219614   3.971   1.806   9.287 -3.0831  0.5736  2.6722
 2660SOL     OW19615   3.497   4.079  13.101 -0.1401  0.0042  0.8167
 2660SOL    HW119616   3.560   4.150  13.100 -2.2238  1.8647  0.0680
 2660SOL    HW219617   3.475   4.079  13.194 -1.3640 -3.9354  0.5433
 2661SOL     OW19618   1.989   0.757   6.228 -0.7576  0.2019  0.1780
 2661SOL    HW119619   1.949   0.844   6.222  1.2590  1.1438  0.1214
 2661SOL    HW219620   2.051   0.760   6.155 -0.9343 -0.9066 -0.0198
 2662SOL     OW19621   0.355   2.033  11.299  0.4197 -0.3560 -0.2145
 2662SOL    HW119622   0.341   1.993  11.213 -1.0254  1.3325 -0.7593
 2662SOL    HW219623   0.450   2.033  11.308  0.3885  0.3399  0.1680
 2663SOL     OW19624   2.293   4.501   9.152 -0.1183  0.3313 -0.6387
 2663SOL    HW119625   2.281   4.451   9.071  0.2345 -0.4987 -0.1866
 2663SOL    HW219626   2.216   4.557   9.142 -1.6660 -1.6183  0.1547
 2664SOL     OW19627   2.923   0.833  13.686 -0.0478  0.0881  0.3559
 2664SOL    HW119628   2.999   0.875  13.726  1.7624 -1.0769 -1.9370
 2664SOL    HW219629   2.956   0.814  13.599 -1.2971 -1.4451  0.2336
 2665SOL     OW19630   4.322   2.569   8.517  0.0992  0.0644 -0.3055
 2665SOL    HW119631   4.409   2.547   8.485  0.3700  0.3537  0.2397
 2665SOL    HW219632   4.323   2.566   8.613 -1.2704 -3.4700 -0.3820
 2666SOL     OW19633   0.526   3.511   3.730  0.5384  0.1887 -0.1882
 2666SOL    HW119634   0.545   3.432   3.780 -0.2168  0.9868  1.3573
 2666SOL    HW219635   0.563   3.575   3.791  1.4253 -1.3795  0.9247
 2667SOL     OW19636   2.168   0.655   8.815 -0.3140 -0.0278  0.7116
 2667SOL    HW119637   2.156   0.561   8.803  1.0522 -0.0023 -0.9141
 2667SOL    HW219638   2.161   0.686   8.725  2.1055  1.6254  1.0940
 2668SOL     OW19639   3.363   2.192  10.394 -0.0694 -0.4722 -0.0720
 2668SOL    HW119640   3.280   2.206  10.439  0.4852 -0.0106  0.8174
 2668SOL    HW219641   3.374   2.097  10.392 -0.8742 -0.5515 -0.7966
 2669SOL     OW19642   2.985   2.995   3.822  0.0547 -0.2308  0.3595
 2669SOL    HW119643   2.920   3.031   3.883 -0.5947  1.0733 -1.1048
 2669SOL    HW219644   3.052   3.054   3.856 -0.0434 -0.4018  0.8602
 2670SOL     OW19645   0.942   2.761   2.876  0.3426 -0.3941  0.0972
 2670SOL    HW119646   0.868   2.780   2.818 -1.2764 -0.9215  1.9657
 2670SOL    HW219647   0.917   2.684   2.928  0.1007  0.2096  0.8730
 2671SOL     OW19648   0.546   0.762   5.830  0.4507 -0.3436 -0.1290
 2671SOL    HW119649   0.567   0.742   5.739 -0.8069 -0.6011 -0.3623
 2671SOL    HW219650   0.597   0.841   5.851 -0.2946 -0.2953  1.5139
 2672SOL     OW19651   1.984   1.832   2.768  0.0663 -0.0448 -0.8724
 2672SOL    HW119652   2.031   1.845   2.686  1.8450  1.0237  0.2891
 2672SOL    HW219653   2.024   1.747   2.791  1.1421  0.7973  0.3751
 2673SOL     OW19654   3.717   2.574   5.241  0.1732 -0.1828  0.0678
 2673SOL    HW119655   3.735   2.588   5.335 -2.5069 -0.2583  0.5915
 2673SOL    HW219656   3.674   2.489   5.236  4.4942 -2.3942  0.6560
 2674SOL     OW19657   1.732   3.366  14.120 -0.3454  0.1200  0.1744
 2674SOL    HW119658   1.745   3.459  14.138  0.0282 -0.1896  1.5764
 2674SOL    HW219659   1.640   3.366  14.094  0.0205  0.2797 -1.0966
 2675SOL     OW19660   4.312   4.034   2.727  0.1728  0.2871 -0.0421
 2675SOL    HW119661   4.268   4.026   2.811  1.0094 -0.6096  0.3101
 2675SOL    HW219662   4.395   3.987   2.738  1.2772  1.9966 -1.1056
 2676SOL     OW19663   0.838   3.698   8.520  0.7737  0.0133 -0.1837
 2676SOL    HW119664   0.862   3.606   8.533 -0.0293 -0.3722 -1.4330
 2676SOL    HW219665   0.869   3.737   8.602 -0.5692 -1.3116  0.9464
 2677SOL     OW19666   1.344   0.389   7.862 -0.6046 -0.8123 -0.0913
 2677SOL    HW119667   1.345   0.375   7.957 -0.7727  2.2502  0.3457
 2677SOL    HW219668   1.429   0.431   7.853 -1.1936  0.5917  0.7945
 2678SOL     OW19669   3.749   4.151   9.877 -0.1530 -1.0940 -0.7386
 2678SOL    HW119670   3.741   4.060   9.905  1.1383 -0.8862  0.3008
 2678SOL    HW219671   3.840   4.166   9.904  0.0568 -1.2568 -1.3530
 2679SOL     OW19672   4.148   1.460   1.005 -0.0087 -0.3186  0.0322
 2679SOL    HW119673   4.236   1.429   0.984  0.4815  0.1034  1.4573
 2679SOL    HW219674   4.166   1.455   1.099 -2.0284 -1.5033  0.3647
 2680SOL     OW19675   1.456   0.592   2.806 -0.0220 -0.1362 -0.0989
 2680SOL    HW119676   1.511   0.514   2.814 -0.9182 -0.7038  0.6844
 2680SOL    HW219677   1.399   0.591   2.884 -3.9562  0.9095 -2.9430
 2681SOL     OW19678   1.135   3.998   1.481  0.0524  0.2595  0.3399
 2681SOL    HW119679   1.082   4.066   1.523  1.6760  0.5531  1.9102
 2681SOL    HW219680   1.086   3.916   1.491 -0.1793  0.6754  2.7935
 2682SOL     OW19681   0.662   0.530   3.337  0.5095  0.3175  0.1014
 2682SOL    HW119682   0.757   0.527   3.344  0.4582 -1.0086  0.1784
 2682SOL    HW219683   0.625   0.447   3.368 -1.7648  1.7831  1.3337
 2683SOL     OW19684   1.761   2.844   1.916 -0.3466  0.2773  0.4050
 2683SOL    HW119685   1.770   2.907   1.987 -0.3706  0.3599  0.3341
 2683SOL    HW219686   1.674   2.804   1.926  0.6862 -2.3565 -1.2845
 2684SOL     OW19687   0.249   0.401   3.174 -0.2503  0.5148 -0.1330
 2684SOL    HW119688   0.283   0.319   3.137  0.7040 -0.2024  2.3231
 2684SOL    HW219689   0.266   0.397   3.268  0.9283  1.7422 -0.3098
 2685SOL     OW19690   3.839   0.505   1.850 -0.2884 -0.0064 -0.9107
 2685SOL    HW119691   3.845   0.449   1.772 -1.1372  1.1925 -1.8331
 2685SOL    HW219692   3.744   0.511   1.851 -0.3069 -0.2319 -1.5635
 2686SOL     OW19693   1.498   2.508   3.632 -0.0341  0.4544  0.1957
 2686SOL    HW119694   1.500   2.512   3.537 -3.5548 -1.9453  0.0379
 2686SOL    HW219695   1.543   2.588   3.660  0.0571 -0.1914  1.8730
 2687SOL     OW19696   2.145   2.398  15.844  0.0722  0.0492  0.7876
 2687SOL    HW119697   2.187   2.439  15.768 -0.0090  1.2113  1.3766
 2687SOL    HW219698   2.137   2.466  15.911  0.1692  0.8951 -0.0618
 2688SOL     OW19699   3.614   3.592   4.625  0.3030 -0.5257  0.1375
 2688SOL    HW119700   3.590   3.671   4.576 -0.3475 -1.5260 -1.1429
 2688SOL    HW219701   3.708   3.607   4.625  0.1676  0.3504  1.2598
 2689SOL     OW19702   4.633   2.048   4.702 -0.0427 -0.4387 -0.4392
 2689SOL    HW119703   4.727   2.056   4.685 -0.0528  2.1135  0.6126
 2689SOL    HW219704   4.625   2.122   4.763 -0.6596 -2.5451  2.0104
 2690SOL     OW19705   1.764   1.294  11.845  0.6954  0.7249 -0.0127
 2690SOL    HW119706   1.676   1.262  11.825  0.8192  2.5672 -3.4767
 2690SOL    HW219707   1.767   1.267  11.937 -2.0993 -0.1031 -0.1593
 2691SOL     OW19708   4.620   1.513  13.897  0.4139 -0.1189  0.6283
 2691SOL    HW119709   4.714   1.513  13.882  0.3687  1.8186  0.4015
 2691SOL    HW219710   4.617   1.484  13.988 -0.4012  1.8054  1.2108
 2692SOL     OW19711   4.564   0.899   7.476 -0.1516  0.5385 -0.0838
 2692SOL    HW119712   4.542   0.915   7.568  1.2205 -0.3902  0.3980
 2692SOL    HW219713   4.648   0.858   7.493 -0.3015  0.3103  0.1005
 2693SOL     OW19714   3.594   0.813   7.390 -0.2496  0.9272  0.3197
 2693SOL    HW119715   3.508   0.853   7.374 -1.6247 -2.3858 -0.4341
 2693SOL    HW219716   3.645   0.894   7.396  0.1137  0.5682  2.2406
 2694SOL     OW19717   0.692   0.070   2.176 -0.2187 -0.3887 -0.3169
 2694SOL    HW119718   0.692   0.161   2.205  1.2013 -0.4757 -0.0458
 2694SOL    HW219719   0.607   0.062   2.133 -0.2256 -0.2465 -0.3298
 2695SOL     OW19720   1.289   1.660   8.114 -0.3864  0.2279 -0.2848
 2695SOL    HW119721   1.278   1.754   8.121 -2.0047 -0.0971  1.4863
 2695SOL    HW219722   1.274   1.627   8.203 -0.8151 -0.3521 -0.5695
 2696SOL     OW19723   0.817   1.245   9.463 -0.1762 -0.0650  0.1743
 2696SOL    HW119724   0.742   1.205   9.506 -0.0094 -0.8720 -0.2925
 2696SOL    HW219725   0.872   1.169   9.443 -1.3791 -0.9241  0.1227
 2697SOL     OW19726   3.409   3.808   4.183 -0.2217  1.1477 -0.4431
 2697SOL    HW119727   3.458   3.732   4.214 -0.7928  1.2745  0.8112
 2697SOL    HW219728   3.459   3.882   4.217  1.0290  0.2240 -0.2783
 2698SOL     OW19729   2.478   4.198   6.803  0.0865  0.6948  0.1068
 2698SOL    HW119730   2.385   4.210   6.822  0.0503  2.9465 -1.4615
 2698SOL    HW219731   2.519   4.282   6.825 -0.1335  0.3817  1.7161
 2699SOL     OW19732   2.140   3.454  12.854 -0.0072  0.6370 -0.5304
 2699SOL    HW119733   2.151   3.549  12.854  0.2798  0.5967 -1.5367
 2699SOL    HW219734   2.143   3.446  12.950 -0.5955  0.1142 -0.5505
 2700SOL     OW19735   4.425   2.828   0.870 -0.1136 -0.5658  0.5916
 2700SOL    HW119736   4.353   2.782   0.912 -0.9719  0.8197  0.6384
 2700SOL    HW219737   4.462   2.763   0.810  2.0091  0.7319  0.4752
 2701SOL     OW19738   3.888   2.346   7.601 -0.5773  0.2287 -0.0931
 2701SOL    HW119739   3.847   2.271   7.645  0.9550 -0.6273 -0.1070
 2701SOL    HW219740   3.847   2.423   7.642  2.0286  1.4816  0.1455
 2702SOL     OW19741   1.860   2.132  12.983  0.3775  0.4262 -0.0162
 2702SOL    HW119742   1.928   2.112  13.048 -0.3769 -1.7837  0.0831
 2702SOL    HW219743   1.828   2.043  12.975  0.3813  0.5585 -1.3820
 2703SOL     OW19744   1.052   1.622   0.005  0.0774 -0.0203  0.3220
 2703SOL    HW119745   1.127   1.606  17.705 -0.6008  0.4179 -0.6703
 2703SOL    HW219746   1.052   1.552   0.071 -1.7740 -0.0598  0.2680
 2704SOL     OW19747   0.624   4.075   3.255  0.0066  0.2523  0.7444
 2704SOL    HW119748   0.657   4.152   3.209 -0.9750 -1.0455 -2.0929
 2704SOL    HW219749   0.589   4.033   3.177  2.2795 -1.5587  0.7012
 2705SOL     OW19750   3.600   0.386  14.161 -0.5606 -0.5084 -0.4624
 2705SOL    HW119751   3.553   0.303  14.150  0.9105 -1.1071 -2.3311
 2705SOL    HW219752   3.665   0.391  14.090 -0.8788  1.7685 -0.5996
 2706SOL     OW19753   1.455   1.932  14.913 -0.4078 -0.3763  0.4839
 2706SOL    HW119754   1.499   1.848  14.904 -1.3143 -0.6378 -1.4499
 2706SOL    HW219755   1.453   1.970  14.825 -0.9522  1.1898  1.1637
 2707SOL     OW19756   0.750   4.179   3.032 -0.2109  0.1676 -0.4398
 2707SOL    HW119757   0.821   4.243   3.023 -1.0764  1.0862 -0.7918
 2707SOL    HW219758   0.797   4.097   3.018  0.9125  0.9617 -1.2825
 2708SOL     OW19759   4.724   2.116   8.061 -0.1121 -0.2099  0.0596
 2708SOL    HW119760   0.030   2.179   8.117  1.1426 -2.8939  2.0818
 2708SOL    HW219761   4.709   2.039   8.117  1.1165 -0.3596  0.1851
 2709SOL     OW19762   1.416   0.055   6.282  0.0178  0.4029  0.3886
 2709SOL    HW119763   1.442   0.105   6.204  1.6563 -1.2296 -0.1126
 2709SOL    HW219764   1.486   0.073   6.345  1.1017 -1.0120 -0.4176
 2710SOL     OW19765   3.929   0.928   3.545 -0.2199  0.5609  0.2733
 2710SOL    HW119766   3.999   0.934   3.481  1.3911 -2.3921  1.7262
 2710SOL    HW219767   3.965   0.897   3.629  0.1892 -0.8046 -0.4015
 2711SOL     OW19768   0.695   2.856  16.722  0.4938  0.3299 -0.2740
 2711SOL    HW119769   0.679   2.951  16.722  1.9641  0.5851 -1.9630
 2711SOL    HW219770   0.642   2.827  16.648  0.8258 -0.0893 -0.3453
 2712SOL     OW19771   0.476   3.128   2.211  0.8935  0.3668 -0.3340
 2712SOL    HW119772   0.562   3.097   2.240  0.1679 -0.4549  0.9379
 2712SOL    HW219773   0.500   3.165   2.126 -0.5468  2.6456  0.2542
 2713SOL     OW19774   4.643   2.471   7.294 -0.2100  0.1576  0.6727
 2713SOL    HW119775   4.620   2.430   7.211  2.6588 -0.5261  0.1972
 2713SOL    HW219776   4.717   2.420   7.327 -0.6605 -1.8397 -1.4142
 2714SOL     OW19777   3.881   0.668  14.510  0.6040  0.7152 -0.7981
 2714SOL    HW119778   3.968   0.706  14.507  1.2037 -0.5846  0.2223
 2714SOL    HW219779   3.901   0.578  14.485 -0.0781  0.2439  0.3823
 2715SOL     OW19780   4.426   2.129   7.871  0.4042 -0.6843 -0.1067
 2715SOL    HW119781   4.347   2.183   7.876  1.0097  0.1907  0.0634
 2715SOL    HW219782   4.427   2.084   7.955 -2.5931 -0.7707 -0.1097
 2716SOL     OW19783   2.553   3.878   8.282 -0.1336  0.2283  0.2683
 2716SOL    HW119784   2.461   3.876   8.253  0.2257 -2.3442 -0.6726
 2716SOL    HW219785   2.577   3.926   8.203 -0.3210 -0.2192 -0.0595
 2717SOL     OW19786   2.374   4.322  15.019 -0.0350 -0.9894  0.1886
 2717SOL    HW119787   2.315   4.354  14.952  0.6987 -0.0702 -0.0202
 2717SOL    HW219788   2.416   4.243  14.983  1.1253 -0.6885  0.8695
 2718SOL     OW19789   2.375   3.944  12.218  0.0760  0.1491 -0.3526
 2718SOL    HW119790   2.330   3.989  12.147  1.1483  0.3898 -0.8884
 2718SOL    HW219791   2.467   3.943  12.190  0.4123  1.4917  0.6985
 2719SOL     OW19792   0.577   1.711   0.222 -0.0395 -0.5407  0.2511
 2719SOL    HW119793   0.585   1.651   0.148 -1.1887 -0.5411  0.1357
 2719SOL    HW219794   0.628   1.786   0.193  0.6898 -1.3294 -0.5381
 2720SOL     OW19795   0.456   2.194   9.207 -0.2802 -0.6916  0.2846
 2720SOL    HW119796   0.545   2.172   9.233 -0.5337 -1.9661  0.0499
 2720SOL    HW219797   0.475   2.245   9.128  0.2950 -0.9813  0.2378
 2721SOL     OW19798   3.952   1.415   0.402  0.5677 -0.1313  0.1432
 2721SOL    HW119799   3.972   1.391   0.311  0.1368  1.7458 -0.4359
 2721SOL    HW219800   3.901   1.336   0.424  1.8031 -0.2782  2.4649
 2722SOL     OW19801   0.698   4.334   6.109 -0.0151  0.6605  0.1719
 2722SOL    HW119802   0.753   4.259   6.086 -1.5302  0.2124 -1.9473
 2722SOL    HW219803   0.622   4.333   6.051 -1.3697 -0.2417  1.9659
 2723SOL     OW19804   0.685   0.493   2.630  0.0106 -0.3951 -0.1666
 2723SOL    HW119805   0.690   0.403   2.663  0.4001 -0.2011  0.2925
 2723SOL    HW219806   0.777   0.501   2.606  0.6112  0.4766  2.3771
 2724SOL     OW19807   1.194   2.812  17.365 -0.0739 -0.0795  0.1161
 2724SOL    HW119808   1.109   2.769  17.373 -0.6506  0.1958 -4.4636
 2724SOL    HW219809   1.171   2.905  17.356 -0.1827  0.0529  1.7915
 2725SOL     OW19810   3.616   3.126   3.151  0.1403  0.3631  0.8478
 2725SOL    HW119811   3.567   3.080   3.220 -1.6120  1.6140  0.4329
 2725SOL    HW219812   3.634   3.210   3.193  2.7610 -0.1947  0.8021
 2726SOL     OW19813   1.771   2.256  17.298  0.0212  0.0610  0.3669
 2726SOL    HW119814   1.815   2.333  17.334  1.1831 -0.0250 -0.8672
 2726SOL    HW219815   1.696   2.301  17.260 -0.2945 -0.2515  0.6091
 2727SOL     OW19816   4.189   3.069  17.240 -0.2138  0.1201  0.9231
 2727SOL    HW119817   4.096   3.045  17.239  0.3169 -1.9605  1.0168
 2727SOL    HW219818   4.190   3.146  17.183 -0.6270  0.5553  1.5058
 2728SOL     OW19819   3.927   4.565   7.477  0.0389  0.1018  0.4297
 2728SOL    HW119820   3.859   4.550   7.412  1.7017  1.0920 -1.5885
 2728SOL    HW219821   3.994   4.601   7.418 -1.8753 -0.9544 -2.4326
 2729SOL     OW19822   3.609   0.705   6.494 -0.3654 -0.0576  0.1477
 2729SOL    HW119823   3.533   0.762   6.504  0.9336  1.5283  1.1225
 2729SOL    HW219824   3.677   0.773   6.489 -2.8178  2.1497 -3.2044
 2730SOL     OW19825   4.012   4.455   6.709  0.4690 -0.0727  0.5383
 2730SOL    HW119826   4.063   4.421   6.783  0.3316 -2.4477 -0.4567
 2730SOL    HW219827   4.049   4.542   6.724 -2.3263  1.3244 -0.7510
 2731SOL     OW19828   1.550   2.908   1.688 -0.1977 -0.3168  0.7803
 2731SOL    HW119829   1.637   2.949   1.687 -0.5041  0.4257  4.8795
 2731SOL    HW219830   1.512   2.969   1.751  0.4037 -0.0200  0.8511
 2732SOL     OW19831   1.861   0.753   5.943  0.4298 -0.1356 -0.3645
 2732SOL    HW119832   1.791   0.693   5.968  1.7306 -0.7487  1.7804
 2732SOL    HW219833   1.917   0.755   6.021  0.4090 -0.1364 -0.3495
 2733SOL     OW19834   4.395   0.602   0.795  0.1045 -0.0527 -0.1093
 2733SOL    HW119835   4.361   0.689   0.817 -0.1421 -0.8360  2.4620
 2733SOL    HW219836   4.448   0.629   0.720  1.5122 -1.7226  0.2894
 2734SOL     OW19837   1.246   1.556  14.846  0.6532  0.2269  0.1820
 2734SOL    HW119838   1.330   1.597  14.866  0.7122  0.5739 -0.7864
 2734SOL    HW219839   1.227   1.528  14.936  0.8970 -1.2314 -0.2363
 2735SOL     OW19840   3.685   3.709   3.633 -0.1242 -1.0528 -0.1056
 2735SOL    HW119841   3.660   3.672   3.718  1.2395 -0.9667  0.3300
 2735SOL    HW219842   3.626   3.784   3.636 -0.5583 -1.4442  0.9623
 2736SOL     OW19843   4.192   3.376   0.033 -0.5782 -0.2873  0.1362
 2736SOL    HW119844   4.225   3.455   0.076  2.5544 -2.1069  1.0507
 2736SOL    HW219845   4.191   3.314   0.106  0.0728 -0.7933 -0.2870
 2737SOL     OW19846   4.056   4.515   3.715  0.6490 -0.1221  0.2563
 2737SOL    HW119847   4.138   4.528   3.763  1.0145  2.1399 -0.9275
 2737SOL    HW219848   4.090   4.520   3.625 -1.6935 -1.3279 -0.6707
 2738SOL     OW19849   2.407   2.916   6.233  0.1096 -0.4421  0.1994
 2738SOL    HW119850   2.495   2.924   6.196  0.2258  0.3363  0.6284
 2738SOL    HW219851   2.360   2.869   6.165  0.3758  0.4580 -0.6022
 2739SOL     OW19852   3.332   1.937   1.679 -0.1073  0.5602  0.3657
 2739SOL    HW119853   3.346   1.851   1.719  0.5254  1.2203  1.5912
 2739SOL    HW219854   3.237   1.944   1.680 -0.0002  2.1167 -0.1901
 2740SOL     OW19855   0.796   4.112   1.085  0.0583  0.3781 -0.8870
 2740SOL    HW119856   0.799   4.190   1.029  0.3332  0.6311 -0.5211
 2740SOL    HW219857   0.747   4.142   1.161  0.9877  1.5177 -0.7226
 2741SOL     OW19858   3.026   3.543   6.278  0.1227 -0.2692  0.1880
 2741SOL    HW119859   2.979   3.621   6.248  0.2897  0.3483  1.5455
 2741SOL    HW219860   2.958   3.502   6.332  1.8721 -0.7927  2.0128
 2742SOL     OW19861   1.354   2.353   7.906  0.0134  0.4749 -0.4045
 2742SOL    HW119862   1.273   2.402   7.915  0.3492  0.5269  2.3099
 2742SOL    HW219863   1.366   2.334   7.813 -1.3094 -1.0999 -0.2482
 2743SOL     OW19864   1.544   0.471   6.579 -0.3589  0.0070 -0.1795
 2743SOL    HW119865   1.624   0.421   6.562  2.2128  2.7829  3.7940
 2743SOL    HW219866   1.583   0.548   6.620  1.6865 -0.4511 -1.2280
 2744SOL     OW19867   3.591   3.935   2.716  0.2326 -0.8786  0.5055
 2744SOL    HW119868   3.661   4.000   2.723 -0.4884  0.2666 -3.1153
 2744SOL    HW219869   3.525   4.003   2.705  0.1067 -1.1772 -0.5449
 2745SOL     OW19870   4.408   2.836   9.519  0.2202  0.3963  0.0097
 2745SOL    HW119871   4.344   2.772   9.552  3.6003 -1.8397  2.2375
 2745SOL    HW219872   4.376   2.880   9.440  0.0078  1.4673  0.6953
 2746SOL     OW19873   0.103   2.188   3.275 -0.3883 -0.0724 -0.0968
 2746SOL    HW119874   0.183   2.140   3.298 -0.3262  0.5578  0.9870
 2746SOL    HW219875   0.129   2.272   3.240 -0.9134  0.3247  0.4624
 2747SOL     OW19876   0.188   1.312  12.188  0.3838  0.5211  0.0246
 2747SOL    HW119877   0.109   1.327  12.136 -0.0991 -0.1332  0.5709
 2747SOL    HW219878   0.200   1.394  12.235  0.5102  0.0709  0.7817
 2748SOL     OW19879   2.448   4.036   5.284  0.2226  0.3402 -0.1239
 2748SOL    HW119880   2.454   4.097   5.210  0.3450  0.8494  0.3006
 2748SOL    HW219881   2.369   4.077   5.319  1.1450  0.5220  1.7382
 2749SOL     OW19882   1.122   0.861   4.961  0.0296  0.4174  0.4701
 2749SOL    HW119883   1.032   0.835   4.978 -0.2008  0.0760 -1.2647
 2749SOL    HW219884   1.126   0.871   4.866  0.2420  0.9930  0.5423
 2750SOL     OW19885   2.816   1.879  10.503  0.2918  0.6427 -0.1504
 2750SOL    HW119886   2.825   1.919  10.589  0.2576 -2.6401  1.3952
 2750SOL    HW219887   2.846   1.791  10.524 -0.3208  0.6824  0.8792
 2751SOL     OW19888   0.852   3.386   1.530 -0.9059  0.3486  0.3352
 2751SOL    HW119889   0.867   3.480   1.536 -0.0818  0.3414 -1.8088
 2751SOL    HW219890   0.847   3.379   1.626  2.2171  0.7813  0.5250
 2752SOL     OW19891   4.484   0.228   0.577  0.1261 -0.1469  0.2160
 2752SOL    HW119892   4.462   0.157   0.636 -0.2634  0.5139  0.8554
 2752SOL    HW219893   4.555   0.271   0.625 -0.3964 -1.0688  1.7857
 2753SOL     OW19894   4.457   2.126  15.180 -0.1485  0.1591 -0.2865
 2753SOL    HW119895   4.480   2.160  15.094 -0.2948 -0.2696 -0.4892
 2753SOL    HW219896   4.413   2.043  15.167 -0.1971  0.1039  0.2098
 2754SOL     OW19897   0.933   2.648   7.608  0.2742 -0.0703 -0.1905
 2754SOL    HW119898   0.994   2.715   7.639 -0.2173  0.4251 -0.2832
 2754SOL    HW219899   0.849   2.687   7.630  1.0430  0.7190  1.3331
 2755SOL     OW19900   1.365   3.405  14.628 -0.0256 -0.4283  0.1587
 2755SOL    HW119901   1.317   3.337  14.676  1.1322 -1.3471  0.0297
 2755SOL    HW219902   1.399   3.460  14.699  1.4602 -0.0073 -0.8780
 2756SOL     OW19903   0.270   0.221   8.744  0.2325  0.4243  0.6190
 2756SOL    HW119904   0.190   0.219   8.796  0.0058 -2.5973  0.1734
 2756SOL    HW219905   0.268   0.312   8.717  0.2267  0.2721  0.1114
 2757SOL     OW19906   2.502   0.572   8.082 -0.7694  0.0392  0.3492
 2757SOL    HW119907   2.516   0.592   7.989  2.8763 -0.2815  0.8212
 2757SOL    HW219908   2.504   0.658   8.124  1.6548 -0.4867  1.3164
 2758SOL     OW19909   4.250   3.853   6.461  0.0197  0.5399  0.1803
 2758SOL    HW119910   4.207   3.772   6.489  2.0814  0.1377  2.1949
 2758SOL    HW219911   4.186   3.912   6.499  0.3455  1.0391 -0.0534
 2759SOL     OW19912   2.263   1.612   4.585  0.3094 -0.0839 -0.4640
 2759SOL    HW119913   2.280   1.539   4.525  0.1554 -0.2600 -0.2969
 2759SOL    HW219914   2.345   1.660   4.596 -2.0049  3.7082  0.2780
 2760SOL     OW19915   3.319   0.253   0.977 -0.1763  0.2010 -0.5561
 2760SOL    HW119916   3.308   0.317   0.907 -2.3377  0.7204  0.2672
 2760SOL    HW219917   3.259   0.299   1.036 -0.5583 -0.4608 -0.4308
 2761SOL     OW19918   3.358   0.770   4.717  0.0888 -0.2261  0.3010
 2761SOL    HW119919   3.368   0.684   4.759 -1.2654 -0.5736 -0.0859
 2761SOL    HW219920   3.265   0.776   4.693  0.9039  2.4760 -2.0844
 2762SOL     OW19921   3.180   0.469   9.631  0.2146  0.4833 -0.7347
 2762SOL    HW119922   3.210   0.485   9.721 -1.5589  2.9130 -0.5723
 2762SOL    HW219923   3.094   0.512   9.629 -0.3046 -0.4987 -0.0296
 2763SOL     OW19924   0.596   2.336   9.530 -0.1118  0.3124  0.0596
 2763SOL    HW119925   0.626   2.370   9.446 -1.1642 -3.1107 -1.7146
 2763SOL    HW219926   0.513   2.382   9.544 -1.6079 -1.7159 -2.1959
 2764SOL     OW19927   1.711   4.557   4.196 -0.0622 -0.3200 -0.0322
 2764SOL    HW119928   1.737   4.648   4.213 -1.4498 -0.1731  1.2243
 2764SOL    HW219929   1.777   4.543   4.127 -0.0865 -2.0182  0.3035
 2765SOL     OW19930   2.696   4.176   2.933  0.1837  0.6608 -0.0494
 2765SOL    HW119931   2.616   4.127   2.955  0.4921  0.7258  1.2161
 2765SOL    HW219932   2.753   4.149   3.005  1.3833  0.5754 -1.0398
 2766SOL     OW19933   4.521   3.975   5.860 -0.3140  0.4770  0.5370
 2766SOL    HW119934   4.480   4.062   5.854 -1.0492  0.0839 -0.0916
 2766SOL    HW219935   4.570   3.996   5.940 -0.2969  0.0208  0.6450
 2767SOL     OW19936   2.467   3.567  17.468 -1.2501 -0.1618 -0.3909
 2767SOL    HW119937   2.483   3.603  17.380 -0.7944  0.3665 -0.0957
 2767SOL    HW219938   2.459   3.647  17.520 -1.6194 -0.0440 -0.6297
 2768SOL     OW19939   0.580   4.675   6.570 -0.4872  0.2809 -0.1713
 2768SOL    HW119940   0.614   4.643   6.486 -1.9327 -0.6951 -0.3849
 2768SOL    HW219941   0.596   0.028   6.557 -2.7594  0.7834  0.6898
 2769SOL     OW19942   2.834   3.262   6.010 -0.4897 -0.4489 -0.4197
 2769SOL    HW119943   2.873   3.189   5.962 -1.7101 -0.9949 -0.5730
 2769SOL    HW219944   2.913   3.287   6.059 -1.4876  0.7490  0.5838
 2770SOL     OW19945   1.570   3.857   3.853 -0.2713  0.7378 -0.2039
 2770SOL    HW119946   1.481   3.857   3.818 -0.2765 -0.6058 -0.2123
 2770SOL    HW219947   1.564   3.924   3.921  1.2762  0.9651 -0.2862
 2771SOL     OW19948   3.557   0.655   3.897  0.4083 -0.2884 -0.0183
 2771SOL    HW119949   3.559   0.714   3.821  1.0494  1.6941  1.5375
 2771SOL    HW219950   3.640   0.684   3.935  0.2979 -1.0095  0.7626
 2772SOL     OW19951   0.815   0.193   1.105  0.4224  0.7024 -0.0599
 2772SOL    HW119952   0.799   0.245   1.184 -0.7280 -0.8318  0.7052
 2772SOL    HW219953   0.733   0.188   1.056 -0.3721 -2.2724  1.5813
 2773SOL     OW19954   3.514   3.482   5.325  0.2374 -0.1353 -0.0628
 2773SOL    HW119955   3.566   3.446   5.254 -0.3752 -1.9156  0.3820
 2773SOL    HW219956   3.434   3.430   5.338  0.1745 -0.1333 -0.4464
 2774SOL     OW19957   4.553   1.740   5.543  0.0996 -0.6447 -0.1239
 2774SOL    HW119958   4.585   1.672   5.603  0.1256 -0.4117  0.1289
 2774SOL    HW219959   4.463   1.743   5.574  0.4774  1.0986  0.8142
 2775SOL     OW19960   2.467   2.907   7.518 -0.0167  0.0762 -0.3398
 2775SOL    HW119961   2.392   2.937   7.468 -0.1721  0.9381  0.4258
 2775SOL    HW219962   2.429   2.893   7.605 -2.2043  2.5288 -0.9260
 2776SOL     OW19963   2.630   4.134  13.739 -0.2745  0.4683 -0.0049
 2776SOL    HW119964   2.583   4.206  13.697  0.6734 -0.0271 -1.8884
 2776SOL    HW219965   2.641   4.078  13.662 -2.7637 -1.0333  0.7673
 2777SOL     OW19966   2.228   2.256   6.364  0.7188 -0.5309 -0.8597
 2777SOL    HW119967   2.268   2.221   6.284  1.0740  1.1660 -1.4248
 2777SOL    HW219968   2.275   2.201   6.427  1.2361 -0.2773 -1.0245
 2778SOL     OW19969   0.037   0.914   8.084  0.0207  0.1890  0.1520
 2778SOL    HW119970   4.702   0.880   8.036  0.1294  1.0321 -0.6271
 2778SOL    HW219971   0.086   0.832   8.087 -1.5311 -0.8235 -2.5065
 2779SOL     OW19972   4.480   4.545   5.478  0.7576 -0.6065  0.2083
 2779SOL    HW119973   4.520   4.474   5.528  0.4145 -0.1218  1.1532
 2779SOL    HW219974   4.425   4.579   5.548  1.6415  2.1985 -0.4722
 2780SOL     OW19975   4.403   0.464  11.813 -0.3090  0.0920 -0.1709
 2780SOL    HW119976   4.347   0.527  11.768 -0.3045  0.2886  0.0986
 2780SOL    HW219977   4.489   0.504  11.799 -1.0917  2.1362  0.8045
 2781SOL     OW19978   4.690   3.703   5.148  1.0550 -0.0311  0.1019
 2781SOL    HW119979   4.682   3.776   5.086  3.0657 -1.9622 -2.4064
 2781SOL    HW219980   4.630   3.745   5.210 -0.8720 -1.7806 -0.6002
 2782SOL     OW19981   3.111   0.935  17.201 -0.1595 -0.0472 -0.2988
 2782SOL    HW119982   3.074   0.921  17.288 -0.8344  2.7064 -0.1168
 2782SOL    HW219983   3.054   0.994  17.151 -0.6367 -0.0305  0.2595
 2783SOL     OW19984   2.906   2.719   5.257  0.6506  0.2432 -0.0503
 2783SOL    HW119985   2.997   2.690   5.261 -0.3126 -2.8291 -0.5740
 2783SOL    HW219986   2.916   2.797   5.202 -0.1356  1.7850  1.9923
 2784SOL     OW19987   3.082   0.829  15.363 -0.3662 -0.5907 -0.3985
 2784SOL    HW119988   3.091   0.830  15.458  1.1810  0.0909 -0.5573
 2784SOL    HW219989   3.051   0.916  15.339 -0.5006 -0.7624 -0.8631
 2785SOL     OW19990   3.530   1.187  10.810  0.8856 -0.0082  0.0176
 2785SOL    HW119991   3.475   1.177  10.732  1.8654  0.6098 -0.7543
 2785SOL    HW219992   3.611   1.146  10.780 -0.0579 -1.7507 -0.1279
 2786SOL     OW19993   4.467   0.103   9.060 -0.0953  0.3328 -0.6981
 2786SOL    HW119994   4.551   0.058   9.053  0.4772  1.6111 -2.0251
 2786SOL    HW219995   4.495   0.195   9.051  0.3650  0.4471  1.8595
 2787SOL     OW19996   4.081   4.533   8.100  0.5156 -0.2216  0.4971
 2787SOL    HW119997   4.098   4.619   8.060  1.2776 -0.8846 -0.6011
 2787SOL    HW219998   4.025   4.547   8.177  0.4988  0.0429  0.4376
 2788SOL     OW19999   4.377   4.135   5.550 -0.2651  0.3956 -0.5265
 2788SOL    HW120000   4.340   4.189   5.481 -1.0446 -0.1532 -0.5341
 2788SOL    HW220001   4.453   4.188   5.575 -0.0215 -0.1880 -0.0389
 2789SOL     OW20002   0.096   1.904  13.257  0.4794  0.3506  0.0218
 2789SOL    HW120003   0.010   1.936  13.283 -1.0130 -2.6447 -1.2440
 2789SOL    HW220004   0.081   1.814  13.227 -2.0551  0.4698  0.9496
 2790SOL     OW20005   0.616   3.757  13.023 -0.4392  0.1511  0.2240
 2790SOL    HW120006   0.621   3.769  13.118 -2.2182 -1.4644  0.5233
 2790SOL    HW220007   0.525   3.744  13.000  0.4408  2.0609 -4.3585
 2791SOL     OW20008   3.740   4.594   8.218  0.4682  0.0620 -0.1133
 2791SOL    HW120009   3.693   4.616   8.299 -0.6709 -1.0423 -0.4749
 2791SOL    HW220010   3.819   4.558   8.259  1.5813  0.4820 -1.9213
 2792SOL     OW20011   0.871   4.311   7.889 -0.3405  0.8046 -0.1954
 2792SOL    HW120012   0.778   4.299   7.869 -0.6696  1.3301  0.9955
 2792SOL    HW220013   0.873   4.404   7.865  0.4791  0.9395  0.3998
 2793SOL     OW20014   1.904   0.783  15.107  0.1620 -0.1103 -0.2798
 2793SOL    HW120015   1.844   0.714  15.136  0.6248 -0.1600  0.5375
 2793SOL    HW220016   1.843   0.849  15.072  4.0883  4.6163  1.6802
 2794SOL     OW20017   4.226   4.028   6.758  0.3158  0.0899  0.3602
 2794SOL    HW120018   4.288   3.956   6.772 -2.0895 -2.4573 -2.0528
 2794SOL    HW220019   4.194   4.048   6.846 -0.0381 -1.9737  0.6911
 2795SOL     OW20020   3.228   2.882   0.603 -0.0331  0.0102 -0.5641
 2795SOL    HW120021   3.273   2.952   0.556  2.5431 -0.4656  1.2182
 2795SOL    HW220022   3.282   2.807   0.580 -0.1295 -1.3247  3.6896
 2796SOL     OW20023   2.720   1.110   9.489  0.5885  0.0433 -0.1238
 2796SOL    HW120024   2.698   1.124   9.397 -0.1175  0.7324  0.1541
 2796SOL    HW220025   2.679   1.191   9.519 -0.1426  0.1952 -1.5422
 2797SOL     OW20026   2.644   2.986   5.231 -0.1041 -0.5381  0.4105
 2797SOL    HW120027   2.551   2.975   5.210  0.3781 -0.5823 -1.7543
 2797SOL    HW220028   2.681   2.941   5.154  2.2936  0.3297  1.0689
 2798SOL     OW20029   1.562   2.678   0.664 -0.0993  0.2931 -0.4053
 2798SOL    HW120030   1.494   2.698   0.599 -0.1033 -1.2412 -0.8838
 2798SOL    HW220031   1.517   2.709   0.743  0.3571 -1.5018  0.5462
 2799SOL     OW20032   3.534   0.696   9.123  0.1785 -0.1938  0.2088
 2799SOL    HW120033   3.548   0.610   9.163  1.3583  1.1887  2.7266
 2799SOL    HW220034   3.445   0.690   9.086  0.4118 -2.0328 -0.0698
 2800SOL     OW20035   0.877   4.590   2.683  0.0489  0.0828  0.0806
 2800SOL    HW120036   0.966   4.563   2.662  0.1220  0.2257  0.2049
 2800SOL    HW220037   0.820   4.550   2.618 -1.2816  1.9894  0.0484
 2801SOL     OW20038   2.202   0.161  14.303 -0.1985 -0.8807  0.1879
 2801SOL    HW120039   2.292   0.131  14.293  0.1166 -0.1832  0.9773
 2801SOL    HW220040   2.159   0.077  14.284  0.6151 -1.8153  2.4283
 2802SOL     OW20041   1.935   3.667   3.556 -0.4014 -0.8194  0.0645
 2802SOL    HW120042   1.945   3.632   3.644  0.1829 -1.6024 -0.3090
 2802SOL    HW220043   1.893   3.598   3.505 -0.1410 -0.5467 -0.5321
 2803SOL     OW20044   0.031   3.179   5.503  0.8138 -0.0208  0.0635
 2803SOL    HW120045   4.713   3.116   5.459  3.8121 -1.9952 -1.0653
 2803SOL    HW220046   0.001   3.256   5.454 -0.7969 -1.2519 -0.8993
 2804SOL     OW20047   0.917   2.553   4.015 -0.2159  0.6676 -0.1480
 2804SOL    HW120048   0.882   2.471   4.049  0.5351  0.5006  0.2116
 2804SOL    HW220049   0.859   2.560   3.938 -0.2250 -1.0107 -0.2842
 2805SOL     OW20050   3.795   3.090   4.152  0.4454  0.3526  0.2943
 2805SOL    HW120051   3.862   3.144   4.193  1.2819 -1.8248  1.8374
 2805SOL    HW220052   3.753   3.153   4.094  0.8740  0.8892  0.5639
 2806SOL     OW20053   0.379   0.552   2.097 -0.4790  0.4998  0.2063
 2806SOL    HW120054   0.415   0.478   2.049  1.7733  0.0160  2.6893
 2806SOL    HW220055   0.309   0.576   2.035  0.0470 -1.2937 -1.0777
 2807SOL     OW20056   1.889   1.926   5.359  0.0347 -0.0226  0.0727
 2807SOL    HW120057   1.875   1.859   5.292  0.9495  2.1544 -2.3276
 2807SOL    HW220058   1.863   1.883   5.440  0.5199  1.5866  1.0889
 2808SOL     OW20059   4.655   4.735   6.463  0.2317 -0.0642 -0.3196
 2808SOL    HW120060   4.578   0.036   6.422  0.5671 -0.3857 -1.2882
 2808SOL    HW220061   4.705   0.066   6.502  1.1884 -0.4617 -0.8370
 2809SOL     OW20062   0.510   0.037   2.922 -0.3797  0.7211 -0.4587
 2809SOL    HW120063   0.507   4.716   2.849 -1.1409  0.5159 -0.2628
 2809SOL    HW220064   0.595   0.078   2.904 -0.6872  3.3302  3.9297
 2810SOL     OW20065   0.843   3.738   4.602  0.0777  0.2321 -0.1205
 2810SOL    HW120066   0.831   3.647   4.578  1.2283  0.6607 -2.2832
 2810SOL    HW220067   0.824   3.747   4.695  3.0999  0.4211  0.4983
 2811SOL     OW20068   2.948   3.873   1.245  0.3123  0.4293  0.2843
 2811SOL    HW120069   2.926   3.909   1.331 -2.0879  0.0773 -0.1878
 2811SOL    HW220070   2.898   3.792   1.254  0.3105  0.3766 -0.1979
 2812SOL     OW20071   4.388   0.544   3.598 -0.6437  0.2509  0.5972
 2812SOL    HW120072   4.412   0.452   3.611  0.1280  0.3308 -0.3081
 2812SOL    HW220073   4.299   0.533   3.564  0.3006  0.3556 -1.9086
 2813SOL     OW20074   2.203   3.689   3.802  0.2164 -0.1866  0.1721
 2813SOL    HW120075   2.122   3.651   3.836  0.9913 -2.7619 -0.8857
 2813SOL    HW220076   2.243   3.751   3.863 -0.5410 -1.5529  2.0539
 2814SOL     OW20077   3.212   0.858   7.495  0.1585 -0.4855  0.1761
 2814SOL    HW120078   3.223   0.893   7.583 -1.8981 -0.0978  0.2899
 2814SOL    HW220079   3.227   0.766   7.519  2.8172 -0.6444 -2.2283
 2815SOL     OW20080   4.237   3.311  14.935  0.5900 -0.0773  0.0869
 2815SOL    HW120081   4.271   3.399  14.945 -1.6986  1.0824 -2.3186
 2815SOL    HW220082   4.152   3.318  14.978  0.3054 -2.0868 -0.1226
 2816SOL     OW20083   2.329   4.593  14.682  0.1330  0.0360  0.1719
 2816SOL    HW120084   2.303   4.679  14.716 -0.0166 -0.2653  0.8238
 2816SOL    HW220085   2.339   4.616  14.590  2.3303  0.6536  0.5472
 2817SOL     OW20086   3.782   1.450  11.417 -0.5836 -0.2798 -0.3156
 2817SOL    HW120087   3.756   1.478  11.505 -0.8969 -1.4990 -0.0146
 2817SOL    HW220088   3.710   1.397  11.384  0.7633 -0.9820 -2.1512
 2818SOL     OW20089   4.680   3.745   1.266 -0.4137  0.4011  0.4491
 2818SOL    HW120090   4.721   3.771   1.183 -1.1062 -1.5833 -0.5124
 2818SOL    HW220091   4.679   3.826   1.318  1.3490 -0.0584  1.1938
 2819SOL     OW20092   1.365   1.300   3.055 -0.1110 -0.1893  0.0386
 2819SOL    HW120093   1.442   1.354   3.034 -1.9341  2.5938  0.5444
 2819SOL    HW220094   1.305   1.374   3.054 -0.3873 -0.4121  0.0397
 2820SOL     OW20095   0.239   2.442  12.869 -0.4681  0.2183 -0.2735
 2820SOL    HW120096   0.253   2.502  12.942 -1.6261  0.3924 -0.1880
 2820SOL    HW220097   0.201   2.494  12.798 -0.4409 -1.6714 -1.6507
 2821SOL     OW20098   3.015   1.811   9.359 -0.6662 -1.1368  0.0009
 2821SOL    HW120099   2.969   1.845   9.435 -0.1162  1.8693 -1.0143
 2821SOL    HW220100   2.949   1.816   9.290 -3.1521 -0.4000  2.4712
 2822SOL     OW20101   3.901   1.909  17.183  0.0132 -0.1108  0.2958
 2822SOL    HW120102   3.874   1.999  17.167 -0.6764  0.2903  3.8103
 2822SOL    HW220103   3.820   1.858  17.179 -0.2846  0.4094 -0.3634
 2823SOL     OW20104   0.803   3.823   9.415  0.1568 -0.5855 -0.0916
 2823SOL    HW120105   0.847   3.843   9.333  1.3086 -0.3908  0.5752
 2823SOL    HW220106   0.741   3.758   9.382  1.4380 -0.6992 -2.2589
 2824SOL     OW20107   0.304   2.901   6.959 -0.0203  0.5340 -0.3801
 2824SOL    HW120108   0.267   2.874   7.043 -1.4244  2.5464 -0.3427
 2824SOL    HW220109   0.230   2.897   6.898 -0.3871  0.4139  0.0741
 2825SOL     OW20110   0.090   2.324   7.695 -0.1270 -0.5495 -0.8110
 2825SOL    HW120111   0.037   2.252   7.730 -1.6429  1.2539  0.6395
 2825SOL    HW220112   0.122   2.287   7.613  3.5360 -0.2328  0.4823
 2826SOL     OW20113   0.407   2.382   9.872 -0.0243 -0.2593 -0.2534
 2826SOL    HW120114   0.497   2.350   9.862 -0.3638 -1.3987  0.4547
 2826SOL    HW220115   0.428   2.471   9.901 -0.0689  0.0109 -1.0482
 2827SOL     OW20116   1.274   3.316   6.708  0.2587  0.1362  0.0496
 2827SOL    HW120117   1.357   3.297   6.666 -0.3053 -0.3646 -0.8382
 2827SOL    HW220118   1.223   3.248   6.664 -1.0224  0.8169  0.4667
 2828SOL     OW20119   1.751   0.276   7.588  0.0210 -0.3799 -0.2011
 2828SOL    HW120120   1.741   0.367   7.614  0.3455 -0.3235 -0.2828
 2828SOL    HW220121   1.734   0.242   7.677 -2.2482  1.6313  0.1271
 2829SOL     OW20122   3.309   0.205   2.555 -0.0041  0.0366  0.8048
 2829SOL    HW120123   3.368   0.273   2.523  0.3260  0.3857  2.1612
 2829SOL    HW220124   3.279   0.155   2.479 -0.6912 -0.7141  1.5753
 2830SOL     OW20125   2.187   2.985  17.600 -0.3675  0.2462 -0.0526
 2830SOL    HW120126   2.111   3.025  17.559 -0.5228  0.0071  0.0022
 2830SOL    HW220127   2.261   3.020  17.550 -2.0212  0.8983 -2.0221
 2831SOL     OW20128   0.770   2.553   3.618 -0.4841 -0.5120  0.4141
 2831SOL    HW120129   0.756   2.612   3.544  1.1349 -1.3909 -0.5841
 2831SOL    HW220130   0.685   2.554   3.663 -0.6672 -2.6338  0.1515
 2832SOL     OW20131   0.051   1.911   5.640 -0.0800  0.0044 -0.2507
 2832SOL    HW120132   4.720   1.858   5.604  0.6173 -1.0349 -0.0738
 2832SOL    HW220133   0.085   1.854   5.708 -2.0707 -1.4561 -0.4804
 2833SOL     OW20134   3.872   3.480   2.986 -0.2954  0.0800  0.2866
 2833SOL    HW120135   3.812   3.410   2.963 -0.2741  0.3976 -0.7527
 2833SOL    HW220136   3.848   3.547   2.922 -0.0636 -0.6006 -0.5131
 2834SOL     OW20137   2.622   3.940   9.128 -0.1331  0.3560  0.4159
 2834SOL    HW120138   2.639   3.926   9.221  0.7928  2.0878  0.5036
 2834SOL    HW220139   2.589   4.030   9.130 -2.8761 -0.7036  3.0535
 2835SOL     OW20140   2.510   0.615  11.297  0.3236 -0.2234  0.2714
 2835SOL    HW120141   2.538   0.523  11.293  1.2302  0.0098  1.4702
 2835SOL    HW220142   2.475   0.628  11.209 -1.9030 -0.3837  1.1375
 2836SOL     OW20143   2.467   0.283  12.292  0.4807 -0.4592  0.2839
 2836SOL    HW120144   2.483   0.231  12.214 -2.0064 -1.1450  0.2239
 2836SOL    HW220145   2.406   0.233  12.345 -0.0216 -0.0725  0.0745
 2837SOL     OW20146   0.837   0.431  15.618  0.0818  0.1544  0.0889
 2837SOL    HW120147   0.747   0.430  15.587  0.2852 -0.6989 -0.4904
 2837SOL    HW220148   0.856   0.346  15.577 -1.1641 -0.7337  1.3849
 2838SOL     OW20149   0.642   2.600  12.628  0.3697  0.4266 -0.6255
 2838SOL    HW120150   0.616   2.548  12.705 -1.8483  1.2187 -0.8177
 2838SOL    HW220151   0.664   2.684  12.669 -1.7567  0.7359 -0.0720
 2839SOL     OW20152   0.947   3.304   7.188  0.5559 -0.5516  0.2660
 2839SOL    HW120153   0.973   3.297   7.096 -0.7969  1.2602 -0.2236
 2839SOL    HW220154   0.899   3.222   7.200 -3.7753  2.2413  1.9412
 2840SOL     OW20155   3.880   0.954  12.499 -0.4344 -0.1950 -0.1968
 2840SOL    HW120156   3.878   1.049  12.509  0.1173 -0.2023 -0.0422
 2840SOL    HW220157   3.968   0.942  12.535 -0.5766 -2.4124 -0.5924
 2841SOL     OW20158   3.491   0.578   4.153  0.2352  0.0192 -0.1975
 2841SOL    HW120159   3.505   0.597   4.060 -0.3026  0.1591 -0.2534
 2841SOL    HW220160   3.452   0.490   4.157 -0.3564  0.2965  0.1674
 2842SOL     OW20161   3.189   3.635   7.416  0.2723  0.0594 -0.0736
 2842SOL    HW120162   3.179   3.677   7.330  0.5633  1.1155  0.3990
 2842SOL    HW220163   3.137   3.556   7.404  1.5413 -0.6580 -0.9274
 2843SOL     OW20164   1.638   3.534  13.529 -0.4049 -0.0653 -0.0295
 2843SOL    HW120165   1.563   3.476  13.541 -0.7989  0.5463  0.4844
 2843SOL    HW220166   1.609   3.616  13.571  1.6278  0.0318  1.2029
 2844SOL     OW20167   2.672   4.257   7.268 -0.3279 -0.3031  0.0763
 2844SOL    HW120168   2.627   4.182   7.308 -3.0520  0.0179 -2.3236
 2844SOL    HW220169   2.642   4.329   7.323  0.3679 -0.8765  1.1973
 2845SOL     OW20170   0.799   0.692  10.243  0.5585 -0.0056 -0.2053
 2845SOL    HW120171   0.764   0.757  10.305 -0.5712 -0.0536 -0.7923
 2845SOL    HW220172   0.742   0.687  10.166  0.0020 -2.9932  0.4205
 2846SOL     OW20173   4.433   1.305   3.265 -0.1780 -0.2276  0.2455
 2846SOL    HW120174   4.471   1.268   3.185 -1.7162  0.6382 -0.8926
 2846SOL    HW220175   4.341   1.280   3.258 -0.5625  1.7921 -1.9492
 2847SOL     OW20176   1.541   1.077   0.080  0.0729  0.4998  0.2321
 2847SOL    HW120177   1.481   1.045   0.147 -0.4737 -0.7168 -0.8526
 2847SOL    HW220178   1.474   1.115   0.024  1.2397  0.1070 -1.4279
 2848SOL     OW20179   0.854   0.886   4.661 -0.4427 -0.0726 -0.4864
 2848SOL    HW120180   0.776   0.935   4.686 -0.3610  0.3263 -1.0158
 2848SOL    HW220181   0.925   0.945   4.687  0.9644 -1.1929 -1.7761
 2849SOL     OW20182   0.575   1.300  11.450  0.1669  0.6893 -0.2814
 2849SOL    HW120183   0.612   1.220  11.487  0.7508  0.2841 -1.7207
 2849SOL    HW220184   0.632   1.361  11.496 -2.2492  2.0041  0.9967
 2850SOL     OW20185   2.320   0.060   3.125  0.2885  0.2162  0.3668
 2850SOL    HW120186   2.291   4.709   3.128 -1.5721  0.7410 -1.2600
 2850SOL    HW220187   2.397   0.041   3.071  0.8673 -1.6647  1.8673
 2851SOL     OW20188   4.002   1.957   3.713 -0.5196 -0.1206 -0.6622
 2851SOL    HW120189   4.078   2.008   3.742 -1.0911  0.8654 -0.9417
 2851SOL    HW220190   3.933   2.022   3.714 -0.3001  0.1049 -0.1070
 2852SOL     OW20191   4.640   0.708   7.867 -0.4676 -0.0722 -0.0263
 2852SOL    HW120192   4.620   0.619   7.895 -0.4093  0.3368  1.3395
 2852SOL    HW220193   4.704   0.688   7.799  0.1495  2.0731 -0.0862
 2853SOL     OW20194   3.617   1.527   5.576  0.3675 -0.3395  0.3868
 2853SOL    HW120195   3.529   1.564   5.578  0.7552  0.4114  4.0875
 2853SOL    HW220196   3.599   1.433   5.583 -1.9158  0.0286 -0.5370
 2854SOL     OW20197   0.073   0.784   7.519 -0.1333  0.6098  0.0703
 2854SOL    HW120198   0.097   0.691   7.518 -1.8463  0.1821 -0.7787
 2854SOL    HW220199   0.084   0.815   7.609 -0.4457  0.8516  0.0261
 2855SOL     OW20200   3.542   4.101   6.971  0.3734  0.1778  0.3460
 2855SOL    HW120201   3.525   4.196   6.973 -1.4453 -0.1293 -0.8992
 2855SOL    HW220202   3.637   4.097   6.962  0.4717 -0.3121  1.6179
 2856SOL     OW20203   0.550   0.251   7.542 -0.2895 -0.1030  0.2616
 2856SOL    HW120204   0.597   0.263   7.459 -1.6889  0.9963 -0.3735
 2856SOL    HW220205   0.478   0.192   7.518 -2.3852  2.8948 -0.8397
 2857SOL     OW20206   2.896   2.437   6.667 -0.5575  0.1589 -0.0622
 2857SOL    HW120207   2.851   2.516   6.638 -1.9127 -0.0192  1.6044
 2857SOL    HW220208   2.848   2.370   6.617  1.3285 -0.7773 -0.6435
 2858SOL     OW20209   3.754   3.723   3.261  0.4720  0.4229  0.3855
 2858SOL    HW120210   3.739   3.639   3.304  2.1879  0.6437  1.3891
 2858SOL    HW220211   3.660   3.741   3.258  0.0561 -1.8438  0.0114
 2859SOL     OW20212   2.224   3.431  17.252 -0.4662  0.4020  0.5058
 2859SOL    HW120213   2.260   3.517  17.230  1.0630 -0.7117 -1.3369
 2859SOL    HW220214   2.271   3.431  17.336  1.0361 -0.7533 -0.3311
 2860SOL     OW20215   4.026   3.693   0.574  0.2101  0.0720  0.3423
 2860SOL    HW120216   3.950   3.705   0.631  1.4983 -0.1722  2.1128
 2860SOL    HW220217   4.073   3.615   0.603  1.7308  0.6006 -0.7040
 2861SOL     OW20218   2.432   1.477   4.999  0.2281  0.0695  0.3722
 2861SOL    HW120219   2.486   1.406   5.035  1.5586  0.6727 -0.4319
 2861SOL    HW220220   2.452   1.457   4.908 -0.6583 -1.1736  0.4497
 2862SOL     OW20221   2.901   3.252   8.310 -0.7329  0.5893  0.2094
 2862SOL    HW120222   2.836   3.321   8.294 -1.4268  0.4628  2.4739
 2862SOL    HW220223   2.961   3.300   8.365 -1.0522  1.6113 -0.3315
 2863SOL     OW20224   0.123   1.531   3.692  0.0097 -0.2311  0.1025
 2863SOL    HW120225   0.045   1.485   3.661 -0.5042 -0.5381  1.8643
 2863SOL    HW220226   0.089   1.615   3.721  1.9019  0.4173  0.4618
 2864SOL     OW20227   2.321   0.501  16.156  1.2933  0.0187  0.0167
 2864SOL    HW120228   2.379   0.429  16.181 -0.4175 -1.4787 -0.2849
 2864SOL    HW220229   2.364   0.584  16.171 -2.5648  1.7925  1.2951
 2865SOL     OW20230   4.528   2.926   6.979 -0.1228 -0.1313  0.3786
 2865SOL    HW120231   4.495   2.885   6.899  3.1166  1.0762 -1.6157
 2865SOL    HW220232   4.509   2.858   7.044 -0.6747  1.1015  1.4988
 2866SOL     OW20233   1.994   0.480   7.641 -0.1715  0.5834  0.0428
 2866SOL    HW120234   2.034   0.461   7.726 -0.3235 -0.4742 -0.1130
 2866SOL    HW220235   1.945   0.398   7.631  1.0850  0.1587 -2.6339
 2867SOL     OW20236   3.778   1.685   0.089 -0.4576  0.0658  0.8490
 2867SOL    HW120237   3.782   1.709   0.181  0.0020 -2.2247  1.4282
 2867SOL    HW220238   3.767   1.771   0.048  1.4580 -0.6877 -1.2558
 2868SOL     OW20239   4.177   3.541  15.536  0.1170 -0.5682 -0.0925
 2868SOL    HW120240   4.104   3.479  15.534 -1.1178  0.7442  3.2374
 2868SOL    HW220241   4.132   3.623  15.514 -1.9613 -1.7473 -0.2768
 2869SOL     OW20242   1.217   3.819   2.076 -0.2213 -0.7356 -0.5177
 2869SOL    HW120243   1.302   3.776   2.082 -0.1841 -0.9051 -2.2872
 2869SOL    HW220244   1.160   3.756   2.120  0.5494  0.8156  2.7331
 2870SOL     OW20245   3.827   3.377   8.887  0.2356  0.2098 -0.2718
 2870SOL    HW120246   3.793   3.416   8.968 -1.3784 -0.0563 -0.8266
 2870SOL    HW220247   3.828   3.450   8.826 -1.2657  0.5300  0.0766
 2871SOL     OW20248   0.069   0.475   3.505 -0.4000 -0.2393  0.6607
 2871SOL    HW120249   0.050   0.454   3.414  1.1121  2.1304 -0.1980
 2871SOL    HW220250   0.150   0.427   3.525 -0.2812  0.0869  0.9711
 2872SOL     OW20251   3.032   4.558   9.554  0.2884  0.2386 -0.6710
 2872SOL    HW120252   3.107   4.528   9.605  1.0501 -2.0108 -3.0673
 2872SOL    HW220253   2.976   4.610   9.611  2.0170 -0.1175  1.3214
 2873SOL     OW20254   1.192   3.758  13.403 -0.2032 -0.0358  0.1116
 2873SOL    HW120255   1.173   3.697  13.474  1.3403 -2.0396 -1.2393
 2873SOL    HW220256   1.202   3.705  13.324  0.2834 -3.9858  2.8590
 2874SOL     OW20257   4.023   3.305   5.884  0.3310 -0.0435  0.0268
 2874SOL    HW120258   4.033   3.396   5.913  0.7826 -0.5776  1.5899
 2874SOL    HW220259   4.077   3.251   5.942  0.9495  1.8916  1.2398
 2875SOL     OW20260   2.753   2.440   2.424  0.9002 -0.5093 -0.9112
 2875SOL    HW120261   2.828   2.476   2.378  0.7809 -0.6450 -1.2110
 2875SOL    HW220262   2.753   2.357   2.376 -0.9639 -0.2830 -1.3123
 2876SOL     OW20263   1.117   0.528   3.564 -0.4479 -0.0109 -0.0598
 2876SOL    HW120264   1.039   0.517   3.619 -1.3760  1.3393 -1.0693
 2876SOL    HW220265   1.076   0.557   3.482  0.1300  0.2367 -0.2615
 2877SOL     OW20266   3.519   1.982   9.579  0.4760 -0.3177  0.7672
 2877SOL    HW120267   3.544   1.976   9.487 -1.1365  0.0520  0.2993
 2877SOL    HW220268   3.564   1.901   9.601  1.2285 -0.4853 -1.3786
 2878SOL     OW20269   0.825   0.403   7.465  0.3210  0.3479 -0.6338
 2878SOL    HW120270   0.781   0.366   7.388  0.1437 -3.1728  1.1731
 2878SOL    HW220271   0.881   0.466   7.420  2.7971 -3.1404 -2.5206
 2879SOL     OW20272   2.738   3.657   7.478  0.0456 -0.6591 -0.2948
 2879SOL    HW120273   2.777   3.740   7.506 -1.1753 -0.8531  1.9017
 2879SOL    HW220274   2.656   3.696   7.446 -0.3038  0.5951  2.1601
 2880SOL     OW20275   3.260   3.912   0.844 -0.1246 -0.1849 -0.3016
 2880SOL    HW120276   3.191   3.965   0.885 -0.3681  0.5151 -1.6292
 2880SOL    HW220277   3.336   3.941   0.894 -0.3275  0.0024 -0.0984
 2881SOL     OW20278   0.767   2.650   5.133 -0.1401 -0.7029 -0.1235
 2881SOL    HW120279   0.745   2.727   5.185 -1.1590 -1.6184  0.8099
 2881SOL    HW220280   0.699   2.657   5.065  0.4718  1.7410 -0.4884
 2882SOL     OW20281   0.073   3.505   5.931 -0.0467 -0.1158 -0.0081
 2882SOL    HW120282   0.143   3.441   5.925 -1.2566 -1.2393 -2.1057
 2882SOL    HW220283   0.118   3.584   5.962  0.0470  0.5117 -1.7230
 2883SOL     OW20284   2.099   1.772   5.651  0.1294  0.2658  0.6907
 2883SOL    HW120285   2.011   1.812   5.647  0.4099  0.9135  0.9282
 2883SOL    HW220286   2.090   1.709   5.580  2.5475  0.6830  0.0354
 2884SOL     OW20287   2.465   4.291  11.048  0.0652 -0.1920  0.4014
 2884SOL    HW120288   2.400   4.295  10.978 -0.2986  0.3985  0.7728
 2884SOL    HW220289   2.435   4.370  11.093 -0.7922  0.2035 -0.8563
 2885SOL     OW20290   2.434   1.166  15.034  0.1892  0.6367 -0.1085
 2885SOL    HW120291   2.376   1.093  15.058 -0.1524  0.3069 -1.9601
 2885SOL    HW220292   2.390   1.243  15.070 -0.9085 -0.5125  1.0394
 2886SOL     OW20293   2.915   1.186   6.274 -0.2179  0.2494  0.6226
 2886SOL    HW120294   2.853   1.130   6.228  0.5840 -0.5086  0.4553
 2886SOL    HW220295   2.991   1.129   6.287 -1.1179 -1.0396  0.2397
 2887SOL     OW20296   2.711   2.144   2.337 -0.3859 -0.0865 -0.0929
 2887SOL    HW120297   2.769   2.122   2.264 -0.5048  3.8024 -1.3551
 2887SOL    HW220298   2.696   2.062   2.385 -1.5896 -0.2642 -0.7712
 2888SOL     OW20299   1.100   1.293  11.388 -0.5205 -0.0870 -0.1344
 2888SOL    HW120300   1.143   1.265  11.469 -1.1082  2.2424  0.9832
 2888SOL    HW220301   1.153   1.250  11.321  1.6945  0.2187  1.4238
 2889SOL     OW20302   1.130   4.298   9.702  0.6575  0.4741 -0.9009
 2889SOL    HW120303   1.140   4.365   9.634  0.0305  2.0005  0.5306
 2889SOL    HW220304   1.037   4.276   9.700  1.3243 -2.2821 -1.9904
 2890SOL     OW20305   2.126   3.355   3.884  0.1598 -0.5524 -0.1555
 2890SOL    HW120306   2.054   3.373   3.944  0.6126 -0.4546  0.3665
 2890SOL    HW220307   2.198   3.410   3.917 -1.9819  2.1528 -0.0328
 2891SOL     OW20308   2.547   3.393   7.794  0.1804  0.1742  0.5600
 2891SOL    HW120309   2.560   3.401   7.700 -1.4111 -2.3269  0.1421
 2891SOL    HW220310   2.583   3.308   7.816  2.1158  0.7770 -0.2913
 2892SOL     OW20311   0.276   3.807   7.114 -0.4659 -0.0859  0.3145
 2892SOL    HW120312   0.192   3.769   7.140  0.0979 -2.3392 -1.1105
 2892SOL    HW220313   0.240   3.893   7.093  0.3305  0.3953  0.9159
 2893SOL     OW20314   4.613   1.332   6.356 -0.3426  0.0284 -0.2129
 2893SOL    HW120315   4.528   1.372   6.338 -0.4094 -0.2228 -0.4405
 2893SOL    HW220316   4.632   1.301   6.268  0.5531 -0.4630  0.1561
 2894SOL     OW20317   0.408   0.882   6.177  0.3338  0.5405 -0.6318
 2894SOL    HW120318   0.464   0.908   6.250 -1.3356 -1.6547  1.4091
 2894SOL    HW220319   0.432   0.944   6.107 -1.6132  1.3447 -0.5898
 2895SOL     OW20320   3.862   1.204   7.661  0.7648  0.4058  0.3149
 2895SOL    HW120321   3.869   1.176   7.753  1.2684 -0.4635  0.0211
 2895SOL    HW220322   3.952   1.230   7.642  0.6265  0.5805 -0.1081
 2896SOL     OW20323   2.925   3.759   3.659  0.0697 -0.3918 -0.2012
 2896SOL    HW120324   2.997   3.805   3.702  0.9768 -0.8693 -1.2045
 2896SOL    HW220325   2.979   3.745   3.581 -2.3455 -0.1629 -1.9014
 2897SOL     OW20326   1.254   2.763   7.005 -0.1707 -0.4583 -0.6870
 2897SOL    HW120327   1.214   2.846   7.029  1.4084 -0.3963  1.7024
 2897SOL    HW220328   1.308   2.756   7.084 -2.0644  1.4157  0.7434
 2898SOL     OW20329   3.839   4.056   2.008  0.4966  0.4130 -0.2741
 2898SOL    HW120330   3.909   4.032   2.068  1.3047  1.9767 -0.6016
 2898SOL    HW220331   3.876   4.065   1.920  0.4423 -1.8346 -0.5277
 2899SOL     OW20332   0.111   3.410   3.483  0.0930 -0.0054 -0.6107
 2899SOL    HW120333   0.184   3.407   3.422 -0.2504  0.6315 -1.0437
 2899SOL    HW220334   0.158   3.454   3.554 -0.4450  1.3473 -1.0950
 2900SOL     OW20335   2.294   2.366   2.390 -0.2499  0.4208 -0.0401
 2900SOL    HW120336   2.333   2.331   2.470  1.9980 -1.1306 -1.8028
 2900SOL    HW220337   2.362   2.354   2.323 -1.3328 -0.9059 -0.8942
 2901SOL     OW20338   2.586   3.453   5.286  0.1542 -0.0714 -0.4609
 2901SOL    HW120339   2.642   3.528   5.265 -0.3534 -0.2587 -2.5250
 2901SOL    HW220340   2.554   3.429   5.199 -0.1613  0.1808 -0.4157
 2902SOL     OW20341   1.221   0.383   4.642  0.0965 -0.6966  0.2593
 2902SOL    HW120342   1.253   0.403   4.730 -1.5141  2.1588  0.1877
 2902SOL    HW220343   1.282   0.431   4.585  0.2383  0.5717  1.4690
 2903SOL     OW20344   2.057   3.782  12.633 -0.0385 -0.3561  0.4001
 2903SOL    HW120345   2.000   3.713  12.599 -1.1946  1.0751 -0.5605
 2903SOL    HW220346   2.100   3.808  12.551  1.6952 -0.9950  1.1201
 2904SOL     OW20347   4.227   1.483   5.881 -0.7657  0.1683 -0.1734
 2904SOL    HW120348   4.237   1.434   5.800 -0.3589  0.5461 -0.3515
 2904SOL    HW220349   4.187   1.564   5.849 -1.3691  1.5147  3.9650
 2905SOL     OW20350   1.737   4.657   6.161 -0.4764  0.0970 -0.1348
 2905SOL    HW120351   1.680   4.711   6.106 -0.7192 -0.0446 -0.0207
 2905SOL    HW220352   1.818   4.645   6.112  0.7768 -0.6518  2.1232
 2906SOL     OW20353   3.789   3.127   7.232  0.1831 -0.1292 -0.0979
 2906SOL    HW120354   3.713   3.184   7.225  1.3693  1.4866 -0.0013
 2906SOL    HW220355   3.762   3.071   7.305 -0.7025  1.2876  0.6713
 2907SOL     OW20356   2.191   4.457   8.224  0.0594  0.2268  0.2029
 2907SOL    HW120357   2.161   4.426   8.310  2.5434 -0.0772  0.9398
 2907SOL    HW220358   2.272   4.409   8.209 -0.7460 -1.9315  2.8237
 2908SOL     OW20359   0.412   3.765   0.647  0.4177 -0.6677 -0.0468
 2908SOL    HW120360   0.343   3.822   0.682  0.7893  1.1620 -2.3179
 2908SOL    HW220361   0.344   3.719   0.598  0.9810 -0.2388 -1.2287
 2909SOL     OW20362   4.406   0.107   1.129  0.7912 -0.3197  0.0208
 2909SOL    HW120363   4.469   0.087   1.059 -0.0119 -0.7574 -0.5754
 2909SOL    HW220364   4.335   0.143   1.077  1.2090  1.0020  0.3706
 2910SOL     OW20365   1.343   0.509  13.995  0.1812  0.7262  0.3905
 2910SOL    HW120366   1.300   0.576  13.941 -0.3122 -0.6811 -0.9898
 2910SOL    HW220367   1.267   0.459  14.026 -1.3681  2.9847  0.2833
 2911SOL     OW20368   1.685   3.224   9.757 -0.5851 -0.0004  0.0009
 2911SOL    HW120369   1.774   3.213   9.790  0.3264  0.4623 -2.3217
 2911SOL    HW220370   1.635   3.183   9.828  0.5219  0.3521  0.9992
 2912SOL     OW20371   0.640   4.219  15.534  0.2792  0.1020 -0.2377
 2912SOL    HW120372   0.553   4.215  15.495 -0.5047  2.0720  1.3095
 2912SOL    HW220373   0.702   4.214  15.461  0.0890 -2.6734 -0.1992
 2913SOL     OW20374   0.756   3.185  10.192  0.0076  0.4022 -0.0948
 2913SOL    HW120375   0.796   3.244  10.129 -1.6840  0.8367 -0.7779
 2913SOL    HW220376   0.794   3.222  10.272 -0.7997 -1.0903  0.9804
 2914SOL     OW20377   0.825   2.972  11.191  0.1350 -0.1928 -0.1150
 2914SOL    HW120378   0.863   3.060  11.203 -1.9599  0.6765  0.1043
 2914SOL    HW220379   0.753   2.980  11.253 -1.7646  0.9035 -2.4232
 2915SOL     OW20380   3.956   1.259   6.612  0.4705 -0.4061 -0.2503
 2915SOL    HW120381   3.899   1.211   6.671  1.7401 -1.0158  0.4830
 2915SOL    HW220382   3.905   1.332   6.579 -1.3634 -1.5104  0.1667
 2916SOL     OW20383   2.107   2.293   1.985  0.5805  0.2521 -0.9380
 2916SOL    HW120384   2.195   2.320   1.959  0.7753  0.2016 -0.3357
 2916SOL    HW220385   2.115   2.202   2.014 -3.8649  0.0473 -0.3021
 2917SOL     OW20386   2.894   3.595   1.147  0.6820 -0.2460  0.3302
 2917SOL    HW120387   2.959   3.611   1.079 -0.4291  1.0660 -0.4224
 2917SOL    HW220388   2.917   3.503   1.160 -0.8705 -1.0946 -2.9327
 2918SOL     OW20389   0.198   0.138  16.057 -0.0429 -0.3059  0.0291
 2918SOL    HW120390   0.262   0.073  16.028 -0.7661 -0.4720 -1.1843
 2918SOL    HW220391   0.129   0.082  16.091  1.4906 -1.2659  1.5626
 2919SOL     OW20392   1.616   3.416   5.171  0.0055 -0.3742 -0.3228
 2919SOL    HW120393   1.527   3.435   5.140  0.2853  0.6697 -0.4871
 2919SOL    HW220394   1.633   3.495   5.222 -1.2283 -0.8718  0.8486
 2920SOL     OW20395   0.940   1.647  10.496 -0.3165 -0.6221 -0.0607
 2920SOL    HW120396   0.932   1.739  10.470 -0.4385 -0.5535  0.2266
 2920SOL    HW220397   0.850   1.626  10.472 -0.6515  0.4615  0.2255
 2921SOL     OW20398   0.326   2.860  14.660 -0.2961 -0.4799 -0.3042
 2921SOL    HW120399   0.244   2.878  14.706  0.5172  1.5135  0.3753
 2921SOL    HW220400   0.349   2.949  14.636  1.1616 -0.2194  2.0036
 2922SOL     OW20401   1.640   3.798  14.917 -0.3634 -0.0391 -0.3004
 2922SOL    HW120402   1.715   3.740  14.906 -0.3018 -0.6272  3.3611
 2922SOL    HW220403   1.685   3.882  14.925  0.0586 -0.3927  1.0722
 2923SOL     OW20404   3.126   0.757   3.065  0.5795  1.1192  0.1269
 2923SOL    HW120405   3.170   0.812   3.130  0.7211  0.1071  0.8987
 2923SOL    HW220406   3.060   0.726   3.127  0.9173 -0.6381 -0.3732
 2924SOL     OW20407   0.648   3.533   9.408 -0.4469 -0.1134  0.1833
 2924SOL    HW120408   0.554   3.521   9.391 -0.2916  1.3251 -1.7463
 2924SOL    HW220409   0.647   3.535   9.504  0.6190 -0.2403  0.1902
 2925SOL     OW20410   1.076   0.988  17.488  0.2135 -0.1284 -0.4461
 2925SOL    HW120411   1.126   0.960  17.412  3.6911  1.7522  1.1466
 2925SOL    HW220412   1.135   1.000  17.563 -0.7389  0.4092  0.2145
 2926SOL     OW20413   1.009   3.377   3.882  0.0513  0.6082 -0.2954
 2926SOL    HW120414   1.081   3.427   3.920 -0.4189  1.0696 -0.0030
 2926SOL    HW220415   1.015   3.417   3.795  0.9545  0.2559 -0.3896
 2927SOL     OW20416   1.717   1.256   3.780 -0.6099 -0.0967 -0.2059
 2927SOL    HW120417   1.709   1.350   3.800  0.7856 -0.6004  2.7038
 2927SOL    HW220418   1.628   1.223   3.779 -0.7946  0.4236 -0.8717
 2928SOL     OW20419   4.403   0.930   3.044 -0.5274  0.1763  0.0484
 2928SOL    HW120420   4.496   0.916   3.028 -0.1381  1.4125  1.2979
 2928SOL    HW220421   4.396   0.891   3.131  3.5737 -2.0711 -0.6486
 2929SOL     OW20422   2.573   1.577  13.906 -0.2105 -0.0047 -0.2462
 2929SOL    HW120423   2.516   1.563  13.982  0.3621 -0.2618  0.1400
 2929SOL    HW220424   2.654   1.547  13.948 -0.6827  1.6288  1.8542
 2930SOL     OW20425   1.442   1.092  16.903 -0.9315  0.0387 -0.6641
 2930SOL    HW120426   1.521   1.143  16.918 -0.4354 -1.1692  0.8890
 2930SOL    HW220427   1.405   1.085  16.991  0.1462  2.4959 -0.0295
 2931SOL     OW20428   1.575   4.477   3.104  0.1968 -0.0096  0.0453
 2931SOL    HW120429   1.618   4.425   3.036 -1.0375 -0.3573 -0.4583
 2931SOL    HW220430   1.626   4.558   3.104 -0.1599  0.2221 -1.4486
 2932SOL     OW20431   4.179   2.370   4.644  0.2268 -0.3714  0.5079
 2932SOL    HW120432   4.134   2.369   4.729  0.5521 -1.4944  0.6689
 2932SOL    HW220433   4.101   2.361   4.589 -0.3505  0.1128  1.2414
 2933SOL     OW20434   1.984   3.539  10.362 -0.5718 -0.0961  0.3364
 2933SOL    HW120435   1.946   3.504  10.443  1.5842  1.2194  1.9071
 2933SOL    HW220436   1.909   3.540  10.303  0.2903 -0.9816 -0.7701
 2934SOL     OW20437   3.383   3.504   5.016 -0.4627 -0.2127  0.3060
 2934SOL    HW120438   3.347   3.436   4.960  1.0608 -1.8359  1.2943
 2934SOL    HW220439   3.432   3.449   5.077  1.6934 -0.0561 -1.2867
 2935SOL     OW20440   3.930   3.047   5.217  0.6887  0.1039  0.6282
 2935SOL    HW120441   3.891   3.028   5.302  0.0926 -0.9778  0.1231
 2935SOL    HW220442   3.916   2.966   5.168 -1.7394 -1.6858  4.2638
 2936SOL     OW20443   1.922   0.205   1.816  0.0476 -0.4687 -0.5623
 2936SOL    HW120444   1.854   0.249   1.866 -2.4392 -2.4042 -2.2323
 2936SOL    HW220445   2.006   0.200   1.862 -0.1208  0.1184 -0.1950
 2937SOL     OW20446   2.199   4.457   0.775  0.7543 -0.1081  0.0431
 2937SOL    HW120447   2.146   4.521   0.727 -0.6030 -1.7494 -0.6380
 2937SOL    HW220448   2.137   4.442   0.846 -0.5677 -0.1085 -1.1165
 2938SOL     OW20449   0.287   0.643  13.896 -0.0320 -0.0615  0.1953
 2938SOL    HW120450   0.364   0.689  13.862  0.0565 -2.1154 -2.3395
 2938SOL    HW220451   0.315   0.552  13.897  1.4964  0.4075  0.0925
 2939SOL     OW20452   2.459   0.856  10.928 -0.5035 -0.1607  1.0789
 2939SOL    HW120453   2.423   0.823  11.010 -0.2574 -0.7087  0.9626
 2939SOL    HW220454   2.392   0.911  10.886  2.9777  2.8826 -0.4596
 2940SOL     OW20455   1.041   0.467   9.997  0.0914 -1.2874 -0.5749
 2940SOL    HW120456   1.111   0.519   9.960 -1.0114  0.0515 -0.7638
 2940SOL    HW220457   0.984   0.455   9.920 -1.0680  0.5809 -0.0035
 2941SOL     OW20458   2.022   2.256   6.669  0.9361 -0.5820 -0.4988
 2941SOL    HW120459   2.037   2.170   6.630  0.6031 -0.5075 -0.7889
 2941SOL    HW220460   1.951   2.295   6.618 -0.1926  0.5717  1.9461
 2942SOL     OW20461   4.572   1.552  16.455  0.0463 -0.0181 -0.0934
 2942SOL    HW120462   4.590   1.499  16.533 -1.7312 -1.6243 -0.7868
 2942SOL    HW220463   4.531   1.626  16.501  0.5073  0.5614 -0.6065
 2943SOL     OW20464   3.358   1.933  16.512  0.2706 -0.1925 -0.4136
 2943SOL    HW120465   3.315   1.849  16.495 -1.5712  1.4692 -3.8571
 2943SOL    HW220466   3.441   1.904  16.551  0.0693  1.1286  0.9998
 2944SOL     OW20467   1.172   0.722   4.700 -0.3671 -0.6224  0.2029
 2944SOL    HW120468   1.113   0.655   4.735 -0.4796 -0.1977  0.8393
 2944SOL    HW220469   1.168   0.702   4.607  0.9546 -2.1398  0.4777
 2945SOL     OW20470   1.027   0.384   8.002 -0.8396 -0.7714  0.2232
 2945SOL    HW120471   0.992   0.424   7.923  2.0768  1.9507  0.3084
 2945SOL    HW220472   1.119   0.369   7.981 -0.3338  1.0341  1.1184
 2946SOL     OW20473   1.283   0.543  10.188  0.3846 -0.1971  0.5939
 2946SOL    HW120474   1.256   0.472  10.247  0.7236 -1.0286 -0.2570
 2946SOL    HW220475   1.257   0.619  10.241  1.3206  0.1876  0.5038
 2947SOL     OW20476   2.686   3.979   8.069  0.9549  0.0362  0.1174
 2947SOL    HW120477   2.762   3.950   8.020 -0.3544 -1.8783 -0.7842
 2947SOL    HW220478   2.624   3.965   7.997  2.1433  0.0352 -0.8965
 2948SOL     OW20479   3.963   3.819   4.327  0.1246  0.6777  0.2302
 2948SOL    HW120480   3.966   3.863   4.242 -2.2644 -0.4782 -0.4571
 2948SOL    HW220481   4.050   3.781   4.318 -0.8422 -0.9962 -1.9567
 2949SOL     OW20482   0.649   1.259   2.615  0.4719  0.4482 -0.4065
 2949SOL    HW120483   0.598   1.332   2.649  1.5696  1.7243 -1.5152
 2949SOL    HW220484   0.621   1.246   2.524  2.2695 -1.3071 -0.7109
 2950SOL     OW20485   2.024   4.401   4.272 -0.0487 -0.0488  0.4856
 2950SOL    HW120486   2.038   4.491   4.300  3.4889  0.2347 -2.2387
 2950SOL    HW220487   2.022   4.358   4.357  0.2078 -2.0612 -0.5178
 2951SOL     OW20488   3.001   0.472   7.940  0.1350 -0.1075 -0.5335
 2951SOL    HW120489   2.924   0.518   7.905 -0.6293 -1.1570 -0.2511
 2951SOL    HW220490   2.969   0.392   7.980  1.1553 -0.2039  0.0737
 2952SOL     OW20491   2.781   1.437   8.259  0.3242 -0.5356 -0.1555
 2952SOL    HW120492   2.874   1.437   8.279  0.1857  1.5704  0.4400
 2952SOL    HW220493   2.754   1.382   8.333  1.3120 -1.5189 -0.5290
 2953SOL     OW20494   2.692   2.079   4.359 -0.3412 -0.0168 -0.4751
 2953SOL    HW120495   2.597   2.069   4.351 -0.4996  0.4874  0.8029
 2953SOL    HW220496   2.715   2.017   4.289 -0.4923 -1.1426  0.4856
 2954SOL     OW20497   4.724   2.853   1.906 -0.1269 -0.1438  0.0160
 2954SOL    HW120498   0.020   2.901   1.981 -0.5989 -0.6244  0.5464
 2954SOL    HW220499   0.058   2.808   1.867 -0.6920 -1.3988  0.3981
 2955SOL     OW20500   3.919   2.823   1.458 -0.1854  0.0432  0.0079
 2955SOL    HW120501   3.978   2.748   1.454 -1.1587 -0.8764  2.7218
 2955SOL    HW220502   3.843   2.768   1.472  0.4131 -0.7178  0.2445
 2956SOL     OW20503   3.520   3.315   9.105  0.4778 -0.2443 -0.4300
 2956SOL    HW120504   3.472   3.385   9.061 -0.8817  1.9038  4.4670
 2956SOL    HW220505   3.607   3.356   9.101  1.0060 -1.1933  1.0591
 2957SOL     OW20506   3.629   1.820   9.852 -0.4625 -0.2402 -0.0240
 2957SOL    HW120507   3.724   1.820   9.839 -0.2733  1.3469  1.2956
 2957SOL    HW220508   3.614   1.913   9.869 -0.5672 -0.1180 -0.8195
 2958SOL     OW20509   2.416   0.145   8.195 -0.2458  0.2274 -1.0845
 2958SOL    HW120510   2.467   0.222   8.222  1.8156 -1.0891 -1.3010
 2958SOL    HW220511   2.447   0.140   8.105 -0.7318 -0.4503 -1.2102
 2959SOL     OW20512   2.677   0.054   8.909  0.1344  0.2617  0.1434
 2959SOL    HW120513   2.609   0.002   8.950 -2.2999  2.3530 -1.2087
 2959SOL    HW220514   2.667   0.135   8.958  0.5181  1.1488 -1.2333
 2960SOL     OW20515   1.252   3.154   3.605  0.0366  0.3685  0.4059
 2960SOL    HW120516   1.299   3.077   3.571 -1.6143 -0.4610 -0.0046
 2960SOL    HW220517   1.310   3.186   3.674 -0.8344  1.7816  0.4756
 2961SOL     OW20518   1.146   2.590  16.311 -0.1629 -0.0725  0.3744
 2961SOL    HW120519   1.162   2.647  16.236 -1.2983 -0.8362 -0.4386
 2961SOL    HW220520   1.127   2.661  16.373  3.9197  0.3721  1.0767
 2962SOL     OW20521   1.647   3.781  10.208  0.4544  0.8641 -0.2132
 2962SOL    HW120522   1.698   3.855  10.242 -1.5340  1.3121  1.7942
 2962SOL    HW220523   1.567   3.833  10.199 -0.2831  0.0279  1.5359
 2963SOL     OW20524   0.463   1.784  15.293 -0.0916  0.4948 -0.0894
 2963SOL    HW120525   0.464   1.873  15.257  1.8178 -0.3520 -2.0749
 2963SOL    HW220526   0.552   1.759  15.269 -0.1645  0.8660 -0.7415
 2964SOL     OW20527   2.911   0.564   5.537  0.7316 -0.2082  0.3280
 2964SOL    HW120528   2.935   0.646   5.495  0.3613 -0.1645  0.2054
 2964SOL    HW220529   2.818   0.562   5.514  0.8672 -3.0870  0.0198
 2965SOL     OW20530   1.102   3.229   3.406 -0.2516 -0.3429  0.1084
 2965SOL    HW120531   1.080   3.143   3.369 -0.5730 -0.2417  0.0612
 2965SOL    HW220532   1.156   3.201   3.479 -0.0622 -2.1851 -0.7382
 2966SOL     OW20533   1.689   1.752  17.623 -0.0456  0.1336  0.1500
 2966SOL    HW120534   1.779   1.728  17.600  0.6283  0.8988  1.9570
 2966SOL    HW220535   1.642   1.670  17.633  0.8260 -0.2933  0.7215
 2967SOL     OW20536   2.063   1.168   7.743  0.5741  0.4578 -0.0706
 2967SOL    HW120537   1.996   1.139   7.680 -0.2934  1.7761  0.2430
 2967SOL    HW220538   2.035   1.114   7.817  1.7291 -0.9490 -0.6606
 2968SOL     OW20539   1.768   2.597   5.866  0.0580 -0.5788 -0.1147
 2968SOL    HW120540   1.793   2.569   5.954  1.4499 -0.6132 -0.5156
 2968SOL    HW220541   1.852   2.620   5.826  0.1540 -0.9817 -0.1483
 2969SOL     OW20542   0.753   4.042   4.719  0.4007  0.4808 -0.0753
 2969SOL    HW120543   0.696   3.977   4.761  1.1433  1.8596  3.1082
 2969SOL    HW220544   0.695   4.066   4.647 -0.3202  0.0001  0.3462
 2970SOL     OW20545   3.558   3.847   4.539 -0.0154 -0.1570  0.0873
 2970SOL    HW120546   3.596   3.859   4.452 -0.5501  1.2942  0.0547
 2970SOL    HW220547   3.543   3.940   4.557  2.5432  0.1204  0.7580
 2971SOL     OW20548   2.008   0.016  13.778  1.1498 -0.1923 -0.0491
 2971SOL    HW120549   2.054   0.071  13.841 -0.9581 -0.3792  1.6246
 2971SOL    HW220550   2.050   4.671  13.792  1.5857  0.2319  1.2093
 2972SOL     OW20551   2.939   4.596   9.907 -0.2169  0.2460  0.2218
 2972SOL    HW120552   3.019   4.553   9.937  0.1078  1.7593  1.5629
 2972SOL    HW220553   2.896   4.631   9.986  0.6047  2.0063 -0.1113
 2973SOL     OW20554   2.242   4.067  11.950 -0.7526 -0.0714  0.3020
 2973SOL    HW120555   2.172   4.002  11.958 -0.9433  0.1503  0.4443
 2973SOL    HW220556   2.196   4.139  11.993  1.6409  1.3979  0.3938
 2974SOL     OW20557   4.342   1.431   6.358  0.1539 -0.1040 -0.2392
 2974SOL    HW120558   4.263   1.403   6.312  0.4722 -0.3410 -0.6424
 2974SOL    HW220559   4.331   1.389   6.444  1.5670  0.2263  0.0987
 2975SOL     OW20560   4.636   3.770   1.707 -0.1617  0.2365 -0.6891
 2975SOL    HW120561   4.658   3.692   1.656 -1.4898  0.3145 -1.3664
 2975SOL    HW220562   4.546   3.739   1.716 -0.3246  1.5966  2.4873
 2976SOL     OW20563   0.128   4.100   9.068  0.0976 -0.2728  0.3351
 2976SOL    HW120564   0.200   4.133   9.014 -1.4742  1.2697 -0.8301
 2976SOL    HW220565   0.151   4.008   9.084  2.0322  0.2420  0.5092
 2977SOL     OW20566   1.427   1.799   4.353 -0.0606 -0.3026  0.2882
 2977SOL    HW120567   1.455   1.882   4.314  1.3686 -2.1658 -2.6275
 2977SOL    HW220568   1.331   1.804   4.354 -0.0410  1.3767 -2.6947
 2978SOL     OW20569   3.588   3.283   1.697  0.1215  0.2912 -0.5326
 2978SOL    HW120570   3.605   3.304   1.789 -0.2251  0.4465 -0.5041
 2978SOL    HW220571   3.493   3.284   1.694  0.0608  0.0187  1.0751
 2979SOL     OW20572   1.584   2.579   4.750  0.0947 -0.1816  0.0637
 2979SOL    HW120573   1.546   2.492   4.741 -1.0044  0.6014 -2.8521
 2979SOL    HW220574   1.643   2.576   4.825 -0.9431 -0.5012  0.8629
 2980SOL     OW20575   0.892   0.863   5.886  0.1544 -0.0534 -0.1518
 2980SOL    HW120576   0.813   0.910   5.911 -0.7103 -1.2239 -0.6934
 2980SOL    HW220577   0.892   0.859   5.790  1.8567  1.1066 -0.1995
 2981SOL     OW20578   0.425   2.076   3.623 -0.0158 -0.1829 -0.0024
 2981SOL    HW120579   0.485   2.021   3.673  0.5165 -0.9583 -1.5249
 2981SOL    HW220580   0.488   2.143   3.595  3.2773 -2.9216  0.8926
 2982SOL     OW20581   0.359   0.433   8.012  0.2521 -0.1237 -0.3766
 2982SOL    HW120582   0.348   0.338   8.018 -0.3699 -0.0760 -0.7789
 2982SOL    HW220583   0.385   0.432   7.920  1.3960  1.7718 -0.0714
 2983SOL     OW20584   4.087   4.498   7.813 -0.0997  0.4913 -0.4517
 2983SOL    HW120585   4.049   4.421   7.856  0.3699  1.7104  2.1844
 2983SOL    HW220586   4.014   4.560   7.819 -1.3353 -1.0757  0.7910
 2984SOL     OW20587   0.001   4.145   4.708 -0.0023 -0.2156  0.3527
 2984SOL    HW120588   4.673   4.211   4.719  0.5119  0.2219  0.8958
 2984SOL    HW220589   0.040   4.171   4.624 -0.3171  1.1792  0.6389
 2985SOL     OW20590   2.283   1.632   4.233 -0.5716 -0.0466  0.1587
 2985SOL    HW120591   2.311   1.630   4.141  2.3513 -0.1180  1.0371
 2985SOL    HW220592   2.319   1.716   4.262 -0.3651  0.5063 -1.7101
 2986SOL     OW20593   2.948   2.432   4.972 -0.0492 -0.5387  0.0403
 2986SOL    HW120594   2.894   2.490   5.025  0.7328  1.2640 -1.1112
 2986SOL    HW220595   2.883   2.365   4.950 -1.6877  1.1795 -0.3022
 2987SOL     OW20596   3.781   1.857   4.246 -0.0663  0.1537  0.2139
 2987SOL    HW120597   3.775   1.812   4.162  0.3079  1.0225 -0.2769
 2987SOL    HW220598   3.877   1.858   4.250 -0.0623 -0.2333  0.2250
 2988SOL     OW20599   3.305   1.272   8.065 -0.2442 -0.2131  0.0422
 2988SOL    HW120600   3.313   1.184   8.027  1.1053  0.2244 -0.6646
 2988SOL    HW220601   3.312   1.326   7.986 -0.3813 -0.1562  0.0689
 2989SOL     OW20602   0.337   2.393   5.513  0.0375 -0.0801 -0.1843
 2989SOL    HW120603   0.414   2.439   5.546  1.8465 -1.8332 -2.0077
 2989SOL    HW220604   0.375   2.382   5.426 -2.6650 -0.2140 -1.3543
 2990SOL     OW20605   1.310   1.592  15.126 -0.0148 -0.3862  0.1690
 2990SOL    HW120606   1.353   1.677  15.140  1.0916 -1.0758  0.9790
 2990SOL    HW220607   1.219   1.610  15.149 -0.0589 -1.7684  1.0440
 2991SOL     OW20608   2.892   2.241   5.834  0.2249 -0.6265  0.9132
 2991SOL    HW120609   2.874   2.148   5.815  0.8552 -0.4966 -0.3699
 2991SOL    HW220610   2.986   2.251   5.822  0.0285 -0.6153 -0.7547
 2992SOL     OW20611   0.477   2.121  12.669  0.0619  0.1596  0.0851
 2992SOL    HW120612   0.468   2.205  12.623  1.4272  0.3973  0.2507
 2992SOL    HW220613   0.439   2.056  12.611  0.0002 -1.4691  1.9505
 2993SOL     OW20614   1.214   0.622   0.094  0.1636  0.3091  0.3473
 2993SOL    HW120615   1.264   0.600   0.173  2.7797 -0.5742 -1.5482
 2993SOL    HW220616   1.219   0.539   0.048  2.5449 -0.0787  1.2836
 2994SOL     OW20617   4.030   1.740   3.223  0.0943  0.4369 -0.2903
 2994SOL    HW120618   4.040   1.752   3.317 -0.9192  1.7338 -0.3490
 2994SOL    HW220619   3.993   1.824   3.198 -2.3639 -1.0014 -1.5109
 2995SOL     OW20620   4.145   0.776   0.851 -0.1321  0.1270 -0.2475
 2995SOL    HW120621   4.094   0.702   0.884 -0.1272  0.9722  1.6430
 2995SOL    HW220622   4.116   0.768   0.760  1.2821  1.6819 -0.8395
 2996SOL     OW20623   3.689   3.528   9.093 -0.5130  0.0635  0.2695
 2996SOL    HW120624   3.643   3.609   9.114 -0.1073 -0.3888  2.8938
 2996SOL    HW220625   3.755   3.539   9.162 -1.0297  0.0077  0.7680
 2997SOL     OW20626   3.899   3.096  15.770 -0.0853  0.1492  0.4929
 2997SOL    HW120627   3.941   3.058  15.693 -0.1526  0.7527  0.1590
 2997SOL    HW220628   3.810   3.064  15.761 -0.6940  2.3280 -1.0626
 2998SOL     OW20629   3.243   2.253  13.397 -0.0522 -0.0561  0.4396
 2998SOL    HW120630   3.203   2.286  13.316 -2.4537  0.0774  1.6944
 2998SOL    HW220631   3.167   2.230  13.450 -0.9761  0.0197 -0.8363
 2999SOL     OW20632   0.809   2.284  10.439  0.0695 -0.2229  0.1773
 2999SOL    HW120633   0.894   2.267  10.399  0.7664  0.2828  1.4248
 2999SOL    HW220634   0.831   2.325  10.523  1.8057 -2.4639  0.8147
 3000SOL     OW20635   3.687   4.021   7.715 -0.4310  0.4226 -0.0808
 3000SOL    HW120636   3.708   3.928   7.723  1.7350  0.7606 -1.8124
 3000SOL    HW220637   3.601   4.012   7.756 -1.0901  2.1877 -1.0629
 3001SOL     OW20638   1.828   2.717   6.374  0.2886 -0.2318  0.2298
 3001SOL    HW120639   1.752   2.674   6.414  0.0730  1.9535  2.1625
 3001SOL    HW220640   1.898   2.682   6.429 -0.0567  1.5537  1.8240
 3002SOL     OW20641   0.166   0.338  10.590 -0.0369  0.2420 -0.4564
 3002SOL    HW120642   0.081   0.321  10.631  1.3764  0.3408  2.4539
 3002SOL    HW220643   0.161   0.289  10.507 -0.5863 -0.4832  0.0040
 3003SOL     OW20644   4.105   4.104   4.138 -0.3997 -0.1067  0.1858
 3003SOL    HW120645   4.197   4.082   4.120  0.1009  0.6474  1.8073
 3003SOL    HW220646   4.112   4.142   4.226 -0.9024 -0.6744  0.4701
 3004SOL     OW20647   3.431   1.739  10.890 -0.2746 -0.5926 -0.0510
 3004SOL    HW120648   3.385   1.796  10.951  1.0015 -0.5519  0.8800
 3004SOL    HW220649   3.424   1.648  10.919  2.1300 -1.0417 -0.8334
 3005SOL     OW20650   4.525   2.201   0.946 -0.9393  0.2297 -0.1697
 3005SOL    HW120651   4.563   2.288   0.934  0.2778 -0.5138 -1.8037
 3005SOL    HW220652   4.490   2.175   0.860  0.6625 -1.1185 -0.4198
 3006SOL     OW20653   0.159   1.833   6.785 -0.0958  0.4635  0.0503
 3006SOL    HW120654   0.177   1.886   6.707  1.3156 -1.0384 -0.6548
 3006SOL    HW220655   0.153   1.753   6.733 -0.4584  1.2691 -1.1654
 3007SOL     OW20656   2.567   2.425  13.481 -0.3240  0.6994 -0.0132
 3007SOL    HW120657   2.496   2.484  13.456 -0.2638  0.9163  0.3146
 3007SOL    HW220658   2.531   2.346  13.442  1.3887  0.4097 -1.0358
 3008SOL     OW20659   2.241   3.889  15.957  0.6391  0.4987  0.4263
 3008SOL    HW120660   2.317   3.842  15.992 -0.4495 -2.5783 -1.3404
 3008SOL    HW220661   2.255   3.891  15.863 -1.4445 -0.6355  0.0940
 3009SOL     OW20662   3.811   2.776   1.777  0.5434 -0.0837 -0.0891
 3009SOL    HW120663   3.744   2.845   1.768 -0.9223 -1.5805 -0.6944
 3009SOL    HW220664   3.785   2.737   1.694 -2.2348  1.2068  0.1631
 3010SOL     OW20665   3.431   1.906   6.181  0.1779  0.0087 -0.8760
 3010SOL    HW120666   3.472   1.982   6.142 -0.2020  1.2586  1.1395
 3010SOL    HW220667   3.353   1.894   6.127 -1.0766  0.1553  0.8768
 3011SOL     OW20668   0.643   3.118  16.035 -0.2174  0.1079 -0.1011
 3011SOL    HW120669   0.655   3.136  15.942  2.0937 -1.8473 -0.2059
 3011SOL    HW220670   0.647   3.023  16.026 -0.6091  0.0238  0.5904
 3012SOL     OW20671   3.890   1.827   2.863 -0.1736  0.4630 -0.4523
 3012SOL    HW120672   3.841   1.897   2.906 -1.2178  0.3195 -1.4028
 3012SOL    HW220673   3.895   1.870   2.777  0.4708  1.5303  0.1258
 3013SOL     OW20674   2.456   0.491   2.167 -0.9186 -0.4507  0.0453
 3013SOL    HW120675   2.463   0.432   2.242  1.9586 -1.1815 -0.7840
 3013SOL    HW220676   2.498   0.447   2.092  0.0651 -0.3798  0.5512
 3014SOL     OW20677   0.442   1.226   6.684  0.2258 -0.4417 -0.7746
 3014SOL    HW120678   0.378   1.266   6.625 -1.5308 -2.1147 -0.0023
 3014SOL    HW220679   0.527   1.263   6.658  1.1001 -1.3856  0.7167
 3015SOL     OW20680   3.422   1.390   5.294  0.5378  0.7145  0.2077
 3015SOL    HW120681   3.340   1.370   5.248 -1.2940  0.1262  3.7488
 3015SOL    HW220682   3.474   1.377   5.215  0.0896 -1.5969  0.2884
 3016SOL     OW20683   0.171   0.414   4.370 -0.1712  0.7171 -0.5285
 3016SOL    HW120684   0.161   0.452   4.458 -0.1485  0.0705 -0.2506
 3016SOL    HW220685   0.137   0.488   4.319  0.0408  2.2643  1.5837
 3017SOL     OW20686   1.819   0.444   6.043 -0.1210  0.0734  0.3295
 3017SOL    HW120687   1.783   0.389   6.113 -0.8868 -0.6700 -0.6456
 3017SOL    HW220688   1.759   0.518   6.035  0.5194  0.8114  2.4145
 3018SOL     OW20689   0.858   0.451   4.770 -0.5556 -0.2531 -0.2633
 3018SOL    HW120690   0.867   0.472   4.677 -1.8384 -2.0527 -0.8038
 3018SOL    HW220691   0.763   0.451   4.784 -0.0444 -2.8325  3.3290
 3019SOL     OW20692   3.542   0.090  16.070 -0.3726 -0.3893 -0.1312
 3019SOL    HW120693   3.544   0.018  16.133  0.2959 -1.4763 -1.3955
 3019SOL    HW220694   3.595   0.153  16.119 -1.3791 -0.1756  0.6798
 3020SOL     OW20695   2.214   2.461   5.125 -0.0026  0.1987 -0.0038
 3020SOL    HW120696   2.307   2.480   5.129  0.1467 -0.5055 -0.0471
 3020SOL    HW220697   2.182   2.540   5.081  0.4501  0.3846  0.0024
 3021SOL     OW20698   1.469   3.404   4.916  0.0933  0.1150 -0.2951
 3021SOL    HW120699   1.499   3.412   4.826  1.4101 -1.9419 -0.0440
 3021SOL    HW220700   1.524   3.327   4.934  0.6262  0.4827 -0.3528
 3022SOL     OW20701   1.864   3.599   4.844  0.1212 -0.7704  0.2432
 3022SOL    HW120702   1.885   3.537   4.914  0.1611  0.3497  1.2154
 3022SOL    HW220703   1.878   3.553   4.761 -1.6512 -1.9958  0.6178
 3023SOL     OW20704   1.250   1.982   3.622 -0.3707  0.3974 -0.1733
 3023SOL    HW120705   1.228   2.045   3.690 -1.0294 -0.1088  0.0839
 3023SOL    HW220706   1.224   1.900   3.663 -1.0181 -0.0266 -1.4494
 3024SOL     OW20707   0.219   3.866   9.153 -0.4649 -0.1747 -0.4421
 3024SOL    HW120708   0.198   3.868   9.247 -2.9071  1.4173 -1.0249
 3024SOL    HW220709   0.159   3.800   9.119 -1.5647  0.5945  0.0280
 3025SOL     OW20710   4.721   1.647  16.757  0.0389 -0.0331  0.3999
 3025SOL    HW120711   4.637   1.661  16.714 -0.3989 -0.0908  1.2236
 3025SOL    HW220712   0.045   1.668  16.690  0.5964  0.9420  1.2290
 3026SOL     OW20713   4.639   2.775   8.680  0.3476  0.2444 -0.6197
 3026SOL    HW120714   4.695   2.769   8.603  0.8084 -1.9356 -0.0922
 3026SOL    HW220715   4.560   2.820   8.648 -0.8294 -0.1297  1.7591
 3027SOL     OW20716   1.501   3.371  13.982  0.9493 -0.1295 -0.1916
 3027SOL    HW120717   1.432   3.305  13.978 -0.7676  1.6274  0.3700
 3027SOL    HW220718   1.527   3.361  13.890  0.0029 -0.1365 -0.4512
 3028SOL     OW20719   3.912   1.846   5.373 -0.0040 -0.3881  0.6329
 3028SOL    HW120720   3.886   1.811   5.458 -2.1124 -0.2644  0.0309
 3028SOL    HW220721   3.890   1.777   5.311 -0.5295  0.2451  0.1119
 3029SOL     OW20722   1.301   2.240   2.747 -0.3483 -0.1447  0.0670
 3029SOL    HW120723   1.282   2.219   2.656 -0.6057 -0.2226  0.1372
 3029SOL    HW220724   1.384   2.193   2.754 -1.0336 -1.0727  1.9952
 3030SOL     OW20725   3.538   3.093   2.634  0.3042  0.6233 -0.1258
 3030SOL    HW120726   3.604   3.162   2.635  0.2517  0.6733 -0.1262
 3030SOL    HW220727   3.454   3.132   2.654 -0.1111  0.3114 -1.2226
 3031SOL     OW20728   0.999   0.105  10.521  0.3849 -0.3403  0.7181
 3031SOL    HW120729   1.041   0.098  10.606  1.8133 -1.8236 -0.0963
 3031SOL    HW220730   0.978   0.198  10.511 -0.1783 -0.4896  0.4755
 3032SOL     OW20731   4.715   4.096  16.731 -0.5064  0.5065 -0.3859
 3032SOL    HW120732   4.663   4.161  16.683 -0.1353  0.7694 -0.4320
 3032SOL    HW220733   4.707   4.024  16.670  0.7426  1.3863 -1.5657
 3033SOL     OW20734   3.783   0.061   9.863  0.6403 -0.1707  0.6251
 3033SOL    HW120735   3.846   0.002   9.905  2.8142  0.5341 -1.6695
 3033SOL    HW220736   3.739   0.004   9.800  3.0919  0.7550 -1.9208
 3034SOL     OW20737   3.287   1.578  12.635 -0.1123 -0.0928  0.0720
 3034SOL    HW120738   3.296   1.647  12.702 -2.2615 -2.2571  2.6338
 3034SOL    HW220739   3.232   1.628  12.575 -0.7441  2.4407  2.7600
 3035SOL     OW20740   3.575   2.509   2.971  0.2063  0.0268  0.2529
 3035SOL    HW120741   3.622   2.426   2.969  0.1280  0.0290 -1.5225
 3035SOL    HW220742   3.637   2.575   3.004 -0.7618  0.7374  0.6570
 3036SOL     OW20743   4.433   0.993   1.257 -0.1414 -0.2647  0.3690
 3036SOL    HW120744   4.528   0.994   1.246 -0.2299  1.7181 -0.1564
 3036SOL    HW220745   4.412   1.065   1.198 -0.2300 -1.3333 -0.9194
 3037SOL     OW20746   0.414   1.178   2.807  0.0544  0.1417  0.3880
 3037SOL    HW120747   0.423   1.264   2.765 -0.8013 -0.7887 -1.6901
 3037SOL    HW220748   0.505   1.164   2.835  0.4183 -0.4378 -1.0613
 3038SOL     OW20749   0.838   0.152   4.357  0.0955 -0.0601  0.0181
 3038SOL    HW120750   0.875   0.078   4.308 -1.8771  0.1123 -1.7608
 3038SOL    HW220751   0.742   0.142   4.354 -0.0868  1.8655 -0.3042
 3039SOL     OW20752   2.178   3.742   1.861 -0.3789 -0.1856  0.6337
 3039SOL    HW120753   2.263   3.760   1.901 -0.5914  0.7278  0.6624
 3039SOL    HW220754   2.121   3.817   1.878  0.6566  0.8875 -0.6082
 3040SOL     OW20755   2.796   3.841   4.547  0.6711  0.0837  0.2008
 3040SOL    HW120756   2.776   3.904   4.616  0.5896  0.1102  0.1534
 3040SOL    HW220757   2.732   3.772   4.561  0.7480 -0.2844 -1.2891
 3041SOL     OW20758   0.604   4.109   6.497  0.5908 -0.5806 -0.4106
 3041SOL    HW120759   0.680   4.084   6.549 -0.8574 -0.1990  1.8510
 3041SOL    HW220760   0.538   4.073   6.557  1.4478  0.8239  1.3554
 3042SOL     OW20761   3.165   1.178   3.357 -0.3507  0.2796 -0.1338
 3042SOL    HW120762   3.129   1.176   3.268 -0.9408  0.5138  0.1019
 3042SOL    HW220763   3.181   1.084   3.367 -0.0378  0.3891  0.4366
 3043SOL     OW20764   3.845   1.012   2.875 -0.0791  0.0273  0.1643
 3043SOL    HW120765   3.912   0.962   2.829  0.0442  0.6075 -0.2893
 3043SOL    HW220766   3.894   1.077   2.925 -0.2572  2.5110 -2.8507
 3044SOL     OW20767   4.557   2.184   1.218  0.1178 -0.1557 -0.1708
 3044SOL    HW120768   4.648   2.214   1.209  0.2822 -0.7659 -0.4942
 3044SOL    HW220769   4.529   2.181   1.127 -0.4035  0.1139 -0.0192
 3045SOL     OW20770   4.436   0.090   5.724 -0.0784 -0.1902 -0.0687
 3045SOL    HW120771   4.389   0.172   5.734 -0.4054 -0.4976  0.9188
 3045SOL    HW220772   4.374   0.017   5.726 -0.9073  0.4201 -3.0452
 3046SOL     OW20773   2.095   2.910   3.912 -0.0966  0.5298  0.3342
 3046SOL    HW120774   2.173   2.858   3.896 -0.5930 -0.4402  1.1033
 3046SOL    HW220775   2.050   2.850   3.971 -0.2470  1.2706  0.9870
 3047SOL     OW20776   0.839   2.146   7.642  0.5380 -0.6311 -0.1669
 3047SOL    HW120777   0.799   2.116   7.724  1.0387  0.2394  0.3930
 3047SOL    HW220778   0.783   2.218   7.612  0.0975 -0.8269  0.1801
 3048SOL     OW20779   0.576   0.840   8.658 -0.0981 -0.1277  0.4955
 3048SOL    HW120780   0.647   0.850   8.722  1.9072 -1.5404 -1.4813
 3048SOL    HW220781   0.627   0.870   8.583 -1.9602 -0.1297 -0.7560
 3049SOL     OW20782   1.800   1.313  17.182  0.1085 -0.1381 -0.0335
 3049SOL    HW120783   1.725   1.329  17.240  1.3550  0.5928  1.3736
 3049SOL    HW220784   1.840   1.399  17.190 -5.3324  2.1718  2.2639
 3050SOL     OW20785   1.264   1.937   0.399 -0.0999  0.3590  0.7204
 3050SOL    HW120786   1.331   2.006   0.408 -1.6218  1.9640 -0.1420
 3050SOL    HW220787   1.196   1.975   0.454  1.6856  0.9609  2.5379
 3051SOL     OW20788   4.349   4.626   4.219 -0.4048 -0.5087  0.1579
 3051SOL    HW120789   4.314   4.659   4.137 -2.3880 -0.8503  0.8557
 3051SOL    HW220790   4.371   4.710   4.260 -0.5206  0.1774 -1.1992
 3052SOL     OW20791   3.779   1.196   5.383  0.0086 -0.4797  0.2046
 3052SOL    HW120792   3.745   1.141   5.312  0.7859 -0.0271 -0.5161
 3052SOL    HW220793   3.817   1.276   5.346  1.2666 -1.0076  0.3400
 3053SOL     OW20794   4.200   1.802  10.188  0.5485 -0.0868  0.3800
 3053SOL    HW120795   4.180   1.838  10.101 -0.9306 -0.3467  0.6231
 3053SOL    HW220796   4.125   1.753  10.221 -0.5595 -0.7383 -3.1232
 3054SOL     OW20797   4.213   2.706   1.001  0.1960  0.1770 -0.2473
 3054SOL    HW120798   4.208   2.762   1.079 -1.0910  2.6597 -2.0983
 3054SOL    HW220799   4.139   2.649   1.023  2.1521 -1.5166  1.8206
 3055SOL     OW20800   2.378   1.878   4.241 -0.2913  0.4689 -0.3520
 3055SOL    HW120801   2.306   1.914   4.293 -0.9874 -1.0680 -0.2404
 3055SOL    HW220802   2.345   1.894   4.152 -1.4463 -2.5392 -0.4765
 3056SOL     OW20803   0.310   4.178   2.320  0.5423 -0.4294  0.0102
 3056SOL    HW120804   0.399   4.202   2.345  0.5096 -0.6210  0.3046
 3056SOL    HW220805   0.314   4.179   2.224 -0.1517  0.1516 -0.0088
 3057SOL     OW20806   2.557   2.903   2.585 -0.1565  0.2203  0.3938
 3057SOL    HW120807   2.549   2.814   2.552 -3.0886  0.4852  0.4230
 3057SOL    HW220808   2.649   2.905   2.611  0.6433  0.4375 -2.4952
 3058SOL     OW20809   0.691   1.890   6.335  0.6096 -0.3327 -0.1860
 3058SOL    HW120810   0.612   1.877   6.283  0.1981  0.9117  0.1274
 3058SOL    HW220811   0.659   1.945   6.407 -0.8097  1.1386 -1.9338
 3059SOL     OW20812   4.579   4.273   6.147  0.2279 -0.9646  0.0207
 3059SOL    HW120813   4.553   4.364   6.163  0.4605 -0.9843  0.5007
 3059SOL    HW220814   4.518   4.212   6.187 -0.2598  1.6872  3.3342
 3060SOL     OW20815   4.449   0.892   6.618  0.2610 -0.0336  0.5875
 3060SOL    HW120816   4.484   0.971   6.577 -3.3752  1.7937  0.9553
 3060SOL    HW220817   4.410   0.859   6.537  2.4704 -1.2883  0.0365
 3061SOL     OW20818   4.312   0.488   4.470 -0.4596  0.2237 -0.2963
 3061SOL    HW120819   4.258   0.562   4.444 -0.4325  0.2382 -0.3113
 3061SOL    HW220820   4.242   0.424   4.483 -0.4640  0.0580 -1.1927
 3062SOL     OW20821   1.322   3.694   8.615 -0.5050 -0.0102  0.3702
 3062SOL    HW120822   1.415   3.691   8.638 -0.9042 -1.4556  1.8188
 3062SOL    HW220823   1.314   3.602   8.590 -0.4970  0.3207 -0.8259
 3063SOL     OW20824   2.992   1.210   6.946 -0.2130 -0.3773  0.4627
 3063SOL    HW120825   2.901   1.179   6.939  0.2240 -1.9332  1.5882
 3063SOL    HW220826   2.986   1.304   6.959 -0.6352 -0.6845  2.5658
 3064SOL     OW20827   4.726   4.611   3.504 -0.2758 -0.1030  0.1167
 3064SOL    HW120828   0.037   4.530   3.494  0.0252 -0.1441  1.9471
 3064SOL    HW220829   4.700   4.606   3.596 -1.9644  1.4557 -0.2812
 3065SOL     OW20830   3.026   3.002  15.442 -0.4946 -0.5479 -0.1208
 3065SOL    HW120831   3.025   2.932  15.508  2.5221 -0.8839 -0.4494
 3065SOL    HW220832   3.032   2.964  15.354  1.0984 -2.5929  0.8650
 3066SOL     OW20833   2.281   1.487  17.609  0.2234 -0.4286  0.9766
 3066SOL    HW120834   2.325   1.468  17.692 -1.5198 -0.1756  1.9497
 3066SOL    HW220835   2.301   1.580  17.607 -0.1361 -0.3520  0.8514
 3067SOL     OW20836   0.634   2.969   9.699 -0.0738  0.1304 -0.4334
 3067SOL    HW120837   0.621   3.063   9.683  0.9296  0.3326 -0.0179
 3067SOL    HW220838   0.654   2.929   9.614  0.9998  1.5154 -0.8252
 3068SOL     OW20839   0.555   2.952   2.550 -0.1630  0.0237 -0.1672
 3068SOL    HW120840   0.538   2.942   2.644 -0.3338  0.6038 -0.1357
 3068SOL    HW220841   0.480   2.911   2.507 -0.4164 -1.2667  1.5133
 3069SOL     OW20842   0.358   4.702  13.613 -0.7701 -0.2909  0.2695
 3069SOL    HW120843   0.289   4.686  13.548 -1.6950 -1.5747  1.5754
 3069SOL    HW220844   0.376   4.610  13.629  1.2631 -0.1447 -1.1864
 3070SOL     OW20845   2.414   2.846   1.385  0.0836 -0.0320  0.6649
 3070SOL    HW120846   2.400   2.759   1.421  2.7284 -0.2012  1.2974
 3070SOL    HW220847   2.509   2.840   1.376 -0.0136 -0.0237 -0.3143
 3071SOL     OW20848   1.666   2.306   2.625 -0.0868 -0.3893 -0.2629
 3071SOL    HW120849   1.710   2.391   2.627 -0.7402 -0.0505 -0.1564
 3071SOL    HW220850   1.685   2.264   2.541 -0.3216 -2.2970  0.6505
 3072SOL     OW20851   4.003   3.843   5.430 -0.1277  0.7848 -0.0247
 3072SOL    HW120852   4.034   3.753   5.415  0.3346  0.9023  0.2407
 3072SOL    HW220853   3.963   3.862   5.345 -2.7670 -0.0587  1.0315
 3073SOL     OW20854   3.423   1.053   6.272  0.2457  0.2238 -0.1719
 3073SOL    HW120855   3.469   1.080   6.352 -1.4430  0.6862  0.6564
 3073SOL    HW220856   3.339   1.019   6.304  2.0659 -3.7721  0.3764
 3074SOL     OW20857   1.624   0.136   6.461 -0.8235 -0.2453  0.7035
 3074SOL    HW120858   1.654   0.049   6.487  0.6899 -0.1220 -0.6523
 3074SOL    HW220859   1.679   0.199   6.507 -1.4388  0.0190  1.0770
 3075SOL     OW20860   4.050   0.091   0.430  0.3675 -0.1358 -0.3468
 3075SOL    HW120861   4.124   0.040   0.463 -0.5301 -0.7100  0.8203
 3075SOL    HW220862   4.074   0.182   0.417  1.2758 -0.5010 -1.2119
 3076SOL     OW20863   0.353   0.411   2.323 -0.0322 -0.2833  0.2398
 3076SOL    HW120864   0.389   0.476   2.384  1.1121  0.1760 -0.9274
 3076SOL    HW220865   0.336   0.469   2.248 -2.1376  1.2267  1.8671
 3077SOL     OW20866   2.190   1.299   0.560  0.1930  0.1643 -0.4266
 3077SOL    HW120867   2.248   1.259   0.625  0.0752  0.0738 -0.3780
 3077SOL    HW220868   2.186   1.225   0.500  0.0908 -0.8475  0.8324
 3078SOL     OW20869   1.525   4.254  12.942 -0.2174 -0.2901  0.1500
 3078SOL    HW120870   1.597   4.316  12.953  0.4576 -0.9021 -0.7217
 3078SOL    HW220871   1.586   4.186  12.912 -0.5562  0.2384 -1.7783
 3079SOL     OW20872   2.653   3.140   4.164  0.6522  0.0317 -0.0808
 3079SOL    HW120873   2.615   3.071   4.111  0.5717 -0.7235  0.9654
 3079SOL    HW220874   2.643   3.119   4.257  1.1378 -0.4116 -0.1299
 3080SOL     OW20875   3.075   2.896   2.277 -0.7501 -0.2056 -0.6213
 3080SOL    HW120876   3.003   2.943   2.318  0.0706  1.3887 -1.0054
 3080SOL    HW220877   3.044   2.886   2.187  0.2583 -1.7872 -0.7999
 3081SOL     OW20878   1.930   0.222   9.266 -0.5950  0.2497  0.4228
 3081SOL    HW120879   1.944   0.136   9.225 -1.2363  0.9326 -1.2423
 3081SOL    HW220880   1.901   0.186   9.350 -0.4915  0.1107  0.3995
 3082SOL     OW20881   0.333   0.861   7.140  0.0982 -0.1207  0.1084
 3082SOL    HW120882   0.273   0.787   7.151  0.6325 -0.4654  0.6661
 3082SOL    HW220883   0.407   0.815   7.101 -1.2497 -1.9464 -0.2993
 3083SOL     OW20884   0.855   0.364   1.338  0.2904 -0.0771  0.3791
 3083SOL    HW120885   0.917   0.423   1.382  1.9077 -1.0665 -0.5503
 3083SOL    HW220886   0.785   0.335   1.397  0.8892  0.4361  1.3437
 3084SOL     OW20887   2.357   2.136   7.357  0.0226  0.5230 -0.0137
 3084SOL    HW120888   2.328   2.213   7.405  0.5814  1.5003 -1.2547
 3084SOL    HW220889   2.301   2.148   7.280  0.0570  0.0213 -0.1201
 3085SOL     OW20890   0.413   0.229  13.551  0.6002  0.0939 -0.0818
 3085SOL    HW120891   0.450   0.206  13.466 -0.8737  1.7439 -1.1771
 3085SOL    HW220892   0.395   0.146  13.595  2.3328 -0.5655 -0.5946
 3086SOL     OW20893   0.502   3.081   4.410  0.2993  0.0659  0.2628
 3086SOL    HW120894   0.533   3.002   4.453 -1.7232 -1.3742 -0.9404
 3086SOL    HW220895   0.468   3.058   4.324  0.7911 -0.5415  0.2300
 3087SOL     OW20896   3.037   2.783   2.711 -0.0334 -0.5931  0.4974
 3087SOL    HW120897   3.008   2.693   2.724  0.7259 -1.2009 -2.0581
 3087SOL    HW220898   3.101   2.766   2.642 -1.0211 -1.6058 -0.1591
 3088SOL     OW20899   4.302   2.571   2.120 -0.7107  0.8164 -0.0654
 3088SOL    HW120900   4.381   2.607   2.080  0.9796  0.3029  2.7473
 3088SOL    HW220901   4.255   2.532   2.046  0.2738 -2.1365  0.8746
 3089SOL     OW20902   4.591   3.068   5.342  0.1115  0.2986 -0.0547
 3089SOL    HW120903   4.510   3.038   5.381 -0.3307  1.0870 -0.3672
 3089SOL    HW220904   4.602   2.991   5.286 -1.3571  1.8031 -2.3900
 3090SOL     OW20905   2.674   0.386   5.177 -0.4038  0.5950  0.0141
 3090SOL    HW120906   2.589   0.411   5.213 -0.4892 -0.0879  0.2834
 3090SOL    HW220907   2.697   0.457   5.117 -0.3803 -0.2239 -0.9292
 3091SOL     OW20908   2.069   2.584  13.510  0.5480  0.1092 -0.0549
 3091SOL    HW120909   2.053   2.620  13.597 -0.3508 -1.5752  0.4867
 3091SOL    HW220910   2.005   2.626  13.452 -0.5627 -1.3390  0.0987
 3092SOL     OW20911   0.998   3.014   9.735  0.2283  0.1716  0.1258
 3092SOL    HW120912   0.916   3.041   9.778 -1.0252 -1.7048 -1.0822
 3092SOL    HW220913   0.989   2.922   9.757 -2.5212  0.4182  0.1359
 3093SOL     OW20914   2.603   0.493   6.421  0.7545  0.0667 -0.1441
 3093SOL    HW120915   2.647   0.526   6.343 -0.3776  2.8281  0.3859
 3093SOL    HW220916   2.665   0.439   6.470  0.7271 -0.1148 -0.3065
 3094SOL     OW20917   0.588   3.928   5.923  0.0848  0.0888  0.0308
 3094SOL    HW120918   0.676   3.933   5.886  0.4718  0.9647  1.0794
 3094SOL    HW220919   0.603   3.870   5.998 -1.7944  1.5148  1.5149
 3095SOL     OW20920   2.909   4.254  14.007  0.0097  0.4146 -0.2316
 3095SOL    HW120921   2.814   4.261  14.003  0.1197  1.7594 -0.4156
 3095SOL    HW220922   2.921   4.167  13.967  3.4013 -0.6464  3.1405
 3096SOL     OW20923   1.982   1.556   6.577  0.1063  0.9943 -0.1836
 3096SOL    HW120924   1.967   1.580   6.486 -1.4514 -0.4464 -0.3051
 3096SOL    HW220925   2.074   1.535   6.560  0.4575  0.3594  2.4562
 3097SOL     OW20926   3.812   2.158  14.567  0.3026  0.4201  0.6907
 3097SOL    HW120927   3.778   2.095  14.630  1.9396 -0.6412  0.5285
 3097SOL    HW220928   3.858   2.105  14.501 -0.8054  2.5052 -1.7407
 3098SOL     OW20929   3.002   0.350   2.250  0.7969 -0.3458 -0.2905
 3098SOL    HW120930   2.920   0.394   2.225  1.0526 -0.3835 -1.1816
 3098SOL    HW220931   2.989   0.340   2.344  0.1682  2.5707 -0.0459
 3099SOL     OW20932   0.080   2.960   7.883  0.0203 -0.8657  0.4683
 3099SOL    HW120933   0.118   2.944   7.797  0.2681 -0.3363  0.4809
 3099SOL    HW220934   4.735   3.000   7.866  0.6257 -0.0622 -0.6695
 3100SOL     OW20935   2.335   3.250  13.494  0.2427 -0.2807 -0.0102
 3100SOL    HW120936   2.245   3.272  13.518  0.7052  0.9807  0.5533
 3100SOL    HW220937   2.388   3.325  13.522  2.0554 -1.4388 -0.2773
 3101SOL     OW20938   2.956   4.665   5.053  0.2989  0.0161 -0.1078
 3101SOL    HW120939   3.006   4.691   4.976  0.1333  0.2236 -0.1439
 3101SOL    HW220940   2.866   4.680   5.026  0.0171 -1.3926  0.0427
 3102SOL     OW20941   3.965   3.358  15.539  0.0737 -0.7262  0.4057
 3102SOL    HW120942   3.912   3.419  15.590  0.4712  0.1348 -0.1933
 3102SOL    HW220943   3.930   3.271  15.558 -3.9958  0.9233  0.3140
 3103SOL     OW20944   4.334   0.185   3.458  0.2640  0.5683  0.2173
 3103SOL    HW120945   4.361   0.234   3.381 -0.1034 -2.5104 -1.8918
 3103SOL    HW220946   4.251   0.225   3.485  0.0659  0.8660 -0.8668
 3104SOL     OW20947   1.781   3.056   1.714  0.3898 -0.2169  0.3357
 3104SOL    HW120948   1.777   3.133   1.657  0.3485 -1.0592 -0.7940
 3104SOL    HW220949   1.821   3.072   1.800  1.2735  0.4055 -0.1908
 3105SOL     OW20950   2.361   3.989   2.615  0.3761 -0.6954 -0.0086
 3105SOL    HW120951   2.412   4.047   2.558 -2.0258 -1.0598 -2.5044
 3105SOL    HW220952   2.432   3.936   2.652  1.7718  0.6344 -0.7248
 3106SOL     OW20953   2.996   3.416  13.495  0.1060  0.1092  0.3374
 3106SOL    HW120954   2.902   3.411  13.511 -0.1966  0.9544 -1.2706
 3106SOL    HW220955   3.010   3.511  13.490 -2.2709  0.6356  3.2667
 3107SOL     OW20956   4.006   4.178  17.521 -0.2700  0.3288  0.1911
 3107SOL    HW120957   3.984   4.271  17.531 -0.8755  0.5047 -2.5216
 3107SOL    HW220958   3.938   4.141  17.465 -0.1893 -0.2542  0.4878
 3108SOL     OW20959   1.384   1.460  15.368  0.5476 -0.2558  0.1819
 3108SOL    HW120960   1.381   1.487  15.277 -2.4727  1.4010  0.7894
 3108SOL    HW220961   1.404   1.534  15.425  1.2008  1.3446 -2.1479
 3109SOL     OW20962   1.945   1.357   3.455 -0.4990  0.2459  0.1582
 3109SOL    HW120963   1.890   1.280   3.469 -0.9473  0.3745 -0.8443
 3109SOL    HW220964   1.884   1.428   3.477  0.9879  1.8942 -1.0355
 3110SOL     OW20965   3.503   0.615  13.834 -0.3207 -0.5081 -0.7135
 3110SOL    HW120966   3.453   0.534  13.844  2.8216 -2.2375  1.2088
 3110SOL    HW220967   3.460   0.679  13.891 -1.7201 -2.1388  0.0481
 3111SOL     OW20968   3.384   2.578   6.297  0.3630 -0.0291  0.2301
 3111SOL    HW120969   3.473   2.580   6.332  0.1690 -2.5302  0.9088
 3111SOL    HW220970   3.338   2.522   6.360 -0.4644  0.4693  0.0739
 3112SOL     OW20971   3.434   4.108   7.303 -0.8152 -0.1647  0.4478
 3112SOL    HW120972   3.450   4.202   7.298 -0.7177 -0.1659  0.7760
 3112SOL    HW220973   3.526   4.082   7.299 -1.0878 -0.9749 -0.6661
 3113SOL     OW20974   0.987   0.275   2.130  0.1773  0.2716 -0.5327
 3113SOL    HW120975   1.044   0.207   2.095  0.4477  0.9185 -1.3745
 3113SOL    HW220976   0.952   0.222   2.200 -3.4717  0.6323 -2.1009
 3114SOL     OW20977   1.858   0.913   8.313 -0.1526  0.2656  0.2721
 3114SOL    HW120978   1.844   0.819   8.302  2.0648  0.0357 -0.4842
 3114SOL    HW220979   1.795   0.936   8.381 -0.8202 -3.3938  0.9021
 3115SOL     OW20980   3.377   0.971   4.045  0.0233  0.1079  0.2591
 3115SOL    HW120981   3.296   0.921   4.031  1.3498 -1.7225 -0.7992
 3115SOL    HW220982   3.418   0.914   4.111 -1.0901  0.3843  1.1942
 3116SOL     OW20983   2.589   3.812   2.187  0.0361 -0.0144 -0.5568
 3116SOL    HW120984   2.667   3.867   2.174 -1.0506  1.3124 -1.4671
 3116SOL    HW220985   2.597   3.768   2.272 -1.6275  0.5788 -0.0988
 3117SOL     OW20986   1.642   3.970   1.541  0.0866 -0.7757  0.5620
 3117SOL    HW120987   1.555   3.950   1.507  0.0014  1.8018 -0.7242
 3117SOL    HW220988   1.622   4.028   1.615 -2.7535 -1.1379  0.0574
 3118SOL     OW20989   3.177   0.063   0.696 -0.0255 -0.1892 -0.4208
 3118SOL    HW120990   3.232   0.041   0.771 -0.2618 -0.2108 -0.2515
 3118SOL    HW220991   3.192   0.157   0.697  1.6304 -0.4426 -4.0572
 3119SOL     OW20992   4.735   0.243   6.609 -0.4447 -0.1083 -0.5093
 3119SOL    HW120993   4.701   0.211   6.692 -1.9168 -0.2608 -1.1645
 3119SOL    HW220994   4.682   0.321   6.591 -0.5338  0.3766  1.8968
 3120SOL     OW20995   4.309   3.223   9.967  0.6147  0.4989  0.5924
 3120SOL    HW120996   4.302   3.164  10.043 -0.7184  1.5841  1.3252
 3120SOL    HW220997   4.215   3.230   9.950  0.6439 -1.6008 -0.4337
 3121SOL     OW20998   2.931   0.565  16.438 -0.2994  0.1132 -0.3202
 3121SOL    HW120999   2.895   0.609  16.362  2.2247  0.2552 -1.4346
 3121SOL    HW221000   2.891   0.479  16.428 -0.5253  0.2292 -0.4091
 3122SOL     OW21001   4.410   1.718  16.060  0.0400 -0.4665 -0.2176
 3122SOL    HW121002   4.441   1.797  16.016  0.4226 -0.0624  0.7783
 3122SOL    HW221003   4.380   1.654  15.995 -1.1678  1.3821 -1.4812
 3123SOL     OW21004   0.010   1.591   0.095  0.1601 -0.1874 -0.0647
 3123SOL    HW121005   0.084   1.587   0.156 -0.1400  0.6289  0.3433
 3123SOL    HW221006   0.050   1.542   0.022 -2.3928 -1.2608 -0.7438
 3124SOL     OW21007   1.926   4.562   7.381  0.1192  0.0620 -0.6452
 3124SOL    HW121008   1.928   4.582   7.287 -1.6974  1.3946 -0.3991
 3124SOL    HW221009   1.853   4.616   7.411  0.8582  1.4687 -1.4169
 3125SOL     OW21010   3.811   1.196   5.787 -0.1244  0.1580 -0.7558
 3125SOL    HW121011   3.731   1.143   5.789  0.2539 -0.3661  0.7613
 3125SOL    HW221012   3.772   1.281   5.807 -2.8345 -1.4554  0.7712
 3126SOL     OW21013   4.375   3.661  15.670  0.5690  0.3221 -0.2182
 3126SOL    HW121014   4.415   3.597  15.729  0.7560 -0.8726 -1.6322
 3126SOL    HW221015   4.309   3.611  15.623  1.4598 -1.0277 -0.0318
 3127SOL     OW21016   2.295   1.172   3.690  0.0045  0.5974  0.3968
 3127SOL    HW121017   2.252   1.097   3.649 -0.3041  1.8709 -1.6239
 3127SOL    HW221018   2.364   1.187   3.625  2.1951  0.8427  2.7973
 3128SOL     OW21019   4.533   0.299   6.351  0.2161  0.0976 -0.6798
 3128SOL    HW121020   4.467   0.244   6.393  1.9104 -0.2044  1.5537
 3128SOL    HW221021   4.558   0.358   6.422 -2.5261 -0.3185  0.6199
 3129SOL     OW21022   3.776   4.222   4.500 -0.0284 -0.0284  0.3751
 3129SOL    HW121023   3.845   4.157   4.510  2.3921  2.2138 -1.8935
 3129SOL    HW221024   3.830   4.271   4.438 -1.5045  1.0532 -0.0666
 3130SOL     OW21025   0.594   4.268   7.823 -0.1863  0.0302  0.2394
 3130SOL    HW121026   0.537   4.209   7.774  1.3934  1.1599 -2.9547
 3130SOL    HW221027   0.529   4.291   7.889  1.0020  0.0597  1.4023
 3131SOL     OW21028   1.678   2.284   2.203 -0.2706  0.9241  0.2928
 3131SOL    HW121029   1.595   2.329   2.185  0.2156  1.1325 -1.3921
 3131SOL    HW221030   1.730   2.323   2.133 -0.6461 -0.3686 -0.6970
 3132SOL     OW21031   2.749   0.103   7.155 -0.4140 -0.2384  0.1636
 3132SOL    HW121032   2.820   0.071   7.211 -1.0319 -0.2983  0.9118
 3132SOL    HW221033   2.802   0.132   7.081 -0.7749 -2.4839 -0.9643
 3133SOL     OW21034   1.643   3.223   1.051  0.3203 -0.0356  0.8438
 3133SOL    HW121035   1.712   3.234   0.985 -0.4491 -2.0674 -0.2716
 3133SOL    HW221036   1.634   3.315   1.077 -0.2033 -0.1759  1.1617
 3134SOL     OW21037   1.437   4.633   4.163 -0.1778 -0.1151  0.2257
 3134SOL    HW121038   1.525   4.597   4.176  0.4062  1.4125  0.5153
 3134SOL    HW221039   1.430   4.701   4.230 -0.4729 -0.5544  0.6387
 3135SOL     OW21040   0.092   0.064   2.914  0.2572 -0.6132  0.5594
 3135SOL    HW121041   0.102   0.038   3.006  1.8520 -0.4502  0.4317
 3135SOL    HW221042   0.025   0.131   2.927  0.8481  0.6078 -2.7832
 3136SOL     OW21043   4.360   4.549   6.468  0.0827 -0.7991 -0.2056
 3136SOL    HW121044   4.421   4.509   6.406  0.1939 -2.9939  1.3173
 3136SOL    HW221045   4.281   4.556   6.415  0.2116  0.6146 -0.2155
 3137SOL     OW21046   2.588   3.829   2.696  0.1459 -0.0835 -0.2806
 3137SOL    HW121047   2.662   3.859   2.644  0.4173 -0.2076  0.0358
 3137SOL    HW221048   2.635   3.770   2.756  0.5394 -0.1202 -0.6244
 3138SOL     OW21049   4.372   2.224   8.802 -0.3383  0.3228 -0.1039
 3138SOL    HW121050   4.343   2.133   8.798 -0.6967  0.3258  2.2242
 3138SOL    HW221051   4.337   2.248   8.716  0.1591  1.2822 -0.0363
 3139SOL     OW21052   4.547   2.689   9.182 -0.1659 -0.1057  0.0318
 3139SOL    HW121053   4.525   2.601   9.150  1.1206 -0.5391  0.3060
 3139SOL    HW221054   4.479   2.748   9.151 -0.5947 -1.1855 -1.0915
 3140SOL     OW21055   4.082   0.322  14.992 -0.5387  0.2234  0.5981
 3140SOL    HW121056   4.046   0.410  14.998 -1.5283 -0.2512  1.5988
 3140SOL    HW221057   4.034   0.269  15.055 -1.9794 -1.1867 -1.6640
 3141SOL     OW21058   2.142   3.611   8.254  0.0217  0.0254  0.1116
 3141SOL    HW121059   2.139   3.526   8.211  0.2609  0.2562 -0.3718
 3141SOL    HW221060   2.147   3.670   8.178  0.5059 -1.2631 -0.8653
 3142SOL     OW21061   4.413   1.696   2.913 -0.0168  0.0390  0.2631
 3142SOL    HW121062   4.352   1.767   2.934  0.8344  0.1563  2.3622
 3142SOL    HW221063   4.398   1.642   2.990  1.2054  0.1277  0.5621
 3143SOL     OW21064   2.481   2.563  10.020 -0.2792 -0.7126 -0.0607
 3143SOL    HW121065   2.455   2.586  10.109 -4.8048  0.0508 -1.5966
 3143SOL    HW221066   2.558   2.509  10.038  0.3751  0.4220  0.5406
 3144SOL     OW21067   3.353   3.354   3.953 -0.1546 -0.1150  0.2294
 3144SOL    HW121068   3.303   3.425   3.994 -1.7286 -0.4969 -1.0379
 3144SOL    HW221069   3.274   3.302   3.938 -1.8587  3.1846 -2.3221
 3145SOL     OW21070   2.294   0.262  10.103 -0.1484 -0.4535  0.3518
 3145SOL    HW121071   2.319   0.330  10.165  0.3756  0.5934 -1.0094
 3145SOL    HW221072   2.200   0.278  10.090 -0.1055  1.1104  1.9738
 3146SOL     OW21073   2.049   2.982   7.654 -0.4180  0.5583  0.1200
 3146SOL    HW121074   1.972   3.017   7.698 -0.7295 -1.2662  1.0493
 3146SOL    HW221075   2.036   2.998   7.561  1.3505  0.2502 -0.1970
 3147SOL     OW21076   0.384   3.569   5.255 -0.3604 -0.0389 -0.4685
 3147SOL    HW121077   0.392   3.519   5.336  0.3387  0.3508 -0.2990
 3147SOL    HW221078   0.343   3.651   5.283  0.7273 -0.1697  1.4848
 3148SOL     OW21079   2.703   0.709   8.741 -0.3777  0.7368  0.3162
 3148SOL    HW121080   2.609   0.708   8.722 -0.4023 -0.3242  0.5026
 3148SOL    HW221081   2.705   0.723   8.835 -0.4131  1.1197  0.2616
 3149SOL     OW21082   1.246   2.957  10.101 -0.1489  0.3072 -0.0692
 3149SOL    HW121083   1.162   2.986  10.137 -0.3827 -0.9830  0.4293
 3149SOL    HW221084   1.260   3.027  10.037 -2.8605  0.1299 -0.8742
 3150SOL     OW21085   3.066   0.968   5.024 -0.1493  0.3723 -0.2662
 3150SOL    HW121086   2.989   1.016   5.055 -0.3190 -1.6140  2.3643
 3150SOL    HW221087   3.103   1.029   4.960 -1.6464 -2.1549 -3.5099
 3151SOL     OW21088   0.735   2.718  15.958 -0.4881 -0.4185  0.0760
 3151SOL    HW121089   0.775   2.647  15.906  1.0832 -0.0672  0.8237
 3151SOL    HW221090   0.816   2.769  15.961 -1.2184  0.6130  1.9452
 3152SOL     OW21091   4.075   3.413  12.462 -0.0929  0.5085  0.4273
 3152SOL    HW121092   3.983   3.421  12.434  0.9034  1.8293 -2.5199
 3152SOL    HW221093   4.071   3.375  12.549 -1.5948  2.4993  1.2189
 3153SOL     OW21094   4.400   2.236  11.530 -0.7258 -0.2115 -0.3286
 3153SOL    HW121095   4.435   2.294  11.463  0.0295 -0.4942 -0.1785
 3153SOL    HW221096   4.482   2.189  11.548  0.1740  0.8092 -1.7898
 3154SOL     OW21097   0.279   3.836   3.761 -0.6358  0.0100  0.5567
 3154SOL    HW121098   0.257   3.921   3.799 -0.4188 -0.4456  1.7052
 3154SOL    HW221099   0.306   3.793   3.842 -2.6531 -2.4703 -0.0899
 3155SOL     OW21100   3.116   4.432  11.239 -0.9726  0.0465 -0.5624
 3155SOL    HW121101   3.045   4.368  11.243  0.3750 -1.3784  0.3329
 3155SOL    HW221102   3.187   4.369  11.251 -2.0711 -1.2509 -0.9186
 3156SOL     OW21103   3.804   2.365   7.880 -0.1449 -0.2738  0.1924
 3156SOL    HW121104   3.753   2.335   7.956  0.9825  0.3563  1.1902
 3156SOL    HW221105   3.737   2.370   7.812 -0.5477  0.8441  0.6826
 3157SOL     OW21106   1.562   1.030   4.956  0.2819  0.7118 -0.5844
 3157SOL    HW121107   1.534   0.964   4.892 -0.6583  0.2994  0.2498
 3157SOL    HW221108   1.560   1.112   4.907  2.1233  0.7243 -0.6754
 3158SOL     OW21109   3.108   4.375  12.413  0.0733  0.0222 -0.1495
 3158SOL    HW121110   3.190   4.345  12.374  0.2572 -2.2903  2.0167
 3158SOL    HW221111   3.140   4.385  12.503  1.6459  0.0428 -0.7271
 3159SOL     OW21112   2.586   3.062  11.690 -0.0099 -0.2369  0.3359
 3159SOL    HW121113   2.544   2.980  11.663  0.3803 -0.7751  1.3641
 3159SOL    HW221114   2.620   3.095  11.607  1.8416 -1.3601  0.6382
 3160SOL     OW21115   3.817   3.661   8.819 -0.4006 -0.1594 -0.1169
 3160SOL    HW121116   3.821   3.737   8.761  0.5228  0.0706  0.2423
 3160SOL    HW221117   3.771   3.600   8.761 -1.2859 -0.9748  1.4439
 3161SOL     OW21118   2.294   0.983   6.937  0.3444  0.1217 -0.5176
 3161SOL    HW121119   2.348   1.006   7.013  0.2840 -1.2571 -0.0388
 3161SOL    HW221120   2.363   0.944   6.882 -0.3705 -1.5722 -0.2308
 3162SOL     OW21121   3.444   3.224   8.109 -0.5676 -0.3100  0.3096
 3162SOL    HW121122   3.411   3.140   8.078  1.1435 -1.4086  1.4683
 3162SOL    HW221123   3.382   3.250   8.177  2.0488  1.0052  2.2036
 3163SOL     OW21124   2.215   3.702  13.755  0.1412 -0.7102  0.5524
 3163SOL    HW121125   2.286   3.656  13.801  1.3351 -0.2588 -0.8520
 3163SOL    HW221126   2.261   3.766  13.701 -1.8943  1.7798  1.7612
 3164SOL     OW21127   2.802   3.472  15.849 -0.0086  0.0182 -0.0615
 3164SOL    HW121128   2.736   3.542  15.852  1.4271  1.5331 -3.2365
 3164SOL    HW221129   2.878   3.523  15.877  0.3512  0.4240 -1.7448
 3165SOL     OW21130   4.182   0.458   4.120 -0.2246 -0.1692 -0.1109
 3165SOL    HW121131   4.175   0.369   4.155 -0.1133 -0.0877  0.1181
 3165SOL    HW221132   4.207   0.503   4.200 -1.0015  0.4531 -0.2276
 3166SOL     OW21133   1.330   1.435   0.255 -0.3408  0.5293  0.4469
 3166SOL    HW121134   1.328   1.530   0.252  1.0533  0.5474  0.2025
 3166SOL    HW221135   1.253   1.429   0.197  0.8305 -0.6348 -0.9874
 3167SOL     OW21136   1.754   4.313   2.950  0.1500 -0.3934 -0.0475
 3167SOL    HW121137   1.831   4.330   3.005 -0.7360 -0.9123  1.3263
 3167SOL    HW221138   1.798   4.281   2.871  3.8514  4.2180  0.1286
 3168SOL     OW21139   2.275   4.612   2.419 -0.1991  0.0291 -0.4061
 3168SOL    HW121140   2.271   4.517   2.432  0.3374  0.2532  1.4093
 3168SOL    HW221141   2.248   4.606   2.327 -0.3436  1.2496 -0.4322
 3169SOL     OW21142   1.210   3.698   3.293 -0.1637 -0.3806 -0.0288
 3169SOL    HW121143   1.257   3.618   3.266  0.0324 -0.1090 -0.5010
 3169SOL    HW221144   1.134   3.648   3.322 -0.3116  1.0712  2.0329
 3170SOL     OW21145   1.759   1.957   6.130 -0.3352  0.1883  0.1796
 3170SOL    HW121146   1.769   1.920   6.218 -4.3687 -1.9491 -0.2939
 3170SOL    HW221147   1.824   2.027   6.135 -0.3736  0.1165  1.6631
 3171SOL     OW21148   0.365   2.303   2.713 -0.2635  0.0040 -0.7619
 3171SOL    HW121149   0.442   2.336   2.758 -0.6016  0.0531 -0.2127
 3171SOL    HW221150   0.305   2.377   2.709  0.4288  0.6014 -0.1279
 3172SOL     OW21151   3.084   2.001   4.841 -0.5870  0.2057  0.5394
 3172SOL    HW121152   3.019   2.058   4.800 -1.4606 -1.6902 -0.7417
 3172SOL    HW221153   3.028   1.928   4.867 -0.3287  0.1341  0.8904
 3173SOL     OW21154   2.039   3.140   8.839  0.1339  0.5057  0.5116
 3173SOL    HW121155   2.072   3.122   8.927  0.8426 -1.4587 -0.1413
 3173SOL    HW221156   2.072   3.063   8.791 -0.9047 -0.8674  2.0095
 3174SOL     OW21157   1.917   2.773   9.267  0.1226 -0.2418 -0.2161
 3174SOL    HW121158   1.830   2.745   9.296  0.7661 -2.3901 -0.3130
 3174SOL    HW221159   1.950   2.703   9.210 -0.2577 -0.6986  0.1259
 3175SOL     OW21160   4.428   0.018   8.181  0.3282 -0.1726 -0.2374
 3175SOL    HW121161   4.428   0.112   8.165  4.5208  0.0814  1.2278
 3175SOL    HW221162   4.359   0.003   8.245 -1.3576  2.4038 -1.4905
 3176SOL     OW21163   0.915   2.201   6.694 -0.8244 -0.1376 -0.3610
 3176SOL    HW121164   0.847   2.266   6.673 -0.8898  0.8154  2.7134
 3176SOL    HW221165   0.921   2.162   6.607  0.3276 -1.4535  0.3237
 3177SOL     OW21166   1.058   1.213   4.650 -0.1151 -0.0390 -0.0627
 3177SOL    HW121167   0.967   1.235   4.670  0.2495 -0.1393  1.6830
 3177SOL    HW221168   1.096   1.299   4.669  0.6114 -0.8672  2.3116
 3178SOL     OW21169   3.884   3.407   6.946  0.3518 -0.2454 -0.1325
 3178SOL    HW121170   3.854   3.336   7.002  0.0023 -0.2363 -0.3116
 3178SOL    HW221171   3.809   3.466   6.946  0.4554 -0.1139 -0.0577
 3179SOL     OW21172   0.057   3.312   6.231  0.1086 -0.0379  0.5306
 3179SOL    HW121173   0.001   3.366   6.175 -0.8282  1.6679  3.1809
 3179SOL    HW221174   0.100   3.387   6.271 -0.0263  1.0919 -1.4148
 3180SOL     OW21175   2.768   3.919   7.571 -0.5319  0.7419  0.0382
 3180SOL    HW121176   2.731   3.983   7.631 -0.3462 -0.0244  0.9796
 3180SOL    HW221177   2.859   3.944   7.555  0.3940 -1.9167  1.0165
 3181SOL     OW21178   2.721   4.038   6.173 -0.0730 -0.1502  0.2722
 3181SOL    HW121179   2.691   4.128   6.185  0.4401 -0.2364  2.1397
 3181SOL    HW221180   2.632   4.001   6.171  0.5305 -1.5449 -0.3320
 3182SOL     OW21181   1.785   0.563   5.032 -0.7519  0.0062  0.4080
 3182SOL    HW121182   1.879   0.560   5.020 -0.9536  0.2200 -1.1909
 3182SOL    HW221183   1.779   0.562   5.127 -0.8326 -0.0290  0.4033
 3183SOL     OW21184   0.334   3.465   5.776  0.3114 -0.3923  0.1944
 3183SOL    HW121185   0.425   3.443   5.799  2.5689  5.4288 -2.9012
 3183SOL    HW221186   0.291   3.381   5.786 -0.7193  0.1781  0.5042
 3184SOL     OW21187   4.319   1.006   8.029  0.2611  0.4840  0.0249
 3184SOL    HW121188   4.371   1.086   8.020  1.8195 -0.8094 -2.6601
 3184SOL    HW221189   4.265   1.021   7.952  0.0404  2.1766  0.5297
 3185SOL     OW21190   3.445   2.294  13.044 -0.1595  0.0069  0.7088
 3185SOL    HW121191   3.464   2.348  13.121 -2.0068  0.7272  0.6638
 3185SOL    HW221192   3.505   2.345  12.990 -0.8178  1.2781  1.1831
 3186SOL     OW21193   4.192   1.689  10.852  0.8498  0.9900  0.0244
 3186SOL    HW121194   4.225   1.611  10.807 -0.8479 -0.1961  0.8421
 3186SOL    HW221195   4.112   1.645  10.881  1.1107 -0.1263 -0.9613
 3187SOL     OW21196   1.809   1.888   7.044  0.0773  0.2862 -0.3739
 3187SOL    HW121197   1.780   1.937   7.122 -0.8979 -1.5443  0.4266
 3187SOL    HW221198   1.733   1.887   6.986  0.1955 -4.2175 -0.4274
 3188SOL     OW21199   0.650   2.780  13.366  0.2853 -0.7878  0.1906
 3188SOL    HW121200   0.678   2.702  13.414 -0.0730 -1.2883 -0.4291
 3188SOL    HW221201   0.678   2.846  13.431 -0.1455 -0.2794 -0.1419
 3189SOL     OW21202   1.757   0.285   2.043 -0.2264  0.3951 -0.5933
 3189SOL    HW121203   1.824   0.294   2.111  0.2502 -0.7364 -0.9185
 3189SOL    HW221204   1.737   0.371   2.007 -0.3731  0.5153 -0.2317
 3190SOL     OW21205   1.112   2.982   7.097  0.1397  0.2205  0.1757
 3190SOL    HW121206   1.074   2.953   7.180  1.1903 -2.9373 -0.4554
 3190SOL    HW221207   1.047   3.047   7.071 -1.3574 -1.0808  0.6517
 3191SOL     OW21208   2.380   1.786   9.237  0.2184 -0.0805  0.1772
 3191SOL    HW121209   2.339   1.704   9.211  2.1927 -1.8391  2.5729
 3191SOL    HW221210   2.329   1.861   9.207  0.8156  1.0580  2.0263
 3192SOL     OW21211   1.100   0.645   3.020 -0.2352  0.2666  0.5238
 3192SOL    HW121212   1.159   0.605   2.956 -1.4022 -1.1578  0.3247
 3192SOL    HW221213   1.121   0.738   3.020  0.5752  0.0738 -1.7326
 3193SOL     OW21214   1.330   3.559  17.114  0.9675  0.0312  0.6441
 3193SOL    HW121215   1.277   3.633  17.085  2.4976  0.8542 -0.0589
 3193SOL    HW221216   1.376   3.535  17.034  0.5288 -2.3497  1.1127
 3194SOL     OW21217   1.939   3.614   3.836 -0.0368  0.2101 -0.8150
 3194SOL    HW121218   1.918   3.541   3.894  0.9924 -1.6672 -2.8189
 3194SOL    HW221219   1.848   3.638   3.817 -0.0530  0.9558  0.2301
 3195SOL     OW21220   2.389   0.742   3.372 -0.1124 -0.6810 -0.1431
 3195SOL    HW121221   2.425   0.761   3.285 -0.8798  2.4214  0.2272
 3195SOL    HW221222   2.389   0.823   3.424  2.0572 -0.4969 -0.4183
 3196SOL     OW21223   3.228   3.212  12.677 -0.3231 -0.5553 -0.5296
 3196SOL    HW121224   3.186   3.282  12.627  1.3157  0.6375 -0.2156
 3196SOL    HW221225   3.159   3.169  12.728 -0.5233  1.5139  0.9363
 3197SOL     OW21226   3.260   1.953  13.155 -0.6312 -0.3406 -0.0473
 3197SOL    HW121227   3.218   2.008  13.221 -0.0642 -0.7006  0.6176
 3197SOL    HW221228   3.353   1.976  13.158 -0.8344  0.3200  1.2945
 3198SOL     OW21229   4.431   3.400   2.912  0.5231  0.5619 -0.5017
 3198SOL    HW121230   4.483   3.320   2.925 -1.9882 -0.6893  1.7240
 3198SOL    HW221231   4.354   3.386   2.966  1.5075  0.4289  0.8709
 3199SOL     OW21232   4.691   1.219   3.413 -0.3283  0.8481 -0.3410
 3199SOL    HW121233   4.642   1.166   3.350 -0.5380 -0.7915  1.1973
 3199SOL    HW221234   4.625   1.267   3.463  2.0697  2.1598  1.5939
 3200SOL     OW21235   4.513   1.101   4.703  0.0794  0.2682 -0.6990
 3200SOL    HW121236   4.511   1.178   4.646 -0.7669  1.2284  0.6134
 3200SOL    HW221237   4.581   1.044   4.668  0.2913  1.2683 -1.8928
 3201SOL     OW21238   3.044   1.751   0.105  0.0425  0.1560 -0.0124
 3201SOL    HW121239   3.029   1.811   0.032 -0.6071  1.5321  1.2587
 3201SOL    HW221240   3.089   1.808   0.167 -1.2156  0.9950  0.1226
 3202SOL     OW21241   3.198   1.166   8.542 -0.2345  0.1988  0.3945
 3202SOL    HW121242   3.109   1.144   8.516 -0.1712  1.6631 -1.1059
 3202SOL    HW221243   3.207   1.248   8.493 -0.0148 -1.1513 -1.8095
 3203SOL     OW21244   2.650   3.073   4.422  0.4908 -0.1826 -0.1362
 3203SOL    HW121245   2.563   3.072   4.462  1.0120 -1.5081  0.9457
 3203SOL    HW221246   2.698   3.015   4.481 -2.0836 -1.6559  0.4940
 3204SOL     OW21247   3.887   3.073  12.451 -0.5446 -0.9511 -0.1209
 3204SOL    HW121248   3.816   3.137  12.454 -1.4599 -2.0005  0.3562
 3204SOL    HW221249   3.849   2.998  12.405 -1.1382  0.3717 -1.7843
 3205SOL     OW21250   3.281   3.139   8.910  0.1749  0.7502  0.0876
 3205SOL    HW121251   3.292   3.136   9.005  1.9362 -2.8860 -0.2261
 3205SOL    HW221252   3.270   3.233   8.891  0.1079  0.8927  0.8234
 3206SOL     OW21253   2.450   2.399   6.063 -0.2066 -0.1291 -0.5649
 3206SOL    HW121254   2.432   2.435   5.977 -0.6291  1.5693  0.2413
 3206SOL    HW221255   2.534   2.352   6.056  0.0052 -0.0015  1.0220
 3207SOL     OW21256   1.780   3.160  10.353  0.0970 -0.1889 -0.0259
 3207SOL    HW121257   1.860   3.144  10.403 -1.5899 -0.5726  2.5945
 3207SOL    HW221258   1.708   3.114  10.397  0.3082 -0.5662 -0.0768
 3208SOL     OW21259   0.621   0.479   9.340  0.3317  0.8830  0.3560
 3208SOL    HW121260   0.705   0.481   9.295  0.6196 -1.4536  0.7887
 3208SOL    HW221261   0.584   0.401   9.297  3.2581 -0.1648 -0.2300
 3209SOL     OW21262   2.460   4.158   4.473 -1.0082 -0.6400  0.0089
 3209SOL    HW121263   2.527   4.109   4.427 -0.1971 -0.7798  1.3465
 3209SOL    HW221264   2.445   4.231   4.413 -0.9922 -1.4759 -0.9946
 3210SOL     OW21265   3.051   1.569   2.832 -0.5325 -1.1071 -0.3121
 3210SOL    HW121266   3.028   1.512   2.758 -0.8743  0.7151 -1.5885
 3210SOL    HW221267   3.082   1.648   2.789  0.5196 -0.9523  0.7313
 3211SOL     OW21268   3.510   2.929   7.231  0.0257 -0.2204  0.3488
 3211SOL    HW121269   3.482   2.967   7.314 -2.0363 -0.9665  0.0093
 3211SOL    HW221270   3.496   3.002   7.170  2.1721  0.9028  1.2214
 3212SOL     OW21271   4.199   2.873   5.995  0.2310 -0.0562 -0.4022
 3212SOL    HW121272   4.181   2.967   6.006 -0.0576 -0.3770  1.7695
 3212SOL    HW221273   4.156   2.836   6.071 -1.3084 -0.7492 -1.5967
 3213SOL     OW21274   4.151   0.422   7.530 -0.7591 -0.2607  0.8196
 3213SOL    HW121275   4.102   0.340   7.518 -1.0496  0.2393 -1.3357
 3213SOL    HW221276   4.135   0.435   7.624 -0.9848 -2.8120  1.1424
 3214SOL     OW21277   2.664   1.817   9.194 -0.1237  0.2410  0.3321
 3214SOL    HW121278   2.647   1.911   9.184  0.5271  0.5979  2.5947
 3214SOL    HW221279   2.576   1.781   9.187  0.1675 -0.7620  1.8147
 3215SOL     OW21280   4.060   2.308   3.776 -0.4271  0.2344 -0.3122
 3215SOL    HW121281   4.127   2.309   3.845  0.1658  0.2504 -0.8929
 3215SOL    HW221282   3.992   2.369   3.804  1.1520  2.1344 -0.6374
 3216SOL     OW21283   3.169   3.895   3.747 -0.2901 -0.5030 -0.1103
 3216SOL    HW121284   3.251   3.862   3.784 -0.6648 -0.0550  1.1213
 3216SOL    HW221285   3.136   3.962   3.807 -0.0028 -0.3764 -0.0922
 3217SOL     OW21286   0.920   0.378   1.832 -0.4343 -0.1094 -0.5702
 3217SOL    HW121287   0.940   0.472   1.836 -2.8220  0.4354 -1.8375
 3217SOL    HW221288   0.890   0.361   1.922  2.1379 -1.9772 -0.0710
 3218SOL     OW21289   2.121   3.170   4.286 -0.0022 -0.1263 -0.2721
 3218SOL    HW121290   2.166   3.154   4.203 -0.5655 -2.0079 -0.2181
 3218SOL    HW221291   2.165   3.243   4.330 -0.4976 -0.6244  1.0606
 3219SOL     OW21292   3.600   3.742   9.242  0.1476 -0.1093 -0.1477
 3219SOL    HW121293   3.537   3.726   9.313 -0.1889  1.1301 -0.1755
 3219SOL    HW221294   3.659   3.812   9.270 -0.5581 -0.9687  3.4775
 3220SOL     OW21295   3.067   4.302  14.318  0.3423  0.1390  0.3818
 3220SOL    HW121296   3.117   4.346  14.249  0.2556  0.3795  0.4708
 3220SOL    HW221297   3.041   4.229  14.262  0.1199 -0.5308  1.3589
 3221SOL     OW21298   2.999   2.031   3.008  0.4976 -0.1646  0.2238
 3221SOL    HW121299   3.065   2.062   2.947  0.5804  0.4110  0.6084
 3221SOL    HW221300   3.040   2.056   3.091 -0.4191  0.6180  0.4437
 3222SOL     OW21301   0.798   0.377   3.050  0.3129  0.1558 -0.0638
 3222SOL    HW121302   0.784   0.470   3.032 -2.3051  0.2902  2.8407
 3222SOL    HW221303   0.743   0.369   3.128  0.9218 -1.0737  0.2311
 3223SOL     OW21304   2.776   3.045  13.025 -0.0769  0.0475  0.7330
 3223SOL    HW121305   2.702   3.103  13.007 -1.1284 -1.2690  0.7813
 3223SOL    HW221306   2.733   2.988  13.088  2.8870  0.2381  2.9129
 3224SOL     OW21307   0.396   4.639   4.232  0.1366 -0.6846  0.8934
 3224SOL    HW121308   0.445   4.558   4.248  0.8857 -0.8034 -1.9887
 3224SOL    HW221309   0.416   4.647   4.139 -1.2241 -0.4848  0.6191
 3225SOL     OW21310   0.696   3.272   7.416 -0.3599  0.0397 -0.3278
 3225SOL    HW121311   0.653   3.324   7.348 -3.1875  0.3805  1.7289
 3225SOL    HW221312   0.727   3.350   7.462 -1.8547  0.5442 -0.1561
 3226SOL     OW21313   0.623   0.662   1.910  0.2294  0.4798 -0.3385
 3226SOL    HW121314   0.606   0.752   1.881 -0.1572 -0.0817 -1.8940
 3226SOL    HW221315   0.557   0.617   1.857 -0.8169  1.4862  0.0992
 3227SOL     OW21316   2.632   1.977  10.017  0.4079  0.4662  0.6292
 3227SOL    HW121317   2.634   1.882  10.004  0.0848  0.6928 -1.0456
 3227SOL    HW221318   2.664   1.986  10.107  1.2440  0.3237  0.3559
 3228SOL     OW21319   0.153   2.793   9.357 -0.6367 -0.0007 -0.1667
 3228SOL    HW121320   0.152   2.775   9.263 -2.1446 -1.2021  0.0777
 3228SOL    HW221321   0.247   2.797   9.376 -0.6568 -1.1798  0.1673
 3229SOL     OW21322   0.435   3.155   3.171 -0.7616  0.2056  0.2379
 3229SOL    HW121323   0.474   3.075   3.135  0.3020  0.6703  0.3529
 3229SOL    HW221324   0.495   3.177   3.242 -1.9780  1.0364  1.0082
 3230SOL     OW21325   3.943   1.182   3.714  0.2084 -0.3766  0.5581
 3230SOL    HW121326   3.918   1.268   3.681 -0.5216 -0.7691  0.0873
 3230SOL    HW221327   3.893   1.121   3.659  0.7466 -0.1632 -0.1687
 3231SOL     OW21328   3.194   4.222   4.780  0.9197  0.8971 -1.0663
 3231SOL    HW121329   3.147   4.150   4.822  1.6044  1.2140  0.2337
 3231SOL    HW221330   3.259   4.165   4.738  1.0412  0.9303 -0.9239
 3232SOL     OW21331   4.323   1.417   7.817  0.1597  0.4513 -0.5402
 3232SOL    HW121332   4.407   1.440   7.857  0.5805 -0.6854 -0.7692
 3232SOL    HW221333   4.330   1.447   7.726  0.4929 -0.0085 -0.6690
 3233SOL     OW21334   0.292   4.445  11.205 -0.0399 -0.0907  0.5447
 3233SOL    HW121335   0.236   4.521  11.223 -0.3191 -0.0501 -0.4500
 3233SOL    HW221336   0.377   4.472  11.238  0.5936  2.7256 -3.3546
 3234SOL     OW21337   0.262   2.022   7.803  0.3268  0.1064  0.1403
 3234SOL    HW121338   0.328   1.955   7.784 -0.7529 -0.6863 -0.7428
 3234SOL    HW221339   0.255   2.066   7.718  0.3020  1.6077  0.9102
 3235SOL     OW21340   1.314   4.665   5.685  0.0111 -0.0168  0.4874
 3235SOL    HW121341   1.278   4.706   5.763 -3.0702  0.8562 -1.3970
 3235SOL    HW221342   1.242   4.690   5.627  0.4243 -1.3615 -0.6187
 3236SOL     OW21343   3.386   3.005   1.624  0.5117 -0.2135  0.2389
 3236SOL    HW121344   3.394   3.066   1.550  0.9240  1.2000  1.4522
 3236SOL    HW221345   3.305   3.029   1.669 -1.3517 -0.7588 -2.8091
 3237SOL     OW21346   2.986   4.579   2.288  0.4331  0.2022  0.8910
 3237SOL    HW121347   2.987   4.663   2.242  0.2251 -0.4763 -0.3463
 3237SOL    HW221348   3.071   4.544   2.264 -1.2357 -1.3005 -2.8124
 3238SOL     OW21349   2.298   1.890  13.506  0.2958 -0.1089 -0.0580
 3238SOL    HW121350   2.320   1.822  13.442  2.3475  0.8945 -0.4412
 3238SOL    HW221351   2.341   1.860  13.586  0.9991  3.3682  0.8806
 3239SOL     OW21352   4.583   2.461   0.890  0.2798  0.4356  0.0546
 3239SOL    HW121353   4.563   2.495   0.803 -0.1976  0.5138  0.1934
 3239SOL    HW221354   4.670   2.499   0.901  0.7620 -0.4428 -0.6967
 3240SOL     OW21355   2.584   0.763  14.928 -0.1093  0.4153 -0.3574
 3240SOL    HW121356   2.592   0.709  15.007  1.5883 -1.5642 -1.8545
 3240SOL    HW221357   2.493   0.744  14.903 -0.3019  0.5426  0.2740
 3241SOL     OW21358   4.349   2.597   3.897 -0.2554  0.2006 -0.0500
 3241SOL    HW121359   4.414   2.620   3.831  0.4212 -0.6410  0.3210
 3241SOL    HW221360   4.273   2.642   3.860  0.6124  0.6849 -1.2288
 3242SOL     OW21361   3.662   3.298   2.942  0.0814 -0.1107  0.1022
 3242SOL    HW121362   3.667   3.213   2.985 -2.4384  0.2659  1.1546
 3242SOL    HW221363   3.585   3.327   2.991  1.0994  1.0106  1.0546
 3243SOL     OW21364   2.590   0.268   4.628 -0.0359 -0.6021 -0.7236
 3243SOL    HW121365   2.498   0.246   4.610 -0.4364  0.6125 -0.2234
 3243SOL    HW221366   2.571   0.346   4.681 -1.9380 -1.7694  0.3389
 3244SOL     OW21367   0.557   1.673  14.923 -0.4422  0.0635  0.4028
 3244SOL    HW121368   0.646   1.653  14.894 -1.0257 -1.7150 -0.1243
 3244SOL    HW221369   0.569   1.756  14.970 -0.5644 -1.0802  2.4638
 3245SOL     OW21370   0.808   3.485   4.430  0.3002  0.6400 -0.3899
 3245SOL    HW121371   0.900   3.480   4.456  0.7270 -0.0854 -2.0698
 3245SOL    HW221372   0.782   3.393   4.431 -2.3580  1.3763 -1.4543
 3246SOL     OW21373   2.018   0.972  16.079 -0.1938 -0.7409 -0.2669
 3246SOL    HW121374   2.007   0.938  16.167 -0.8857 -0.1593 -0.1233
 3246SOL    HW221375   2.091   1.029  16.104 -1.7724  0.4721  1.5536
 3247SOL     OW21376   2.260   1.484   6.602 -0.7108 -0.4842 -0.7461
 3247SOL    HW121377   2.325   1.546   6.635 -1.7044  0.6429 -0.9019
 3247SOL    HW221378   2.239   1.434   6.680 -0.7446 -0.3473 -0.6677
 3248SOL     OW21379   2.364   0.390   8.573 -0.0288 -0.5294 -0.0554
 3248SOL    HW121380   2.289   0.394   8.633  0.0005  1.9269 -0.1855
 3248SOL    HW221381   2.423   0.336   8.625 -1.4934 -0.3825  1.7807
 3249SOL     OW21382   1.615   3.640   5.917  0.0189  0.0871 -0.2567
 3249SOL    HW121383   1.641   3.702   5.986 -0.3472 -0.6256  0.5275
 3249SOL    HW221384   1.667   3.565   5.945  1.3785  0.9563 -0.5001
 3250SOL     OW21385   3.469   1.314   4.181  0.2709  0.5217 -0.1898
 3250SOL    HW121386   3.424   1.269   4.110 -0.4714  0.3430  0.4029
 3250SOL    HW221387   3.394   1.332   4.238 -0.0411 -2.5343  0.3399
 3251SOL     OW21388   2.084   1.545   2.716 -0.0319  0.0284  0.1483
 3251SOL    HW121389   2.070   1.466   2.768  1.3239 -0.3383 -0.0591
 3251SOL    HW221390   2.066   1.497   2.635 -2.5984  0.9366  0.1778
 3252SOL     OW21391   0.893   0.685   1.615 -0.6724  0.2665  0.0745
 3252SOL    HW121392   0.900   0.714   1.706 -0.4011 -0.7164  0.3703
 3252SOL    HW221393   0.807   0.644   1.622 -1.4312  1.9292  0.4650
 3253SOL     OW21394   2.384   3.097   3.000 -0.3849  0.2164 -0.2506
 3253SOL    HW121395   2.459   3.099   2.941  1.4114 -2.5282  1.9307
 3253SOL    HW221396   2.327   3.034   2.956  0.8924  0.4528 -2.2407
 3254SOL     OW21397   0.638   3.526   8.111 -0.2974 -0.2578 -0.1353
 3254SOL    HW121398   0.639   3.430   8.116 -2.2846 -0.2799 -0.5411
 3254SOL    HW221399   0.628   3.538   8.206  0.8674 -0.2432 -0.0058
 3255SOL     OW21400   1.265   4.720   7.383  0.8672 -0.1510 -0.1152
 3255SOL    HW121401   1.333   0.043   7.359 -2.0291  3.1862  0.4549
 3255SOL    HW221402   1.222   4.724   7.298 -0.7416  0.8501  0.7529
 3256SOL     OW21403   1.334   0.354   7.379 -0.6027 -0.1229  0.2999
 3256SOL    HW121404   1.387   0.422   7.337 -1.4708  1.2427  1.4178
 3256SOL    HW221405   1.372   0.283   7.328 -0.8111  2.6534 -3.7482
 3257SOL     OW21406   1.488   0.765   4.181 -0.3682 -0.0426 -0.3307
 3257SOL    HW121407   1.581   0.784   4.169 -0.5006  0.8785  0.1408
 3257SOL    HW221408   1.451   0.851   4.160 -0.9589 -0.3465 -0.5414
 3258SOL     OW21409   1.474   2.076   6.162 -0.3300 -0.1593  0.0820
 3258SOL    HW121410   1.566   2.069   6.137 -0.5593  0.5513 -0.9800
 3258SOL    HW221411   1.465   2.169   6.141 -1.3820 -0.3514 -0.3403
 3259SOL     OW21412   4.052   0.062   8.176  0.7160  0.8450 -0.0247
 3259SOL    HW121413   4.065   0.155   8.196  1.6970  0.6234  0.3861
 3259SOL    HW221414   4.108   0.035   8.249 -1.0135 -0.9537  0.6243
 3260SOL     OW21415   1.986   0.620   4.243 -0.2937 -0.1960  0.0775
 3260SOL    HW121416   1.910   0.587   4.292  0.4357 -1.9020  0.0753
 3260SOL    HW221417   2.024   0.536   4.215  0.3216  0.7997 -2.0154
 3261SOL     OW21418   2.775   2.778   3.051  0.4592  0.2334 -0.1475
 3261SOL    HW121419   2.860   2.734   3.054 -0.7285 -2.0533 -0.2566
 3261SOL    HW221420   2.708   2.710   3.054 -0.8827  1.5965  0.6018
 3262SOL     OW21421   3.129   0.451   7.709 -0.2350  0.3065  0.1277
 3262SOL    HW121422   3.093   0.479   7.793  1.7708  1.3505  0.6461
 3262SOL    HW221423   3.108   0.358   7.712 -0.5131  0.3450 -0.7176
 3263SOL     OW21424   4.425   4.337  13.431  0.5788  0.2818 -0.0625
 3263SOL    HW121425   4.413   4.342  13.526 -0.3509  0.2442 -0.1729
 3263SOL    HW221426   4.516   4.364  13.419  0.3326  1.9280  1.6791
 3264SOL     OW21427   0.489   0.485   1.740  0.2869  0.8568  0.3686
 3264SOL    HW121428   0.582   0.486   1.716  0.1581 -0.4263 -0.1536
 3264SOL    HW221429   0.451   0.473   1.653  1.5539 -0.5454  0.0050
 3265SOL     OW21430   2.267   3.543   7.463  0.3810  0.5062 -0.0394
 3265SOL    HW121431   2.235   3.457   7.437 -0.5001  0.7532  0.2379
 3265SOL    HW221432   2.206   3.600   7.417  0.4254 -1.3359 -2.3877
 3266SOL     OW21433   2.584   3.897  15.027  0.2264 -0.1536 -0.4007
 3266SOL    HW121434   2.598   3.973  14.971 -0.7175  0.5230  0.2826
 3266SOL    HW221435   2.505   3.865  14.982  0.3707 -2.0786  0.6863
 3267SOL     OW21436   0.242   1.058   0.709  0.1895  0.5616 -0.0720
 3267SOL    HW121437   0.238   1.017   0.623 -1.0563 -1.7704  1.0993
 3267SOL    HW221438   0.336   1.077   0.705  0.1312  0.6207 -1.3056
 3268SOL     OW21439   2.713   2.743   3.933  0.0500  0.3387  0.3479
 3268SOL    HW121440   2.755   2.658   3.950 -0.7781  0.0699  1.0831
 3268SOL    HW221441   2.735   2.765   3.843 -0.8263 -4.2400 -0.9825
 3269SOL     OW21442   3.462   1.226   2.672 -0.1152  0.5168  0.0596
 3269SOL    HW121443   3.414   1.255   2.595 -2.5150 -0.4089  1.2170
 3269SOL    HW221444   3.403   1.254   2.742 -1.6570 -1.5029 -0.4233
 3270SOL     OW21445   3.245   2.099   2.490 -0.2297  0.7217  0.0448
 3270SOL    HW121446   3.293   2.166   2.538  0.2362 -0.4050  1.1483
 3270SOL    HW221447   3.175   2.084   2.554  0.2616 -1.3115  0.0951
 3271SOL     OW21448   1.964   4.537  10.896 -0.4629  0.0439 -0.2193
 3271SOL    HW121449   1.974   4.573  10.808  0.8868  0.3054  0.0425
 3271SOL    HW221450   1.870   4.520  10.901 -0.5057  0.1611 -0.6213
 3272SOL     OW21451   3.316   2.508  16.880 -0.2032  0.0962 -0.2473
 3272SOL    HW121452   3.328   2.603  16.883 -2.6205  0.4087 -0.9311
 3272SOL    HW221453   3.314   2.474  16.969  1.0252  1.2603  0.2200
 3273SOL     OW21454   0.910   2.515  15.829  0.7174  0.0523  0.3760
 3273SOL    HW121455   0.858   2.437  15.814 -0.8305  1.4303 -1.3810
 3273SOL    HW221456   0.959   2.524  15.747 -0.3631  1.8605 -0.0670
 3274SOL     OW21457   3.649   1.463   1.256  0.2388 -0.0331  0.4107
 3274SOL    HW121458   3.639   1.512   1.337 -0.7990  1.9871 -0.9485
 3274SOL    HW221459   3.644   1.534   1.192  0.3098 -0.8770 -0.5321
 3275SOL     OW21460   3.383   1.697  14.067 -0.3799 -0.3780  0.2915
 3275SOL    HW121461   3.457   1.755  14.048 -0.8600 -0.2162 -1.1121
 3275SOL    HW221462   3.372   1.715  14.160  3.0282 -2.2198  1.0762
 3276SOL     OW21463   1.416   4.407   7.304  0.0217  0.5327 -0.4029
 3276SOL    HW121464   1.366   4.349   7.361  2.1713  2.1313  3.0985
 3276SOL    HW221465   1.449   4.468   7.370  2.5608  0.9496 -2.0409
 3277SOL     OW21466   2.678   4.698   0.843  0.1594  0.5529 -0.3240
 3277SOL    HW121467   2.764   4.686   0.803 -0.3648  2.6362 -2.0940
 3277SOL    HW221468   2.636   0.002   0.768 -1.0782 -0.0867 -0.0158
 3278SOL     OW21469   4.009   4.549   0.016 -0.1481  0.6917 -0.2718
 3278SOL    HW121470   3.991   4.594   0.099  0.7471  1.5647 -0.5491
 3278SOL    HW221471   3.993   4.459   0.045  0.0307  0.8791  0.4127
 3279SOL     OW21472   3.578   4.302  10.881 -0.0472 -0.6233  0.5781
 3279SOL    HW121473   3.647   4.305  10.948  1.7885 -0.3107 -1.3403
 3279SOL    HW221474   3.502   4.317  10.937 -0.0192  1.8307 -0.0361
 3280SOL     OW21475   2.762   1.615   4.511  0.8439 -0.1612  0.2568
 3280SOL    HW121476   2.782   1.689   4.568 -0.4704  4.5688 -5.3522
 3280SOL    HW221477   2.710   1.667   4.450 -0.8254 -1.2420  0.7627
 3281SOL     OW21478   1.925   0.826   5.681  0.5400 -0.4350  0.0911
 3281SOL    HW121479   1.916   0.742   5.636  2.3695  0.4339 -1.8912
 3281SOL    HW221480   1.913   0.801   5.773 -0.8762 -0.1739 -0.0201
 3282SOL     OW21481   1.032   1.892   8.745 -0.2225 -1.1760 -0.2617
 3282SOL    HW121482   0.952   1.942   8.761  0.4609 -0.6343  1.4356
 3282SOL    HW221483   0.996   1.813   8.705 -4.1424  0.3611  0.1551
 3283SOL     OW21484   0.858   3.747   4.894  0.0173 -0.1994 -0.0781
 3283SOL    HW121485   0.793   3.817   4.903 -1.5916 -1.7763  0.5815
 3283SOL    HW221486   0.865   3.727   4.988  1.8716 -1.6397 -0.5314
 3284SOL     OW21487   4.609   1.496  10.094  0.1170  0.6087  0.0958
 3284SOL    HW121488   4.659   1.426  10.052 -1.0573  0.8541 -1.7049
 3284SOL    HW221489   4.583   1.556  10.024 -0.6040  1.4646  1.0985
 3285SOL     OW21490   3.277   0.961   1.222 -0.6341  0.9333 -0.1137
 3285SOL    HW121491   3.256   0.872   1.192 -0.2398 -0.2249  3.1279
 3285SOL    HW221492   3.369   0.957   1.250  0.1073  1.5791 -2.4436
 3286SOL     OW21493   2.263   0.552   2.994 -0.5148  0.1363 -0.5854
 3286SOL    HW121494   2.339   0.608   3.007 -0.0622 -1.2064  2.4267
 3286SOL    HW221495   2.312   0.488   2.943  2.0059  1.5483  0.1030
 3287SOL     OW21496   2.352   2.084  17.448 -0.6618  0.3924 -0.5277
 3287SOL    HW121497   2.319   2.050  17.532 -2.3351  0.7504 -1.0422
 3287SOL    HW221498   2.277   2.130  17.410 -1.1588  1.9774  2.4128
 3288SOL     OW21499   2.553   4.353   4.287  0.1606 -0.2170  0.4052
 3288SOL    HW121500   2.598   4.318   4.210 -0.6532 -0.4682  0.0428
 3288SOL    HW221501   2.612   4.422   4.318 -0.7103  0.8932 -0.4219
 3289SOL     OW21502   2.639   4.478   7.092 -0.4580  0.1332  0.6516
 3289SOL    HW121503   2.547   4.453   7.097  0.2918 -2.6331  0.5300
 3289SOL    HW221504   2.675   4.398   7.131  1.4666  0.5770 -0.1992
 3290SOL     OW21505   4.563   2.825   4.193 -0.1677 -0.4954 -0.1154
 3290SOL    HW121506   4.534   2.745   4.148  1.4272 -0.1138 -1.8177
 3290SOL    HW221507   4.500   2.830   4.265 -0.4337  0.3996 -0.4128
 3291SOL     OW21508   1.136   0.017   7.666 -0.2347 -0.1798 -0.1116
 3291SOL    HW121509   1.129   0.094   7.610 -2.1287  0.6420  1.2643
 3291SOL    HW221510   1.165   4.689   7.605  2.4498 -1.2336  2.3140
 3292SOL     OW21511   0.891   0.608   3.757 -0.3916 -0.1787  0.0630
 3292SOL    HW121512   0.874   0.700   3.734  0.3946 -0.5981 -2.1954
 3292SOL    HW221513   0.885   0.604   3.852 -0.3097  3.2871  0.2104
 3293SOL     OW21514   1.321   2.146   8.538  0.2231 -0.3077 -0.5793
 3293SOL    HW121515   1.398   2.125   8.486 -1.1763 -0.2287 -2.6884
 3293SOL    HW221516   1.337   2.241   8.533  0.1768 -0.3812 -2.0433
 3294SOL     OW21517   2.914   3.069  13.478 -0.2289  0.4073  0.3077
 3294SOL    HW121518   3.006   3.057  13.502 -0.1424  0.1378 -0.1631
 3294SOL    HW221519   2.883   3.122  13.551 -3.3600  0.4582 -1.0519
 3295SOL     OW21520   3.234   1.990   9.522 -0.7004 -0.0688 -0.4502
 3295SOL    HW121521   3.328   1.984   9.505 -0.7436  0.2941 -0.8113
 3295SOL    HW221522   3.194   1.910   9.487 -1.1245 -1.1278  2.5162
 3296SOL     OW21523   4.338   1.959  10.482 -0.6660 -0.5756 -0.0482
 3296SOL    HW121524   4.322   1.980  10.389 -2.8965 -0.7263  0.2964
 3296SOL    HW221525   4.316   1.866  10.484 -1.2605 -0.4684 -1.2800
 3297SOL     OW21526   0.283   2.517   1.023  0.2413  0.0009 -0.2434
 3297SOL    HW121527   0.304   2.592   1.080 -1.0668 -1.2224  1.8487
 3297SOL    HW221528   0.249   2.558   0.944 -1.2571  0.4842  0.6542
 3298SOL     OW21529   3.931   0.555   8.512 -0.0715  0.1028 -0.6677
 3298SOL    HW121530   3.863   0.528   8.451  0.1103 -1.4458 -0.1759
 3298SOL    HW221531   3.928   0.651   8.508 -1.2001  0.0236 -1.7357
 3299SOL     OW21532   1.248   4.354   6.086  0.5059  0.0531 -0.0459
 3299SOL    HW121533   1.302   4.432   6.073 -0.7124  1.2022  1.7560
 3299SOL    HW221534   1.260   4.350   6.181  0.1564  1.6937  0.0712
 3300SOL     OW21535   3.030   3.289   5.135  0.3723  0.6074  0.2087
 3300SOL    HW121536   2.974   3.322   5.206 -1.3089  0.1884 -0.9308
 3300SOL    HW221537   3.020   3.195   5.122 -0.6142  0.6013  1.0138
 3301SOL     OW21538   0.748   1.176   7.504 -0.2317 -0.1837  0.1155
 3301SOL    HW121539   0.695   1.171   7.584  0.8798 -1.5427  0.7677
 3301SOL    HW221540   0.687   1.224   7.449  0.8858  0.4482 -0.5661
 3302SOL     OW21541   0.274   2.135   8.758  0.0650  0.2341  0.2556
 3302SOL    HW121542   0.228   2.094   8.832 -0.9049  0.2183 -0.3532
 3302SOL    HW221543   0.272   2.065   8.694 -1.0297  1.2057 -0.7744
 3303SOL     OW21544   0.180   3.300   4.634 -0.0375  0.0818 -0.4150
 3303SOL    HW121545   0.241   3.314   4.561  0.2155 -0.7132 -0.3512
 3303SOL    HW221546   0.243   3.281   4.703 -0.8480 -3.1539 -0.5996
 3304SOL     OW21547   0.009   3.716  12.123 -0.0539 -0.6334 -0.0631
 3304SOL    HW121548   0.038   3.801  12.090  0.3760 -0.1816  1.4990
 3304SOL    HW221549   4.711   3.690  12.039  0.9447  0.5935 -0.8996
 3305SOL     OW21550   1.046   1.832  16.625  0.1581  0.3209 -0.2758
 3305SOL    HW121551   1.072   1.916  16.662 -1.9755  1.7382 -1.9823
 3305SOL    HW221552   1.027   1.865  16.537  1.6790  0.2156 -0.6502
 3306SOL     OW21553   1.992   1.301   3.875  0.2203  0.2762  0.5430
 3306SOL    HW121554   1.904   1.305   3.837 -0.1496  1.4963  1.5334
 3306SOL    HW221555   2.022   1.222   3.831 -0.1428  0.6886 -0.4338
 3307SOL     OW21556   0.944   1.715   4.181  0.4187 -0.0488 -0.6509
 3307SOL    HW121557   0.855   1.749   4.190 -0.8174 -3.1608 -1.2010
 3307SOL    HW221558   0.987   1.800   4.168 -1.9202  0.9970 -1.6330
 3308SOL     OW21559   1.564   0.930   8.193 -0.3411  0.9813  0.1426
 3308SOL    HW121560   1.622   1.000   8.162  1.3463  0.1029  1.3300
 3308SOL    HW221561   1.531   0.899   8.109 -0.1112 -1.3366  0.9227
 3309SOL     OW21562   0.074   2.349   3.009 -0.0314  0.5756 -0.3108
 3309SOL    HW121563   0.123   2.429   3.029  0.4557 -0.5026  2.7052
 3309SOL    HW221564   4.723   2.378   2.997  0.0962  0.5146 -1.3964
 3310SOL     OW21565   2.169   4.320  15.172 -0.5250 -0.4414  0.3243
 3310SOL    HW121566   2.255   4.310  15.131  0.6064  2.7975  1.8856
 3310SOL    HW221567   2.182   4.240  15.222 -1.0730 -2.0933 -2.1723
 3311SOL     OW21568   0.978   3.017   6.724  0.2404  0.0468  0.7865
 3311SOL    HW121569   1.024   3.048   6.646 -2.4488  1.4601 -0.2335
 3311SOL    HW221570   0.964   2.924   6.705  0.9523 -0.0858  0.9020
 3312SOL     OW21571   3.011   3.278   8.623 -0.1426  0.4656  0.2136
 3312SOL    HW121572   2.961   3.317   8.695 -1.8355  1.0577 -1.2853
 3312SOL    HW221573   3.075   3.346   8.602  0.4728 -0.2570 -0.2542
 3313SOL     OW21574   0.901   4.325   2.335 -0.6561  0.0947  0.0469
 3313SOL    HW121575   0.847   4.376   2.395 -0.6638  0.1933 -0.0420
 3313SOL    HW221576   0.836   4.326   2.265  1.4163  2.6877 -1.8705
 3314SOL     OW21577   3.701   1.993   2.444 -0.0645  0.3715 -0.1744
 3314SOL    HW121578   3.783   2.014   2.400 -0.7809 -1.4389 -2.3823
 3314SOL    HW221579   3.658   2.077   2.460 -0.6726 -0.2751  1.6121
 3315SOL     OW21580   2.544   4.560  14.183  0.3162  0.4323  0.0406
 3315SOL    HW121581   2.639   4.552  14.169  0.3481  0.4777  0.2340
 3315SOL    HW221582   2.504   4.479  14.150  1.8572  1.1173 -3.6208
 3316SOL     OW21583   2.338   4.451  12.953 -0.0209  0.4446 -0.0768
 3316SOL    HW121584   2.346   4.504  13.032 -0.5673 -0.8296  0.8243
 3316SOL    HW221585   2.351   4.528  12.897 -1.7316  1.2513  0.6467
 3317SOL     OW21586   1.037   1.599   1.084  0.1990  0.0496 -0.2256
 3317SOL    HW121587   0.983   1.603   1.005 -0.9740  0.5689  0.5975
 3317SOL    HW221588   0.977   1.606   1.159 -0.2017 -0.9945 -0.4520
 3318SOL     OW21589   2.016   1.316   8.144  0.1832  0.1534 -0.0573
 3318SOL    HW121590   2.045   1.349   8.229 -0.1736  2.0765 -0.6782
 3318SOL    HW221591   1.928   1.354   8.140  0.4942  0.9619  0.8423
 3319SOL     OW21592   3.305   3.825   8.025 -0.1171  0.3666 -0.3600
 3319SOL    HW121593   3.334   3.895   7.968  2.8792 -0.0418  0.6665
 3319SOL    HW221594   3.376   3.762   8.011  1.2599  1.1851  2.9325
 3320SOL     OW21595   1.857   3.399   3.960 -0.0902 -0.0611 -0.0326
 3320SOL    HW121596   1.773   3.375   3.922  0.0075  2.1720 -1.6798
 3320SOL    HW221597   1.840   3.452   4.038 -0.9545 -1.8416  0.9762
 3321SOL     OW21598   1.179   1.729   3.678 -0.2014 -0.8408 -0.2966
 3321SOL    HW121599   1.141   1.693   3.598 -2.1083  0.7304 -0.0980
 3321SOL    HW221600   1.110   1.711   3.741  0.7928 -0.8175  0.8055
 3322SOL     OW21601   2.278   0.427   5.848  0.3206 -0.1060 -0.0507
 3322SOL    HW121602   2.214   0.364   5.881  1.0975 -1.7376 -1.6567
 3322SOL    HW221603   2.236   0.513   5.850  1.1593  0.2942  0.1082
 3323SOL     OW21604   2.976   3.658   2.536 -0.3725 -0.6493 -0.7882
 3323SOL    HW121605   2.955   3.666   2.443 -0.3873  0.5194 -0.6845
 3323SOL    HW221606   3.061   3.617   2.520 -1.0105 -1.7106 -1.4694
 3324SOL     OW21607   1.712   1.855  12.179  0.0274  0.2744  0.3609
 3324SOL    HW121608   1.747   1.867  12.091  3.7709 -1.9113  1.5610
 3324SOL    HW221609   1.766   1.782  12.208 -2.4979 -0.3554  3.5037
 3325SOL     OW21610   2.008   2.266   5.106  0.4210  0.6544  0.3529
 3325SOL    HW121611   2.094   2.303   5.086 -0.0868  2.6896  1.8684
 3325SOL    HW221612   1.975   2.332   5.168  1.3608  1.4349  0.0132
 3326SOL     OW21613   3.958   4.543   2.874 -0.1014 -0.4416 -0.1825
 3326SOL    HW121614   3.891   4.540   2.942  0.7527  0.4016  0.6980
 3326SOL    HW221615   3.970   4.638   2.871  0.1348 -0.4014  1.9323
 3327SOL     OW21616   1.636   0.335  17.187  0.0214  0.1721  0.2920
 3327SOL    HW121617   1.587   0.416  17.175 -0.6849 -0.2608  0.2611
 3327SOL    HW221618   1.562   0.276  17.196  0.5468 -0.3267  1.3353
 3328SOL     OW21619   4.703   4.118   9.296  0.1211  0.0261  1.2296
 3328SOL    HW121620   4.733   4.103   9.206  2.1023  1.4731  1.6609
 3328SOL    HW221621   4.610   4.117   9.272  0.1697 -0.9105  1.0592
 3329SOL     OW21622   3.367   0.393   9.451 -0.0887  0.0154  0.0809
 3329SOL    HW121623   3.281   0.404   9.492  1.4832  2.4087  2.6664
 3329SOL    HW221624   3.411   0.333   9.510 -1.4884 -1.4547 -0.3587
 3330SOL     OW21625   2.784   1.896   4.171  0.2549 -0.2031 -0.5673
 3330SOL    HW121626   2.872   1.885   4.208  0.2993  0.4256 -0.4852
 3330SOL    HW221627   2.785   1.893   4.075 -0.3080 -3.2158 -0.4679
 3331SOL     OW21628   4.410   2.395   4.747 -0.8471 -0.0528  0.5390
 3331SOL    HW121629   4.418   2.322   4.809 -0.3182 -2.0734 -1.8966
 3331SOL    HW221630   4.328   2.368   4.706 -1.2250 -1.3058  2.0996
 3332SOL     OW21631   3.217   2.749   7.237 -0.4021  0.4776  0.2501
 3332SOL    HW121632   3.235   2.737   7.331 -3.5957 -0.7952  0.7161
 3332SOL    HW221633   3.289   2.803   7.207 -0.9018  0.7430 -0.4494
 3333SOL     OW21634   2.985   2.507  11.263  0.1704  0.2578  0.1480
 3333SOL    HW121635   2.995   2.525  11.356 -0.6881 -1.1534  0.5078
 3333SOL    HW221636   3.057   2.561  11.230 -1.1489  2.3817  0.7873
 3334SOL     OW21637   0.929   1.347   8.950 -0.1255 -0.4154  0.0119
 3334SOL    HW121638   0.890   1.272   8.905 -0.5649 -1.7409  2.5999
 3334SOL    HW221639   0.856   1.389   8.994 -0.3157 -0.0114 -0.6916
 3335SOL     OW21640   1.659   4.684   3.825 -0.1733  0.1055  0.1220
 3335SOL    HW121641   1.727   0.002   3.794 -0.9377  1.1754  0.4394
 3335SOL    HW221642   1.703   4.639   3.897  1.0168 -0.1927 -0.8095
 3336SOL     OW21643   1.948   2.657   7.733  0.4688 -0.5500 -0.2842
 3336SOL    HW121644   1.940   2.751   7.715  1.8670 -0.9543 -2.9503
 3336SOL    HW221645   1.856   2.633   7.731 -0.7380  4.0764  0.1471
 3337SOL     OW21646   2.110   1.864   7.224 -0.2488  0.1860  0.1641
 3337SOL    HW121647   2.088   1.917   7.147 -2.8536 -1.5289 -0.2905
 3337SOL    HW221648   2.076   1.920   7.293 -0.0895  1.9792 -1.1993
 3338SOL     OW21649   3.145   2.537   1.214  0.4356  0.0414  0.3312
 3338SOL    HW121650   3.120   2.565   1.302 -3.0184 -0.8251 -0.3565
 3338SOL    HW221651   3.182   2.619   1.182  0.9493  0.4483  1.9952
 3339SOL     OW21652   1.738   0.871   4.142 -0.4647 -0.5919 -0.2216
 3339SOL    HW121653   1.810   0.811   4.121  0.5767  0.9971 -1.1999
 3339SOL    HW221654   1.775   0.958   4.131 -0.0919 -0.8964 -1.3736
 3340SOL     OW21655   4.417   3.809   6.903  0.3905  0.6253  0.6037
 3340SOL    HW121656   4.418   3.713   6.903 -1.9285  0.6027  0.3867
 3340SOL    HW221657   4.496   3.824   6.851 -0.7119  1.3397 -0.8456
 3341SOL     OW21658   0.487   1.208   3.393 -0.1180 -0.7278 -0.6506
 3341SOL    HW121659   0.493   1.140   3.461 -0.5032  0.8364  0.9605
 3341SOL    HW221660   0.443   1.282   3.436  0.9630  0.1545 -1.0571
 3342SOL     OW21661   0.813   2.192   8.523  0.0973  0.0558 -0.0507
 3342SOL    HW121662   0.901   2.211   8.491  0.3247  0.8315  1.0560
 3342SOL    HW221663   0.765   2.219   8.445  0.4614 -0.6926 -0.5397
 3343SOL     OW21664   2.153   4.188   3.424 -0.1376  0.1545  0.0743
 3343SOL    HW121665   2.198   4.272   3.431 -0.3965  0.4790 -2.2090
 3343SOL    HW221666   2.086   4.216   3.362  0.7809 -0.3227 -1.1090
 3344SOL     OW21667   3.458   1.409  14.178 -0.5527  0.2503  0.7317
 3344SOL    HW121668   3.460   1.443  14.268  1.4643 -0.8710  1.1121
 3344SOL    HW221669   3.372   1.433  14.142 -0.6787 -0.9579  0.2469
 3345SOL     OW21670   3.217   3.265   4.909  0.4145 -0.2514  0.5292
 3345SOL    HW121671   3.209   3.170   4.921  2.6771 -0.3208  1.4487
 3345SOL    HW221672   3.157   3.298   4.976  1.1765  1.3666  0.3916
 3346SOL     OW21673   4.031   3.220   4.213 -1.0176 -0.0089 -0.2540
 3346SOL    HW121674   4.094   3.154   4.184  0.6830  1.9173 -0.8949
 3346SOL    HW221675   4.028   3.284   4.142  0.1067 -1.5902 -1.7246
 3347SOL     OW21676   0.173   0.998  10.380  0.0508  0.0755 -0.8062
 3347SOL    HW121677   0.113   0.923  10.385  1.4025 -0.9697 -0.0351
 3347SOL    HW221678   0.211   0.997  10.468  0.2272 -0.0628 -0.8829
 3348SOL     OW21679   2.875   4.080   1.848 -0.0280 -0.2006 -0.2386
 3348SOL    HW121680   2.923   4.015   1.797 -1.7510  0.7408 -3.0434
 3348SOL    HW221681   2.938   4.090   1.920 -0.5939  0.4975  0.1494
 3349SOL     OW21682   2.239   0.959   3.046  0.1883 -0.1452 -0.4682
 3349SOL    HW121683   2.225   0.919   2.960 -2.5144  0.5607 -0.3550
 3349SOL    HW221684   2.152   0.968   3.083  0.3251  2.0314 -0.6787
 3350SOL     OW21685   2.870   3.709   2.286 -0.1925  0.0099  0.1678
 3350SOL    HW121686   2.885   3.802   2.304 -0.0462  0.0632 -0.2251
 3350SOL    HW221687   2.849   3.699   2.194  0.9433 -3.8144  0.3122
 3351SOL     OW21688   4.562   3.160   2.326 -0.0327  0.4366 -0.7283
 3351SOL    HW121689   4.505   3.187   2.255 -0.2738 -0.3582 -0.8395
 3351SOL    HW221690   4.639   3.133   2.276 -0.4924  1.5429 -2.0335
 3352SOL     OW21691   4.713   2.281   2.519  0.1946 -0.1415  0.4275
 3352SOL    HW121692   4.689   2.190   2.535  1.4974 -0.3469  1.2551
 3352SOL    HW221693   4.685   2.325   2.599  0.9608  3.0571 -1.0686
 3353SOL     OW21694   1.125   3.802  10.501 -0.4406  0.0861 -1.0352
 3353SOL    HW121695   1.042   3.767  10.534  0.8774 -0.6350  1.6033
 3353SOL    HW221696   1.178   3.744  10.557  1.8848  3.0404 -0.1409
 3354SOL     OW21697   2.590   1.308   5.790 -0.1163 -0.2314 -0.3820
 3354SOL    HW121698   2.514   1.345   5.835  0.6737  0.2711  0.5444
 3354SOL    HW221699   2.635   1.388   5.762  0.9867 -0.5016  0.5790
 3355SOL     OW21700   2.063   0.678   2.866 -0.3072  0.6889 -0.0249
 3355SOL    HW121701   2.013   0.719   2.936  1.8411 -0.6891  2.3352
 3355SOL    HW221702   2.130   0.630   2.914 -0.7787  0.0879  0.0345
 3356SOL     OW21703   3.600   2.721   4.621  0.3255  0.3662  0.0393
 3356SOL    HW121704   3.558   2.677   4.548  1.5917 -2.8396  1.2540
 3356SOL    HW221705   3.550   2.686   4.695 -0.3149 -0.6092 -0.8653
 3357SOL     OW21706   0.808   2.094   9.473  0.4583 -0.0830 -1.2627
 3357SOL    HW121707   0.898   2.065   9.489  0.6615  1.4313  0.4034
 3357SOL    HW221708   0.807   2.186   9.498 -0.3600 -0.2996 -0.4875
 3358SOL     OW21709   2.372   0.172   0.948 -0.3918  0.3157  0.6587
 3358SOL    HW121710   2.414   0.251   0.982  0.7592  0.9579 -2.3056
 3358SOL    HW221711   2.298   0.206   0.898 -1.1929  0.6693  2.0667
 3359SOL     OW21712   3.959   0.243   4.953  0.1268  0.9012 -0.2685
 3359SOL    HW121713   3.922   0.289   4.878  0.0973  2.9185  0.9916
 3359SOL    HW221714   3.899   0.174   4.981 -0.8753  2.0323  0.3890
 3360SOL     OW21715   2.379   3.966  16.835  0.0684  0.2812 -0.0344
 3360SOL    HW121716   2.299   3.973  16.784 -0.3004  0.9674  0.6467
 3360SOL    HW221717   2.347   3.970  16.925  1.0104  2.9921  0.1753
 3361SOL     OW21718   0.430   2.915   5.251 -0.1090  0.3628 -0.3858
 3361SOL    HW121719   0.365   2.978   5.220 -0.8976 -0.5124 -0.5214
 3361SOL    HW221720   0.473   2.895   5.168  0.7377  2.4630 -0.4693
 3362SOL     OW21721   4.415   4.091   9.545  0.2105  0.0087  0.3553
 3362SOL    HW121722   4.466   4.109   9.466 -3.8217 -1.7927 -2.6298
 3362SOL    HW221723   4.445   4.003   9.570 -2.0112 -0.5796  0.9304
 3363SOL     OW21724   1.776   3.364   5.950 -0.4299 -0.2831 -0.2078
 3363SOL    HW121725   1.781   3.329   6.039  0.6378 -2.4125 -1.1186
 3363SOL    HW221726   1.871   3.374   5.943 -0.2910 -2.2452 -0.9915
 3364SOL     OW21727   4.104   2.786   5.017  0.2098 -0.2137 -0.1164
 3364SOL    HW121728   4.081   2.865   4.967  1.8686  1.2925  1.4975
 3364SOL    HW221729   4.154   2.739   4.950 -1.5200 -0.8507 -0.9698
 3365SOL     OW21730   2.721   1.736  14.171  0.6456 -0.6508 -0.4927
 3365SOL    HW121731   2.812   1.727  14.141  0.1256 -0.4887 -2.1646
 3365SOL    HW221732   2.706   1.813  14.115  2.0472 -0.2557 -0.3250
 3366SOL     OW21733   4.340   2.868  11.653 -0.2277  0.3967  0.2625
 3366SOL    HW121734   4.324   2.930  11.581  0.5556 -0.2064 -0.4339
 3366SOL    HW221735   4.331   2.925  11.729 -0.6278 -1.6173  1.7282
 3367SOL     OW21736   4.163   2.675  14.111 -0.2190  0.5920  0.0737
 3367SOL    HW121737   4.175   2.729  14.189  2.2820  1.9463 -1.2645
 3367SOL    HW221738   4.102   2.615  14.155  0.8057 -0.5759 -0.1123
 3368SOL     OW21739   0.061   3.546   6.907 -0.3894  0.4526 -0.4630
 3368SOL    HW121740   0.016   3.573   6.987  1.7773 -0.1695  0.9537
 3368SOL    HW221741   0.106   3.629   6.888  2.9448 -1.2976 -0.1800
 3369SOL     OW21742   0.966   1.024   8.973 -0.4616  0.3489  0.4653
 3369SOL    HW121743   0.934   1.066   8.893  1.2768 -0.4900 -0.6751
 3369SOL    HW221744   1.052   0.992   8.945  0.2546  1.5147  1.3335
 3370SOL     OW21745   3.743   0.097   6.820 -0.5226  0.4488 -0.0581
 3370SOL    HW121746   3.820   0.108   6.764  1.0539 -2.0759  1.5751
 3370SOL    HW221747   3.714   0.014   6.783  1.2547  0.0620 -0.6026
 3371SOL     OW21748   0.208   2.374   1.246  0.3903 -0.1844 -0.0359
 3371SOL    HW121749   0.227   2.382   1.153  0.5987 -0.4851 -0.0216
 3371SOL    HW221750   0.264   2.438   1.290  0.1000 -0.4886  0.7791
 3372SOL     OW21751   3.927   0.739  11.127 -0.0448  0.2954  0.1049
 3372SOL    HW121752   3.838   0.766  11.147 -0.0428 -0.7345  1.5381
 3372SOL    HW221753   3.961   0.758  11.215  0.5657 -2.0452  0.3704
 3373SOL     OW21754   1.700   3.303   9.038  0.5815 -0.1469  0.2041
 3373SOL    HW121755   1.657   3.290   9.122 -0.1850  3.3898  0.3719
 3373SOL    HW221756   1.791   3.320   9.064  0.7073  0.8299 -0.8580
 3374SOL     OW21757   2.393   2.388   7.073 -0.1001  0.1131 -0.1717
 3374SOL    HW121758   2.418   2.453   7.007  1.9248 -0.2420  0.2471
 3374SOL    HW221759   2.379   2.308   7.022  0.8269 -0.5307  0.5640
 3375SOL     OW21760   4.291   2.901  14.389  0.1957 -0.1673 -0.0361
 3375SOL    HW121761   4.202   2.869  14.375  0.4579 -1.3655  0.9927
 3375SOL    HW221762   4.285   2.969  14.323 -1.1709 -0.1695  0.0780
 3376SOL     OW21763   3.976   3.437   6.254 -0.3680 -0.0469  0.7625
 3376SOL    HW121764   3.911   3.461   6.319  1.4748 -0.2306  2.6691
 3376SOL    HW221765   3.933   3.473   6.176 -1.3632  1.1774  1.8888
 3377SOL     OW21766   2.306   4.192   9.459  0.2746  0.1535 -0.7685
 3377SOL    HW121767   2.368   4.193   9.386  0.2093  2.8069 -0.7886
 3377SOL    HW221768   2.360   4.223   9.533  0.8043  1.1592 -1.5752
 3378SOL     OW21769   1.939   2.813   1.613  0.2278 -0.2361  0.0850
 3378SOL    HW121770   1.887   2.834   1.691  0.5397 -0.1379  0.2670
 3378SOL    HW221771   1.983   2.897   1.598  0.3090 -0.7660 -2.5496
 3379SOL     OW21772   4.021   1.762   4.969 -0.0222 -0.1948 -0.4137
 3379SOL    HW121773   3.942   1.804   5.001 -0.3410 -0.7337 -0.4809
 3379SOL    HW221774   4.077   1.836   4.945 -0.9510  0.6195 -0.0495
 3380SOL     OW21775   1.041   3.655  11.848 -0.0966  0.2285  0.0646
 3380SOL    HW121776   1.091   3.598  11.789 -0.9436 -1.4910  1.0281
 3380SOL    HW221777   0.957   3.663  11.804  0.0834 -0.8979 -0.4749
 3381SOL     OW21778   3.928   3.843   7.975 -0.3804  0.0663  0.4365
 3381SOL    HW121779   3.863   3.897   8.021 -1.2009 -0.0036 -0.6442
 3381SOL    HW221780   3.877   3.813   7.900 -1.1839  0.5241  0.7987
 3382SOL     OW21781   3.147   2.064   3.253 -0.2196  0.1913  0.3053
 3382SOL    HW121782   3.072   2.122   3.269 -1.0353 -0.6694 -0.3733
 3382SOL    HW221783   3.158   2.022   3.338 -0.4607 -1.8761 -0.6841
 3383SOL     OW21784   0.538   2.401   7.033 -0.0856 -0.1589  0.3326
 3383SOL    HW121785   0.486   2.460   7.087 -1.9295  0.8539 -2.5120
 3383SOL    HW221786   0.524   2.319   7.080 -0.2084 -0.5147 -0.3195
 3384SOL     OW21787   3.970   2.816   7.575 -0.0482 -0.1248 -0.0393
 3384SOL    HW121788   4.059   2.807   7.611 -0.0890  0.0751  0.1127
 3384SOL    HW221789   3.914   2.780   7.643 -0.3474  1.0328  0.3259
 3385SOL     OW21790   3.787   0.940   6.497  0.0069  0.3446 -0.0859
 3385SOL    HW121791   3.857   0.904   6.552 -1.6178 -0.3891  1.5239
 3385SOL    HW221792   3.782   1.030   6.528 -2.7417  0.0460  0.3446
 3386SOL     OW21793   3.678   2.655   0.106  0.1298 -0.6979  0.1599
 3386SOL    HW121794   3.735   2.728   0.082  0.1956 -0.7999  0.0037
 3386SOL    HW221795   3.597   2.693   0.072 -0.4464  0.6579  2.9943
 3387SOL     OW21796   0.780   4.226   8.369 -0.8688  0.3342 -0.3725
 3387SOL    HW121797   0.873   4.239   8.384 -1.0751  1.7060 -0.2473
 3387SOL    HW221798   0.736   4.264   8.445 -0.6362 -1.3823  0.6293
 3388SOL     OW21799   2.892   1.121   5.160  0.0992 -0.2684  0.7236
 3388SOL    HW121800   2.965   1.180   5.144  0.3983 -1.5465 -2.5544
 3388SOL    HW221801   2.843   1.171   5.225 -0.8557 -1.1024  0.6465
 3389SOL     OW21802   0.424   2.902   8.580 -0.0696 -0.2707  0.0622
 3389SOL    HW121803   0.516   2.920   8.564  0.5584 -0.9162  2.8758
 3389SOL    HW221804   0.381   2.983   8.551  0.5999 -0.4330 -1.3687
 3390SOL     OW21805   0.064   2.884  15.071 -0.1482 -0.1044 -0.0215
 3390SOL    HW121806   0.094   2.825  15.002 -2.3404 -0.6214 -0.5303
 3390SOL    HW221807   0.120   2.961  15.070  0.3657 -0.4802 -0.1968
 3391SOL     OW21808   3.826   1.788  12.229 -0.0062 -0.1184 -0.3097
 3391SOL    HW121809   3.897   1.791  12.165  0.9791 -1.1763  0.7343
 3391SOL    HW221810   3.864   1.730  12.295 -0.7571  1.1216  1.2101
 3392SOL     OW21811   3.619   1.035   4.920 -0.8727  1.0628  0.0402
 3392SOL    HW121812   3.579   1.100   4.862 -0.0518 -0.3396 -2.0536
 3392SOL    HW221813   3.538   0.986   4.932 -0.0384 -0.1421  0.6955
 3393SOL     OW21814   0.989   2.016  10.746 -0.8217  0.0355 -0.2342
 3393SOL    HW121815   1.026   1.962  10.676  1.8265  2.5872 -0.7559
 3393SOL    HW221816   0.981   2.088  10.683 -0.3180  0.0974 -0.2231
 3394SOL     OW21817   4.047   2.851   9.682 -0.0937 -0.6864  0.1005
 3394SOL    HW121818   3.974   2.793   9.707 -0.4026  0.4751  1.9344
 3394SOL    HW221819   4.118   2.803   9.724 -0.0298  0.6019  1.4825
 3395SOL     OW21820   0.854   0.091   7.476  0.4404 -0.8515  0.4030
 3395SOL    HW121821   0.921   0.131   7.421  0.2950 -2.3006 -0.8167
 3395SOL    HW221822   0.847   0.155   7.547 -0.1099 -2.4125  1.7549
 3396SOL     OW21823   4.258   4.010  15.153 -0.1196  0.1530  0.3005
 3396SOL    HW121824   4.288   3.920  15.157  1.5030  0.7280  0.8142
 3396SOL    HW221825   4.275   4.026  15.246  1.8249 -0.2476  0.0104
 3397SOL     OW21826   2.490   0.800   5.895  0.0532  0.3527  0.1607
 3397SOL    HW121827   2.532   0.852   5.964  1.9978  0.5967 -1.1990
 3397SOL    HW221828   2.512   0.711   5.921  0.2041  0.7449  1.4258
 3398SOL     OW21829   2.933   0.600   1.856  0.2600 -0.0647 -0.6117
 3398SOL    HW121830   2.970   0.687   1.837 -1.2147  0.5859 -0.5123
 3398SOL    HW221831   2.978   0.581   1.939 -1.5826  1.2213  0.7003
 3399SOL     OW21832   0.662   0.937   0.917  0.6204  0.1576  0.6296
 3399SOL    HW121833   0.605   0.979   0.982  1.0694  0.1080  1.0558
 3399SOL    HW221834   0.729   1.004   0.930  0.4161 -0.2528  3.8213
 3400SOL     OW21835   4.288   1.542  15.891  0.1496  0.2506  0.1147
 3400SOL    HW121836   4.223   1.604  15.858  0.8606  0.3312 -1.1293
 3400SOL    HW221837   4.222   1.476  15.912 -0.1309  0.3346 -0.5252
 3401SOL     OW21838   3.588   1.300  12.534  0.1192  0.1801  0.1569
 3401SOL    HW121839   3.673   1.290  12.490 -0.8566 -1.5765 -1.3019
 3401SOL    HW221840   3.590   1.396  12.524 -0.6498  0.3086  1.2189
 3402SOL     OW21841   1.647   1.347  13.853  0.4060  0.1594  0.1034
 3402SOL    HW121842   1.620   1.381  13.768  0.4014 -0.2360 -0.0514
 3402SOL    HW221843   1.640   1.253  13.839  0.3749 -0.3383  3.5305
 3403SOL     OW21844   2.613   2.329   8.677  0.4737  0.5157 -0.2161
 3403SOL    HW121845   2.680   2.263   8.658 -1.3607 -0.7637 -2.2164
 3403SOL    HW221846   2.655   2.398   8.626  0.6870  0.9999  0.6206
 3404SOL     OW21847   3.176   3.359   8.192  0.1280  0.1833 -0.0751
 3404SOL    HW121848   3.123   3.428   8.233 -1.4831 -0.2912 -1.3823
 3404SOL    HW221849   3.131   3.338   8.110  0.3812  0.0612 -0.1824
 3405SOL     OW21850   3.748   4.028   8.113 -0.5462  0.3490  0.2557
 3405SOL    HW121851   3.679   4.090   8.089  0.1476  0.9975 -0.0282
 3405SOL    HW221852   3.812   4.082   8.158  1.8270  0.3364 -3.1389
 3406SOL     OW21853   2.305   4.605   3.896 -0.3730 -0.6799 -0.0978
 3406SOL    HW121854   2.326   4.638   3.983 -0.2452  0.3128 -0.5094
 3406SOL    HW221855   2.227   4.657   3.881  0.4468  1.4566  2.9547
 3407SOL     OW21856   3.695   1.496  16.236 -0.1388 -0.2576 -0.2630
 3407SOL    HW121857   3.667   1.412  16.272 -3.2769  1.4755  1.4370
 3407SOL    HW221858   3.685   1.554  16.312 -0.8268  0.0859 -0.6094
 3408SOL     OW21859   2.456   0.360   4.211  0.0339  1.0159 -0.0092
 3408SOL    HW121860   2.443   0.455   4.219  0.6432  1.0739  0.2480
 3408SOL    HW221861   2.399   0.320   4.276 -1.1268  1.8508 -0.4965
 3409SOL     OW21862   1.355   2.189  15.465  0.3984 -0.0129  0.3644
 3409SOL    HW121863   1.364   2.274  15.507  0.4155 -1.1304  2.6563
 3409SOL    HW221864   1.356   2.134  15.544 -1.1198 -0.5299  0.0151
 3410SOL     OW21865   0.396   2.044  15.210  0.7665  0.0618  0.4369
 3410SOL    HW121866   0.405   2.071  15.301  0.2869  1.9157 -0.0621
 3410SOL    HW221867   0.332   2.111  15.186  2.4589  1.4300 -0.2601
 3411SOL     OW21868   1.345   0.258   3.568  0.0481  0.1060  0.0226
 3411SOL    HW121869   1.326   0.312   3.646 -1.0870  2.8470 -2.1479
 3411SOL    HW221870   1.259   0.256   3.526 -0.3291  1.4234  0.7230
 3412SOL     OW21871   4.324   3.609   8.727  0.1161 -0.0918  0.2849
 3412SOL    HW121872   4.304   3.515   8.728  4.0773 -0.9325 -0.1917
 3412SOL    HW221873   4.272   3.651   8.796  0.1331  1.2691 -0.5289
 3413SOL     OW21874   0.704   4.342   5.795 -0.0635  0.1822 -0.7081
 3413SOL    HW121875   0.707   4.259   5.842 -1.8456 -0.2826 -1.3931
 3413SOL    HW221876   0.665   4.308   5.714 -0.0005  1.4613 -1.2646
 3414SOL     OW21877   0.735   3.756  16.064  0.2410 -0.5431 -0.0495
 3414SOL    HW121878   0.669   3.688  16.051 -3.1404  2.2513  2.4958
 3414SOL    HW221879   0.777   3.733  16.147 -0.4085 -1.4240  0.0351
 3415SOL     OW21880   3.292   1.863   4.065  0.5163 -0.6501  0.4198
 3415SOL    HW121881   3.234   1.789   4.047 -1.6234  1.2705 -0.6426
 3415SOL    HW221882   3.352   1.878   3.992 -1.3280 -0.4629 -1.0762
 3416SOL     OW21883   3.889   3.902   4.816  0.2165 -0.0431  0.2840
 3416SOL    HW121884   3.905   3.836   4.883  1.6626  0.8437  0.8079
 3416SOL    HW221885   3.807   3.934   4.851 -0.0172 -0.5260  0.1739
 3417SOL     OW21886   2.716   3.927   9.886  0.0008 -0.2250  0.3170
 3417SOL    HW121887   2.735   3.922   9.980 -0.5662  0.1972  0.4558
 3417SOL    HW221888   2.621   3.920   9.880  0.2604 -1.5869 -2.0187
 3418SOL     OW21889   0.850   3.312   9.938 -0.2003  0.0641  0.1000
 3418SOL    HW121890   0.867   3.388   9.994 -0.3338  0.0447  0.1673
 3418SOL    HW221891   0.869   3.352   9.853  2.2799  0.3351  0.7721
 3419SOL     OW21892   1.129   3.913   6.962 -0.1210 -0.2937  0.4146
 3419SOL    HW121893   1.207   3.857   6.960  1.9060  2.5555 -0.3325
 3419SOL    HW221894   1.057   3.853   6.978 -1.1683  0.7411 -0.4290
 3420SOL     OW21895   0.699   2.606   8.246  0.1170  0.4272  0.1024
 3420SOL    HW121896   0.664   2.671   8.184 -1.5845 -0.3776  0.2026
 3420SOL    HW221897   0.619   2.580   8.292  0.5454  0.1896  0.7070
 3421SOL     OW21898   1.606   1.029   5.206  0.2462  0.1044 -0.6103
 3421SOL    HW121899   1.603   1.033   5.110 -2.9620  0.2179 -0.4941
 3421SOL    HW221900   1.590   0.935   5.218  0.4673  0.1500  0.0570
 3422SOL     OW21901   1.277   1.000  17.720 -0.2230  0.2350  0.3109
 3422SOL    HW121902   1.330   0.920  17.731 -0.2179 -0.1090 -2.1534
 3422SOL    HW221903   1.244   1.013   0.051  1.2830  1.7960  0.6298
 3423SOL     OW21904   2.913   0.899   1.525 -0.2992 -1.3238 -0.2212
 3423SOL    HW121905   2.860   0.929   1.598  1.2064  1.9211 -0.4635
 3423SOL    HW221906   2.849   0.887   1.455  0.2927  0.3184 -1.0597
 3424SOL     OW21907   1.769   3.423   2.727  0.7842  0.3005 -0.1307
 3424SOL    HW121908   1.848   3.441   2.675  1.8123  0.3963  1.4900
 3424SOL    HW221909   1.793   3.466   2.808 -3.5306  2.0612  0.2493
 3425SOL     OW21910   3.435   4.519   3.434 -0.2333  0.1197 -0.1591
 3425SOL    HW121911   3.428   4.554   3.345  3.5649 -0.6305 -0.7496
 3425SOL    HW221912   3.397   4.435   3.407 -1.3483  0.4988  0.2146
 3426SOL     OW21913   3.384   3.697   1.742 -0.0901 -0.3978 -0.3627
 3426SOL    HW121914   3.460   3.752   1.758 -0.2445  0.1110 -1.3999
 3426SOL    HW221915   3.411   3.677   1.653 -0.3878  2.6981 -1.1547
 3427SOL     OW21916   2.341   4.499   1.066 -0.3161 -0.4228 -0.2197
 3427SOL    HW121917   2.271   4.461   1.013 -0.2131 -2.7324  1.2991
 3427SOL    HW221918   2.313   4.590   1.060  0.5026  0.0057  2.3025
 3428SOL     OW21919   3.103   1.743  16.736 -0.0204  0.2898 -0.1837
 3428SOL    HW121920   3.091   1.825  16.784 -3.0391  0.4326 -1.2186
 3428SOL    HW221921   3.198   1.730  16.739 -0.2279 -0.7290  1.8684
 3429SOL     OW21922   2.103   0.527  14.374 -0.4084 -0.1869  0.0296
 3429SOL    HW121923   2.119   0.484  14.290 -2.0658 -2.5556  0.9304
 3429SOL    HW221924   2.174   0.493  14.430  0.6884  0.2347 -1.1063
 3430SOL     OW21925   2.671   1.958   7.258  0.8896 -0.4654 -0.6483
 3430SOL    HW121926   2.766   1.955   7.252  0.8878 -0.9458 -0.4613
 3430SOL    HW221927   2.661   1.974   7.352 -0.0848  1.0631 -1.0020
 3431SOL     OW21928   1.488   1.474   6.637  0.3032 -0.0272 -0.5707
 3431SOL    HW121929   1.444   1.408   6.691  1.1312 -1.1205 -1.2278
 3431SOL    HW221930   1.497   1.426   6.554 -0.0165 -1.4708  0.2260
 3432SOL     OW21931   2.097   3.481   2.774 -0.2425 -0.5862  0.3833
 3432SOL    HW121932   2.185   3.493   2.809 -0.9039  0.4557  1.7212
 3432SOL    HW221933   2.051   3.493   2.857  0.7627  3.0027  0.3974
 3433SOL     OW21934   3.340   4.062   9.175 -0.5242 -0.7841 -0.0687
 3433SOL    HW121935   3.249   4.042   9.200 -0.8540 -1.5028 -1.8349
 3433SOL    HW221936   3.380   3.977   9.156 -0.3096 -0.6361 -0.2713
 3434SOL     OW21937   1.151   2.912   8.106 -0.1493  0.2673  0.2261
 3434SOL    HW121938   1.242   2.885   8.095 -0.1819 -1.0085  2.9812
 3434SOL    HW221939   1.153   3.007   8.096  2.1049  0.3308  1.1823
 3435SOL     OW21940   0.666   1.020   9.743  0.2875  0.4305  1.1055
 3435SOL    HW121941   0.659   1.105   9.788  0.9136  0.8570  0.3944
 3435SOL    HW221942   0.756   1.024   9.712 -0.2800 -0.4148 -0.6129
 3436SOL     OW21943   0.365   4.134   7.761 -0.1021  0.2611  0.7170
 3436SOL    HW121944   0.396   4.069   7.825 -1.7862 -0.4066  0.8480
 3436SOL    HW221945   0.369   4.083   7.680  1.8250  0.4350  0.6928
 3437SOL     OW21946   1.536   2.530   7.392 -0.7650 -0.2258  0.6922
 3437SOL    HW121947   1.592   2.462   7.432  1.4089 -0.9171 -3.5451
 3437SOL    HW221948   1.583   2.535   7.309 -1.2727  3.8881  0.6730
 3438SOL     OW21949   2.587   3.744  13.457 -0.0492 -0.8145 -0.5032
 3438SOL    HW121950   2.678   3.724  13.478  0.4720 -1.1200 -2.9636
 3438SOL    HW221951   2.588   3.837  13.477 -0.2679 -1.4120  2.2408
 3439SOL     OW21952   0.787   3.642   2.697 -0.0655 -0.0583 -0.4772
 3439SOL    HW121953   0.847   3.634   2.771  0.3140  1.4781 -0.6180
 3439SOL    HW221954   0.810   3.726   2.657  0.6916  1.2710  2.7586
 3440SOL     OW21955   0.661   3.836   0.634  0.1952  0.4317  0.3734
 3440SOL    HW121956   0.674   3.926   0.663  1.0548  0.7892 -1.1201
 3440SOL    HW221957   0.566   3.829   0.625  0.5137 -1.3444 -1.6267
 3441SOL     OW21958   3.193   0.275   4.466 -0.4668  0.3520  0.6074
 3441SOL    HW121959   3.239   0.196   4.439 -0.4142  0.8898 -0.8889
 3441SOL    HW221960   3.268   0.332   4.482  0.1787 -0.6430  1.1011
 3442SOL     OW21961   2.602   4.630  11.854 -0.2624 -0.2618  0.3436
 3442SOL    HW121962   2.537   4.699  11.861 -2.0898 -1.9771  0.3936
 3442SOL    HW221963   2.545   4.554  11.844 -0.8831  0.5664 -2.3571
 3443SOL     OW21964   2.345   3.137   6.380  0.2713  0.3108 -0.7331
 3443SOL    HW121965   2.303   3.102   6.458  0.6459 -2.7572 -1.9050
 3443SOL    HW221966   2.373   3.056   6.336  2.0361  0.2245  0.5167
 3444SOL     OW21967   3.872   1.710   6.049  0.2617  0.6222  0.1418
 3444SOL    HW121968   3.851   1.776   5.984 -0.3767 -0.9588 -1.2533
 3444SOL    HW221969   3.797   1.717   6.108  1.3535  0.3763  1.5573
 3445SOL     OW21970   1.499   3.407  17.533 -0.8832  0.1544 -0.0285
 3445SOL    HW121971   1.483   3.322  17.574 -0.2923  0.4614  0.8433
 3445SOL    HW221972   1.451   3.402  17.450 -1.3250  1.8056  0.1394
 3446SOL     OW21973   0.838   3.925   7.186 -0.0307  0.3768  0.7554
 3446SOL    HW121974   0.899   3.969   7.127  0.5982  1.4911  2.2334
 3446SOL    HW221975   0.782   3.996   7.217  0.8763  1.3219  0.2184
 3447SOL     OW21976   3.529   2.790  13.156 -0.5107  0.4338  0.4325
 3447SOL    HW121977   3.585   2.754  13.087  0.4380  1.4769  0.6696
 3447SOL    HW221978   3.461   2.723  13.169  1.2203 -1.2047  1.0290
 3448SOL     OW21979   3.691   0.117  16.309  0.7440 -0.1284  0.4297
 3448SOL    HW121980   3.761   0.054  16.323  1.2469  0.3130 -0.0877
 3448SOL    HW221981   3.649   0.105  16.394  1.1867 -0.3953  0.6066
 3449SOL     OW21982   2.507   4.527  15.727 -0.3452  0.3110 -0.2229
 3449SOL    HW121983   2.438   4.490  15.671 -0.2728 -0.1229 -0.0218
 3449SOL    HW221984   2.579   4.514  15.666 -1.3102 -0.2785 -1.2527
 3450SOL     OW21985   2.086   4.363   7.044 -0.0361  0.4862 -0.8531
 3450SOL    HW121986   2.061   4.282   7.089  2.9029 -0.4595 -0.9312
 3450SOL    HW221987   2.000   4.394   7.016 -0.7664 -0.5100  0.3213
 3451SOL     OW21988   4.075   2.626   9.480  0.4401  0.4509  0.3104
 3451SOL    HW121989   4.037   2.702   9.524 -2.1365  0.1378 -1.3586
 3451SOL    HW221990   4.143   2.598   9.542 -0.3528 -1.6295  0.2420
 3452SOL     OW21991   2.981   2.517   9.055 -0.8422 -0.0955  0.0605
 3452SOL    HW121992   2.954   2.599   9.014  0.3301  1.9276  3.3594
 3452SOL    HW221993   2.977   2.552   9.144 -0.7936  0.6575 -0.2348
 3453SOL     OW21994   4.113   3.113   1.890  0.0127 -0.2372  0.0053
 3453SOL    HW121995   4.116   3.117   1.985 -2.2082  1.1683  0.0362
 3453SOL    HW221996   4.175   3.182   1.866  1.2415 -0.7264  1.7660
 3454SOL     OW21997   2.217   4.435   6.245 -0.1323  0.2474  0.0106
 3454SOL    HW121998   2.283   4.403   6.184 -1.4046  0.2187 -1.3655
 3454SOL    HW221999   2.138   4.439   6.191 -0.1096 -3.9476 -0.3844
 3455SOL     OW22000   2.965   3.856   6.243  0.0289 -0.3165 -0.2664
 3455SOL    HW122001   2.891   3.842   6.303 -2.3259  3.1122 -2.3745
 3455SOL    HW222002   2.957   3.951   6.248  0.7201 -0.2533 -0.3696
 3456SOL     OW22003   0.676   0.480   2.113  0.2881  0.1308 -0.0722
 3456SOL    HW122004   0.650   0.542   2.045  1.7087  0.3709 -0.3929
 3456SOL    HW222005   0.738   0.534   2.160  0.7528 -0.6120  0.1637
 3457SOL     OW22006   3.279   2.138   7.256  0.1178 -0.0685 -0.0188
 3457SOL    HW122007   3.312   2.208   7.200 -1.1542  1.9063  1.6567
 3457SOL    HW222008   3.231   2.197   7.314  0.5427  1.0200 -0.7722
 3458SOL     OW22009   3.279   4.478  11.535  0.2397  0.0159  0.5075
 3458SOL    HW122010   3.227   4.535  11.591 -3.5013 -0.7210 -2.2229
 3458SOL    HW222011   3.229   4.396  11.535  0.7264 -0.2821 -3.0283
 3459SOL     OW22012   4.591   2.309  10.119 -0.4301 -0.0606 -0.1576
 3459SOL    HW122013   4.627   2.235  10.069  0.4093  1.0957 -1.2789
 3459SOL    HW222014   4.498   2.292  10.106  0.2467 -4.0197  0.1392
 3460SOL     OW22015   1.060   1.723  16.902 -0.2152  0.0710  0.4161
 3460SOL    HW122016   0.970   1.754  16.890 -0.6462 -0.4615  2.1509
 3460SOL    HW222017   1.112   1.749  16.826 -3.3402  1.0239 -1.3979
 3461SOL     OW22018   2.472   2.467   5.568  0.3859  0.3607 -0.5310
 3461SOL    HW122019   2.379   2.489   5.563  0.4920  1.4355  2.3747
 3461SOL    HW222020   2.483   2.450   5.661  1.7164 -1.0235 -0.9170
 3462SOL     OW22021   0.216   1.499   3.044  0.1587 -0.0345 -0.2006
 3462SOL    HW122022   0.189   1.433   3.107 -0.4110  0.5584  0.1766
 3462SOL    HW222023   0.140   1.491   2.987  1.3929 -1.4710 -1.6373
 3463SOL     OW22024   2.673   3.231   1.998  0.2741 -0.4916  0.5534
 3463SOL    HW122025   2.639   3.319   2.014 -2.9293 -1.7604  0.6842
 3463SOL    HW222026   2.684   3.201   2.088  0.3545  0.9433  1.0224
 3464SOL     OW22027   2.431   3.896   4.786 -0.0237 -0.4155 -0.0970
 3464SOL    HW122028   2.453   3.840   4.861 -3.7763 -1.5563  0.1240
 3464SOL    HW222029   2.341   3.921   4.809 -0.1441 -0.0037 -1.0452
 3465SOL     OW22030   0.958   0.982   4.125  0.2072 -0.2363  0.0031
 3465SOL    HW122031   0.907   0.995   4.045  0.0709 -1.4932 -0.1230
 3465SOL    HW222032   0.885   0.983   4.187  1.3336  2.0212  1.2621
 3466SOL     OW22033   2.606   4.394   1.369  0.1940  0.3357 -0.0880
 3466SOL    HW122034   2.557   4.348   1.300 -2.7603  1.7131  1.0972
 3466SOL    HW222035   2.636   4.316   1.416  0.3886 -0.1032 -0.9258
 3467SOL     OW22036   2.434   1.156   2.953  0.6421 -0.0480  0.2247
 3467SOL    HW122037   2.347   1.123   2.975  1.7254 -1.3126  2.5920
 3467SOL    HW222038   2.416   1.197   2.868  0.5476  0.8412  0.6724
 3468SOL     OW22039   0.212   2.503   6.237 -0.3866 -0.5075 -0.0684
 3468SOL    HW122040   0.232   2.517   6.144 -0.7380 -2.6360 -0.4580
 3468SOL    HW222041   0.259   2.571   6.285 -0.7504  0.0766 -0.5269
 3469SOL     OW22042   3.268   0.578  11.396  0.6691  0.0864  0.4916
 3469SOL    HW122043   3.278   0.484  11.403  1.0287 -0.0271 -1.5280
 3469SOL    HW222044   3.180   0.593  11.359  0.5518 -0.0550  0.7196
 3470SOL     OW22045   4.179   0.029  14.304 -0.4441  0.0296  0.4251
 3470SOL    HW122046   4.211   0.119  14.305 -0.4544  0.0497 -1.2656
 3470SOL    HW222047   4.179   0.009  14.397 -0.1680 -0.5758  0.2973
 3471SOL     OW22048   1.267   3.011   7.414 -0.0811 -0.2073 -0.2573
 3471SOL    HW122049   1.317   3.049   7.343  2.4442 -2.6003  0.2147
 3471SOL    HW222050   1.195   3.074   7.413 -1.0962 -1.3884 -1.5719
 3472SOL     OW22051   0.211   1.780  15.042 -0.0790 -0.1336  0.7233
 3472SOL    HW122052   0.267   1.738  15.107  1.4841  1.1402  0.1817
 3472SOL    HW222053   0.173   1.855  15.087  1.9269  1.0374  0.4552
 3473SOL     OW22054   3.838   3.333   4.367 -0.5674 -0.2735 -0.8839
 3473SOL    HW122055   3.917   3.294   4.329  0.1967 -0.3267  0.7491
 3473SOL    HW222056   3.861   3.424   4.388 -1.0518 -0.6844  1.3954
 3474SOL     OW22057   0.921   1.141  12.215  0.5082  0.0836  0.6649
 3474SOL    HW122058   0.933   1.179  12.302  1.0564  0.9719  0.2114
 3474SOL    HW222059   0.837   1.178  12.190  0.7638  0.6481  0.6283
 3475SOL     OW22060   4.092   3.889   7.289  0.0772  0.0686 -0.4338
 3475SOL    HW122061   4.047   3.925   7.365  0.8554  1.8820 -0.8336
 3475SOL    HW222062   4.041   3.810   7.269 -0.9992  0.4951  0.6404
 3476SOL     OW22063   2.958   2.138   5.389  0.3290  0.2266  0.2927
 3476SOL    HW122064   2.869   2.123   5.357 -0.4035  1.3982  1.7799
 3476SOL    HW222065   2.942   2.211   5.450  2.0792  1.1055 -0.3035
 3477SOL     OW22066   1.979   3.045   4.669 -0.1658  0.2402 -0.5478
 3477SOL    HW122067   1.976   3.058   4.763  2.2075 -0.3310 -0.3846
 3477SOL    HW222068   2.075   3.045   4.664 -0.1932  0.9736 -1.2064
 3478SOL     OW22069   0.658   2.929  17.330 -0.2728  0.1212 -0.5677
 3478SOL    HW122070   0.644   2.836  17.348 -0.3091  0.2546  0.0901
 3478SOL    HW222071   0.611   2.976  17.400  0.8419 -1.5034  1.2563
 3479SOL     OW22072   4.221   0.021   9.005  0.5016  0.4632 -0.3980
 3479SOL    HW122073   4.309   0.055   9.021  0.0835  0.3758  2.1204
 3479SOL    HW222074   4.160   0.091   9.028 -0.3361  0.1729 -1.7367
 3480SOL     OW22075   1.041   2.458  16.897 -0.5324 -0.2695  0.1033
 3480SOL    HW122076   1.041   2.505  16.814  2.7699  0.7630  0.7105
 3480SOL    HW222077   0.956   2.492  16.925 -0.8326 -0.6045 -0.4098
 3481SOL     OW22078   3.981   3.329  16.675  0.3725  0.1505  0.0726
 3481SOL    HW122079   4.006   3.364  16.590  1.3399  0.7822  0.6125
 3481SOL    HW222080   3.974   3.234  16.663  0.0242  0.0667  0.8731
 3482SOL     OW22081   4.615   4.579   5.098  0.5059 -0.5631  0.3921
 3482SOL    HW122082   4.556   4.541   5.164 -1.1388  0.5671 -0.4169
 3482SOL    HW222083   4.546   4.608   5.039 -0.6158  1.7671  2.8259
 3483SOL     OW22084   4.322   4.550   4.676  0.7456  0.1985 -0.3657
 3483SOL    HW122085   4.406   4.558   4.721 -0.6764  0.5922  2.1739
 3483SOL    HW222086   4.268   4.591   4.743 -0.0961 -1.1587 -0.2071
 3484SOL     OW22087   0.553   4.458  16.066  0.7017 -0.0070  0.1121
 3484SOL    HW122088   0.552   4.370  16.029 -3.9767 -1.3493  3.4335
 3484SOL    HW222089   0.465   4.493  16.052  1.2340  1.5116  0.5623
 3485SOL     OW22090   3.312   0.723   2.390  0.3368  0.2234 -0.0446
 3485SOL    HW122091   3.345   0.750   2.475 -1.0673 -0.5623  0.7424
 3485SOL    HW222092   3.330   0.797   2.332 -2.7628  2.2060  1.5818
 3486SOL     OW22093   0.845   2.604   5.908  0.4457 -0.0056 -0.0001
 3486SOL    HW122094   0.779   2.634   5.845 -0.3731  1.6160  1.6295
 3486SOL    HW222095   0.918   2.660   5.879  1.0975  0.6794  2.9821
 3487SOL     OW22096   4.653   1.628  13.141  0.1751  0.5311 -0.6393
 3487SOL    HW122097   4.601   1.706  13.162 -0.7155 -0.6370  1.5283
 3487SOL    HW222098   4.638   1.619  13.047  2.1185 -0.3061 -0.8619
 3488SOL     OW22099   1.357   2.971   6.617 -0.6309 -0.6116 -0.1467
 3488SOL    HW122100   1.363   2.996   6.525 -1.6822  1.0708  0.2616
 3488SOL    HW222101   1.329   3.056   6.650 -0.0064 -0.7222  0.6755
 3489SOL     OW22102   3.518   3.938   3.640 -0.3482  0.0605  0.6266
 3489SOL    HW122103   3.566   4.011   3.602 -1.1672  0.1067 -0.2974
 3489SOL    HW222104   3.439   3.986   3.663 -0.4584  0.0776  0.1991
 3490SOL     OW22105   2.851   4.129   8.357  0.5074 -0.4484 -0.0532
 3490SOL    HW122106   2.810   4.053   8.315 -0.5545 -0.4447  0.9635
 3490SOL    HW222107   2.906   4.170   8.291 -0.3166  1.1096  0.2437
 3491SOL     OW22108   0.874   1.342   3.843  0.1705  0.1997 -0.3378
 3491SOL    HW122109   0.969   1.335   3.843  0.0673 -1.1246  1.6270
 3491SOL    HW222110   0.861   1.436   3.832  1.3974  0.3007 -0.8854
 3492SOL     OW22111   4.716   4.067   7.723 -0.0251  0.0209  0.3343
 3492SOL    HW122112   0.026   3.989   7.702  1.0773  1.2873 -1.8026
 3492SOL    HW222113   4.736   4.059   7.816 -1.9308  0.3907  0.7804
 3493SOL     OW22114   3.288   2.200   3.550 -0.0620  0.3267 -0.6807
 3493SOL    HW122115   3.205   2.202   3.597 -0.0252  1.2508 -0.6580
 3493SOL    HW222116   3.286   2.121   3.497  1.4445  0.2782 -0.6643
 3494SOL     OW22117   1.586   3.010  14.108  0.4286 -0.1811 -0.4353
 3494SOL    HW122118   1.549   3.083  14.058  0.0915 -0.5899 -0.7823
 3494SOL    HW222119   1.577   3.031  14.201 -0.6539 -1.9853 -0.1363
 3495SOL     OW22120   2.755   2.489   5.211 -0.6586  0.2610  0.0811
 3495SOL    HW122121   2.763   2.440   5.293 -1.4958 -2.4515 -1.4628
 3495SOL    HW222122   2.804   2.566   5.241 -3.0232  1.1833  1.5652
 3496SOL     OW22123   0.571   0.760   3.227 -0.3002 -0.0627  0.0787
 3496SOL    HW122124   0.607   0.686   3.275  3.0279  1.2961 -0.3251
 3496SOL    HW222125   0.513   0.718   3.164 -0.9709 -2.4511  2.2894
 3497SOL     OW22126   4.588   4.343   3.298 -0.3705 -0.5380 -0.2749
 3497SOL    HW122127   4.505   4.360   3.253 -1.2639  0.9152  1.8626
 3497SOL    HW222128   4.650   4.355   3.227  0.2228 -0.7299  0.2149
 3498SOL     OW22129   1.602   1.559   3.331  0.0587  0.2190 -0.1717
 3498SOL    HW122130   1.616   1.653   3.319 -0.2044  0.0963 -1.4199
 3498SOL    HW222131   1.523   1.549   3.278 -1.9596 -1.3820  3.1321
 3499SOL     OW22132   3.812   0.506   3.746  1.1390 -0.0066  0.2429
 3499SOL    HW122133   3.840   0.430   3.797  2.6075 -0.2162 -0.8676
 3499SOL    HW222134   3.817   0.573   3.814  0.3057 -0.9679  1.2471
 3500SOL     OW22135   0.657   0.725   4.872  0.3492  0.1656  0.6568
 3500SOL    HW122136   0.567   0.696   4.880 -0.0255  1.5448  1.4602
 3500SOL    HW222137   0.650   0.810   4.915  1.2770  1.2330 -1.2999
 3501SOL     OW22138   2.624   0.930   4.812  0.2829 -0.3032 -0.4458
 3501SOL    HW122139   2.627   0.906   4.719  0.8819  2.6071 -1.1732
 3501SOL    HW222140   2.685   1.003   4.821 -0.9465  0.9135 -2.0726
 3502SOL     OW22141   1.560   2.414  17.248  1.1288  0.1105 -0.0580
 3502SOL    HW122142   1.481   2.447  17.292 -0.7635 -0.7757 -2.8196
 3502SOL    HW222143   1.597   2.497  17.217 -0.5085  0.7321 -0.3872
 3503SOL     OW22144   4.247   3.935   5.705 -0.1707 -0.1182  0.2638
 3503SOL    HW122145   4.311   3.872   5.738  0.1531  0.0708 -0.0079
 3503SOL    HW222146   4.304   4.000   5.663  1.4871 -0.4119  2.0499
 3504SOL     OW22147   2.290   1.020  10.777  0.3743  0.3989 -0.1806
 3504SOL    HW122148   2.296   1.103  10.825 -2.6204 -0.1096  1.0479
 3504SOL    HW222149   2.196   1.024  10.757  0.8121 -0.1787 -2.4140
 3505SOL     OW22150   4.066   1.751   4.340  0.2076 -0.2605 -0.4294
 3505SOL    HW122151   4.124   1.816   4.300  0.6454 -0.1064  0.4681
 3505SOL    HW222152   4.123   1.708   4.403  0.7362  0.0234 -0.7121
 3506SOL     OW22153   4.194   2.272   7.837 -0.2939 -0.6270 -0.7075
 3506SOL    HW122154   4.104   2.241   7.837 -0.8377  0.9492  2.4751
 3506SOL    HW222155   4.184   2.336   7.908 -0.5492 -0.8103 -0.5810
 3507SOL     OW22156   1.814   2.558   8.276  0.2275 -0.0432  0.2559
 3507SOL    HW122157   1.873   2.571   8.350 -0.6070  0.2532  0.8657
 3507SOL    HW222158   1.743   2.507   8.315  0.6866 -0.4012  0.6218
 3508SOL     OW22159   3.253   2.410   0.847 -0.3041 -0.0196  0.5538
 3508SOL    HW122160   3.196   2.333   0.856  0.0340 -0.6615 -2.7952
 3508SOL    HW222161   3.261   2.414   0.752 -0.1881  0.0338  0.5664
 3509SOL     OW22162   2.680   0.868   4.105  0.0695  0.3157 -0.4165
 3509SOL    HW122163   2.769   0.836   4.124  0.8901  1.2924 -2.5448
 3509SOL    HW222164   2.652   0.792   4.054  0.4979 -2.2058  3.1663
 3510SOL     OW22165   1.666   1.778   4.710 -0.0720 -0.0153  0.5260
 3510SOL    HW122166   1.701   1.690   4.725  1.2751  0.6854  1.4673
 3510SOL    HW222167   1.698   1.823   4.788 -1.8073 -0.7223  1.6477
 3511SOL     OW22168   2.589   4.534   9.593  0.1324  0.2462 -0.3561
 3511SOL    HW122169   2.575   4.455   9.540  2.8015  0.4620 -1.3958
 3511SOL    HW222170   2.499   4.565   9.601  0.2517  0.5477 -0.2068
 3512SOL     OW22171   1.386   0.804   2.575  0.1056  0.0777  1.0707
 3512SOL    HW122172   1.378   0.712   2.600 -0.3653  0.2074  1.4052
 3512SOL    HW222173   1.362   0.809   2.483  3.9457 -1.0984  0.0151
 3513SOL     OW22174   1.316   4.131   1.725 -0.2692  0.1715 -0.0753
 3513SOL    HW122175   1.232   4.176   1.738 -0.4615 -0.2657  0.1883
 3513SOL    HW222176   1.284   4.051   1.683  1.6240 -1.1871  1.0256
 3514SOL     OW22177   3.915   3.935   7.501 -0.6381 -0.0786  0.1727
 3514SOL    HW122178   3.833   3.888   7.515  0.2525 -1.2997  1.3113
 3514SOL    HW222179   3.886   4.017   7.540  0.1068 -0.0864  0.7466
 3515SOL     OW22180   1.383   3.211   2.459  0.7139  0.8017  0.0920
 3515SOL    HW122181   1.426   3.142   2.508 -2.9049 -1.3995  0.1982
 3515SOL    HW222182   1.455   3.274   2.457  1.4461 -0.0501 -0.2016
 3516SOL     OW22183   2.836   3.113   0.482 -0.3482  0.5974 -0.0938
 3516SOL    HW122184   2.765   3.103   0.420 -0.3388 -0.9736  0.1383
 3516SOL    HW222185   2.864   3.023   0.498  0.6374  0.7906 -0.7284
 3517SOL     OW22186   3.517   1.765   7.975  0.7093 -0.2896  0.2212
 3517SOL    HW122187   3.472   1.682   7.958  1.9035 -0.9605  0.3787
 3517SOL    HW222188   3.490   1.789   8.064 -0.2279 -1.4874  0.2555
 3518SOL     OW22189   1.457   0.100   7.259 -0.2264  0.0723 -0.2125
 3518SOL    HW122190   1.430   0.066   7.174  3.1489 -1.2623 -0.7626
 3518SOL    HW222191   1.544   0.124   7.227 -1.0123  2.2298 -0.7599
 3519SOL     OW22192   1.318   1.767   2.558  0.1131  0.5770 -0.0094
 3519SOL    HW122193   1.261   1.758   2.481 -1.3725 -0.5942  1.2306
 3519SOL    HW222194   1.374   1.690   2.547  2.3413  2.1166  0.5739
 3520SOL     OW22195   1.858   4.465   6.914  0.3655  0.0159 -0.0041
 3520SOL    HW122196   1.772   4.481   6.954  0.8468  0.5214  0.8463
 3520SOL    HW222197   1.867   4.542   6.858 -0.4965  0.6442  0.7125
 3521SOL     OW22198   4.365   1.252   8.506 -0.7721  0.0807 -0.4319
 3521SOL    HW122199   4.397   1.165   8.481  1.2986  1.2636 -1.9108
 3521SOL    HW222200   4.369   1.234   8.600  1.9655  2.3376 -0.0923
 3522SOL     OW22201   0.012   4.659  16.549  0.0661 -0.0481  0.8240
 3522SOL    HW122202   0.099   4.698  16.536  0.2026 -1.4152 -2.2806
 3522SOL    HW222203   4.732   4.685  16.639  2.0543  0.0640  1.2390
 3523SOL     OW22204   3.493   3.350   6.962  0.1976 -0.1654  0.0248
 3523SOL    HW122205   3.542   3.429   6.986  0.6257 -0.4569  0.0947
 3523SOL    HW222206   3.457   3.371   6.876  1.1615  2.4470  0.2407
 3524SOL     OW22207   0.379   2.998   4.207  0.1098 -0.1087  0.1502
 3524SOL    HW122208   0.447   2.937   4.179 -1.4708 -2.7201  1.9810
 3524SOL    HW222209   0.299   2.946   4.196  1.1555 -1.6325 -0.2374
 3525SOL     OW22210   0.704   3.827  10.321 -0.3505 -0.1181  0.4651
 3525SOL    HW122211   0.613   3.839  10.348 -0.5459  0.0101 -0.2658
 3525SOL    HW222212   0.720   3.912  10.281  1.0310 -0.9503 -0.7328
 3526SOL     OW22213   2.690   3.892   8.757  0.0509  0.1156 -0.7336
 3526SOL    HW122214   2.624   3.823   8.763 -0.4302  0.9261  3.2928
 3526SOL    HW222215   2.712   3.878   8.665  1.1928  1.9007 -0.7341
 3527SOL     OW22216   0.057   1.081  17.594 -0.2244 -0.2781  0.3892
 3527SOL    HW122217   0.011   0.998  17.581 -0.6076 -0.1029  0.6049
 3527SOL    HW222218   0.145   1.051  17.614 -0.1033  0.3090  0.7472
 3528SOL     OW22219   1.881   1.294  10.285 -0.2889  0.3895  0.3712
 3528SOL    HW122220   1.954   1.239  10.257 -0.0581  0.9581 -0.1424
 3528SOL    HW222221   1.825   1.293  10.208 -0.0102 -0.7904  0.1850
 3529SOL     OW22222   4.474   3.183   8.678 -0.6725 -0.4246  0.6595
 3529SOL    HW122223   4.558   3.193   8.723  0.1480  1.2537 -1.2637
 3529SOL    HW222224   4.473   3.271   8.641  2.5070  0.0596  1.7411
 3530SOL     OW22225   0.675   1.381   9.030  0.2852  0.1893 -0.2155
 3530SOL    HW122226   0.681   1.476   9.046  0.8631  0.1018  0.0920
 3530SOL    HW222227   0.662   1.356   9.122  0.6961  1.6200  0.2434
 3531SOL     OW22228   3.039   4.491   3.549 -0.1740  0.3161  0.0443
 3531SOL    HW122229   3.086   4.443   3.617 -1.7581 -1.6388 -0.2486
 3531SOL    HW222230   3.086   4.574   3.556  1.7270 -0.7041 -0.5878
 3532SOL     OW22231   4.250   2.600   7.247  0.1211 -0.0423 -0.0510
 3532SOL    HW122232   4.291   2.585   7.332 -1.8965 -0.0422  0.9251
 3532SOL    HW222233   4.163   2.637   7.266  0.0261 -1.1828  1.8050
 3533SOL     OW22234   4.508   3.840   9.602 -0.9148 -0.2345 -0.0585
 3533SOL    HW122235   4.440   3.778   9.577 -2.2354  1.2523 -0.1502
 3533SOL    HW222236   4.541   3.805   9.684 -0.1231  0.4222 -0.0915
 3534SOL     OW22237   3.114   2.448   6.095 -0.0124  0.1928  0.1144
 3534SOL    HW122238   3.210   2.446   6.096  0.0158  1.9448  0.6149
 3534SOL    HW222239   3.098   2.506   6.169 -0.0825 -0.8823  0.9415
 3535SOL     OW22240   3.232   3.633  13.841  0.2016  0.0813 -0.1137
 3535SOL    HW122241   3.265   3.674  13.921  0.9670 -1.6003  0.4503
 3535SOL    HW222242   3.307   3.582  13.809 -1.0598 -2.2245  0.5390
 3536SOL     OW22243   1.174   4.578   6.818 -0.2726  0.3686  0.1611
 3536SOL    HW122244   1.120   4.509   6.858 -1.8117  0.9567 -0.9276
 3536SOL    HW222245   1.239   4.521   6.777 -0.5504  1.8129 -2.2466
 3537SOL     OW22246   0.370   2.287  12.370  0.6595  0.3295 -0.1470
 3537SOL    HW122247   0.406   2.258  12.287  2.9851  3.8568 -0.3284
 3537SOL    HW222248   0.450   2.313  12.416  0.9643  0.6613 -0.8785
 3538SOL     OW22249   4.057   2.040   8.557  0.2662 -0.0357 -0.4963
 3538SOL    HW122250   3.992   2.042   8.487  2.0939  0.4539 -2.1725
 3538SOL    HW222251   4.030   2.115   8.609 -2.6422 -1.9081  0.7115
 3539SOL     OW22252   4.568   0.199   3.927 -0.3180 -0.1283  0.0946
 3539SOL    HW122253   4.594   0.281   3.967  1.8622  0.1663 -1.9452
 3539SOL    HW222254   4.615   0.132   3.976  2.7490  1.5005 -0.6552
 3540SOL     OW22255   3.651   2.253   8.877  0.2192  0.2960  0.0910
 3540SOL    HW122256   3.701   2.335   8.882 -1.1361  1.0769  1.1649
 3540SOL    HW222257   3.577   2.264   8.937 -1.0457 -1.7946 -1.1312
 3541SOL     OW22258   3.154   3.535   4.006  0.2309 -0.0475 -0.2700
 3541SOL    HW122259   3.107   3.617   4.026 -0.5832 -0.4688 -0.4280
 3541SOL    HW222260   3.123   3.482   4.079 -0.5832  1.5521  0.5467
 3542SOL     OW22261   3.527   3.641  11.318 -0.4099  0.2893 -0.2894
 3542SOL    HW122262   3.606   3.636  11.371 -0.5720  1.3676  0.0388
 3542SOL    HW222263   3.569   3.649  11.232  1.2738  0.6071  0.5834
 3543SOL     OW22264   2.347   3.710   8.405 -0.1492  0.3586  0.6354
 3543SOL    HW122265   2.342   3.805   8.420  0.5743  0.4391  0.3678
 3543SOL    HW222266   2.264   3.685   8.364  0.8912  1.2283 -2.0066
 3544SOL     OW22267   0.944   0.147  12.162 -0.6958 -0.4071 -0.2003
 3544SOL    HW122268   0.994   0.116  12.086  1.1190 -2.3709  1.8374
 3544SOL    HW222269   0.927   0.073  12.219  0.2861 -0.4664  0.0106
 3545SOL     OW22270   1.990   0.292  12.044  0.4730  0.0138  0.0803
 3545SOL    HW122271   2.081   0.261  12.048 -0.4424 -2.8438 -0.8687
 3545SOL    HW222272   1.945   0.207  12.047  0.0326  0.2371 -0.3879
 3546SOL     OW22273   0.877   0.584   4.524  0.1130 -0.5184 -0.6843
 3546SOL    HW122274   0.964   0.573   4.484 -0.8298 -1.3065 -2.5060
 3546SOL    HW222275   0.884   0.666   4.573  3.0038 -0.8325 -0.5901
 3547SOL     OW22276   0.167   3.782   6.818  0.0514 -0.2090 -0.0807
 3547SOL    HW122277   0.196   3.810   6.731 -1.4249  0.0951 -0.4686
 3547SOL    HW222278   0.199   3.852   6.875  1.4149 -1.7781  1.0937
 3548SOL     OW22279   1.404   0.460   9.633 -0.0995  0.3514 -0.1848
 3548SOL    HW122280   1.479   0.466   9.693  1.1240 -2.1230 -1.4263
 3548SOL    HW222281   1.355   0.388   9.672  0.6201  0.0803  0.2212
 3549SOL     OW22282   0.345   0.988   8.627  0.5495  0.5317 -0.5561
 3549SOL    HW122283   0.419   0.936   8.658  1.0407  1.9176  0.5781
 3549SOL    HW222284   0.309   1.008   8.714  2.2875  2.2256 -0.2381
 3550SOL     OW22285   2.167   3.034   9.042 -0.3599  0.2501  0.6512
 3550SOL    HW122286   2.219   2.964   9.001 -0.5322  0.8794 -0.6450
 3550SOL    HW222287   2.230   3.056   9.111  0.8572 -3.0499  0.6055
 3551SOL     OW22288   0.690   0.030   3.335 -0.5589  0.7693 -0.2655
 3551SOL    HW122289   0.709   4.680   3.307 -0.5576  1.1589 -1.5065
 3551SOL    HW222290   0.601   0.011   3.364 -0.6687  0.2979 -0.9136
 3552SOL     OW22291   0.291   3.612   2.856 -0.0862  0.9573 -0.0426
 3552SOL    HW122292   0.366   3.663   2.826  0.8550 -0.4814 -0.1012
 3552SOL    HW222293   0.307   3.539   2.797 -1.5885  0.6252 -0.0573
 3553SOL     OW22294   3.863   1.315   3.482  0.1564  0.0841 -0.1285
 3553SOL    HW122295   3.864   1.395   3.430 -1.7097  1.2951  1.6755
 3553SOL    HW222296   3.770   1.311   3.504  0.5340 -0.7783  1.3220
 3554SOL     OW22297   1.476   1.940   3.023  0.0105  0.3000 -0.0743
 3554SOL    HW122298   1.457   1.970   2.934 -0.7689 -2.3626 -0.8043
 3554SOL    HW222299   1.494   1.846   3.011 -0.4373  0.0782  0.9288
 3555SOL     OW22300   4.717   1.753   4.724 -0.1429  0.1936 -0.2033
 3555SOL    HW122301   4.708   1.824   4.660  1.7185 -0.1633 -0.8475
 3555SOL    HW222302   4.693   1.686   4.661 -0.8953 -0.7683  1.1119
 3556SOL     OW22303   0.159   3.606   4.956 -0.0900  0.1085 -0.3202
 3556SOL    HW122304   0.135   3.603   4.864  0.3478 -0.2039 -0.4266
 3556SOL    HW222305   0.072   3.620   4.992  1.0266  0.2719  2.3509
 3557SOL     OW22306   2.646   2.800  13.114 -0.5418  0.0758 -0.1322
 3557SOL    HW122307   2.553   2.776  13.108  0.0827 -2.1489 -1.0942
 3557SOL    HW222308   2.668   2.728  13.173 -1.2557 -1.2456 -1.4717
 3558SOL     OW22309   4.495   0.514   7.187 -0.3995  0.1994 -0.1211
 3558SOL    HW122310   4.452   0.598   7.198 -0.2050  0.2532  0.2235
 3558SOL    HW222311   4.484   0.493   7.094 -1.5531  1.3676 -0.2405
 3559SOL     OW22312   1.271   2.567   1.383 -0.2046 -0.1717 -0.0402
 3559SOL    HW122313   1.242   2.644   1.433  0.8556 -0.1405  0.5381
 3559SOL    HW222314   1.321   2.606   1.311 -1.8380 -0.0238 -1.0994
 3560SOL     OW22315   2.144   3.720  15.087 -0.0791  0.6243 -0.2106
 3560SOL    HW122316   2.214   3.683  15.034 -1.2878  0.4602 -1.6965
 3560SOL    HW222317   2.074   3.708  15.024 -0.5439  0.8198  0.2651
 3561SOL     OW22318   0.699   1.016   4.228 -0.2420 -0.4325 -0.3198
 3561SOL    HW122319   0.685   0.993   4.136  0.4749 -0.1057 -0.5114
 3561SOL    HW222320   0.605   1.025   4.243 -0.4165 -0.3888 -1.4349
 3562SOL     OW22321   2.513   1.955   2.728  0.1206  0.0518  0.6706
 3562SOL    HW122322   2.448   1.908   2.781 -3.1559  0.4826 -2.9643
 3562SOL    HW222323   2.461   1.960   2.647 -1.0970  0.6088  1.4819
 3563SOL     OW22324   4.595   0.628   9.108 -0.2970  0.1351 -0.2777
 3563SOL    HW122325   4.659   0.692   9.139 -1.5847  1.9485 -1.3239
 3563SOL    HW222326   4.538   0.689   9.061  0.8873  2.9723  1.9822
 3564SOL     OW22327   3.456   4.203   7.673  1.1699 -0.2637 -0.1198
 3564SOL    HW122328   3.438   4.242   7.587  0.6714  0.3852  0.2778
 3564SOL    HW222329   3.511   4.273   7.710  0.4785 -0.4531  1.2653
 3565SOL     OW22330   4.334   1.474   3.462  0.0617  0.0055 -0.4659
 3565SOL    HW122331   4.322   1.527   3.383 -1.3847  1.9848  1.1003
 3565SOL    HW222332   4.357   1.386   3.431 -1.1986 -0.6446  0.4528
 3566SOL     OW22333   3.434   1.625   2.914  0.1861 -0.3596 -0.0863
 3566SOL    HW122334   3.392   1.711   2.913  1.9327  0.5045  1.2321
 3566SOL    HW222335   3.477   1.611   2.998  0.5437 -1.1715 -0.4047
 3567SOL     OW22336   2.656   1.396   6.177 -0.0220  0.0593 -0.3236
 3567SOL    HW122337   2.662   1.452   6.254  1.9930  0.5405 -0.8460
 3567SOL    HW222338   2.707   1.436   6.107  3.0839 -1.4363  1.0770
 3568SOL     OW22339   3.524   1.548   2.131 -0.0939 -0.0062 -0.2252
 3568SOL    HW122340   3.429   1.537   2.135  0.0800 -2.3508 -2.4543
 3568SOL    HW222341   3.545   1.564   2.223  0.9335  2.9988 -0.9780
 3569SOL     OW22342   2.821   0.998  10.305  0.0875 -0.2450  0.0250
 3569SOL    HW122343   2.770   0.988  10.386  2.4171  1.0426  1.6414
 3569SOL    HW222344   2.848   1.089  10.304  2.3998 -0.9526 -0.5650
 3570SOL     OW22345   2.828   1.693   3.717 -0.0950 -0.1458 -0.6280
 3570SOL    HW122346   2.771   1.617   3.704 -1.6858  0.7482  1.3232
 3570SOL    HW222347   2.917   1.656   3.711  0.6397  1.2849  1.4985
 3571SOL     OW22348   1.103   0.845   8.195 -0.0172  0.3582  0.4551
 3571SOL    HW122349   1.164   0.860   8.267  0.1820 -2.3129  0.8438
 3571SOL    HW222350   1.073   0.754   8.203 -2.7250  1.3236  1.1298
 3572SOL     OW22351   0.965   3.026   8.979 -0.5266  0.2725 -0.1983
 3572SOL    HW122352   1.010   3.057   9.058  0.3134 -1.9953  0.2080
 3572SOL    HW222353   0.955   3.106   8.927 -3.1833 -0.0414 -0.2010
 3573SOL     OW22354   2.589   1.923  12.666 -0.8504 -0.7708  0.4151
 3573SOL    HW122355   2.519   1.986  12.651  2.2686  2.3633 -0.8017
 3573SOL    HW222356   2.548   1.846  12.705 -1.5382 -0.9479 -0.6712
 3574SOL     OW22357   0.539   2.226  11.903  0.3432 -0.0654 -0.1085
 3574SOL    HW122358   0.568   2.316  11.890 -0.6388  0.0919 -1.1763
 3574SOL    HW222359   0.593   2.173  11.844 -0.7260  1.1101 -2.0913
 3575SOL     OW22360   0.252   3.328   9.991  0.0283  1.0017  0.1173
 3575SOL    HW122361   0.292   3.279  10.062  0.9106  0.5241 -0.7142
 3575SOL    HW222362   0.324   3.334   9.928 -0.5734  0.5822 -0.5979
 3576SOL     OW22363   2.202   2.126   7.152 -0.5398  0.1784  0.2367
 3576SOL    HW122364   2.107   2.140   7.151 -0.4141  1.1187  1.5205
 3576SOL    HW222365   2.219   2.142   7.059  0.4685 -1.8440  0.0651
 3577SOL     OW22366   1.512   1.124   5.971  0.2243  0.5760 -0.0787
 3577SOL    HW122367   1.570   1.055   5.939  0.0281  0.4341 -0.1286
 3577SOL    HW222368   1.463   1.088   6.045 -0.1781  0.6214 -0.3190
 3578SOL     OW22369   0.846   3.639  10.455 -0.0765 -0.1213  0.1359
 3578SOL    HW122370   0.791   3.700  10.404 -1.5200 -0.3656  1.3967
 3578SOL    HW222371   0.829   3.678  10.541 -0.4107  0.1378 -0.0439
 3579SOL     OW22372   1.394   4.210   4.193  0.5580 -0.5449 -0.0109
 3579SOL    HW122373   1.300   4.209   4.172  0.2078 -0.0900  1.5224
 3579SOL    HW222374   1.423   4.187   4.105  1.0845 -0.8334  0.2409
 3580SOL     OW22375   1.452   1.296   1.016 -0.5543 -0.1718  0.1588
 3580SOL    HW122376   1.366   1.337   1.016  0.0148  1.0282  0.0150
 3580SOL    HW222377   1.424   1.205   1.010  2.6051 -1.1040 -0.4826
 3581SOL     OW22378   3.709   1.361   8.721  0.5373  0.0329 -0.5781
 3581SOL    HW122379   3.783   1.376   8.780 -1.1140  0.2756  1.4328
 3581SOL    HW222380   3.754   1.373   8.637 -0.6741 -0.6207 -1.3116
 3582SOL     OW22381   1.174   1.804   1.382 -0.6665  0.1420  0.4723
 3582SOL    HW122382   1.097   1.818   1.438  0.5798 -2.0034  2.7370
 3582SOL    HW222383   1.139   1.833   1.298 -0.9981 -0.2932  0.4541
 3583SOL     OW22384   4.477   3.981   3.446 -0.0185  0.2003 -0.5253
 3583SOL    HW122385   4.418   4.004   3.375  1.4460  0.4003 -1.6726
 3583SOL    HW222386   4.562   4.004   3.410 -0.2172 -0.9461 -1.6849
 3584SOL     OW22387   0.463   1.755   6.515  0.2961 -0.4739 -0.4330
 3584SOL    HW122388   0.538   1.696   6.523 -0.2384 -1.0976 -0.0031
 3584SOL    HW222389   0.505   1.819   6.458 -0.6056  1.3181  0.9035
 3585SOL     OW22390   0.599   2.366  12.488 -0.0068 -0.2435 -0.4698
 3585SOL    HW122391   0.641   2.403  12.411 -0.0081 -0.4068 -0.5489
 3585SOL    HW222392   0.616   2.438  12.548 -0.6888  0.3452 -0.9948
 3586SOL     OW22393   4.455   4.258   6.978  0.1730 -0.1926 -0.2071
 3586SOL    HW122394   4.500   4.174   6.984 -2.3638 -1.4745  0.7685
 3586SOL    HW222395   4.469   4.287   7.068 -0.1418  2.2458 -0.9308
 3587SOL     OW22396   3.527   3.628   1.489 -0.1200 -0.3935  0.0154
 3587SOL    HW122397   3.584   3.554   1.469 -0.1357 -0.9470  2.0608
 3587SOL    HW222398   3.584   3.695   1.450  0.9740 -0.2537  1.8776
 3588SOL     OW22399   3.238   0.890   0.924 -0.1648 -0.0172 -0.2940
 3588SOL    HW122400   3.213   0.944   0.999 -0.3111 -0.7027  0.1443
 3588SOL    HW222401   3.195   0.926   0.847  0.2465  2.4758  0.6536
 3589SOL     OW22402   4.036   3.463  11.436  0.4723 -0.0155 -0.4917
 3589SOL    HW122403   4.079   3.548  11.445 -0.2141  0.2141  0.6557
 3589SOL    HW222404   4.018   3.471  11.343  0.9303 -0.0155 -0.5802
 3590SOL     OW22405   2.154   1.537   5.078  0.4933  0.2698  0.5317
 3590SOL    HW122406   2.228   1.515   5.021  1.0238  3.6938 -0.0654
 3590SOL    HW222407   2.119   1.452   5.106  0.6864 -0.7098 -2.1647
 3591SOL     OW22408   1.954   3.968  12.225 -0.3488  0.0703  0.2518
 3591SOL    HW122409   1.924   3.878  12.209 -2.0175  0.3694  1.7964
 3591SOL    HW222410   1.970   4.011  12.141 -0.1820  1.0410  0.7877
 3592SOL     OW22411   2.129   4.624   0.410  0.6254  0.1397  0.6261
 3592SOL    HW122412   2.143   4.591   0.321  0.3228 -0.2604  0.7278
 3592SOL    HW222413   2.044   4.584   0.428 -0.1611  1.7600  0.4823
 3593SOL     OW22414   1.747   4.623   2.619  0.7240  0.1022  0.1369
 3593SOL    HW122415   1.701   4.690   2.570  0.7869  1.2945  1.6777
 3593SOL    HW222416   1.676   4.563   2.642  0.5941  0.5935  1.0195
 3594SOL     OW22417   2.252   3.195   9.677  0.3618  0.0285  0.3449
 3594SOL    HW122418   2.233   3.113   9.631 -1.0355  0.6873 -0.2223
 3594SOL    HW222419   2.253   3.249   9.599  0.6073  0.1350  0.4219
 3595SOL     OW22420   1.945   3.212   9.852 -0.7265 -0.0846  0.1591
 3595SOL    HW122421   1.992   3.292   9.873  0.0736 -1.5448  3.9174
 3595SOL    HW222422   1.898   3.207   9.935  0.2397 -0.3982  0.6839
 3596SOL     OW22423   3.816   1.509   3.321  0.2092 -0.1470  0.5509
 3596SOL    HW122424   3.739   1.526   3.266  0.3400 -2.3016 -0.3061
 3596SOL    HW222425   3.881   1.559   3.273 -0.0498 -0.1770  0.1652
 3597SOL     OW22426   0.278   2.419   8.269  0.5296  0.1332 -0.2168
 3597SOL    HW122427   0.205   2.448   8.215 -1.3757  3.1404  3.9661
 3597SOL    HW222428   0.256   2.451   8.356 -2.5179  1.3239 -1.4213
 3598SOL     OW22429   0.654   2.668   3.056  0.8130  0.7010 -1.0267
 3598SOL    HW122430   0.708   2.590   3.051  1.5873  1.1976 -0.4484
 3598SOL    HW222431   0.601   2.661   2.977 -2.0636  0.1436  0.9622
 3599SOL     OW22432   3.761   4.273   3.092 -0.5475  0.5525  0.4162
 3599SOL    HW122433   3.820   4.272   3.017 -0.3414  1.7118  0.5604
 3599SOL    HW222434   3.678   4.248   3.052 -1.1365  1.8170  0.8483
 3600SOL     OW22435   1.631   0.814   2.859  0.0240 -0.0902 -0.5189
 3600SOL    HW122436   1.678   0.778   2.784  0.7278  1.0466 -0.6283
 3600SOL    HW222437   1.574   0.739   2.879 -0.7973  0.9726  1.1469
 3601SOL     OW22438   2.574   3.447   4.098  0.3632  0.1025 -0.2081
 3601SOL    HW122439   2.596   3.426   4.007 -1.4876 -1.0824 -0.3813
 3601SOL    HW222440   2.628   3.383   4.144 -0.5762  0.2271  1.0451
 3602SOL     OW22441   3.392   1.359  13.001  0.1381  0.4134 -0.6494
 3602SOL    HW122442   3.320   1.402  12.956  0.6385 -0.1113 -1.9602
 3602SOL    HW222443   3.361   1.269  12.989 -0.8142  0.7178 -0.4425
 3603SOL     OW22444   0.215   2.648  10.012 -0.3341  0.5069 -0.1460
 3603SOL    HW122445   0.182   2.667  10.100 -0.2746  0.4204 -0.1043
 3603SOL    HW222446   0.237   2.740   9.993  2.7720 -0.6932 -2.4555
 3604SOL     OW22447   0.096   2.752  15.587 -0.1973  0.0084 -0.0446
 3604SOL    HW122448   0.032   2.806  15.632 -0.9467 -0.4769 -0.5338
 3604SOL    HW222449   0.178   2.796  15.610 -0.2672  0.1771 -0.1259
 3605SOL     OW22450   3.089   4.381   6.875  0.2080  0.1557  0.1680
 3605SOL    HW122451   3.107   4.377   6.781  0.3412 -0.4213  0.2220
 3605SOL    HW222452   3.098   4.476   6.885 -1.2796  0.0924  1.9392
 3606SOL     OW22453   4.592   0.766  11.030  0.1995 -0.0272  0.3322
 3606SOL    HW122454   4.631   0.834  10.976 -0.6116 -0.4217 -0.7552
 3606SOL    HW222455   4.651   0.777  11.104 -0.2005 -1.2413  0.8334
 3607SOL     OW22456   3.771   4.210  11.940 -0.1151  0.8717 -0.1782
 3607SOL    HW122457   3.861   4.235  11.919  0.7020 -0.2712  1.9507
 3607SOL    HW222458   3.754   4.139  11.878 -0.9542  1.0488 -0.1534
 3608SOL     OW22459   0.201   1.977  11.691 -0.3245 -0.2321  0.3172
 3608SOL    HW122460   0.229   1.932  11.771 -2.1756 -0.8924  0.5864
 3608SOL    HW222461   0.233   1.915  11.626 -1.6366  1.4779 -1.9785
 3609SOL     OW22462   0.041   3.238   7.210 -0.2537 -0.1217  0.1763
 3609SOL    HW122463   0.130   3.232   7.176 -1.2403 -0.5047 -2.3211
 3609SOL    HW222464   4.729   3.238   7.131  0.0247 -1.2383 -0.0086
 3610SOL     OW22465   3.273   0.679  16.985 -0.2916 -0.5506  0.1654
 3610SOL    HW122466   3.239   0.759  17.026  2.6010  0.4387  0.6542
 3610SOL    HW222467   3.335   0.635  17.044  1.7657  1.1377 -0.7489
 3611SOL     OW22468   0.080   2.940   6.825  0.3021  0.2734  0.3359
 3611SOL    HW122469   0.040   2.857   6.801 -0.8158  0.9622 -0.1883
 3611SOL    HW222470   0.005   2.988   6.860  0.6096  1.1641 -0.2245
 3612SOL     OW22471   3.498   1.117   4.449  0.6836 -0.1362 -0.0438
 3612SOL    HW122472   3.417   1.076   4.419  0.4178  1.9036 -2.0414
 3612SOL    HW222473   3.484   1.194   4.395 -2.4924  0.4875  1.6780
 3613SOL     OW22474   0.593   2.751  15.671  0.4000 -0.1521  0.7019
 3613SOL    HW122475   0.656   2.759  15.742  0.5050  2.3979  0.2951
 3613SOL    HW222476   0.642   2.772  15.591 -0.8168 -2.0529 -0.5604
 3614SOL     OW22477   1.407   1.967   6.439 -0.0275  0.3610 -0.0352
 3614SOL    HW122478   1.399   1.973   6.344  0.0014 -1.1081 -0.1328
 3614SOL    HW222479   1.322   2.009   6.455 -0.5007  0.4201 -2.6301
 3615SOL     OW22480   0.562   3.274  14.075 -0.0187 -0.6792  0.3566
 3615SOL    HW122481   0.602   3.320  14.149  1.8646  0.2724 -1.2595
 3615SOL    HW222482   0.621   3.202  14.053  0.3765 -0.2810  0.1070
 3616SOL     OW22483   3.358   1.522  15.102 -0.2332  0.3715  0.4288
 3616SOL    HW122484   3.282   1.554  15.054  1.3210  1.3609 -1.3941
 3616SOL    HW222485   3.418   1.503  15.030 -0.9757  2.2804 -0.6839
 3617SOL     OW22486   3.069   3.385   4.188 -0.3406 -0.0160  0.3665
 3617SOL    HW122487   3.091   3.370   4.280 -2.3213 -0.3883  0.7961
 3617SOL    HW222488   3.017   3.305   4.179  0.6760 -0.7991  1.4356
 3618SOL     OW22489   2.151   2.169  15.994  0.4516  0.2150 -0.3343
 3618SOL    HW122490   2.155   2.255  15.954 -3.1120  1.0512  1.1381
 3618SOL    HW222491   2.129   2.110  15.922  3.9991 -1.2019 -0.2575
 3619SOL     OW22492   3.660   3.885   1.432  0.2917  0.2916  0.3146
 3619SOL    HW122493   3.645   3.948   1.362  0.1136 -1.0605 -0.8787
 3619SOL    HW222494   3.727   3.828   1.395  0.7072  0.5169  0.7297
 3620SOL     OW22495   4.580   2.134   6.752 -0.0311  0.5090 -0.1388
 3620SOL    HW122496   4.505   2.162   6.699 -0.7290 -0.5428  0.2957
 3620SOL    HW222497   4.546   2.131   6.842  0.2790 -0.5722 -0.0656
 3621SOL     OW22498   2.299   3.687   0.283  0.7023  0.4456  0.5816
 3621SOL    HW122499   2.225   3.631   0.260  0.9615  0.6048 -0.6040
 3621SOL    HW222500   2.247   3.761   0.314  1.0852  0.9095  0.0946
 3622SOL     OW22501   0.495   0.377   3.752 -0.0671 -0.2014 -0.2424
 3622SOL    HW122502   0.571   0.356   3.807  0.6353 -1.8012 -1.8544
 3622SOL    HW222503   0.425   0.389   3.817  0.6217 -0.3874  0.5321
 3623SOL     OW22504   3.368   4.519   4.084 -0.4627  0.2525 -0.0719
 3623SOL    HW122505   3.345   4.441   4.133  0.5179 -0.3959 -0.6436
 3623SOL    HW222506   3.426   4.486   4.015 -2.0820 -0.0779 -1.2566
 3624SOL     OW22507   4.634   0.423   7.419 -0.0331 -0.1614  0.1151
 3624SOL    HW122508   4.581   0.471   7.355 -0.5565  0.3621  0.9475
 3624SOL    HW222509   4.582   0.343   7.418 -0.7443  0.3159 -2.2804
 3625SOL     OW22510   1.068   3.931   1.875  0.5007  0.3122 -0.7735
 3625SOL    HW122511   1.109   3.884   1.948  0.3452  1.0699 -0.2019
 3625SOL    HW222512   1.016   3.861   1.837  0.9471 -1.2344  1.4165
 3626SOL     OW22513   0.972   4.676   1.577 -0.1925 -0.6709  0.1565
 3626SOL    HW122514   1.051   4.640   1.535  0.2724 -0.5040  0.8923
 3626SOL    HW222515   1.000   0.012   1.627 -0.4987 -2.3591  2.8863
 3627SOL     OW22516   3.507   1.764   3.377  0.4284  0.1322  0.2822
 3627SOL    HW122517   3.581   1.730   3.427 -0.0817 -1.0501  0.2417
 3627SOL    HW222518   3.438   1.718   3.426 -0.5229  1.8828  0.5723
 3628SOL     OW22519   4.062   1.762   3.985  0.2697  0.4384  1.0359
 3628SOL    HW122520   4.070   1.844   4.033  0.1831  0.3604  1.1837
 3628SOL    HW222521   3.967   1.756   3.974  0.6164 -2.5570 -0.3553
 3629SOL     OW22522   0.737   1.618   0.044  0.2025 -0.1149  0.6986
 3629SOL    HW122523   0.730   1.523   0.036  1.4411 -0.1821  0.4544
 3629SOL    HW222524   0.826   1.637   0.015 -0.0370  1.0609  0.7330
 3630SOL     OW22525   4.322   0.140   6.904 -0.5174  0.2471  0.1016
 3630SOL    HW122526   4.366   0.070   6.854 -0.1378  1.2899 -1.0414
 3630SOL    HW222527   4.347   0.126   6.995 -2.9115  1.5771  0.9596
 3631SOL     OW22528   0.678   0.261   6.715  0.2953 -0.0946 -0.4418
 3631SOL    HW122529   0.708   0.331   6.774  2.9296 -1.6185  0.0150
 3631SOL    HW222530   0.698   0.288   6.625  0.4584  0.9272 -0.1059
 3632SOL     OW22531   0.267   0.550   8.782  0.1745 -0.0293  0.2854
 3632SOL    HW122532   0.279   0.519   8.872 -0.1514 -0.4367  0.1877
 3632SOL    HW222533   0.359   0.542   8.755 -0.1561  0.6854 -1.0336
 3633SOL     OW22534   4.182   2.232   9.026 -0.8982  0.4151 -0.0342
 3633SOL    HW122535   4.225   2.187   8.953 -0.1994  1.0051  0.0235
 3633SOL    HW222536   4.234   2.206   9.101 -0.5467 -0.1898 -0.4822
 3634SOL     OW22537   3.020   2.901   4.331 -0.1127 -0.0026  0.4055
 3634SOL    HW122538   3.103   2.921   4.375  0.4759  0.4452 -0.8935
 3634SOL    HW222539   3.045   2.828   4.274 -1.4562 -1.3917  1.6203
 3635SOL     OW22540   3.754   1.561   8.235 -0.1293  0.1333  0.2700
 3635SOL    HW122541   3.764   1.571   8.141 -0.6370  1.0229  0.3149
 3635SOL    HW222542   3.846   1.582   8.251 -0.3368 -0.4039  2.2354
 3636SOL     OW22543   3.968   2.769   5.852 -0.2948 -0.0442 -0.1535
 3636SOL    HW122544   3.963   2.678   5.882 -0.2447  0.2060  0.6045
 3636SOL    HW222545   4.046   2.802   5.896 -0.5004 -0.7210  0.7285
 3637SOL     OW22546   2.936   0.173   9.174  0.1121  0.0206  0.1260
 3637SOL    HW122547   2.953   0.090   9.218  0.4812  0.3185  0.5373
 3637SOL    HW222548   2.843   0.173   9.198  0.1345  1.0029  0.2005
 3638SOL     OW22549   4.486   1.757  16.637 -0.2840  0.1942 -0.5687
 3638SOL    HW122550   4.537   1.827  16.676 -0.8336  0.2593  0.0384
 3638SOL    HW222551   4.415   1.799  16.587 -0.2272  1.0708  0.1034
 3639SOL     OW22552   4.462   3.503   8.254 -0.2482 -0.0716 -0.1831
 3639SOL    HW122553   4.463   3.446   8.177  0.7844 -0.4040  0.0701
 3639SOL    HW222554   4.367   3.509   8.263 -0.2373  1.9837 -1.5733
 3640SOL     OW22555   1.254   2.976   2.854 -0.5594 -0.2690 -0.1053
 3640SOL    HW122556   1.219   2.913   2.790 -0.5885  1.4960 -1.8238
 3640SOL    HW222557   1.191   2.969   2.925  0.2180 -1.6225  0.4698
 3641SOL     OW22558   3.653   0.751  14.345  0.2368 -0.2284 -0.0962
 3641SOL    HW122559   3.694   0.705  14.272 -0.0956 -0.0007 -0.4278
 3641SOL    HW222560   3.724   0.729  14.405 -1.0408  0.8848  1.8283
 3642SOL     OW22561   3.134   2.502   7.247  0.0247  0.4840  0.5772
 3642SOL    HW122562   3.181   2.583   7.225  0.7207 -0.5971 -1.7916
 3642SOL    HW222563   3.162   2.500   7.339  0.1790 -0.1174  0.5118
 3643SOL     OW22564   2.673   3.360   4.572 -0.1371  0.1455 -0.6160
 3643SOL    HW122565   2.635   3.414   4.503 -3.6080 -0.1683  1.0338
 3643SOL    HW222566   2.700   3.290   4.513  1.8479 -0.3108  0.8263
 3644SOL     OW22567   1.917   2.111   4.474 -0.5870 -0.1688 -0.4809
 3644SOL    HW122568   1.864   2.059   4.414 -0.9599  0.9107 -1.0880
 3644SOL    HW222569   1.843   2.163   4.506 -0.7347 -0.5716 -0.1709
 3645SOL     OW22570   0.643   4.688   8.470  0.2451  0.0633  0.1896
 3645SOL    HW122571   0.608   0.019   8.416 -1.2924 -0.3377  0.6622
 3645SOL    HW222572   0.600   4.617   8.422  0.0773 -1.1329  2.1035
 3646SOL     OW22573   2.345   1.221   6.741  0.1384  0.4284 -0.1625
 3646SOL    HW122574   2.330   1.251   6.831 -1.3830  3.6264 -1.5079
 3646SOL    HW222575   2.328   1.127   6.736  1.1341  0.2699 -0.6899
 3647SOL     OW22576   4.428   3.593   1.169  0.0970  0.5460 -0.1626
 3647SOL    HW122577   4.397   3.681   1.146 -1.8070  0.0741  0.5573
 3647SOL    HW222578   4.520   3.611   1.186  0.1639  0.4942 -0.4739
 3648SOL     OW22579   0.123   1.763   8.167  0.5162 -0.1477 -0.5390
 3648SOL    HW122580   0.059   1.833   8.178  1.2815  0.3155  1.0159
 3648SOL    HW222581   0.062   1.691   8.150  0.7147 -0.1741 -1.1296
 3649SOL     OW22582   4.392   1.359   8.154 -0.1632  0.2122 -0.6292
 3649SOL    HW122583   4.463   1.422   8.156  0.4018 -0.5102  1.3262
 3649SOL    HW222584   4.342   1.383   8.076  1.3217  0.4615 -1.5032
 3650SOL     OW22585   0.971   1.983   3.780 -0.5815 -0.3656  0.6014
 3650SOL    HW122586   1.006   1.905   3.822  0.3628  0.8698  2.1165
 3650SOL    HW222587   0.888   1.941   3.756  1.1054 -2.2862 -1.8966
 3651SOL     OW22588   0.079   1.414   1.089 -0.3225 -0.2187 -0.2441
 3651SOL    HW122589   0.126   1.496   1.070  1.6279 -1.7833 -2.2083
 3651SOL    HW222590   0.104   1.376   1.005  1.2674 -1.2244  0.6985
 3652SOL     OW22591   1.264   0.967   8.792  0.8789  0.0882  0.3141
 3652SOL    HW122592   1.298   1.056   8.795 -0.2876  0.4170  3.0664
 3652SOL    HW222593   1.231   0.975   8.702  0.2468  2.4750  0.7678
 3653SOL     OW22594   1.093   4.419   4.697  0.1441  1.1156  0.2092
 3653SOL    HW122595   1.097   4.484   4.627 -1.5808  1.3213  0.3107
 3653SOL    HW222596   1.022   4.358   4.677  0.2146  1.2236 -0.3776
 3654SOL     OW22597   4.275   0.919   9.973 -0.3945 -0.3511  0.4257
 3654SOL    HW122598   4.366   0.948   9.961 -1.1172  1.0506 -1.5901
 3654SOL    HW222599   4.220   0.987   9.936 -0.8623  0.6932  3.0837
 3655SOL     OW22600   2.765   1.638  16.494 -0.8938  0.4950 -0.8057
 3655SOL    HW122601   2.860   1.634  16.502 -0.9678  0.9692  0.3803
 3655SOL    HW222602   2.745   1.592  16.576  0.2627  0.9059 -0.2974
 3656SOL     OW22603   0.579   3.828   2.339  0.6045  0.7441  0.2694
 3656SOL    HW122604   0.633   3.886   2.392 -0.4512  1.7031  0.2951
 3656SOL    HW222605   0.491   3.864   2.346 -1.0180 -3.2891  0.2022
 3657SOL     OW22606   0.530   2.822  10.448  0.4797  0.0922 -0.2843
 3657SOL    HW122607   0.565   2.846  10.534  0.6071 -0.8015 -0.0954
 3657SOL    HW222608   0.554   2.730  10.447  0.6306  0.1231  1.0089
 3658SOL     OW22609   1.295   4.127   3.251 -0.4720  0.1039 -0.1442
 3658SOL    HW122610   1.331   4.062   3.311  2.2565  0.7383 -1.1020
 3658SOL    HW222611   1.366   4.191   3.248 -1.4586  1.2206  0.5791
 3659SOL     OW22612   0.196   1.989   3.873  0.0037  0.0004 -0.3664
 3659SOL    HW122613   0.145   1.935   3.813 -3.0738  1.7843  0.6462
 3659SOL    HW222614   0.194   2.073   3.826  4.3495 -0.3552 -1.2007
 3660SOL     OW22615   3.519   4.153   1.673 -0.2235  0.2680 -0.1378
 3660SOL    HW122616   3.535   4.244   1.647 -0.9676 -0.0217 -1.5790
 3660SOL    HW222617   3.424   4.155   1.678 -0.2268 -0.5942 -0.0260
 3661SOL     OW22618   1.052   2.265  11.996 -0.3704 -0.8924  0.2981
 3661SOL    HW122619   1.124   2.222  12.041  1.6220  0.0516 -1.9770
 3661SOL    HW222620   1.092   2.308  11.920  1.1768 -0.2407  1.4914
 3662SOL     OW22621   1.754   4.527  11.705 -0.1822  0.0447  0.4195
 3662SOL    HW122622   1.744   4.567  11.619 -0.6966 -0.6104  0.1640
 3662SOL    HW222623   1.751   4.437  11.673 -2.1439  0.2581 -0.0074
 3663SOL     OW22624   1.903   1.975  15.445 -0.4368  0.5031  0.2964
 3663SOL    HW122625   1.955   2.053  15.427  0.6953 -0.5544 -1.0127
 3663SOL    HW222626   1.961   1.903  15.419  0.8131  1.4574  0.4022
 3664SOL     OW22627   1.014   0.817   0.185  0.1375 -0.5605 -0.0165
 3664SOL    HW122628   1.007   0.816   0.280  1.3803  1.1897  0.0861
 3664SOL    HW222629   1.064   0.738   0.166  1.3015  0.8223 -2.6719
 3665SOL     OW22630   3.831   4.685   6.327  0.2286 -0.5043  0.1696
 3665SOL    HW122631   3.886   0.012   6.367 -0.0531  0.8044 -1.6459
 3665SOL    HW222632   3.858   4.615   6.386 -0.8085 -0.9724  0.0867
 3666SOL     OW22633   0.425   3.467  11.068  0.2297 -0.6350  0.1720
 3666SOL    HW122634   0.386   3.552  11.048  0.5055 -0.3500  0.8128
 3666SOL    HW222635   0.491   3.457  10.999  0.4511 -1.6896  0.5354
 3667SOL     OW22636   4.398   0.220   0.321  0.0491  0.7678 -0.4527
 3667SOL    HW122637   4.324   0.280   0.311  2.3791  3.5907 -0.8171
 3667SOL    HW222638   4.426   0.241   0.409  0.2792 -0.5279 -0.2193
 3668SOL     OW22639   0.122   2.216   3.663  0.0353 -0.2440  0.1048
 3668SOL    HW122640   0.058   2.287   3.670  0.9874  0.6565 -0.3685
 3668SOL    HW222641   0.183   2.259   3.604 -0.5489  0.2046 -0.1711
 3669SOL     OW22642   3.702   0.059  16.595 -0.2576  0.1815 -0.0342
 3669SOL    HW122643   3.687   4.724  16.653 -1.5334  1.6447  1.5055
 3669SOL    HW222644   3.783   0.096  16.630 -0.2781 -0.0428  0.2520
 3670SOL     OW22645   1.400   3.434   3.931  0.0992 -0.3113  0.7242
 3670SOL    HW122646   1.448   3.387   3.862 -0.4478 -2.0045  1.5023
 3670SOL    HW222647   1.472   3.453   3.992  0.5297 -0.8405  0.3800
 3671SOL     OW22648   2.379   2.416   1.905  0.0049  0.5323  1.0163
 3671SOL    HW122649   2.427   2.495   1.930 -0.2803  1.4207 -1.3210
 3671SOL    HW222650   2.320   2.445   1.836 -0.1834 -2.0133  0.0911
 3672SOL     OW22651   0.610   0.095  12.147  0.2551 -0.2599 -0.2804
 3672SOL    HW122652   0.603   0.045  12.065 -1.4196  0.5364 -0.6225
 3672SOL    HW222653   0.696   0.073  12.183  0.4986  0.7844 -0.2326
 3673SOL     OW22654   3.929   3.903   4.069 -0.1524 -0.2177 -0.3696
 3673SOL    HW122655   3.971   3.989   4.062 -1.0097  0.1204 -1.3222
 3673SOL    HW222656   3.950   3.872   3.981  0.8310 -1.5140  0.3181
 3674SOL     OW22657   0.307   1.260   5.850 -0.4394 -0.6928 -0.0341
 3674SOL    HW122658   0.250   1.215   5.788  0.3764 -0.3705 -1.0387
 3674SOL    HW222659   0.367   1.310   5.795 -0.5470 -3.2392 -2.4727
 3675SOL     OW22660   4.600   0.936   1.011 -0.8012 -0.3608 -0.5392
 3675SOL    HW122661   4.573   0.854   1.053  2.9529 -0.6988  1.2410
 3675SOL    HW222662   4.517   0.974   0.982 -1.6376 -1.8039 -0.0161
 3676SOL     OW22663   3.268   0.243   4.925  0.2443  0.1769 -0.1837
 3676SOL    HW122664   3.213   0.165   4.929 -0.8699  0.9256 -1.1445
 3676SOL    HW222665   3.291   0.240   4.833  1.0564 -0.3827  0.0373
 3677SOL     OW22666   2.521   4.671  16.984 -0.1958 -0.7937  0.2653
 3677SOL    HW122667   2.447   4.643  17.037 -0.7812 -1.9625 -1.1721
 3677SOL    HW222668   2.545   4.593  16.933 -0.5592 -1.7460  1.5673
 3678SOL     OW22669   0.374   2.757  17.453 -0.5730 -0.0036  0.0522
 3678SOL    HW122670   0.318   2.695  17.406 -0.0496 -0.0415 -0.5154
 3678SOL    HW222671   0.342   2.750  17.544 -1.6577 -1.6659 -0.4607
 3679SOL     OW22672   1.763   2.878  14.723 -0.0037  0.5904  0.4906
 3679SOL    HW122673   1.833   2.874  14.658 -2.3771 -1.7725 -1.9392
 3679SOL    HW222674   1.821   2.851  14.794 -0.6303  0.7786  1.0805
 3680SOL     OW22675   3.311   3.003   6.773 -0.4889 -0.0403  0.4155
 3680SOL    HW122676   3.226   3.044   6.786  0.2004  0.8017  2.2035
 3680SOL    HW222677   3.348   3.058   6.704 -1.0211  1.9873  1.7630
 3681SOL     OW22678   4.041   4.063  13.899 -0.2500 -0.3757  0.2958
 3681SOL    HW122679   3.952   4.034  13.917 -0.3538  0.4577  1.1428
 3681SOL    HW222680   4.040   4.088  13.807 -1.4352  1.7806  0.9026
 3682SOL     OW22681   3.417   3.101   7.432 -0.1304  0.6036  0.5200
 3682SOL    HW122682   3.416   3.080   7.525  0.8687 -2.0302 -0.0663
 3682SOL    HW222683   3.395   3.193   7.415 -1.4572  0.0744 -0.6605
 3683SOL     OW22684   0.166   1.667   4.278  0.3138 -0.1861 -0.4751
 3683SOL    HW122685   0.260   1.659   4.259  0.7141 -0.7709  1.7129
 3683SOL    HW222686   0.147   1.743   4.222  0.1652 -0.7775 -1.2252
 3684SOL     OW22687   4.570   3.121   9.710  0.0862 -0.0656  0.8479
 3684SOL    HW122688   4.644   3.180   9.722  0.5978 -0.1117 -2.1543
 3684SOL    HW222689   4.597   3.066   9.637  1.0252  0.8833  0.4734
 3685SOL     OW22690   3.748   2.155   1.747 -0.1631 -0.7694 -0.1642
 3685SOL    HW122691   3.781   2.078   1.700  1.6722 -0.1487  0.0907
 3685SOL    HW222692   3.698   2.201   1.680  0.2087  2.4926  1.7727
 3686SOL     OW22693   1.872   4.159   6.048 -0.6304 -0.0631 -0.0573
 3686SOL    HW122694   1.869   4.123   6.137  1.6870 -2.5886 -1.0169
 3686SOL    HW222695   1.965   4.176   6.036  0.2292 -3.5372  1.7612
 3687SOL     OW22696   3.820   1.394   2.843 -0.0414 -0.8065  0.6527
 3687SOL    HW122697   3.882   1.446   2.894 -0.7850 -1.9425  2.7314
 3687SOL    HW222698   3.768   1.343   2.905 -1.7033 -2.9161 -2.4857
 3688SOL     OW22699   1.820   3.146   7.720 -0.0993 -0.7300  0.1767
 3688SOL    HW122700   1.822   3.185   7.807 -1.1612 -0.2312 -0.0306
 3688SOL    HW222701   1.803   3.228   7.674  1.4666 -0.0655  0.7970
 3689SOL     OW22702   0.136   2.058  12.480  0.5140 -0.1858 -0.2860
 3689SOL    HW122703   0.043   2.065  12.502  0.8867 -0.5682  1.4754
 3689SOL    HW222704   0.172   2.112  12.551 -0.2822  1.4159 -1.1062
 3690SOL     OW22705   2.958   4.383  14.718 -0.7795  0.1439 -0.9876
 3690SOL    HW122706   3.025   4.416  14.778 -3.7800  2.1738  1.2328
 3690SOL    HW222707   3.013   4.348  14.648 -0.8179 -1.2836 -0.3057
 3691SOL     OW22708   0.485   2.918  15.165  0.3165 -0.9556 -0.2795
 3691SOL    HW122709   0.469   2.922  15.071  0.6150  1.6898 -0.2415
 3691SOL    HW222710   0.399   2.933  15.205  0.7110  1.4429 -0.3103
 3692SOL     OW22711   4.273   2.286  16.316  0.2134 -0.1579  0.3544
 3692SOL    HW122712   4.281   2.343  16.393 -0.4657 -1.2404  1.2300
 3692SOL    HW222713   4.355   2.237  16.313  0.1990 -0.0435 -2.0896
 3693SOL     OW22714   2.851   2.433   3.036  0.2196 -0.4933 -0.2931
 3693SOL    HW122715   2.899   2.431   3.119  1.1502 -2.1351 -0.8619
 3693SOL    HW222716   2.929   2.441   2.981  2.3877 -0.5539  2.7100
 3694SOL     OW22717   1.044   4.045   8.897  0.1341  0.1680  0.0822
 3694SOL    HW122718   1.130   4.009   8.872  0.5756  0.7969  0.7195
 3694SOL    HW222719   0.999   4.025   8.815 -0.0904  2.2429 -0.2910
 3695SOL     OW22720   2.481   3.388   5.764 -1.0833  0.0065 -0.1759
 3695SOL    HW122721   2.416   3.323   5.736 -0.6399 -0.2954 -0.4976
 3695SOL    HW222722   2.423   3.461   5.786 -0.3209  0.7340 -0.5680
 3696SOL     OW22723   1.877   1.385   5.346  0.1536 -0.0335 -0.0828
 3696SOL    HW122724   1.807   1.334   5.387 -0.7520 -0.2364 -1.8979
 3696SOL    HW222725   1.918   1.317   5.293 -0.4188 -0.3064 -0.1708
 3697SOL     OW22726   1.721   1.913  12.968  0.1055  0.2437  0.6302
 3697SOL    HW122727   1.666   1.855  13.021 -0.5046 -0.6659 -0.9854
 3697SOL    HW222728   1.753   1.858  12.896  2.3806  2.6775 -0.2287
 3698SOL     OW22729   4.440   3.726   5.788 -0.4332 -0.3199  0.5999
 3698SOL    HW122730   4.477   3.663   5.850  0.3129 -0.1447  0.3371
 3698SOL    HW222731   4.498   3.800   5.810  1.0294 -1.1644 -0.3983
 3699SOL     OW22732   1.572   1.453   8.458 -0.0003  0.2106 -0.0569
 3699SOL    HW122733   1.656   1.432   8.499  1.1619  0.2816 -2.4022
 3699SOL    HW222734   1.614   1.504   8.388 -0.9705 -0.0010 -0.7979
 3700SOL     OW22735   3.737   1.471   7.686  0.7345 -0.2250 -0.1795
 3700SOL    HW122736   3.779   1.390   7.658  0.5138 -0.0826 -0.9242
 3700SOL    HW222737   3.656   1.473   7.634  0.9175 -0.2382 -0.4638
 3701SOL     OW22738   1.998   3.906   7.178  0.5156 -0.1378 -0.4850
 3701SOL    HW122739   1.983   3.997   7.152  1.3037 -0.1350 -0.9275
 3701SOL    HW222740   2.037   3.869   7.099 -0.7003 -0.3664 -0.9816
 3702SOL     OW22741   0.006   3.195   1.539 -0.3355 -0.2814 -0.4367
 3702SOL    HW122742   0.055   3.262   1.587  1.0849 -1.9804  0.4772
 3702SOL    HW222743   0.075   3.142   1.499 -0.7618 -0.6515 -0.6796
 3703SOL     OW22744   0.271   2.701   3.300  0.1480 -0.0432 -0.3812
 3703SOL    HW122745   0.349   2.649   3.320 -0.5272 -0.0785  2.0853
 3703SOL    HW222746   0.224   2.714   3.382  0.7456 -0.9364  0.1065
 3704SOL     OW22747   2.364   4.685   4.213  0.1248  0.2329 -0.1630
 3704SOL    HW122748   2.443   4.726   4.248  0.5450 -0.4112 -0.3485
 3704SOL    HW222749   2.326   0.018   4.164  2.7364  1.4588 -0.3320
 3705SOL     OW22750   3.803   1.279   4.994  0.3109  0.1844  0.3515
 3705SOL    HW122751   3.894   1.290   4.965  0.4213 -1.6080  0.0366
 3705SOL    HW222752   3.776   1.188   4.987  0.0345  0.3233 -0.5003
 3706SOL     OW22753   1.209   2.021   0.150 -0.4517  0.7494  0.3595
 3706SOL    HW122754   1.212   1.960   0.223  0.8487 -1.8696 -1.8692
 3706SOL    HW222755   1.133   1.989   0.101  0.6157  0.2230 -0.9574
 3707SOL     OW22756   2.119   3.431   4.692  0.5664  0.1415 -0.9094
 3707SOL    HW122757   2.200   3.393   4.658  0.5016  1.1671 -2.2018
 3707SOL    HW222758   2.140   3.471   4.776 -2.1326 -0.7344  0.1865
 3708SOL     OW22759   2.561   4.735   1.085 -0.0810  0.2492  0.1533
 3708SOL    HW122760   2.617   0.012   1.010 -1.8114  1.3092 -0.9020
 3708SOL    HW222761   2.539   4.643   1.074 -0.6367  0.3655  0.2670
 3709SOL     OW22762   4.489   3.637   6.296  0.1213 -0.6868  0.3461
 3709SOL    HW122763   4.544   3.664   6.369  1.5393 -1.2696 -0.5063
 3709SOL    HW222764   4.463   3.722   6.261  0.0521  0.5327  3.3528
 3710SOL     OW22765   2.175   1.472  12.579 -0.7735  0.1454  0.1035
 3710SOL    HW122766   2.130   1.554  12.558 -2.1253 -1.1152 -1.8931
 3710SOL    HW222767   2.193   1.438  12.492 -0.2959  1.1362 -0.1881
 3711SOL     OW22768   0.053   3.460   9.215  0.3380  0.6325  0.2687
 3711SOL    HW122769   0.019   3.537   9.170 -0.6334 -0.2341 -0.5256
 3711SOL    HW222770   0.136   3.434   9.176 -0.1505  0.9307 -0.9644
 3712SOL     OW22771   0.272   4.123   8.680 -0.9208 -0.2805 -0.1025
 3712SOL    HW122772   0.351   4.171   8.655 -1.9949  2.2767  1.4500
 3712SOL    HW222773   0.260   4.152   8.771 -0.4550  1.4349 -0.5882
 3713SOL     OW22774   2.530   2.129   5.707  0.0371 -0.4228  0.1425
 3713SOL    HW122775   2.560   2.209   5.751 -0.1713 -0.5285  0.4757
 3713SOL    HW222776   2.606   2.071   5.709  1.2515  1.1935  0.6472
 3714SOL     OW22777   1.363   1.221   5.141 -0.1769 -0.2586  0.2877
 3714SOL    HW122778   1.325   1.250   5.058 -1.3704  0.2720  1.0194
 3714SOL    HW222779   1.438   1.166   5.120  0.0730  0.0658  0.3328
 3715SOL     OW22780   2.419   1.100   8.217  0.1232  0.2675 -0.1827
 3715SOL    HW122781   2.408   1.138   8.130  1.8465  2.2077  0.4373
 3715SOL    HW222782   2.453   1.175   8.266  0.3793 -0.3716  0.6338
 3716SOL     OW22783   2.417   1.813  10.364  0.1222  0.6509  0.0101
 3716SOL    HW122784   2.367   1.808  10.446 -0.9862  1.3951 -0.6245
 3716SOL    HW222785   2.392   1.893  10.319 -0.2411 -0.3159 -1.5128
 3717SOL     OW22786   0.051   3.155  10.249  0.6596 -0.7733 -0.1128
 3717SOL    HW122787   0.141   3.150  10.282  0.5870  0.6683  0.2949
 3717SOL    HW222788   0.069   3.088  10.183 -2.3818 -1.6072 -0.0997
 3718SOL     OW22789   3.212   1.562   4.969 -0.2760 -0.1671  0.0677
 3718SOL    HW122790   3.298   1.571   5.009 -0.1916 -0.5000 -0.0417
 3718SOL    HW222791   3.170   1.498   5.027 -0.8008 -1.3742 -1.6617
 3719SOL     OW22792   3.758   4.541   6.703 -0.3079  0.1980  0.5820
 3719SOL    HW122793   3.844   4.508   6.678  0.2313  0.0961  2.5817
 3719SOL    HW222794   3.701   4.465   6.690  1.2689 -1.1163  1.3610
 3720SOL     OW22795   1.286   1.469   5.015  0.4358 -0.3421  0.5784
 3720SOL    HW122796   1.342   1.546   5.008  0.6509 -0.7361 -2.0365
 3720SOL    HW222797   1.293   1.450   5.108 -0.4094  2.2208  1.1576
 3721SOL     OW22798   0.528   1.042  10.835 -0.4739  0.5579 -0.3088
 3721SOL    HW122799   0.543   1.137  10.836 -2.0154  0.7948  0.7537
 3721SOL    HW222800   0.610   1.007  10.869 -1.5073 -0.0938  1.5126
 3722SOL     OW22801   3.788   3.218  13.129  0.0145 -0.2841 -0.3423
 3722SOL    HW122802   3.721   3.283  13.150  1.1495  0.7424  0.1375
 3722SOL    HW222803   3.768   3.185  13.041 -0.9687 -0.4164 -0.0595
 3723SOL     OW22804   0.729   0.630  14.665  0.0366 -0.3056 -0.4865
 3723SOL    HW122805   0.639   0.662  14.654  0.8461  2.6221  1.3469
 3723SOL    HW222806   0.743   0.609  14.758 -1.8389  1.5673  0.2259
 3724SOL     OW22807   0.628   0.400   5.347  0.6084  0.1425 -0.2079
 3724SOL    HW122808   0.640   0.369   5.437  0.9068 -1.7335 -0.8809
 3724SOL    HW222809   0.710   0.381   5.302  1.0683  3.6014 -0.7624
 3725SOL     OW22810   1.969   3.408   9.083 -0.2324 -0.1711 -0.2430
 3725SOL    HW122811   2.063   3.410   9.065 -0.1917 -1.1312 -0.1393
 3725SOL    HW222812   1.975   3.382   9.175 -2.1041 -0.1260 -0.1146
 3726SOL     OW22813   1.519   3.583   2.365  0.1710  0.2496  0.1243
 3726SOL    HW122814   1.566   3.515   2.412 -1.1760  0.0064  1.1325
 3726SOL    HW222815   1.448   3.601   2.427  0.5333  2.0845  0.0261
 3727SOL     OW22816   0.464   0.749   0.017 -0.3803 -0.1219  0.0014
 3727SOL    HW122817   0.389   0.753  17.714 -0.6107 -0.6636  0.2445
 3727SOL    HW222818   0.506   0.667  17.747 -1.8776 -1.1842  0.8226
 3728SOL     OW22819   1.805   2.917   9.518 -0.1581  0.6958  0.5711
 3728SOL    HW122820   1.830   2.921   9.611 -0.9820  1.9855  0.7481
 3728SOL    HW222821   1.882   2.956   9.478 -1.6146  2.8822 -0.1434
 3729SOL     OW22822   3.003   3.900   9.862 -0.1433  0.2015 -0.5374
 3729SOL    HW122823   2.909   3.880   9.862  0.2070 -1.3760  1.2695
 3729SOL    HW222824   3.015   3.979   9.808  2.3836 -0.5944 -1.1217
 3730SOL     OW22825   4.431   1.746   8.125 -0.3496  0.2004 -0.3514
 3730SOL    HW122826   4.359   1.683   8.121 -0.5567  0.2255  2.4725
 3730SOL    HW222827   4.505   1.694   8.095  0.7012  0.5005  1.6718
 3731SOL     OW22828   0.246   2.483   1.664 -0.1733 -0.3176 -0.4918
 3731SOL    HW122829   0.340   2.490   1.683 -1.1481 -0.2962  4.3383
 3731SOL    HW222830   0.232   2.389   1.676 -1.4049 -0.0229  0.3857
 3732SOL     OW22831   2.153   4.634   4.380 -0.1126  0.2015 -0.1329
 3732SOL    HW122832   2.167   4.667   4.469 -1.7325  0.4460  0.0402
 3732SOL    HW222833   2.238   4.638   4.338  0.9530 -0.8736  1.8891
 3733SOL     OW22834   1.651   0.278   4.816 -0.2889 -0.0744  0.4562
 3733SOL    HW122835   1.578   0.237   4.863 -2.3800  1.8630 -1.0986
 3733SOL    HW222836   1.615   0.353   4.770  0.3811 -1.1371 -1.7894
 3734SOL     OW22837   1.328   3.616   4.645  0.5171 -0.1513  0.1240
 3734SOL    HW122838   1.245   3.607   4.692  1.7118 -4.9589  1.3148
 3734SOL    HW222839   1.362   3.695   4.688  0.5004 -1.6672  2.9024
 3735SOL     OW22840   0.385   3.872  15.901 -0.2887 -0.2296 -0.3095
 3735SOL    HW122841   0.369   3.913  15.986 -0.0980 -0.5282 -0.1296
 3735SOL    HW222842   0.458   3.922  15.866  1.7626 -3.3879 -0.5071
 3736SOL     OW22843   1.506   4.009  13.523 -0.4619  0.5566  0.0147
 3736SOL    HW122844   1.470   3.920  13.529  2.3662 -0.6439 -1.2635
 3736SOL    HW222845   1.590   4.000  13.568 -1.6283 -1.1953  1.8586
 3737SOL     OW22846   4.317   1.653   9.560 -0.1149  0.8246 -0.9460
 3737SOL    HW122847   4.412   1.639   9.566 -0.5680 -1.3444  1.2130
 3737SOL    HW222848   4.305   1.734   9.511 -1.3244  0.2215 -1.6329
 3738SOL     OW22849   2.466   3.385   6.429 -0.2695  0.0890  0.4365
 3738SOL    HW122850   2.544   3.392   6.374 -0.0573 -0.6336  0.6521
 3738SOL    HW222851   2.415   3.309   6.401  0.0775 -0.3932  1.1479
 3739SOL     OW22852   4.430   0.861  13.889  0.5396  0.3631 -0.3423
 3739SOL    HW122853   4.380   0.875  13.969 -0.4020 -0.0811 -0.8493
 3739SOL    HW222854   4.507   0.916  13.905  1.4613 -0.4755 -1.8418
 3740SOL     OW22855   0.905   0.997   4.402 -0.3208 -0.2086 -0.1781
 3740SOL    HW122856   0.823   1.016   4.356 -0.7610  0.7242  1.0088
 3740SOL    HW222857   0.874   0.950   4.479  0.3198  2.4719  1.7206
 3741SOL     OW22858   3.923   1.996  12.385 -0.0168  0.0861 -0.0347
 3741SOL    HW122859   4.014   1.987  12.356  0.1213  0.9326  0.1232
 3741SOL    HW222860   3.886   1.911  12.363 -2.5473  1.2227 -0.1862
 3742SOL     OW22861   1.674   4.092   3.280  0.1501 -0.5679 -0.0868
 3742SOL    HW122862   1.611   4.020   3.278  0.2387 -0.6528  0.2661
 3742SOL    HW222863   1.752   4.046   3.312 -0.1021 -0.9983 -0.0902
 3743SOL     OW22864   2.111   2.174  17.386 -0.2738 -0.5486 -0.8026
 3743SOL    HW122865   2.034   2.164  17.442 -0.3293  0.6315 -0.6689
 3743SOL    HW222866   2.069   2.235  17.326  0.2060  1.8723  1.3062
 3744SOL     OW22867   1.217   0.358   4.039 -0.2413 -0.2112  0.0302
 3744SOL    HW122868   1.126   0.333   4.028 -0.1108 -0.2553 -0.9640
 3744SOL    HW222869   1.255   0.275   4.008  0.0979  0.5434 -1.6156
 3745SOL     OW22870   1.637   3.579  10.970 -0.5426  0.1963 -0.3175
 3745SOL    HW122871   1.573   3.649  10.978 -1.1543 -0.3682 -0.2587
 3745SOL    HW222872   1.713   3.626  11.004 -0.2417  0.0224 -0.7525
 3746SOL     OW22873   1.309   0.302   8.112 -0.6716 -0.0275 -0.3934
 3746SOL    HW122874   1.295   0.208   8.098 -3.1626  0.3916 -0.7007
 3746SOL    HW222875   1.340   0.300   8.203 -1.1213  0.0396 -0.2410
 3747SOL     OW22876   4.444   3.152   6.102  0.3570 -0.2491  0.0334
 3747SOL    HW122877   4.489   3.236   6.094 -0.1812  0.1372  0.9722
 3747SOL    HW222878   4.508   3.109   6.160 -2.0717  0.1290  3.0133
 3748SOL     OW22879   1.011   0.051  17.361 -0.9026 -0.2042  0.5140
 3748SOL    HW122880   0.993   0.141  17.387  0.2935  0.4323 -0.8814
 3748SOL    HW222881   1.041   0.011  17.442  0.0738 -2.9682 -1.2116
 3749SOL     OW22882   3.409   1.725   8.690  0.2593  0.1845 -0.3146
 3749SOL    HW122883   3.429   1.633   8.707 -0.5850 -0.0461 -0.5410
 3749SOL    HW222884   3.340   1.733   8.757 -0.4794 -1.0111 -0.9253
 3750SOL     OW22885   3.614   3.085  17.255 -0.3092 -0.4774  0.0938
 3750SOL    HW122886   3.654   3.102  17.340  0.4768 -1.6199 -0.0549
 3750SOL    HW222887   3.523   3.062  17.274 -0.2041  0.0713  1.2638
 3751SOL     OW22888   2.784   2.364   4.096 -0.0573  0.3886  0.3134
 3751SOL    HW122889   2.735   2.361   4.014 -0.5395  0.1575  0.6079
 3751SOL    HW222890   2.706   2.361   4.151  0.4222 -0.9720  0.9119
 3752SOL     OW22891   2.011   0.464   6.971 -0.4619 -0.4686  0.4303
 3752SOL    HW122892   1.954   0.413   6.913 -0.6488 -0.7132  0.8251
 3752SOL    HW222893   2.021   0.547   6.926  1.8840 -0.6061  0.6815
 3753SOL     OW22894   3.480   2.142   2.176 -0.4615 -0.2116  0.2448
 3753SOL    HW122895   3.490   2.208   2.108  0.0561  1.2300  1.7086
 3753SOL    HW222896   3.489   2.198   2.254  0.0565 -1.2375  0.9245
 3754SOL     OW22897   3.866   2.283   8.241  0.2227  0.5029  0.3557
 3754SOL    HW122898   3.806   2.280   8.167 -1.4490  1.3162  1.6880
 3754SOL    HW222899   3.865   2.199   8.287 -4.2476  0.4798  0.1493
 3755SOL     OW22900   1.791   1.098   9.737  0.5208  0.2069 -0.3628
 3755SOL    HW122901   1.762   1.035   9.670  1.7779 -1.2795  0.4781
 3755SOL    HW222902   1.791   1.045   9.817 -2.2675  0.7392 -0.0278
 3756SOL     OW22903   2.181   1.099   4.068  0.6925  0.2203 -0.0196
 3756SOL    HW122904   2.253   1.161   4.053  2.4289 -1.9455 -0.6122
 3756SOL    HW222905   2.125   1.164   4.110 -0.2249  0.7069 -1.9994
 3757SOL     OW22906   4.691   1.286   5.188  0.4547  0.1682  0.1092
 3757SOL    HW122907   4.704   1.379   5.167  0.6978  0.2912  0.8103
 3757SOL    HW222908   4.687   1.284   5.283  0.8952  0.5851  0.1350
 3758SOL     OW22909   2.642   4.662   4.056 -0.2333 -0.1146  0.7265
 3758SOL    HW122910   2.620   0.010   4.025  1.6104  0.1556  0.2266
 3758SOL    HW222911   2.664   4.679   4.148 -2.5159  1.0363  1.0524
 3759SOL     OW22912   0.200   2.459   7.356  0.3495  0.3131 -0.0147
 3759SOL    HW122913   0.265   2.464   7.426  2.9276  0.5536 -2.3880
 3759SOL    HW222914   0.205   2.545   7.314 -0.3527 -0.0074 -0.7404
 3760SOL     OW22915   4.494   0.692  11.477  0.1266 -0.8121  0.4839
 3760SOL    HW122916   4.468   0.753  11.407 -0.4262 -1.0923  0.4415
 3760SOL    HW222917   4.484   0.608  11.432  0.0311  0.2117 -1.3810
 3761SOL     OW22918   2.743   1.996  10.273 -0.2555  0.3122  0.5959
 3761SOL    HW122919   2.812   2.059  10.294 -0.2995  0.9903 -1.3223
 3761SOL    HW222920   2.754   1.935  10.346  0.2919 -1.1136 -0.6574
 3762SOL     OW22921   2.661   4.532   6.450 -0.1296 -0.0075 -0.2254
 3762SOL    HW122922   2.731   4.504   6.508 -0.1173  0.6821  0.0998
 3762SOL    HW222923   2.609   4.577   6.517  0.3913 -0.4253  0.4524
 3763SOL     OW22924   3.201   3.563  14.268 -0.1223 -0.2746 -0.1816
 3763SOL    HW122925   3.108   3.550  14.251 -0.2738 -0.6755  0.9594
 3763SOL    HW222926   3.243   3.559  14.182  0.1256 -0.7140 -0.0423
 3764SOL     OW22927   1.368   0.586  16.787 -0.1643 -0.2152 -0.3168
 3764SOL    HW122928   1.295   0.637  16.753  0.9027  1.4938 -0.0681
 3764SOL    HW222929   1.395   0.532  16.713  1.4491 -0.6312  0.5668
 3765SOL     OW22930   2.886   1.944  16.600 -0.0881  0.2828  0.4479
 3765SOL    HW122931   2.944   1.933  16.525 -0.3873  1.1448  0.0981
 3765SOL    HW222932   2.927   1.888  16.666  0.0298  1.6208  1.4935
 3766SOL     OW22933   1.438   1.180   3.783  0.5851 -0.6047 -0.0877
 3766SOL    HW122934   1.389   1.248   3.736 -1.0577 -0.8802  1.2216
 3766SOL    HW222935   1.404   1.102   3.738  0.9704 -0.9013  0.1415
 3767SOL     OW22936   2.529   0.267  13.417 -0.4723 -0.2284  0.1571
 3767SOL    HW122937   2.582   0.188  13.413  0.8994  0.6904  0.2918
 3767SOL    HW222938   2.503   0.269  13.509 -1.8904 -0.1752 -0.2406
 3768SOL     OW22939   1.255   4.517   8.135 -0.0072 -0.1719 -0.0355
 3768SOL    HW122940   1.235   4.517   8.229  1.1759 -0.7232  0.2196
 3768SOL    HW222941   1.170   4.522   8.092  0.9845 -0.5219 -2.0085
 3769SOL     OW22942   1.226   1.257  14.478 -0.2531  0.0794  0.1172
 3769SOL    HW122943   1.267   1.218  14.555  1.3890 -0.4285 -1.0086
 3769SOL    HW222944   1.299   1.263  14.416  2.1261 -2.3264  2.6628
 3770SOL     OW22945   0.292   3.160   5.418  0.4269 -0.4005 -0.1531
 3770SOL    HW122946   0.209   3.172   5.464  0.2792 -0.2532 -0.4583
 3770SOL    HW222947   0.270   3.120   5.335  0.4620  0.0689 -0.3886
 3771SOL     OW22948   0.727   0.622   0.982  0.9239 -0.2283 -0.1890
 3771SOL    HW122949   0.634   0.642   0.993  1.4882  0.8032  2.7691
 3771SOL    HW222950   0.732   0.626   0.887 -1.3375 -1.5579 -0.3630
 3772SOL     OW22951   2.862   1.557   6.869  0.0441 -0.1081  0.4190
 3772SOL    HW122952   2.779   1.511   6.882 -0.1998  0.6427  1.5100
 3772SOL    HW222953   2.876   1.534   6.777 -1.4623  0.1909  0.1091
 3773SOL     OW22954   1.199   3.268   4.941 -0.2412  0.2002  0.0740
 3773SOL    HW122955   1.274   3.327   4.946 -0.2052  0.1840 -0.3079
 3773SOL    HW222956   1.240   3.187   4.972 -0.6241  0.1707  0.5031
 3774SOL     OW22957   4.591   1.587  15.680 -0.6262 -0.1883  0.0998
 3774SOL    HW122958   4.518   1.641  15.649 -1.2718 -0.7618  0.6091
 3774SOL    HW222959   4.597   1.527  15.605 -1.4444  0.4753 -0.4917
 3775SOL     OW22960   1.586   4.427   1.675  0.2923 -0.3121  0.0625
 3775SOL    HW122961   1.567   4.333   1.673 -1.5719  0.0513  0.7071
 3775SOL    HW222962   1.656   4.435   1.740 -0.6653  2.2370  0.8000
 3776SOL     OW22963   3.473   4.300   1.920 -0.8618 -0.3489  0.0565
 3776SOL    HW122964   3.535   4.240   1.879  0.2481  1.4315 -0.8885
 3776SOL    HW222965   3.508   4.378   1.877 -0.3102 -1.2124 -1.0487
 3777SOL     OW22966   2.281   0.478   6.959  0.8896 -0.1856  0.0828
 3777SOL    HW122967   2.262   0.556   7.011  2.1912  0.1297  0.1055
 3777SOL    HW222968   2.195   0.440   6.946 -0.3640  1.9825  2.0689
 3778SOL     OW22969   1.803   3.186   5.434  0.0917  0.1869  0.1206
 3778SOL    HW122970   1.876   3.179   5.373  0.3727 -0.0521  0.4838
 3778SOL    HW222971   1.858   3.163   5.509 -2.7182 -0.6385  1.9448
 3779SOL     OW22972   0.843   1.128   8.384 -0.9126  0.3870 -0.2487
 3779SOL    HW122973   0.915   1.186   8.360 -0.7171  0.2529  0.0107
 3779SOL    HW222974   0.762   1.178   8.396 -0.0178  1.6770  0.3881
 3780SOL     OW22975   3.735   2.927  12.805  0.2151  0.0353  0.2754
 3780SOL    HW122976   3.728   2.854  12.867  1.3622 -0.6903 -0.4451
 3780SOL    HW222977   3.692   2.998  12.852 -0.5223  0.0485 -0.4127
 3781SOL     OW22978   2.399   4.542   2.998  0.5204 -0.6267 -0.1301
 3781SOL    HW122979   2.324   4.504   2.952  0.2589  0.0155 -0.2295
 3781SOL    HW222980   2.471   4.513   2.942  3.2558  2.6217  1.6716
 3782SOL     OW22981   4.456   2.834   7.627  0.8284  0.0889  0.1923
 3782SOL    HW122982   4.435   2.849   7.535 -0.1984 -1.3945  0.1847
 3782SOL    HW222983   4.366   2.833   7.658  0.1167  0.1018 -1.8896
 3783SOL     OW22984   0.118   0.488   8.560  0.8587  0.3664  0.4638
 3783SOL    HW122985   0.177   0.498   8.635  0.2860 -0.2506  1.0018
 3783SOL    HW222986   0.149   0.559   8.505 -1.0517  0.3046 -0.6743
 3784SOL     OW22987   2.054   0.775   8.592 -0.4129  0.5279  0.2543
 3784SOL    HW122988   2.116   0.848   8.596 -0.2325  0.2977  1.7850
 3784SOL    HW222989   1.972   0.814   8.563 -0.5497 -0.5390 -0.7710
 3785SOL     OW22990   1.780   4.274   8.509  0.0873  0.2302  0.4693
 3785SOL    HW122991   1.694   4.297   8.475  0.3260  0.9792  0.3820
 3785SOL    HW222992   1.764   4.240   8.597  2.3284 -0.9565  0.4314
 3786SOL     OW22993   4.593   3.498   1.641 -0.1872  0.0044 -0.0990
 3786SOL    HW122994   4.509   3.486   1.684 -0.0647  0.4470  0.2577
 3786SOL    HW222995   4.647   3.459   1.710 -0.3187 -1.8070 -1.0001
 3787SOL     OW22996   3.197   0.589  17.757  0.0222 -0.4645 -0.0601
 3787SOL    HW122997   3.227   0.661  17.702  0.3555 -2.4967 -2.5613
 3787SOL    HW222998   3.195   0.525  17.685 -0.5910 -2.0099  1.3481
 3788SOL     OW22999   4.618   3.390   9.906 -0.1344 -0.2624 -0.1874
 3788SOL    HW123000   4.689   3.356   9.851  0.5954 -2.3731  2.0584
 3788SOL    HW223001   4.645   3.365   9.994 -3.9340  0.8773  1.2757
 3789SOL     OW23002   0.921   2.834   7.971 -0.0252 -0.1176  0.0741
 3789SOL    HW123003   0.923   2.740   7.951 -1.6576 -0.2825  0.6208
 3789SOL    HW223004   1.001   2.838   8.023 -0.6894 -0.0300  1.0904
 3790SOL     OW23005   4.225   3.437   5.641 -0.3092  0.0692 -0.4370
 3790SOL    HW123006   4.182   3.351   5.641  0.9729 -0.5791  2.3415
 3790SOL    HW223007   4.316   3.426   5.669 -0.8789  0.6626  1.6209
 3791SOL     OW23008   4.053   1.382  13.396 -0.1173 -0.0518  0.5494
 3791SOL    HW123009   4.032   1.410  13.485 -1.7326 -0.5631  0.3311
 3791SOL    HW223010   4.038   1.288  13.399  2.5050 -0.5264 -0.9845
 3792SOL     OW23011   2.322   1.484  14.013 -0.1963  0.4416 -0.4221
 3792SOL    HW123012   2.231   1.493  14.041 -0.5719 -0.2923 -1.3924
 3792SOL    HW223013   2.329   1.395  13.979  0.5372  0.0105  0.8444
 3793SOL     OW23014   2.930   0.448   9.063 -0.0291 -0.1937 -0.5518
 3793SOL    HW123015   2.988   0.514   9.100  1.1280 -2.3196  1.4453
 3793SOL    HW223016   2.954   0.374   9.119  1.5477  0.3487 -0.5187
 3794SOL     OW23017   3.276   4.165   2.062  0.0805  0.1284 -0.5309
 3794SOL    HW123018   3.340   4.210   2.006  0.1081 -0.3223 -0.8651
 3794SOL    HW223019   3.335   4.149   2.136  0.1386 -0.8709 -0.7926
 3795SOL     OW23020   0.760   2.916   3.545 -0.1742  0.0882 -0.2296
 3795SOL    HW123021   0.855   2.907   3.543  0.1466  3.6845 -0.8154
 3795SOL    HW223022   0.744   2.853   3.474  0.2648 -0.2791 -0.0016
 3796SOL     OW23023   0.763   2.681  10.973  0.1303 -0.3020 -0.4473
 3796SOL    HW123024   0.805   2.615  11.029 -0.2268  1.0375  1.3842
 3796SOL    HW223025   0.833   2.692  10.909 -0.6476 -0.1751 -1.2748
 3797SOL     OW23026   2.040   4.344   8.445 -0.0702  0.1607 -0.4136
 3797SOL    HW123027   1.945   4.344   8.453  0.0135  4.0065  0.5362
 3797SOL    HW223028   2.051   4.251   8.468 -1.3345 -0.1270 -0.9747
 3798SOL     OW23029   4.637   4.425   7.815  1.1768  0.9165  0.3913
 3798SOL    HW123030   4.609   4.475   7.891 -2.8481 -0.2372 -0.3744
 3798SOL    HW223031   4.557   4.401   7.769  1.8299 -0.0924 -0.2103
 3799SOL     OW23032   3.891   2.003   2.667 -0.3797  0.1463 -0.4034
 3799SOL    HW123033   3.838   1.975   2.592 -2.5514 -0.8816  1.5334
 3799SOL    HW223034   3.861   2.094   2.674  2.6044  0.8601  3.0116
 3800SOL     OW23035   0.847   4.508   3.246 -0.2313  0.1498 -0.0053
 3800SOL    HW123036   0.881   4.542   3.328  0.4107  2.3836 -1.2084
 3800SOL    HW223037   0.927   4.475   3.203  0.2982 -0.1267  1.1920
 3801SOL     OW23038   1.859   1.129   4.082  0.9607 -0.0267  0.1755
 3801SOL    HW123039   1.838   1.207   4.031 -1.0132 -0.0905  0.9147
 3801SOL    HW223040   1.916   1.173   4.145  2.7966  0.1710 -1.6172
 3802SOL     OW23041   0.576   1.905  15.019 -0.0666  0.0250 -0.0067
 3802SOL    HW123042   0.637   1.948  14.959  1.1901 -0.5992  0.8443
 3802SOL    HW223043   0.530   1.975  15.066  1.6875  1.1491  0.0080
 3803SOL     OW23044   0.356   2.575   1.410 -0.4011  0.3450  0.0328
 3803SOL    HW123045   0.369   2.669   1.421 -0.8811  0.0952  2.8059
 3803SOL    HW223046   0.306   2.553   1.489 -0.1161  0.0928  0.1444
 3804SOL     OW23047   1.056   3.304   1.324 -0.0861  0.8648 -0.3801
 3804SOL    HW123048   1.016   3.234   1.272  1.1037  1.0207 -1.4928
 3804SOL    HW223049   0.996   3.307   1.399  0.7145 -0.8071  0.3274
 3805SOL     OW23050   3.118   3.237   0.825  1.0075  0.0980 -0.2606
 3805SOL    HW123051   3.091   3.250   0.734 -1.3835 -2.1944  0.1272
 3805SOL    HW223052   3.109   3.142   0.829 -1.1812  0.3094 -0.2444
 3806SOL     OW23053   2.330   4.620  14.409 -0.0633 -0.2802  0.0034
 3806SOL    HW123054   2.251   4.576  14.375  0.9880 -1.4463 -0.9286
 3806SOL    HW223055   2.402   4.612  14.347 -2.1426 -1.2806 -2.2995
 3807SOL     OW23056   2.108   3.425   8.074  0.4515  0.4999  0.3039
 3807SOL    HW123057   2.090   3.462   7.987  0.9390  0.0991  0.0338
 3807SOL    HW223058   2.202   3.432   8.060  0.4421  0.7249  0.3435
 3808SOL     OW23059   0.947   2.674  17.343  0.4100 -0.1146  0.4584
 3808SOL    HW123060   0.948   2.717  17.258  0.0837  4.0371  2.5642
 3808SOL    HW223061   0.885   2.730  17.390  0.3161 -0.3439  0.6061
 3809SOL     OW23062   1.126   3.478   5.858 -0.5931  0.1889 -0.1217
 3809SOL    HW123063   1.160   3.391   5.837  0.4956  1.1834 -2.4994
 3809SOL    HW223064   1.197   3.538   5.879  0.6432 -0.9418 -1.0580
 3810SOL     OW23065   2.182   3.618   6.262 -0.3444  0.4599 -1.0369
 3810SOL    HW123066   2.221   3.608   6.175 -0.8252  0.3946 -1.2511
 3810SOL    HW223067   2.098   3.660   6.241 -1.2298 -1.0091 -0.4557
 3811SOL     OW23068   4.614   2.961   4.664 -0.0885 -0.3571 -0.0696
 3811SOL    HW123069   4.527   2.927   4.645 -0.4657 -0.3482  1.5944
 3811SOL    HW223070   4.640   2.901   4.734  1.7386 -2.3158 -2.4257
 3812SOL     OW23071   4.455   1.717  13.825  0.5053  0.3706 -0.2255
 3812SOL    HW123072   4.516   1.777  13.869 -2.0953  1.5420  1.7733
 3812SOL    HW223073   4.498   1.632  13.836 -1.0493 -0.5427 -1.2515
 3813SOL     OW23074   0.486   4.323  15.820 -0.2200  0.1608 -0.5510
 3813SOL    HW123075   0.570   4.277  15.818  0.5825  1.6113 -0.2243
 3813SOL    HW223076   0.512   4.392  15.759  0.9425  0.7968  0.6763
 3814SOL     OW23077   0.371   1.350  11.273  0.2056 -0.0903  0.3029
 3814SOL    HW123078   0.431   1.317  11.340 -1.8979 -2.1666  1.1297
 3814SOL    HW223079   0.413   1.432  11.249 -1.6770  0.4884 -0.9924
 3815SOL     OW23080   3.260   1.023   4.353 -0.3148 -0.0538  0.2359
 3815SOL    HW123081   3.281   1.081   4.280 -1.5414 -1.4265 -1.1984
 3815SOL    HW223082   3.201   0.964   4.306 -1.6934  0.8940  0.7599
 3816SOL     OW23083   1.476   4.615  11.992 -0.1128 -0.3584 -0.3749
 3816SOL    HW123084   1.446   4.534  12.031 -1.0441 -0.7529 -1.9058
 3816SOL    HW223085   1.426   4.607  11.911 -1.5632 -0.5546  0.5609
 3817SOL     OW23086   2.279   3.501   6.895 -0.7413 -0.3112 -0.2170
 3817SOL    HW123087   2.321   3.418   6.871 -0.0643 -1.0517  3.5825
 3817SOL    HW223088   2.352   3.563   6.896 -0.7550 -0.3689  4.4865
 3818SOL     OW23089   4.391   4.348  13.695 -0.6430 -0.6263  0.3268
 3818SOL    HW123090   4.391   4.409  13.768  0.9234 -0.0151 -0.1790
 3818SOL    HW223091   4.351   4.270  13.732  0.1999 -2.4697 -2.6132
 3819SOL     OW23092   3.975   0.437   5.171 -0.1752 -0.2365  0.3257
 3819SOL    HW123093   4.028   0.435   5.251 -0.5376  0.6107  0.5809
 3819SOL    HW223094   3.999   0.351   5.134 -0.7322  0.5473 -1.8314
 3820SOL     OW23095   4.297   2.846   8.856  0.3754 -0.5127 -0.1557
 3820SOL    HW123096   4.308   2.863   8.950  3.3739 -0.6356 -0.4876
 3820SOL    HW223097   4.205   2.870   8.846  0.6245  0.3444 -0.3167
 3821SOL     OW23098   1.756   1.248  10.024  0.0094 -0.1612  0.1854
 3821SOL    HW123099   1.795   1.161  10.036  0.3347 -0.1091 -0.4767
 3821SOL    HW223100   1.829   1.296   9.986 -0.8146  0.9544  0.0240
 3822SOL     OW23101   1.297   0.368   6.572  0.4984  0.0614 -0.0981
 3822SOL    HW123102   1.308   0.291   6.627  0.6806 -0.2701 -0.6000
 3822SOL    HW223103   1.387   0.400   6.578  0.8305 -0.9496  0.2008
 3823SOL     OW23104   4.036   3.090   4.938  0.4378 -0.0075 -0.5848
 3823SOL    HW123105   4.017   3.184   4.937  0.7470  0.0475 -2.1790
 3823SOL    HW223106   3.950   3.050   4.932  0.6375 -0.4442 -0.5434
 3824SOL     OW23107   4.069   0.752  11.947  0.1150  0.1932 -0.3354
 3824SOL    HW123108   4.005   0.682  11.951 -0.6030  0.9211  0.9461
 3824SOL    HW223109   4.066   0.794  11.861  2.6891 -0.9571 -0.9944
 3825SOL     OW23110   4.364   0.720   9.308  0.0626  0.2445 -0.1928
 3825SOL    HW123111   4.439   0.685   9.357  0.5743 -0.7312 -1.6476
 3825SOL    HW223112   4.415   0.748   9.231 -2.1754  0.6384 -1.5252
 3826SOL     OW23113   3.396   4.121   2.716 -0.3581 -0.0019 -0.8074
 3826SOL    HW123114   3.303   4.142   2.706 -0.0775  0.6237 -2.1860
 3826SOL    HW223115   3.436   4.207   2.720  1.1268 -0.7396  0.2843
 3827SOL     OW23116   2.957   1.944  17.702 -0.4580  0.2240 -0.2909
 3827SOL    HW123117   2.932   1.962  17.611 -1.7018  1.7591  0.3598
 3827SOL    HW223118   2.867   1.943  17.735 -0.6094 -1.3858 -0.7467
 3828SOL     OW23119   2.564   3.551  10.856 -1.0766  0.3161  0.0905
 3828SOL    HW123120   2.576   3.542  10.762  0.8197  2.1411  0.1464
 3828SOL    HW223121   2.607   3.475  10.896 -0.1057  1.3618  1.0216
 3829SOL     OW23122   0.476   0.383   7.761 -0.3076 -0.2260 -0.4808
 3829SOL    HW123123   0.491   0.468   7.719 -0.2822  1.5199  3.0766
 3829SOL    HW223124   0.501   0.319   7.694 -1.8080 -1.0831 -0.2332
 3830SOL     OW23125   1.188   3.577   3.864  0.0667  0.0967  0.2427
 3830SOL    HW123126   1.271   3.537   3.890  0.6748  0.5862 -0.9599
 3830SOL    HW223127   1.157   3.626   3.941 -0.9443  0.7346 -0.5741
 3831SOL     OW23128   3.957   4.253   7.939  0.2520  0.2778  0.1873
 3831SOL    HW123129   3.884   4.312   7.956  1.0382  0.8306  1.7253
 3831SOL    HW223130   3.983   4.242   8.031 -0.0597  0.1101  0.2548
 3832SOL     OW23131   0.601   4.264   8.998  0.2010  0.2197  0.8954
 3832SOL    HW123132   0.662   4.337   8.996  0.7660 -0.3298 -1.1800
 3832SOL    HW223133   0.639   4.208   8.931  1.7312 -0.3318  2.2209
 3833SOL     OW23134   4.143   4.267   1.712 -0.8178 -0.2640 -0.3382
 3833SOL    HW123135   4.081   4.210   1.667 -0.3085 -0.2410 -1.0715
 3833SOL    HW223136   4.154   4.332   1.643  1.3555 -0.0680  0.2029
 3834SOL     OW23137   3.111   2.390   2.615  0.2060 -0.1529  0.1622
 3834SOL    HW123138   3.021   2.358   2.607  0.1817  0.1401 -0.7074
 3834SOL    HW223139   3.126   2.453   2.545 -3.1873  0.0807 -0.3303
 3835SOL     OW23140   1.973   0.827  16.579  0.0160  0.2956 -0.3717
 3835SOL    HW123141   2.061   0.826  16.616  0.2542 -0.3330 -0.9614
 3835SOL    HW223142   1.916   0.837  16.656 -1.8323 -1.0369 -1.5444
 3836SOL     OW23143   2.575   0.472   4.812 -0.1695  0.3553  0.3185
 3836SOL    HW123144   2.600   0.562   4.832 -0.1036  0.6915 -1.2804
 3836SOL    HW223145   2.484   0.496   4.795 -0.2020 -1.3594 -1.9592
 3837SOL     OW23146   2.781   1.915   2.689  0.2062 -0.5207 -0.2380
 3837SOL    HW123147   2.774   1.867   2.771 -0.5615 -0.2226 -0.1301
 3837SOL    HW223148   2.692   1.950   2.687  0.3061 -0.2784 -0.4881
 3838SOL     OW23149   0.216   2.398   5.774  0.1946  0.0920 -0.3718
 3838SOL    HW123150   0.279   2.386   5.702 -1.4136 -0.5030 -1.6700
 3838SOL    HW223151   0.168   2.317   5.763  1.7971 -0.8588 -0.4355
 3839SOL     OW23152   1.114   1.799   5.016  0.7344  0.2905  0.3289
 3839SOL    HW123153   1.138   1.723   4.964  2.4426  2.5947 -2.2783
 3839SOL    HW223154   1.167   1.871   4.980 -1.1806  0.6493 -1.7755
 3840SOL     OW23155   2.584   0.916  12.503  0.1070  0.3913 -0.3971
 3840SOL    HW123156   2.614   1.004  12.523  0.7411 -0.3908  2.1200
 3840SOL    HW223157   2.612   0.862  12.576  0.7785  0.0721 -0.8869
 3841SOL     OW23158   4.001   2.426   2.240 -0.5907 -0.4969  0.1557
 3841SOL    HW123159   3.977   2.493   2.305 -0.2341 -0.1542 -0.0692
 3841SOL    HW223160   4.084   2.398   2.278 -0.1850 -1.9666 -1.7731
 3842SOL     OW23161   0.426   2.760   9.454 -0.4905  0.0872  0.0121
 3842SOL    HW123162   0.417   2.707   9.534  0.6473  1.0438  0.7839
 3842SOL    HW223163   0.520   2.781   9.457  0.0566 -2.2903 -0.3079
 3843SOL     OW23164   3.142   4.412   6.589  0.2945  0.7684 -0.8204
 3843SOL    HW123165   3.201   4.337   6.580 -2.0173 -0.9707 -1.3941
 3843SOL    HW223166   3.089   4.399   6.510  0.6021 -3.3137 -0.3306
 3844SOL     OW23167   2.835   3.867   2.045  0.7754  0.6492  0.1060
 3844SOL    HW123168   2.782   3.924   1.988 -1.6750 -1.9204 -0.1823
 3844SOL    HW223169   2.913   3.920   2.058  2.1790 -1.0976 -1.2997
 3845SOL     OW23170   0.779   1.101   2.362 -0.0041 -0.1717  0.2037
 3845SOL    HW123171   0.742   1.097   2.450 -0.3661  0.3702  0.0716
 3845SOL    HW223172   0.811   1.011   2.350 -0.5301 -0.1592 -1.3096
 3846SOL     OW23173   2.776   1.256   5.365  0.0093  0.1227 -0.1031
 3846SOL    HW123174   2.778   1.169   5.405 -0.7134  1.4355  2.8295
 3846SOL    HW223175   2.839   1.295   5.426 -0.0534 -0.6916  0.4878
 3847SOL     OW23176   2.667   0.452   9.164 -0.1185  0.6993 -0.3638
 3847SOL    HW123177   2.626   0.516   9.221  1.2296  1.4783 -0.2796
 3847SOL    HW223178   2.747   0.490   9.128  1.1763 -2.5744 -0.9509
 3848SOL     OW23179   4.343   1.014  12.597  0.4388  0.2002  0.3084
 3848SOL    HW123180   4.269   0.965  12.562  0.7054 -0.5115  0.7349
 3848SOL    HW223181   4.348   1.081  12.529  2.3721  1.3050  1.5481
 3849SOL     OW23182   1.567   0.691   6.279 -0.6597  0.0610  0.2250
 3849SOL    HW123183   1.608   0.719   6.197 -2.7659 -0.5067 -1.0020
 3849SOL    HW223184   1.612   0.746   6.343 -1.6535  0.0060  0.9631
 3850SOL     OW23185   2.303   0.896   4.201 -0.0574  0.1341 -0.5966
 3850SOL    HW123186   2.250   0.971   4.175  1.4406  0.6296 -2.2713
 3850SOL    HW223187   2.332   0.925   4.287  0.2339 -0.6379 -0.4380
 3851SOL     OW23188   2.585   0.563  14.699  0.4164  0.6015  0.1174
 3851SOL    HW123189   2.507   0.605  14.662 -0.2137 -0.3797  0.3544
 3851SOL    HW223190   2.627   0.636  14.745 -1.2561  0.5733  1.6467
 3852SOL     OW23191   3.848   1.389   8.489  0.2148  0.6575  0.2987
 3852SOL    HW123192   3.923   1.421   8.538  1.1001 -0.2007 -0.5041
 3852SOL    HW223193   3.858   1.428   8.403 -1.4406  0.3078 -0.0668
 3853SOL     OW23194   2.150   0.594  17.742 -0.4641  0.1417 -0.3342
 3853SOL    HW123195   2.108   0.673  17.708  0.3921  1.0442  0.6906
 3853SOL    HW223196   2.121   0.536  17.672  1.8602 -1.9270  0.4297
 3854SOL     OW23197   4.440   1.235  11.332  0.0479 -0.3850 -0.1719
 3854SOL    HW123198   4.390   1.192  11.263  0.0714  1.7745 -1.5407
 3854SOL    HW223199   4.413   1.325  11.313 -1.0552  0.0449  3.4138
 3855SOL     OW23200   3.685   2.306  13.293  0.2263 -0.0979  0.0807
 3855SOL    HW123201   3.602   2.347  13.314 -0.5238 -0.9848 -1.1275
 3855SOL    HW223202   3.720   2.275  13.377 -0.0936  2.2385  1.0802
 3856SOL     OW23203   4.080   3.216   0.745 -0.3217  0.1646  0.0344
 3856SOL    HW123204   4.001   3.204   0.798  0.0025  1.8518  0.9231
 3856SOL    HW223205   4.124   3.133   0.759  1.6656  0.9389 -1.6823
 3857SOL     OW23206   2.550   0.175   7.953 -0.1540  0.0276  0.0247
 3857SOL    HW123207   2.565   0.081   7.942  1.6085 -0.0543  3.1658
 3857SOL    HW223208   2.555   0.194   7.859  1.4002 -0.1787  0.0566
 3858SOL     OW23209   1.410   1.633   6.373  0.1136 -0.0001 -0.0545
 3858SOL    HW123210   1.503   1.621   6.354 -0.1196  1.8164 -2.3922
 3858SOL    HW223211   1.411   1.619   6.467  1.1197  0.9736  0.0899
 3859SOL     OW23212   4.721   1.916   9.680  0.3099 -0.0622 -0.3312
 3859SOL    HW123213   0.019   1.859   9.613 -0.9466  1.6309 -2.5005
 3859SOL    HW223214   0.047   1.985   9.691  1.7698 -1.2077 -1.9391
 3860SOL     OW23215   4.284   4.189  12.730  0.3818 -0.0146  0.3643
 3860SOL    HW123216   4.244   4.179  12.644 -1.0007 -1.3158  1.1611
 3860SOL    HW223217   4.217   4.163  12.793 -0.3293 -2.7086 -1.5395
 3861SOL     OW23218   1.755   0.639  15.949 -0.1898  0.1808  0.3797
 3861SOL    HW123219   1.738   0.733  15.944  0.2120  0.3431  2.1458
 3861SOL    HW223220   1.673   0.598  15.922  0.3877 -0.3669 -0.5390
 3862SOL     OW23221   0.473   0.527   7.228 -0.0245 -0.2087  0.5764
 3862SOL    HW123222   0.417   0.455   7.258 -0.0074  0.4892  2.2998
 3862SOL    HW223223   0.470   0.594   7.296 -1.8201 -1.1968  1.4801
 3863SOL     OW23224   1.319   3.681   8.329 -0.0028  0.0456  0.1787
 3863SOL    HW123225   1.251   3.620   8.301 -0.1705  0.0060  0.6720
 3863SOL    HW223226   1.281   3.715   8.410 -0.1785 -1.7487  0.8421
 3864SOL     OW23227   2.212   3.339  10.044  0.5918  0.1170  0.5251
 3864SOL    HW123228   2.224   3.338  10.139 -1.8202  2.8778  0.8672
 3864SOL    HW223229   2.186   3.429  10.024 -1.4851 -0.5016  0.3778
 3865SOL     OW23230   0.837   3.202  13.541 -0.5780 -0.5606 -0.7367
 3865SOL    HW123231   0.821   3.282  13.591  1.1357 -1.9381  1.9775
 3865SOL    HW223232   0.932   3.206  13.544 -0.7438  3.2999 -1.0150
 3866SOL     OW23233   4.282   2.542   9.621 -0.2802  0.4127  0.3166
 3866SOL    HW123234   4.295   2.503   9.707 -1.0976 -1.1831 -0.2728
 3866SOL    HW223235   4.368   2.512   9.591  0.0341  0.6730  0.9616
 3867SOL     OW23236   2.493   4.725   8.612 -0.1810 -0.1988 -0.7414
 3867SOL    HW123237   2.456   4.689   8.531  1.1031 -3.3831  0.0863
 3867SOL    HW223238   2.584   4.726   8.584  0.4414 -0.1037  1.3336
 3868SOL     OW23239   0.282   1.967   4.680  0.3676 -0.0155 -0.3965
 3868SOL    HW123240   0.376   1.982   4.675  0.5034 -0.7777 -0.1365
 3868SOL    HW223241   0.275   1.936   4.770  1.5839  0.1913 -0.2368
 3869SOL     OW23242   1.325   4.015   9.311 -0.0727  0.3581  0.2158
 3869SOL    HW123243   1.309   4.040   9.403 -2.6459  2.7250 -0.8673
 3869SOL    HW223244   1.271   4.086   9.277 -0.9524 -1.2353 -1.6911
 3870SOL     OW23245   0.653   3.213   8.129  0.7649 -0.3667 -0.4844
 3870SOL    HW123246   0.572   3.164   8.142 -0.0803  1.3014  0.4972
 3870SOL    HW223247   0.701   3.147   8.078 -0.4371  0.3334 -2.5030
 3871SOL     OW23248   1.379   3.139   5.102 -0.2958  0.2493  0.3030
 3871SOL    HW123249   1.432   3.165   5.177  2.7901  0.8765 -2.0879
 3871SOL    HW223250   1.341   3.059   5.138  0.4708  0.2625  1.1363
 3872SOL     OW23251   4.672   3.183   9.013  0.6136 -0.0502 -0.3096
 3872SOL    HW123252   4.673   3.182   9.109  2.9641 -1.6468 -0.3465
 3872SOL    HW223253   4.683   3.090   8.993 -1.1358  0.3071 -2.9447
 3873SOL     OW23254   2.371   4.400   6.567 -0.2388  0.4015 -0.4966
 3873SOL    HW123255   2.407   4.480   6.604  1.5538 -0.1547 -1.0609
 3873SOL    HW223256   2.417   4.323   6.600  0.5791  0.6734 -1.0081
 3874SOL     OW23257   2.520   1.244   0.721  0.2828 -0.2029  0.2845
 3874SOL    HW123258   2.430   1.217   0.739  0.7975 -1.7872  0.4754
 3874SOL    HW223259   2.552   1.168   0.672  0.3805 -1.1621  1.8432
 3875SOL     OW23260   1.168   2.506   6.335 -0.3647  0.0794  0.1826
 3875SOL    HW123261   1.124   2.509   6.251 -1.1860 -0.1658  0.6075
 3875SOL    HW223262   1.112   2.575   6.371 -2.9765 -1.6780 -0.5045
 3876SOL     OW23263   2.487   0.039   7.489 -0.2228 -0.4112  0.4083
 3876SOL    HW123264   2.533   0.014   7.409 -0.6848  0.4110 -0.1119
 3876SOL    HW223265   2.455   4.696   7.522  1.7961 -0.9914  0.9252
 3877SOL     OW23266   3.590   2.023  10.066 -0.5128 -0.3733  0.2260
 3877SOL    HW123267   3.596   2.094  10.130  2.4889  1.0722 -1.6810
 3877SOL    HW223268   3.660   1.970  10.104 -0.6026  1.4250  2.9178
 3878SOL     OW23269   1.981   1.215  12.502 -0.0784 -0.6558 -0.0715
 3878SOL    HW123270   2.042   1.249  12.437 -0.3722  2.3232  1.1882
 3878SOL    HW223271   2.045   1.218  12.574 -1.9481 -1.8877  1.6531
 3879SOL     OW23272   1.752   1.856   7.800 -0.7706  0.1101  0.2175
 3879SOL    HW123273   1.671   1.899   7.829 -0.1410  0.9613  0.6967
 3879SOL    HW223274   1.709   1.799   7.736  1.6941 -2.1769  0.6270
 3880SOL     OW23275   1.188   2.516   0.131  0.2856 -0.3037 -0.7365
 3880SOL    HW123276   1.225   2.481   0.050 -0.6915 -1.2399 -0.7807
 3880SOL    HW223277   1.115   2.454   0.135  0.9360 -1.1895 -2.6991
 3881SOL     OW23278   0.686   3.916   7.728  0.1972  0.2257  0.2253
 3881SOL    HW123279   0.639   3.907   7.811  2.5671  0.3551  1.5823
 3881SOL    HW223280   0.767   3.873   7.754 -0.1748 -1.3683 -1.2822
 3882SOL     OW23281   3.798   3.204   5.772  0.0523 -0.2284 -0.2568
 3882SOL    HW123282   3.754   3.150   5.838  1.5058  0.4693  1.2997
 3882SOL    HW223283   3.877   3.222   5.824 -0.7039 -2.6105  1.7751
 3883SOL     OW23284   2.817   4.281   6.777 -0.0676 -0.0110  0.2391
 3883SOL    HW123285   2.782   4.239   6.856 -1.7185 -0.5183 -0.7834
 3883SOL    HW223286   2.901   4.307   6.815 -0.2448 -0.2290  0.7755
 3884SOL     OW23287   0.200   0.424  12.023  0.1011  0.4380 -0.1185
 3884SOL    HW123288   0.261   0.355  12.048 -1.1980 -1.2532 -1.5048
 3884SOL    HW223289   0.131   0.385  11.969  0.8522 -1.7083  0.4804
 3885SOL     OW23290   3.742   4.301   2.032  0.0306 -0.9717 -0.1342
 3885SOL    HW123291   3.754   4.206   2.027  1.2616 -1.0229  3.1728
 3885SOL    HW223292   3.826   4.339   2.057 -0.0745 -2.0112  1.8505
 3886SOL     OW23293   3.791   1.828  11.062 -0.9811 -0.4177 -0.1477
 3886SOL    HW123294   3.881   1.826  11.096 -0.8688 -3.1454 -0.6019
 3886SOL    HW223295   3.807   1.875  10.980  1.7027 -0.8233  0.1261
 3887SOL     OW23296   4.647   2.259  10.856 -0.4933 -0.1219 -0.9166
 3887SOL    HW123297   4.570   2.316  10.858  0.4067  0.9989  1.9865
 3887SOL    HW223298   4.646   2.249  10.761 -3.2193 -3.3055 -0.5611
 3888SOL     OW23299   0.551   3.516  16.541 -0.2103 -0.1973 -0.4232
 3888SOL    HW123300   0.556   3.536  16.635  1.3428  2.0696 -0.9802
 3888SOL    HW223301   0.469   3.467  16.532 -0.2975 -0.0744 -0.2911
 3889SOL     OW23302   2.797   3.085  13.724 -0.3951 -0.4123 -0.3417
 3889SOL    HW123303   2.792   3.128  13.810 -0.7931  0.9596 -1.0532
 3889SOL    HW223304   2.705   3.062  13.711 -0.1996 -0.5158 -1.4901
 3890SOL     OW23305   0.575   0.036  17.538 -0.1141 -0.1761  0.1050
 3890SOL    HW123306   0.578   4.711  17.607  0.6077  1.5700  1.7211
 3890SOL    HW223307   0.481   0.055  17.533 -0.5629 -2.4407  0.2599
 3891SOL     OW23308   0.411   0.204  12.359  0.2580 -0.1684 -0.2887
 3891SOL    HW123309   0.440   0.160  12.279 -0.8264 -0.9837 -0.2271
 3891SOL    HW223310   0.476   0.273  12.371 -0.2891  0.3720 -0.4584
 3892SOL     OW23311   3.430   1.578   5.955  0.0936 -0.3235  0.1022
 3892SOL    HW123312   3.451   1.488   5.980  2.4478  0.6952  1.7776
 3892SOL    HW223313   3.343   1.565   5.916 -0.7073 -0.8069  2.0936
 3893SOL     OW23314   3.549   4.144   1.381  0.1100 -0.2304  0.9650
 3893SOL    HW123315   3.481   4.208   1.360  2.9173  2.9427  1.5577
 3893SOL    HW223316   3.553   4.128   1.475 -0.0011  1.0678  1.1898
 3894SOL     OW23317   3.956   2.123   0.103 -0.2684 -0.2021 -0.0872
 3894SOL    HW123318   3.912   2.155   0.182  0.8646  0.4049  0.2905
 3894SOL    HW223319   4.047   2.137   0.130 -0.4579 -2.1847  1.6275
 3895SOL     OW23320   2.016   0.360   4.119  0.0580 -0.3277  0.1359
 3895SOL    HW123321   1.921   0.358   4.106  0.2034  0.7197 -1.0923
 3895SOL    HW223322   2.038   0.387   4.030  0.7249 -3.1618 -0.5499
 3896SOL     OW23323   3.066   1.974   4.229 -0.2844 -0.4443  0.2515
 3896SOL    HW123324   3.148   1.981   4.179  0.4450  0.3953  1.5744
 3896SOL    HW223325   3.028   2.060   4.214 -2.7096 -1.9119 -2.0312
 3897SOL     OW23326   3.761   1.327  14.774 -0.1753 -0.2531  0.0950
 3897SOL    HW123327   3.778   1.262  14.706  2.2939 -0.7030  1.1336
 3897SOL    HW223328   3.834   1.388  14.762 -1.7491  1.6098  0.1360
 3898SOL     OW23329   0.625   2.272  16.217 -0.0878  0.3572 -0.4454
 3898SOL    HW123330   0.666   2.203  16.269 -0.2810 -0.9925 -2.0747
 3898SOL    HW223331   0.546   2.223  16.196 -0.4569  1.6885 -2.2111
 3899SOL     OW23332   0.602   3.306  17.297  0.2321 -0.2971 -0.1239
 3899SOL    HW123333   0.576   3.363  17.225  1.1125 -0.0192 -0.2172
 3899SOL    HW223334   0.620   3.373  17.363  0.7258  0.1749 -0.7392
 3900SOL     OW23335   4.633   2.665   5.640  0.6169  0.0399  0.0879
 3900SOL    HW123336   4.541   2.693   5.633  0.3835 -0.6878  0.2036
 3900SOL    HW223337   4.667   2.745   5.679 -0.0767 -0.6794  2.1804
 3901SOL     OW23338   1.910   0.485   0.180  0.3972 -0.3118  0.2175
 3901SOL    HW123339   1.994   0.521   0.209  1.4982 -1.8914 -0.9391
 3901SOL    HW223340   1.927   0.395   0.208  1.1646  0.0009  0.7589
 3902SOL     OW23341   0.600   3.723  10.895  0.1605 -0.2216 -0.1616
 3902SOL    HW123342   0.521   3.754  10.849 -0.7714 -0.9004  0.9958
 3902SOL    HW223343   0.598   3.631  10.868  0.4390 -0.6501  1.2936
 3903SOL     OW23344   0.197   3.967   4.388 -0.1352  0.1715 -0.0493
 3903SOL    HW123345   0.102   3.960   4.381  0.0133 -1.3820 -0.6579
 3903SOL    HW223346   0.216   3.900   4.322  0.5040  0.1686  0.1418
 3904SOL     OW23347   4.355   1.954   5.231 -0.1376  0.5806 -0.0293
 3904SOL    HW123348   4.295   1.924   5.299 -0.4038  1.2062  0.0107
 3904SOL    HW223349   4.318   2.038   5.204 -0.3682  0.6399  0.4674
 3905SOL     OW23350   2.175   0.438   2.577 -0.2810  0.5567 -0.1717
 3905SOL    HW123351   2.248   0.499   2.585 -2.1243  2.4059  2.1381
 3905SOL    HW223352   2.219   0.397   2.502  0.4485  2.9463 -1.0598
 3906SOL     OW23353   0.696   3.423   5.368  0.2846 -0.2454 -0.3015
 3906SOL    HW123354   0.744   3.499   5.398  0.0703  0.2782 -1.2862
 3906SOL    HW223355   0.633   3.407   5.439 -0.4802  2.3937 -0.3980
 3907SOL     OW23356   1.407   0.187   1.763 -0.3134 -0.5285  0.4132
 3907SOL    HW123357   1.369   0.268   1.797  1.4289  0.8277 -0.8628
 3907SOL    HW223358   1.452   0.209   1.681 -0.1126 -1.3605  0.2937
 3908SOL     OW23359   2.814   1.832   7.820  0.6992 -0.5514  0.0178
 3908SOL    HW123360   2.848   1.746   7.846  0.7686 -0.3365  0.6435
 3908SOL    HW223361   2.846   1.830   7.730 -0.9590 -0.2557 -0.5736
 3909SOL     OW23362   3.023   1.176   8.147  0.5770 -0.1442 -0.1620
 3909SOL    HW123363   2.996   1.258   8.105  0.1848  0.0023  0.3721
 3909SOL    HW223364   3.110   1.172   8.107  0.4223 -2.9458 -0.2022
 3910SOL     OW23365   4.133   1.017   7.819  0.7598 -0.1168  0.2779
 3910SOL    HW123366   4.179   1.011   7.735 -1.0289  1.4303 -0.8354
 3910SOL    HW223367   4.044   0.996   7.791  0.0796 -0.6772  2.9333
 3911SOL     OW23368   0.347   1.037  11.418  0.1165 -0.1194  0.5242
 3911SOL    HW123369   0.440   1.043  11.396 -0.4802 -0.4184 -1.9991
 3911SOL    HW223370   0.339   0.942  11.413 -2.9700  0.3323 -3.0540
 3912SOL     OW23371   1.502   1.937   7.891  0.4797 -0.3187  0.1151
 3912SOL    HW123372   1.440   1.986   7.838  0.3063 -0.5532  0.1025
 3912SOL    HW223373   1.470   1.937   7.981 -0.4035 -1.0522 -0.1978
 3913SOL     OW23374   1.046   2.802  11.108  0.3047  0.3531 -0.1758
 3913SOL    HW123375   0.966   2.853  11.104 -0.2121 -0.3303  1.5263
 3913SOL    HW223376   1.055   2.788  11.202 -1.1339 -0.2491 -0.1335
 3914SOL     OW23377   0.818   1.723  11.632 -0.4841  0.3601 -0.7502
 3914SOL    HW123378   0.776   1.770  11.705 -1.5605 -0.2566 -0.9730
 3914SOL    HW223379   0.743   1.713  11.573 -1.4511  1.1803  0.3188
 3915SOL     OW23380   2.112   0.401   3.872  0.1875 -0.3234 -0.1534
 3915SOL    HW123381   2.202   0.382   3.845  0.6110  1.0082  0.3384
 3915SOL    HW223382   2.068   0.443   3.799 -1.0776 -0.6019  0.4363
 3916SOL     OW23383   2.513   0.630   3.703  0.0850  0.1725 -0.4318
 3916SOL    HW123384   2.582   0.630   3.636 -0.5943 -2.4024 -1.1479
 3916SOL    HW223385   2.481   0.718   3.684  0.2779  0.8483  2.4862
 3917SOL     OW23386   3.257   2.006   5.436  0.5687 -0.1339  0.3164
 3917SOL    HW123387   3.335   2.059   5.452  0.1624 -0.5046  3.5896
 3917SOL    HW223388   3.185   2.065   5.460  0.9621  0.8207 -0.8757
 3918SOL     OW23389   1.531   4.465   2.661  0.4412  0.2170 -0.1253
 3918SOL    HW123390   1.508   4.388   2.714  2.3022 -0.5159 -0.3463
 3918SOL    HW223391   1.510   4.433   2.573 -0.2150 -1.9458  0.8158
 3919SOL     OW23392   0.936   0.666   5.017  0.6026  0.0276 -0.2059
 3919SOL    HW123393   0.960   0.583   4.976  0.1246  0.0337 -0.4909
 3919SOL    HW223394   0.852   0.681   4.973  0.0489 -0.6338  0.6381
 3920SOL     OW23395   0.437   1.072  13.897  0.2080  1.0936 -0.2106
 3920SOL    HW123396   0.367   1.030  13.947  1.2284  0.1592  0.4117
 3920SOL    HW223397   0.479   1.107  13.975  1.3115  1.1170 -0.8210
 3921SOL     OW23398   0.993   1.567  10.765 -0.0994  0.0157  0.0653
 3921SOL    HW123399   0.970   1.630  10.698 -0.2633 -0.9034 -0.7393
 3921SOL    HW223400   0.951   1.489  10.730 -0.1333 -0.1354  0.4380
 3922SOL     OW23401   1.044   0.286   3.039  0.5365 -0.3476  0.0030
 3922SOL    HW123402   1.071   0.296   2.947 -1.0561 -1.8315 -0.6139
 3922SOL    HW223403   0.958   0.328   3.040  0.7879  0.1137  1.5577
 3923SOL     OW23404   4.564   1.637  10.718 -0.2074  0.1413  0.1062
 3923SOL    HW123405   4.571   1.711  10.658 -0.6251 -0.1496 -0.3020
 3923SOL    HW223406   4.517   1.574  10.663  0.1615 -0.0154 -0.0289
 3924SOL     OW23407   1.412   2.804  16.328 -0.2599 -0.4885 -0.5501
 3924SOL    HW123408   1.380   2.858  16.400 -1.2485  0.0883 -1.4205
 3924SOL    HW223409   1.356   2.840  16.258 -0.6063  2.3713  1.2056
 3925SOL     OW23410   1.832   1.483   5.729  0.2204 -0.1010 -0.2874
 3925SOL    HW123411   1.801   1.425   5.659 -1.4717 -0.6682  0.9333
 3925SOL    HW223412   1.786   1.562   5.703  0.2663  0.0526  0.0994
 3926SOL     OW23413   3.141   1.924   7.583  0.9048 -0.0584  0.0994
 3926SOL    HW123414   3.111   1.980   7.655 -2.3541 -0.9929 -0.5171
 3926SOL    HW223415   3.213   1.883   7.631  0.2836 -0.9591  0.2662
 3927SOL     OW23416   3.369   1.612   6.390 -0.3415 -0.2744 -0.1899
 3927SOL    HW123417   3.341   1.700   6.417  0.4155  0.2403 -1.1048
 3927SOL    HW223418   3.294   1.596   6.334 -1.5578  3.2502  0.4569
 3928SOL     OW23419   3.934   2.198   9.147 -0.1566  0.0498  0.1706
 3928SOL    HW123420   3.929   2.291   9.167  3.1739 -0.2316  2.3399
 3928SOL    HW223421   4.002   2.193   9.079 -0.1515 -0.6508  0.2264
 3929SOL     OW23422   2.947   0.267   4.325  0.0352 -0.5498  0.0164
 3929SOL    HW123423   2.901   0.334   4.375  0.2478 -0.6361  0.3250
 3929SOL    HW223424   3.033   0.269   4.368  0.4695  0.0563 -0.8678
 3930SOL     OW23425   4.620   1.858  17.640 -0.3595  0.1215 -0.4170
 3930SOL    HW123426   4.690   1.915  17.672  0.1322 -0.2633 -0.8115
 3930SOL    HW223427   4.599   1.803  17.715  2.0042 -0.2187  0.0055
 3931SOL     OW23428   3.560   1.899  10.731 -0.0493 -0.0136 -0.0527
 3931SOL    HW123429   3.497   1.844  10.777 -0.6301 -0.1177 -0.9609
 3931SOL    HW223430   3.599   1.949  10.802 -0.3376 -2.2901  1.6857
 3932SOL     OW23431   2.610   3.724  17.025  0.0740 -0.1595  0.6927
 3932SOL    HW123432   2.615   3.764  16.938 -2.6127  0.4406  0.8329
 3932SOL    HW223433   2.625   3.632  17.000  0.5670  0.3817 -0.9870
 3933SOL     OW23434   3.010   2.211   4.137  0.2009 -0.5478 -0.9644
 3933SOL    HW123435   2.933   2.268   4.135  0.2926 -0.3272  2.0994
 3933SOL    HW223436   3.043   2.245   4.054  2.9902 -0.0143  0.3562
 3934SOL     OW23437   3.860   1.597   2.137 -0.3984  0.1947  0.1436
 3934SOL    HW123438   3.857   1.534   2.209 -0.9784 -0.5001 -0.4934
 3934SOL    HW223439   3.797   1.659   2.173 -0.6396  1.7283 -2.9607
 3935SOL     OW23440   4.665   0.274  10.699  0.2790 -0.5759  0.3116
 3935SOL    HW123441   4.572   0.256  10.697  0.3717 -1.1871  1.4545
 3935SOL    HW223442   4.686   0.223  10.777  0.3483 -0.1440  0.5787
 3936SOL     OW23443   0.669   3.922   0.365 -0.2838  0.2831  0.3732
 3936SOL    HW123444   0.690   3.920   0.459  0.0382 -2.3606  0.2314
 3936SOL    HW223445   0.721   3.848   0.334  0.2248  0.4134  0.9184
 3937SOL     OW23446   0.990   3.742   6.310 -0.3537  0.6842 -1.0987
 3937SOL    HW123447   0.932   3.667   6.321  0.1816  0.3996 -0.2000
 3937SOL    HW223448   1.048   3.728   6.385 -0.5244 -0.0877 -1.1064
 3938SOL     OW23449   0.326   3.476  15.880 -0.2838 -0.3290 -0.2230
 3938SOL    HW123450   0.273   3.402  15.909  1.4026 -1.3477  0.2808
 3938SOL    HW223451   0.311   3.534  15.954  1.1353 -0.4044  0.1165
 3939SOL     OW23452   2.078   0.241  15.925  0.0764  1.0670 -0.5049
 3939SOL    HW123453   2.114   0.164  15.881  1.1268  1.5257 -0.4374
 3939SOL    HW223454   2.106   0.216  16.013 -1.8778 -1.2274 -0.5274
 3940SOL     OW23455   0.061   4.398   8.233 -0.0793  0.5174  0.5846
 3940SOL    HW123456   0.068   4.412   8.328 -0.2806 -2.1148  0.9748
 3940SOL    HW223457   0.046   4.489   8.207 -0.4981 -0.6013 -2.9256
 3941SOL     OW23458   0.027   0.129   0.486 -0.0189  0.0440 -0.1634
 3941SOL    HW123459   4.693   0.077   0.454 -0.4201 -0.8150  2.1643
 3941SOL    HW223460   0.044   0.183   0.409  0.5053  3.3394  2.2632
 3942SOL     OW23461   2.075   2.564   4.816  0.0632  0.5110  0.0976
 3942SOL    HW123462   2.005   2.624   4.842  1.1153  1.5912  0.5003
 3942SOL    HW223463   2.123   2.621   4.755 -0.0636  1.2727  0.7068
 3943SOL     OW23464   1.565   3.820   9.001 -0.4863 -0.1508  0.2225
 3943SOL    HW123465   1.596   3.733   8.977 -0.9292 -0.2200 -0.0986
 3943SOL    HW223466   1.525   3.790   9.083 -1.3676 -4.2992 -1.7745
 3944SOL     OW23467   2.532   2.984   6.582 -0.4547 -0.4153 -0.2441
 3944SOL    HW123468   2.448   2.988   6.629  0.6980 -0.1821  1.7769
 3944SOL    HW223469   2.521   2.895   6.548 -2.4693 -0.5081  0.6348
 3945SOL     OW23470   3.820   1.827   8.486  0.2736 -0.0672  0.4469
 3945SOL    HW123471   3.763   1.757   8.454  1.7225 -1.8739  1.8184
 3945SOL    HW223472   3.756   1.867   8.545 -1.2890  0.3260 -1.5338
 3946SOL     OW23473   1.659   1.310   1.199  0.3144 -0.3455  0.2495
 3946SOL    HW123474   1.623   1.335   1.284  2.3751  0.4071  0.9008
 3946SOL    HW223475   1.594   1.310   1.130 -0.8881  1.7361  1.3937
 3947SOL     OW23476   1.790   3.008   2.169  0.2165  0.1611 -0.2779
 3947SOL    HW123477   1.848   3.013   2.245 -2.1680  2.1797  1.4518
 3947SOL    HW223478   1.710   3.052   2.199  1.7090  1.0351  2.3564
 3948SOL     OW23479   4.284   1.822  12.018 -0.7324 -0.2597  0.2154
 3948SOL    HW123480   4.335   1.814  11.938 -0.2505  1.4405  0.3582
 3948SOL    HW223481   4.359   1.858  12.065 -1.8055  1.5884  0.5245
 3949SOL     OW23482   0.634   4.561   3.079 -0.2881  0.1397  0.2782
 3949SOL    HW123483   0.657   4.636   3.026 -1.4586  1.7593  2.0416
 3949SOL    HW223484   0.717   4.548   3.126 -0.6293 -1.2162  0.5091
 3950SOL     OW23485   3.922   1.698   9.436 -0.1447  0.0728  0.1115
 3950SOL    HW123486   3.933   1.627   9.500 -0.7202  0.4739  0.6465
 3950SOL    HW223487   3.839   1.734   9.465 -2.2884 -3.2968 -1.7183
 3951SOL     OW23488   3.144   3.838  11.955  0.3254  0.2792 -0.1365
 3951SOL    HW123489   3.081   3.802  11.893 -1.0592 -2.2471  2.7619
 3951SOL    HW223490   3.097   3.909  11.997  1.2497 -0.1720  1.6918
 3952SOL     OW23491   0.067   2.416   9.040  0.2412 -0.0598 -0.1157
 3952SOL    HW123492   0.013   2.462   8.976  1.5741  1.0033 -0.4875
 3952SOL    HW223493   0.013   2.338   9.037  0.3080 -0.1584  1.0750
 3953SOL     OW23494   2.588   4.409   7.458  0.1874 -0.2969 -0.4146
 3953SOL    HW123495   2.502   4.451   7.456 -0.2252 -1.2412 -1.8172
 3953SOL    HW223496   2.620   4.442   7.542 -1.0118 -1.7032  0.6253
 3954SOL     OW23497   1.905   1.173   7.492 -0.3912  0.5607 -0.2667
 3954SOL    HW123498   1.922   1.109   7.424  1.3812  1.4671 -0.6631
 3954SOL    HW223499   1.877   1.250   7.442  1.2979  0.2774 -1.6404
 3955SOL     OW23500   4.581   2.766  10.116  0.0931 -0.1089  0.0969
 3955SOL    HW123501   4.579   2.837  10.052 -0.1361  0.8363  1.1560
 3955SOL    HW223502   4.675   2.755  10.133  0.0434  0.5465  0.8138
 3956SOL     OW23503   0.942   1.246  12.469  0.9096  0.0752 -0.1270
 3956SOL    HW123504   0.873   1.219  12.530  0.4939 -0.6613 -0.9278
 3956SOL    HW223505   1.007   1.276  12.533  1.1287 -0.5717 -0.0460
 3957SOL     OW23506   0.195   1.681   9.026  0.2810  0.2596 -0.0888
 3957SOL    HW123507   0.235   1.766   9.004 -0.2658  0.5425  0.0097
 3957SOL    HW223508   0.271   1.628   9.051 -0.8663 -1.3280  0.0248
 3958SOL     OW23509   1.981   4.325  14.966 -0.3983 -0.3647 -1.0406
 3958SOL    HW123510   2.019   4.300  15.050 -0.6420  2.0580 -0.2102
 3958SOL    HW223511   2.061   4.336  14.916 -1.7714  0.6024 -3.0005
 3959SOL     OW23512   0.147   0.944   6.244  0.1813 -0.2943 -0.3232
 3959SOL    HW123513   0.238   0.917   6.257  0.1402  0.5536  1.8362
 3959SOL    HW223514   0.102   0.875   6.293 -2.6356  0.4398 -1.8811
 3960SOL     OW23515   1.047   0.066  14.349 -0.1307 -0.3291  0.0009
 3960SOL    HW123516   0.974   0.107  14.303 -1.0463 -0.1025  1.6906
 3960SOL    HW223517   1.003   0.060  14.434 -0.9672  1.1383 -0.3233
 3961SOL     OW23518   2.465   1.441   3.442  0.0948  0.0062 -0.2052
 3961SOL    HW123519   2.370   1.435   3.434 -0.0805  1.7103  0.5911
 3961SOL    HW223520   2.500   1.414   3.357 -1.2357  0.3909 -0.8749
 3962SOL     OW23521   1.869   4.072   1.438 -0.1324  0.1404  0.2765
 3962SOL    HW123522   1.785   4.033   1.460 -0.7850  0.5832 -1.3752
 3962SOL    HW223523   1.902   4.088   1.526 -0.0484 -0.1509  0.2969
 3963SOL     OW23524   4.480   2.285  12.462  0.1937 -0.4015  0.0793
 3963SOL    HW123525   4.443   2.372  12.444  0.4162 -0.2340  0.4494
 3963SOL    HW223526   4.436   2.238  12.390 -0.0854 -0.3127  0.1905
 3964SOL     OW23527   4.431   1.508  11.236 -0.1780  0.2065 -0.0195
 3964SOL    HW123528   4.415   1.596  11.269 -3.9505  0.2330 -1.8600
 3964SOL    HW223529   4.479   1.528  11.155  1.4212 -1.1880  0.5927
 3965SOL     OW23530   0.664   4.367  12.716 -0.6620  0.1540  0.0871
 3965SOL    HW123531   0.686   4.420  12.793  0.8615  0.9162 -0.8751
 3965SOL    HW223532   0.745   4.368  12.665 -1.4654 -0.0396 -1.1930
 3966SOL     OW23533   3.444   3.489   5.665  0.0186  0.6106 -0.0836
 3966SOL    HW123534   3.539   3.480   5.676  0.2040  0.6773 -1.6127
 3966SOL    HW223535   3.434   3.493   5.570  0.6725 -1.7514 -0.2333
 3967SOL     OW23536   1.960   2.553   4.198  0.9723  0.2027 -0.1562
 3967SOL    HW123537   1.889   2.611   4.171  0.5956  0.9153  2.3221
 3967SOL    HW223538   1.895   2.500   4.245  2.1316 -0.2876  0.8882
 3968SOL     OW23539   2.084   2.598  13.790 -0.4239 -0.5830 -0.8779
 3968SOL    HW123540   2.143   2.536  13.832 -0.1304 -0.2432 -0.7820
 3968SOL    HW223541   2.019   2.611  13.858  0.2330 -0.8775 -0.1947
 3969SOL     OW23542   3.095   1.600   8.749 -0.0119 -0.1909  0.2843
 3969SOL    HW123543   3.036   1.627   8.678  0.3674  1.6565  0.6675
 3969SOL    HW223544   3.097   1.665   8.820  1.4344 -1.0125  0.9764
 3970SOL     OW23545   2.547   1.448  11.277 -0.3252  0.2606 -0.0441
 3970SOL    HW123546   2.477   1.390  11.307  2.2700 -0.6309  4.2395
 3970SOL    HW223547   2.613   1.383  11.255  0.4544  1.4111 -1.0636
 3971SOL     OW23548   3.887   4.499   1.579 -0.6811 -0.3289  0.0230
 3971SOL    HW123549   3.815   4.514   1.517  0.2086  2.7102 -0.2820
 3971SOL    HW223550   3.833   4.487   1.657 -1.0245  1.7265  0.1067
 3972SOL     OW23551   0.022   0.923  11.226 -0.1979  0.2524 -0.3811
 3972SOL    HW123552   0.035   0.844  11.278 -0.4049 -0.4755 -1.4467
 3972SOL    HW223553   4.701   0.971  11.282 -0.1252 -1.5900  1.2760
 3973SOL     OW23554   2.759   1.542   5.972 -0.1288 -0.0417 -0.1152
 3973SOL    HW123555   2.850   1.551   5.945 -0.0672 -0.0334  0.1024
 3973SOL    HW223556   2.709   1.547   5.890  0.4170  1.3275 -0.3597
 3974SOL     OW23557   1.360   2.216   5.766  0.1770 -0.7018 -0.0525
 3974SOL    HW123558   1.421   2.289   5.767  0.6277 -1.1021  1.0379
 3974SOL    HW223559   1.289   2.253   5.714  0.0138 -3.4913 -1.8458
 3975SOL     OW23560   2.346   0.539  12.344 -0.2211 -0.2654 -0.2794
 3975SOL    HW123561   2.383   0.579  12.423 -1.1065 -0.7606  0.3869
 3975SOL    HW223562   2.383   0.451  12.347  0.6553  0.1517  1.3698
 3976SOL     OW23563   3.029   0.555   7.459 -0.0608  0.1367 -0.1832
 3976SOL    HW123564   2.959   0.608   7.498 -2.0179 -1.7243 -1.1739
 3976SOL    HW223565   3.059   0.509   7.538 -1.3492  0.6906  0.6305
 3977SOL     OW23566   2.208   3.131   6.636  0.5299 -0.3209  0.2407
 3977SOL    HW123567   2.211   3.047   6.680  1.7915 -0.1576  0.4671
 3977SOL    HW223568   2.114   3.136   6.619 -0.0474 -1.9507  2.9623
 3978SOL     OW23569   0.913   3.967   8.682 -0.4434 -0.3753 -0.4018
 3978SOL    HW123570   0.992   3.937   8.638  0.1830  0.4621  0.1668
 3978SOL    HW223571   0.913   4.057   8.652 -1.6638 -0.0237  0.6322
 3979SOL     OW23572   4.197   3.533   8.392 -0.2462 -0.1578 -0.4167
 3979SOL    HW123573   4.118   3.491   8.426 -0.1000 -0.4761 -0.4766
 3979SOL    HW223574   4.154   3.582   8.322  0.0194  0.4943 -0.1268
 3980SOL     OW23575   0.325   4.271   8.939 -0.2283  0.4675  0.5751
 3980SOL    HW123576   0.410   4.234   8.962  0.4538  0.3756 -2.0944
 3980SOL    HW223577   0.317   4.335   9.009 -0.2871  1.5891 -0.4573
 3981SOL     OW23578   0.105   1.547   9.866 -0.0650  0.1546  0.2075
 3981SOL    HW123579   0.180   1.530   9.809 -1.3252 -0.2069 -1.3353
 3981SOL    HW223580   0.126   1.493   9.942 -3.4638 -2.0479 -0.4348
 3982SOL     OW23581   1.573   0.498   3.648 -0.1938  0.0597  0.1548
 3982SOL    HW123582   1.496   0.441   3.651  0.0704 -0.3104 -0.1389
 3982SOL    HW223583   1.534   0.585   3.659 -0.0729  0.1214  0.0929
 3983SOL     OW23584   4.085   4.477   8.839 -0.1087 -0.6281  0.1789
 3983SOL    HW123585   4.180   4.464   8.843 -0.4198 -2.5986  1.2400
 3983SOL    HW223586   4.055   4.407   8.897 -0.3971 -0.1603  0.5901
 3984SOL     OW23587   1.967   4.154  14.640  0.4570 -0.7699  0.0756
 3984SOL    HW123588   1.964   4.077  14.584  1.7259 -0.8500  0.1116
 3984SOL    HW223589   1.910   4.124  14.711 -1.9805  0.6315 -1.3455
 3985SOL     OW23590   4.169   2.535   1.288  0.4896  0.2546 -0.1312
 3985SOL    HW123591   4.096   2.525   1.227 -0.7792  1.0246  1.2495
 3985SOL    HW223592   4.235   2.477   1.250 -1.4906 -0.1661 -2.9109
 3986SOL     OW23593   2.905   3.382   3.758 -0.3093  0.5398 -0.5918
 3986SOL    HW123594   2.855   3.313   3.803  0.6123  1.0062  1.1692
 3986SOL    HW223595   2.853   3.462   3.765 -2.6392 -1.1201  1.1836
 3987SOL     OW23596   4.659   1.507   3.028  0.1081  0.3615  0.0381
 3987SOL    HW123597   4.685   1.428   2.979 -0.7251  1.3655 -2.0036
 3987SOL    HW223598   4.625   1.557   2.954  0.4835 -1.1715 -1.1727
 3988SOL     OW23599   1.734   3.936  16.731  0.0576 -0.5236  0.3065
 3988SOL    HW123600   1.675   3.937  16.806  0.6365  3.1795  0.7203
 3988SOL    HW223601   1.700   3.860  16.683  0.3351 -0.6268  0.2725
 3989SOL     OW23602   0.307   4.577  15.972  0.4753 -0.1580 -0.0135
 3989SOL    HW123603   0.267   4.538  15.895 -0.1791  1.5681 -0.5487
 3989SOL    HW223604   0.228   4.602  16.019  1.8922 -0.5902  2.6037
 3990SOL     OW23605   0.299   2.389   4.781  0.4612  0.1672 -0.2499
 3990SOL    HW123606   0.243   2.326   4.824  0.0852  1.5092  1.2318
 3990SOL    HW223607   0.244   2.468   4.780 -1.2626 -1.0087  2.8608
 3991SOL     OW23608   2.515   3.363  11.189 -0.4463 -0.1296 -0.0926
 3991SOL    HW123609   2.517   3.424  11.262  1.4392  1.3618 -1.3609
 3991SOL    HW223610   2.428   3.323  11.190 -0.1791 -0.5992  3.3981
 3992SOL     OW23611   0.762   3.058   7.939 -0.2051 -0.2708 -0.3525
 3992SOL    HW123612   0.836   3.090   7.888  1.6494 -1.8578  1.3489
 3992SOL    HW223613   0.800   2.976   7.970  0.8646 -0.5923 -2.4902
 3993SOL     OW23614   1.060   1.389   2.533 -0.1204 -0.1276 -0.2789
 3993SOL    HW123615   0.993   1.355   2.593 -1.9823  1.0705 -1.6833
 3993SOL    HW223616   1.039   1.481   2.547 -1.3704 -0.3582 -0.6382
 3994SOL     OW23617   0.044   0.994   6.908 -0.4430 -0.1765  0.3597
 3994SOL    HW123618   0.040   1.060   6.839  1.5859 -1.0320 -0.5750
 3994SOL    HW223619   0.110   1.045   6.956  0.3644  0.8071 -1.7741
 3995SOL     OW23620   0.393   4.200  11.862 -0.3595  0.2615 -0.2049
 3995SOL    HW123621   0.484   4.200  11.891 -0.1143  0.4663 -0.9884
 3995SOL    HW223622   0.402   4.242  11.777  1.1020  0.0784 -0.1383
 3996SOL     OW23623   1.737   4.405   6.262  0.0513 -1.0520 -0.4893
 3996SOL    HW123624   1.724   4.495   6.234  0.5748 -0.8214  0.0152
 3996SOL    HW223625   1.801   4.425   6.330 -0.1142 -0.8748 -0.3887
 3997SOL     OW23626   1.670   0.610   5.288 -0.3220  0.0287 -0.6300
 3997SOL    HW123627   1.736   0.544   5.309  1.8388  2.2117 -0.6158
 3997SOL    HW223628   1.589   0.559   5.300  0.8866 -2.1154 -1.5281
 3998SOL     OW23629   0.478   3.987   5.614  0.2827 -0.2188  0.0806
 3998SOL    HW123630   0.508   3.907   5.657  1.9001 -0.6028 -1.8057
 3998SOL    HW223631   0.383   3.973   5.618  0.6837 -2.7960  0.4486
 3999SOL     OW23632   3.464   1.837  16.175 -0.3613 -0.2395 -0.0685
 3999SOL    HW123633   3.524   1.775  16.134 -1.4852 -0.4679 -1.3705
 3999SOL    HW223634   3.525   1.891  16.226  0.2668 -3.5898  2.7305
 4000SOL     OW23635   1.384   4.199   8.793 -0.0618  0.0689 -0.0925
 4000SOL    HW123636   1.307   4.200   8.850  0.2135 -0.4407  0.2930
 4000SOL    HW223637   1.408   4.106   8.792 -0.9766 -0.1612 -0.2843
 4001SOL     OW23638   3.875   3.570  15.686  0.0351 -0.0153 -0.0680
 4001SOL    HW123639   3.933   3.640  15.654  0.9618  0.2136  2.1412
 4001SOL    HW223640   3.805   3.617  15.731 -0.7352 -1.4809  0.2267
 4002SOL     OW23641   1.933   3.538   4.240 -0.1794 -0.1140 -0.9116
 4002SOL    HW123642   1.892   3.624   4.250 -1.0772 -0.4437 -1.6947
 4002SOL    HW223643   2.007   3.565   4.294 -0.1466 -2.8114  0.3967
 4003SOL     OW23644   3.949   3.992   3.023 -0.2837  0.1512 -0.3449
 4003SOL    HW123645   3.998   3.945   3.091  0.4305  0.5211 -0.6059
 4003SOL    HW223646   3.869   3.993   3.076  0.2534 -1.1769  0.4983
 4004SOL     OW23647   2.054   3.353   3.592 -0.1998  0.2292 -0.1276
 4004SOL    HW123648   1.958   3.352   3.590 -0.1725 -0.4845 -0.9132
 4004SOL    HW223649   2.060   3.349   3.688 -3.1778  3.0093  0.1962
 4005SOL     OW23650   4.239   1.144  13.129 -0.3253  0.4679  0.3736
 4005SOL    HW123651   4.246   1.154  13.034 -1.4523  0.9889  0.3384
 4005SOL    HW223652   4.312   1.196  13.163  0.4340 -0.8073  0.6944
 4006SOL     OW23653   0.955   4.154   1.678 -0.7042  0.0441 -1.1644
 4006SOL    HW123654   0.975   4.198   1.761 -0.7016  0.4599 -1.3863
 4006SOL    HW223655   0.945   4.225   1.615  0.8956  0.0413 -1.4264
 4007SOL     OW23656   3.330   3.759   0.388 -0.1321  0.1116  1.0338
 4007SOL    HW123657   3.281   3.749   0.469 -2.4176  0.9309 -0.2496
 4007SOL    HW223658   3.421   3.776   0.412  0.2941  0.3096 -0.7605
 4008SOL     OW23659   0.315   1.020  17.625  0.7717  0.1379 -0.3035
 4008SOL    HW123660   0.354   0.961  17.561  2.0962  0.6692  0.0068
 4008SOL    HW223661   0.343   0.974  17.705  0.2276  0.1478 -0.1060
 4009SOL     OW23662   3.841   2.961   7.023  0.0616 -0.3036  0.0092
 4009SOL    HW123663   3.754   2.944   6.987  0.0152  0.8948 -0.4472
 4009SOL    HW223664   3.813   3.015   7.097 -0.9790 -0.6343 -0.1417
 4010SOL     OW23665   1.724   1.056  10.871  0.2441  0.2895 -0.3459
 4010SOL    HW123666   1.747   1.135  10.821 -1.6299  0.1406 -1.4625
 4010SOL    HW223667   1.693   1.093  10.953 -1.2958  0.5044 -1.0228
 4011SOL     OW23668   0.596   2.691   6.394  0.5425 -0.3256  0.1029
 4011SOL    HW123669   0.642   2.705   6.312  1.0699 -0.0260  0.4490
 4011SOL    HW223670   0.654   2.735   6.456 -0.3696  1.0070  0.0182
 4012SOL     OW23671   3.542   0.209   7.015 -0.1170 -0.4938  0.1236
 4012SOL    HW123672   3.602   0.183   6.945  0.0643 -0.0548  0.1171
 4012SOL    HW223673   3.562   0.302   7.023  2.2866 -1.1054  1.5399
 4013SOL     OW23674   2.540   4.636  14.883 -0.0280 -0.3181 -0.1225
 4013SOL    HW123675   2.504   4.602  14.802 -0.1547 -3.0490  1.0715
 4013SOL    HW223676   2.634   4.621  14.871 -0.1036  2.1074 -3.5540
 4014SOL     OW23677   0.768   2.245   4.682 -0.7442  0.4109 -0.0609
 4014SOL    HW123678   0.766   2.158   4.722 -0.5388  0.7517  0.6877
 4014SOL    HW223679   0.836   2.290   4.732 -0.5667 -0.0807  0.1371
 4015SOL     OW23680   2.961   3.141   2.025  0.3610 -0.3047 -0.2986
 4015SOL    HW123681   2.914   3.139   1.942  1.5361 -0.0745 -0.9787
 4015SOL    HW223682   3.048   3.107   2.005  0.4604 -0.3426  0.2057
 4016SOL     OW23683   4.704   0.338  11.868  0.0205 -0.2789 -0.1119
 4016SOL    HW123684   4.639   0.274  11.839 -2.0953  1.0983  1.6248
 4016SOL    HW223685   4.689   0.411  11.808  1.0905 -0.2677 -0.3671
 4017SOL     OW23686   1.002   2.908   2.509  0.2695 -0.6649 -0.1088
 4017SOL    HW123687   1.083   2.882   2.552  0.2869  0.3615  0.4853
 4017SOL    HW223688   1.027   3.000   2.502 -0.4048 -0.3105  2.0588
 4018SOL     OW23689   4.157   2.523   6.140 -0.0337  0.3371 -0.2752
 4018SOL    HW123690   4.195   2.459   6.200  0.6016  0.0553 -0.9842
 4018SOL    HW223691   4.240   2.552   6.103  0.7469  0.6561  1.7641
 4019SOL     OW23692   1.408   2.562   5.116  0.1450 -0.0652  0.0946
 4019SOL    HW123693   1.366   2.631   5.066  0.2628  0.4170  0.6592
 4019SOL    HW223694   1.498   2.593   5.126 -0.5338  1.3189  1.8536
 4020SOL     OW23695   2.989   3.024  15.905  0.5893  0.5850 -0.1468
 4020SOL    HW123696   3.011   3.114  15.880 -0.0220  0.9795  0.7076
 4020SOL    HW223697   2.948   3.043  15.989  0.5308 -0.7522  0.1193
 4021SOL     OW23698   3.952   2.299   4.074  0.2294 -0.0520  0.0494
 4021SOL    HW123699   3.966   2.392   4.090 -0.0958  0.1304 -0.7389
 4021SOL    HW223700   3.861   2.304   4.045  0.3937 -0.4266 -0.5413
 4022SOL     OW23701   2.152   3.443   4.955 -0.0241  0.1748  0.0769
 4022SOL    HW123702   2.187   3.532   4.962 -0.3846  0.3787 -0.7008
 4022SOL    HW223703   2.112   3.422   5.040 -0.7045  1.4415  0.0669
 4023SOL     OW23704   3.245   1.198   2.055 -0.5287 -0.0882  0.0398
 4023SOL    HW123705   3.254   1.264   1.986 -1.3249 -0.9648 -0.9008
 4023SOL    HW223706   3.274   1.127   1.998 -0.8126  0.0361 -0.2585
 4024SOL     OW23707   2.543   1.170   3.549  0.1316  0.1857 -0.7076
 4024SOL    HW123708   2.594   1.245   3.582 -0.4638 -0.5061  1.8139
 4024SOL    HW223709   2.570   1.172   3.458  1.6119 -1.6976 -0.3018
 4025SOL     OW23710   2.453   2.068   6.298 -0.1124  0.2294  0.1224
 4025SOL    HW123711   2.454   1.973   6.296 -0.6334  0.2199  0.1971
 4025SOL    HW223712   2.543   2.094   6.279  0.6738 -1.4943  1.5917
 4026SOL     OW23713   3.119   1.577  14.299 -0.2441 -0.2764  0.4181
 4026SOL    HW123714   3.067   1.626  14.236  1.4776 -1.0445 -1.5881
 4026SOL    HW223715   3.197   1.632  14.310 -0.8927  1.0983 -1.9546
 4027SOL     OW23716   2.046   1.489  10.695  0.0663 -0.2051 -0.4326
 4027SOL    HW123717   2.039   1.545  10.618  2.8382 -0.4134 -0.8686
 4027SOL    HW223718   2.106   1.544  10.746  0.7757 -0.0931 -1.3884
 4028SOL     OW23719   1.171   4.212   9.240 -0.0282 -0.4740 -0.1203
 4028SOL    HW123720   1.078   4.227   9.258  0.3483  1.1238  0.5239
 4028SOL    HW223721   1.193   4.288   9.187 -1.6400 -0.5096 -0.8379
 4029SOL     OW23722   2.197   1.994   4.406  0.4614 -0.0828  0.6461
 4029SOL    HW123723   2.104   2.017   4.403  0.5996  0.4273  0.2288
 4029SOL    HW223724   2.192   1.923   4.470 -0.1103 -0.6304 -0.0184
 4030SOL     OW23725   1.715   0.867   6.440 -0.5786  0.0070 -0.3366
 4030SOL    HW123726   1.760   0.923   6.503  0.9704 -1.0887 -0.4844
 4030SOL    HW223727   1.735   0.911   6.357  1.8755  1.2787  0.9342
 4031SOL     OW23728   0.494   1.655   3.152  0.1243  0.2090  0.0517
 4031SOL    HW123729   0.463   1.636   3.064  0.7133  0.3423 -0.1839
 4031SOL    HW223730   0.484   1.573   3.200 -0.9970  0.0308 -0.5003
 4032SOL     OW23731   3.350   4.271   5.731 -0.2575  0.0433  0.0696
 4032SOL    HW123732   3.333   4.211   5.803 -0.5093 -0.6100 -0.5401
 4032SOL    HW223733   3.400   4.214   5.672 -0.7751  0.0758 -0.3969
 4033SOL     OW23734   2.829   3.011   5.679  0.4354  0.0094 -0.1163
 4033SOL    HW123735   2.868   3.095   5.653  1.3197 -0.0940  0.8510
 4033SOL    HW223736   2.783   2.969   5.607  0.9330  1.0577 -1.0473
 4034SOL     OW23737   1.758   1.807   8.095 -0.6805  0.5314  0.2500
 4034SOL    HW123738   1.703   1.746   8.047 -2.4522 -0.1092  3.1034
 4034SOL    HW223739   1.833   1.827   8.039 -1.7195  3.8353  0.0432
 4035SOL     OW23740   3.331   1.844   7.141 -0.0656  0.0098  0.1657
 4035SOL    HW123741   3.387   1.766   7.135  1.1031  0.9247 -0.7149
 4035SOL    HW223742   3.330   1.843   7.236 -0.4551 -4.7716  0.1421
 4036SOL     OW23743   3.237   3.268   3.045  0.0198  0.1029  0.0624
 4036SOL    HW123744   3.145   3.259   3.069 -0.0839  1.4241  0.1516
 4036SOL    HW223745   3.271   3.188   3.084  0.3111  0.8077  1.2643
 4037SOL     OW23746   3.353   4.509   8.305 -0.1670  0.2805 -0.6756
 4037SOL    HW123747   3.407   4.584   8.331  0.4081 -0.2806 -0.2262
 4037SOL    HW223748   3.268   4.533   8.341  0.5097  1.6097  0.0206
 4038SOL     OW23749   4.030   4.185  11.903  0.0191  0.1700  0.5541
 4038SOL    HW123750   4.068   4.252  11.960  0.5959 -0.6656  1.1522
 4038SOL    HW223751   4.105   4.126  11.903 -1.0028 -1.1315  1.2309
 4039SOL     OW23752   0.454   0.970   9.530 -0.0906  0.2381  0.5827
 4039SOL    HW123753   0.534   0.983   9.581 -0.6309 -0.9868  1.7348
 4039SOL    HW223754   0.470   0.887   9.486 -0.3314 -1.1200  3.0788
 4040SOL     OW23755   2.338   3.502   6.068  0.3449  0.2166 -0.4239
 4040SOL    HW123756   2.347   3.537   5.980 -1.6006  1.2868 -0.1873
 4040SOL    HW223757   2.331   3.408   6.048  0.5849  0.0024  0.5051
 4041SOL     OW23758   1.103   1.647   1.943  0.2207  0.5667  0.2975
 4041SOL    HW123759   1.075   1.678   2.029  1.7307  0.7566  0.7233
 4041SOL    HW223760   1.019   1.658   1.899  1.0302 -2.1184 -1.9075
 4042SOL     OW23761   2.019   1.805   8.625 -0.0288 -0.2145 -0.6678
 4042SOL    HW123762   2.057   1.876   8.573  0.2758  0.9877  1.1889
 4042SOL    HW223763   1.951   1.847   8.678 -0.2796  3.0186 -3.5725
 4043SOL     OW23764   3.899   3.829   0.971  0.0576 -0.0195 -0.3798
 4043SOL    HW123765   3.922   3.749   1.018  0.5252  1.0204  1.1483
 4043SOL    HW223766   3.871   3.872   1.052 -1.2538 -0.6411 -0.4999
 4044SOL     OW23767   1.993   0.289   5.054  0.1109 -0.3354  0.0029
 4044SOL    HW123768   2.074   0.275   5.103  0.1806  0.9128  0.2453
 4044SOL    HW223769   1.953   0.366   5.094  0.9500 -0.1088  0.3949
 4045SOL     OW23770   2.243   3.388   9.085 -0.1993  0.1814  0.0285
 4045SOL    HW123771   2.317   3.327   9.075  0.5451  0.7467  2.0609
 4045SOL    HW223772   2.265   3.427   9.170  3.0500 -1.9706  0.1733
 4046SOL     OW23773   1.060   1.763   5.973  0.4193 -0.6071 -0.8400
 4046SOL    HW123774   1.097   1.711   6.043 -3.0102 -1.9296  0.0268
 4046SOL    HW223775   1.103   1.846   5.991  0.8126 -0.8383 -0.7121
 4047SOL     OW23776   2.168   4.434   2.887  0.2126 -0.3072  0.2523
 4047SOL    HW123777   2.125   4.348   2.890  0.3290 -0.4386 -1.7341
 4047SOL    HW223778   2.104   4.486   2.936 -0.0259  2.0624 -2.6143
 4048SOL     OW23779   3.542   2.388   9.288  0.0726  0.6716 -0.1424
 4048SOL    HW123780   3.539   2.483   9.297  0.0650  0.6251  0.3508
 4048SOL    HW223781   3.476   2.363   9.352 -0.9782 -0.6502 -1.7509
 4049SOL     OW23782   3.106   3.973   8.191 -0.3346 -0.7446 -0.6115
 4049SOL    HW123783   3.069   4.055   8.158  1.9900 -0.0772 -1.5665
 4049SOL    HW223784   3.162   3.946   8.119  2.2133  2.7699  0.0429
 4050SOL     OW23785   2.215   1.605   8.540  0.2064  0.1425  0.3059
 4050SOL    HW123786   2.293   1.610   8.485  0.6140  1.3217  0.9821
 4050SOL    HW223787   2.148   1.647   8.486  0.0074 -1.1430 -0.4372
 4051SOL     OW23788   2.893   1.087  17.004  0.6727  0.1627 -0.6240
 4051SOL    HW123789   2.832   1.065  16.934 -0.6031 -0.8543  0.7970
 4051SOL    HW223790   2.931   1.168  16.970 -0.1890  1.4833  1.5756
 4052SOL     OW23791   0.172   2.427   9.297 -0.4808 -0.0008 -0.6619
 4052SOL    HW123792   0.139   2.451   9.211 -1.1127 -1.1066 -0.7269
 4052SOL    HW223793   0.260   2.466   9.298 -1.0046  1.2030 -3.1520
 4053SOL     OW23794   3.158   1.775   2.125  0.5245 -0.0098  0.3312
 4053SOL    HW123795   3.243   1.817   2.114  0.5210 -0.5268 -1.6889
 4053SOL    HW223796   3.106   1.815   2.055  0.7229  1.4260  0.9993
 4054SOL     OW23797   0.555   0.533  17.646  0.3581  0.4295 -0.6436
 4054SOL    HW123798   0.473   0.490  17.667  0.9551 -1.9902 -3.2982
 4054SOL    HW223799   0.544   0.533  17.551 -1.5759  1.2371 -0.4179
 4055SOL     OW23800   0.415   2.163  13.193  0.5613  0.1556 -0.0233
 4055SOL    HW123801   0.498   2.115  13.186  0.9682  1.0222 -1.2433
 4055SOL    HW223802   0.383   2.181  13.105 -0.5068  0.1017  0.3624
 4056SOL     OW23803   3.585   4.416   1.621 -0.3629 -0.1693 -0.0178
 4056SOL    HW123804   3.596   4.469   1.542  0.5775 -0.8605 -0.3500
 4056SOL    HW223805   3.663   4.438   1.672 -0.6024  0.9702 -0.1460
 4057SOL     OW23806   0.309   3.043  11.357  0.3366 -0.5985 -0.0857
 4057SOL    HW123807   0.216   3.034  11.337  0.2565  0.3344 -0.1335
 4057SOL    HW223808   0.358   3.023  11.277  1.8876 -2.5570  1.3408
 4058SOL     OW23809   0.298   3.894  14.528  0.8071 -0.2223  0.4940
 4058SOL    HW123810   0.331   3.963  14.470  0.5782 -1.0124 -0.5798
 4058SOL    HW223811   0.378   3.863  14.571 -0.5776 -2.3637  1.4621
 4059SOL     OW23812   0.319   1.912  11.076  0.0712 -0.0175 -0.1222
 4059SOL    HW123813   0.320   1.820  11.051 -0.4833 -0.5091  1.6706
 4059SOL    HW223814   0.352   1.953  10.996  0.7191  0.6030  0.4607
 4060SOL     OW23815   0.364   0.805   5.426 -0.0619  0.2716  0.0822
 4060SOL    HW123816   0.395   0.893   5.403 -0.8911 -0.0743 -2.3597
 4060SOL    HW223817   0.293   0.795   5.363 -0.5607 -0.4809  0.7606
 4061SOL     OW23818   4.246   1.145  12.849 -0.4774  0.4770 -0.0039
 4061SOL    HW123819   4.325   1.168  12.801 -0.1656 -0.6230 -0.0100
 4061SOL    HW223820   4.210   1.096  12.775  0.2460 -0.6614  0.4038
 4062SOL     OW23821   4.323   1.903   4.000 -0.8737 -0.6438  0.3045
 4062SOL    HW123822   4.305   1.964   3.928 -1.4477 -1.7691 -0.5033
 4062SOL    HW223823   4.292   1.819   3.966  0.5090 -1.4092  0.9768
 4063SOL     OW23824   4.119   3.857   3.203  0.6696  0.0284 -0.3020
 4063SOL    HW123825   4.209   3.829   3.187 -0.1394 -4.2242  2.5224
 4063SOL    HW223826   4.079   3.770   3.199  0.9916 -0.1325  0.0583
 4064SOL     OW23827   1.560   1.990   7.213 -0.1278 -0.0666  0.0270
 4064SOL    HW123828   1.519   2.075   7.222 -0.4819 -0.0672 -1.6827
 4064SOL    HW223829   1.565   1.959   7.304  1.3221 -1.9703 -0.6887
 4065SOL     OW23830   4.276   1.715   4.527 -0.5449  0.6260  0.0423
 4065SOL    HW123831   4.244   1.693   4.615 -0.1057  1.4293  0.3990
 4065SOL    HW223832   4.294   1.808   4.541  1.0862  0.2331  0.5600
 4066SOL     OW23833   0.535   2.148   5.827 -0.3678 -0.3085 -0.3032
 4066SOL    HW123834   0.518   2.090   5.752  2.3061  0.6594 -1.6738
 4066SOL    HW223835   0.506   2.090   5.897  1.6593  0.3691  1.1025
 4067SOL     OW23836   2.327   3.063   7.316 -0.6931 -0.2539  0.2203
 4067SOL    HW123837   2.263   3.013   7.265 -0.9019  0.7861 -0.5437
 4067SOL    HW223838   2.414   3.076   7.277  0.0343 -1.1672  1.5358
 4068SOL     OW23839   0.363   2.985  10.299  0.0121 -0.1748  0.2254
 4068SOL    HW123840   0.318   3.017  10.377  1.3665  0.7028  0.6564
 4068SOL    HW223841   0.436   2.939  10.342  1.7353  2.4543  0.0935
 4069SOL     OW23842   0.057   0.289   7.877  0.7276  0.0274 -0.2674
 4069SOL    HW123843   0.122   0.243   7.930  0.7052 -2.0134 -2.0686
 4069SOL    HW223844   0.018   0.229   7.815 -1.5961 -0.7287  1.9219
 4070SOL     OW23845   3.577   4.300   6.682 -0.2612  0.3940  0.1222
 4070SOL    HW123846   3.564   4.252   6.600 -1.0377  1.4118 -0.3438
 4070SOL    HW223847   3.523   4.378   6.694  0.3293  0.8298 -0.0378
 4071SOL     OW23848   2.575   3.664   9.131  0.3539 -0.0928 -0.0106
 4071SOL    HW123849   2.571   3.759   9.120 -1.1990 -0.0172  1.2312
 4071SOL    HW223850   2.643   3.650   9.065  1.2773 -0.4171  1.0234
 4072SOL     OW23851   2.819   1.616   9.103 -0.7235 -0.3032 -0.5045
 4072SOL    HW123852   2.887   1.678   9.076  0.9741 -2.5206 -1.2771
 4072SOL    HW223853   2.761   1.682   9.142 -1.1445 -0.6280 -0.5733
 4073SOL     OW23854   0.022   0.703  11.377 -0.0109  0.0952  0.1404
 4073SOL    HW123855   4.731   0.615  11.356  2.6701 -0.3111 -2.1820
 4073SOL    HW223856   4.701   0.733  11.444 -0.0306  0.0005  0.1654
 4074SOL     OW23857   1.298   0.608   8.773  0.2227  0.3689  0.5359
 4074SOL    HW123858   1.378   0.637   8.729 -0.8718  1.5453 -0.6666
 4074SOL    HW223859   1.291   0.518   8.741 -1.1693  0.9434 -0.7599
 4075SOL     OW23860   4.057   4.026   1.333 -0.1281 -0.6257 -0.4100
 4075SOL    HW123861   4.003   3.955   1.297 -0.9246 -1.3814  2.3207
 4075SOL    HW223862   4.136   3.974   1.352  1.1540  2.6102  3.1004
 4076SOL     OW23863   0.964   4.601  16.271  0.0938  0.0551 -0.7771
 4076SOL    HW123864   1.039   4.542  16.279  1.0574  1.4209  0.4151
 4076SOL    HW223865   0.929   4.559  16.193  0.6446 -0.3610 -0.7992
 4077SOL     OW23866   0.390   4.446   8.122  0.2821 -0.0800 -0.1839
 4077SOL    HW123867   0.345   4.386   8.063  0.0705 -0.7192  0.6373
 4077SOL    HW223868   0.313   4.474   8.172  2.0296  0.5182  2.1769
 4078SOL     OW23869   0.404   3.761   7.902  0.1800  0.1158  0.1686
 4078SOL    HW123870   0.414   3.731   7.993 -1.6483 -2.5375 -0.4842
 4078SOL    HW223871   0.462   3.836   7.913  1.5552 -1.0841  1.2480
 4079SOL     OW23872   4.300   3.059   3.530  1.0429  0.3438  0.2345
 4079SOL    HW123873   4.359   3.010   3.473 -0.6835 -0.2971 -0.9811
 4079SOL    HW223874   4.284   2.998   3.602 -1.4903  1.8890  0.9799
 4080SOL     OW23875   1.796   0.187   6.882  0.0195  0.3021 -0.6054
 4080SOL    HW123876   1.799   0.147   6.969  1.0602 -0.0940 -0.8186
 4080SOL    HW223877   1.735   0.257   6.904  0.2138  1.4907 -3.8132
 4081SOL     OW23878   2.354   1.688   2.762 -0.2255 -0.0014 -0.3065
 4081SOL    HW123879   2.390   1.707   2.675  0.3976 -1.6373 -0.3975
 4081SOL    HW223880   2.311   1.607   2.736  1.2540 -0.7377 -0.4615
 4082SOL     OW23881   2.908   3.374  16.588 -0.4307 -0.1487  0.1673
 4082SOL    HW123882   2.977   3.318  16.551  1.9809  2.9540 -0.0363
 4082SOL    HW223883   2.934   3.394  16.678  0.7373  0.2323 -0.2575
 4083SOL     OW23884   2.412   3.463   8.710  0.1819  0.2815  0.2693
 4083SOL    HW123885   2.327   3.420   8.698 -0.0756  0.6794  0.6398
 4083SOL    HW223886   2.460   3.390   8.751  2.0798  1.2030 -0.3386
 4084SOL     OW23887   3.882   2.649   8.359 -0.0252 -0.2395  0.4072
 4084SOL    HW123888   3.903   2.618   8.447  0.5327  2.9982  1.4401
 4084SOL    HW223889   3.885   2.743   8.377 -1.2616  0.1896 -1.6606
 4085SOL     OW23890   2.552   0.992   1.151 -0.3858 -0.1498 -0.0688
 4085SOL    HW123891   2.508   0.974   1.068 -3.0995 -0.5804  1.4731
 4085SOL    HW223892   2.484   0.969   1.215 -1.9432  1.5547 -1.1092
 4086SOL     OW23893   2.911   4.267   0.385 -0.2384  0.4119  0.3406
 4086SOL    HW123894   2.982   4.306   0.435  0.5201  1.0058 -1.2088
 4086SOL    HW223895   2.963   4.228   0.315  2.0528  1.7955  1.2631
 4087SOL     OW23896   2.115   1.768   8.290 -0.3366  0.2521 -0.6682
 4087SOL    HW123897   2.163   1.743   8.211  0.8022  1.2075 -0.2742
 4087SOL    HW223898   2.130   1.862   8.294 -2.2595  0.4853  0.9320
 4088SOL     OW23899   2.881   0.664   4.136 -0.2348 -0.2769  0.3360
 4088SOL    HW123900   2.874   0.624   4.049 -2.7332  2.4059 -0.7146
 4088SOL    HW223901   2.966   0.633   4.165 -0.2595  0.2930  0.9979
 4089SOL     OW23902   3.714   2.968   4.612 -0.1150 -0.2801 -0.3765
 4089SOL    HW123903   3.765   2.947   4.534  0.8250 -0.2813  0.2337
 4089SOL    HW223904   3.653   2.894   4.616  0.9578 -1.0721  1.4994
 4090SOL     OW23905   0.871   3.810  10.038  0.0133 -1.0156 -0.4561
 4090SOL    HW123906   0.889   3.863   9.960 -0.6737 -1.4520 -0.9111
 4090SOL    HW223907   0.902   3.869  10.107 -3.1838  0.5879 -0.3734
 4091SOL     OW23908   3.200   3.293  14.576 -0.0282  0.0032  0.2955
 4091SOL    HW123909   3.229   3.327  14.661 -1.5866  1.5956  0.1949
 4091SOL    HW223910   3.195   3.371  14.520  0.4185 -0.0107  0.2362
 4092SOL     OW23911   2.008   1.987   6.890 -0.1392 -0.2416 -0.0251
 4092SOL    HW123912   1.994   1.907   6.839 -0.5147  0.9240 -1.7386
 4092SOL    HW223913   1.939   1.969   6.954  0.7501  0.7278  1.2200
 4093SOL     OW23914   3.419   4.430   6.025 -0.8800  0.0792 -0.3824
 4093SOL    HW123915   3.335   4.458   6.063  0.0391  0.9607  1.0321
 4093SOL    HW223916   3.470   4.408   6.104 -1.2908  0.8571  0.0998
 4094SOL     OW23917   2.707   3.201   3.566 -0.0701 -0.0165 -0.0861
 4094SOL    HW123918   2.755   3.264   3.511  1.5101 -1.9574 -0.9315
 4094SOL    HW223919   2.640   3.267   3.584  0.0586  0.2066 -0.4098
 4095SOL     OW23920   4.428   1.085   6.216 -0.0255  0.5691 -0.5530
 4095SOL    HW123921   4.490   1.023   6.177 -0.1712  0.5650 -0.7789
 4095SOL    HW223922   4.377   1.113   6.141  1.9134  0.1153 -2.0383
 4096SOL     OW23923   3.766   0.789   4.252  0.2636 -0.0374  0.3968
 4096SOL    HW123924   3.842   0.840   4.281 -0.1407  0.5116  0.4695
 4096SOL    HW223925   3.762   0.735   4.330  0.0234  2.0061  1.7849
 4097SOL     OW23926   4.121   4.315   5.704  0.5885 -0.0495  0.1227
 4097SOL    HW123927   4.110   4.255   5.630 -0.5265 -1.3255  1.3518
 4097SOL    HW223928   4.202   4.291   5.748 -0.0817 -0.5667  1.0622
 4098SOL     OW23929   1.668   0.666  12.188 -0.5778 -0.0645  0.8932
 4098SOL    HW123930   1.670   0.576  12.156 -0.3732  0.0989  0.4449
 4098SOL    HW223931   1.678   0.661  12.283  2.3704 -0.7965  0.5481
 4099SOL     OW23932   3.961   2.359   6.305  0.1274 -0.4232  0.4692
 4099SOL    HW123933   3.956   2.372   6.211 -0.7067  3.6267  1.0569
 4099SOL    HW223934   3.869   2.354   6.333  0.5101  2.1921  2.1463
 4100SOL     OW23935   2.495   4.071   2.369 -0.2403 -0.3163 -0.2578
 4100SOL    HW123936   2.435   4.119   2.312  0.2210  0.4999 -0.0516
 4100SOL    HW223937   2.496   3.986   2.324 -1.2998 -1.5188  2.0134
 4101SOL     OW23938   0.205   3.929   0.696  0.1857 -0.4357 -0.2568
 4101SOL    HW123939   0.115   3.956   0.713  0.5246 -0.1036  0.9905
 4101SOL    HW223940   0.235   4.019   0.693  1.0772 -0.7180  0.1219
 4102SOL     OW23941   3.358   2.253   4.219  0.0915 -0.5286  0.5338
 4102SOL    HW123942   3.418   2.180   4.234  0.8778  0.5463  2.6846
 4102SOL    HW223943   3.308   2.244   4.300 -0.2060 -0.9203  0.3072
 4103SOL     OW23944   0.229   1.928   8.566  0.6069  0.2119 -0.1209
 4103SOL    HW123945   0.246   1.944   8.473  2.0575 -0.2364  0.0617
 4103SOL    HW223946   0.222   1.832   8.561  0.1912  0.2252  0.2572
 4104SOL     OW23947   4.615   0.789   7.042 -0.8160 -0.2121  0.0087
 4104SOL    HW123948   4.531   0.788   6.996  0.0193  3.5757 -1.6123
 4104SOL    HW223949   4.675   0.846   6.993  1.3130  0.1444  3.0171
 4105SOL     OW23950   3.078   2.439   2.871 -0.2239 -0.0455 -0.1764
 4105SOL    HW123951   3.077   2.434   2.776 -0.5284  1.2014 -0.2410
 4105SOL    HW223952   3.168   2.426   2.900 -0.7987  0.6851  2.0005
 4106SOL     OW23953   2.751   0.214   8.275  0.1794  0.6257 -0.0286
 4106SOL    HW123954   2.809   0.288   8.259 -0.4210  1.5559  2.1503
 4106SOL    HW223955   2.674   0.269   8.265  0.2633  0.5060 -1.3118
 4107SOL     OW23956   2.649   3.665  13.187 -0.2050  0.0659 -0.3556
 4107SOL    HW123957   2.626   3.672  13.279 -2.5889  1.9191 -1.0917
 4107SOL    HW223958   2.573   3.716  13.160  0.3867  1.5372  0.8100
 4108SOL     OW23959   2.209   4.733   7.686 -0.0987 -0.1536 -0.2978
 4108SOL    HW123960   2.184   4.740   7.594 -1.5904  0.5168  0.1601
 4108SOL    HW223961   2.138   0.046   7.723  1.0233  1.7923 -0.9339
 4109SOL     OW23962   3.258   2.778   5.063 -0.5326 -0.4242  0.4648
 4109SOL    HW123963   3.259   2.688   5.031  1.9516  0.2537 -1.3277
 4109SOL    HW223964   3.304   2.765   5.146 -0.3762 -0.2362  0.4061
 4110SOL     OW23965   3.504   1.267   7.518  0.7498  0.1528  0.0814
 4110SOL    HW123966   3.466   1.342   7.563  1.2565  1.9525 -2.4825
 4110SOL    HW223967   3.539   1.316   7.443  3.3243  1.1569  1.9534
 4111SOL     OW23968   3.925   3.676  11.641 -0.1574  0.1689  0.3486
 4111SOL    HW123969   3.954   3.593  11.678 -0.9381 -0.1901  0.1625
 4111SOL    HW223970   3.986   3.745  11.668 -1.5995  0.7758  2.0894
 4112SOL     OW23971   1.324   1.058   0.612  0.0943  0.2641  0.6310
 4112SOL    HW123972   1.293   1.123   0.675  0.1023  1.0378 -0.1755
 4112SOL    HW223973   1.355   1.112   0.540  2.8995 -1.4689  0.5384
 4113SOL     OW23974   2.105   1.474  14.505 -0.2719  0.1894 -0.0124
 4113SOL    HW123975   2.058   1.513  14.578  0.9840  1.2790  0.2071
 4113SOL    HW223976   2.184   1.528  14.497  0.3126 -0.2600  2.5524
 4114SOL     OW23977   0.013   2.984   0.609  0.5607 -0.3997 -0.1835
 4114SOL    HW123978   0.097   2.995   0.654  1.8854 -2.3503 -2.1725
 4114SOL    HW223979   0.007   3.058   0.549 -3.2299 -1.4353 -1.0780
 4115SOL     OW23980   3.181   3.734   5.545 -0.0369  0.8389 -0.7017
 4115SOL    HW123981   3.140   3.788   5.613 -0.9590  0.2720 -0.8053
 4115SOL    HW223982   3.273   3.752   5.565 -0.4134  1.8125  0.1316
 4116SOL     OW23983   0.019   0.937  16.080 -0.4974 -0.2632 -0.0456
 4116SOL    HW123984   0.044   0.881  16.006  0.7762 -0.8416  0.8330
 4116SOL    HW223985   0.015   0.868  16.146 -1.8580  0.4326  0.5884
 4117SOL     OW23986   4.672   0.917   2.948 -0.4559  0.3285  0.3454
 4117SOL    HW123987   4.684   0.906   2.853  2.4228 -0.8028  0.8687
 4117SOL    HW223988   0.017   0.948   2.978  0.8863 -3.0048 -0.0221
 4118SOL     OW23989   2.396   2.681   3.595  0.0397 -0.2146  0.1830
 4118SOL    HW123990   2.471   2.732   3.627 -0.4105  0.6672 -0.1766
 4118SOL    HW223991   2.345   2.673   3.675 -0.4918  0.8964 -0.0461
 4119SOL     OW23992   2.838   3.930   2.594 -0.4072 -0.3180  0.2952
 4119SOL    HW123993   2.860   3.837   2.589 -1.1460 -0.4940  0.2436
 4119SOL    HW223994   2.917   3.975   2.564 -0.3626 -0.0299  0.8438
 4120SOL     OW23995   3.464   3.090   6.282 -0.3506 -0.7535  0.6727
 4120SOL    HW123996   3.376   3.090   6.320 -0.1611  1.5977  1.0716
 4120SOL    HW223997   3.448   3.130   6.196  0.3290 -0.1478  0.8260
 4121SOL     OW23998   3.971   0.775   2.920 -0.0962  1.0109  0.7597
 4121SOL    HW123999   3.922   0.693   2.909  1.4484  0.1370  0.3750
 4121SOL    HW224000   3.916   0.818   2.986  0.2653  1.0029  1.0623
 4122SOL     OW24001   0.607   3.514  17.472  0.3096  0.1444 -0.2766
 4122SOL    HW124002   0.532   3.550  17.425 -0.3364 -0.2292  0.4652
 4122SOL    HW224003   0.592   3.542  17.562  0.4763  0.4849 -0.3575
 4123SOL     OW24004   1.986   2.323   6.001  0.1284  0.3702 -0.0138
 4123SOL    HW124005   2.073   2.295   6.031  0.6319  0.7448 -1.1603
 4123SOL    HW224006   1.977   2.394   6.065 -0.0410  0.9210 -0.6564
 4124SOL     OW24007   1.620   0.895   3.206 -0.2457  0.2033  0.3858
 4124SOL    HW124008   1.543   0.932   3.163  0.7273 -0.5597 -1.9987
 4124SOL    HW224009   1.678   0.968   3.228 -0.4158  0.7690 -1.0581
 4125SOL     OW24010   4.444   0.545   2.572 -0.3138  0.2737  0.1232
 4125SOL    HW124011   4.490   0.462   2.560 -0.6525  0.3165 -1.5396
 4125SOL    HW224012   4.361   0.516   2.535  0.0115 -1.5624  0.8019
 4126SOL     OW24013   1.786   1.239   0.210  0.1544  0.6281  0.0618
 4126SOL    HW124014   1.881   1.246   0.206  0.2554 -1.8337 -1.5809
 4126SOL    HW224015   1.766   1.311   0.150  2.0365  0.7750 -0.3713
 4127SOL     OW24016   0.251   4.420   6.240 -0.2865  0.0634 -0.8203
 4127SOL    HW124017   0.213   4.334   6.221  1.1402 -0.4978 -1.1762
 4127SOL    HW224018   0.176   4.478   6.251 -0.8498 -1.1901  1.8646
 4128SOL     OW24019   0.433   1.207   7.510 -0.0075  0.1309 -0.0214
 4128SOL    HW124020   0.426   1.119   7.475  1.0174  0.9558 -2.2910
 4128SOL    HW224021   0.493   1.189   7.583 -0.0683  0.8397  0.2066
 4129SOL     OW24022   2.830   2.950   2.659 -0.7306 -0.2605  0.0096
 4129SOL    HW124023   2.902   2.890   2.675 -1.4123 -0.7085  1.3368
 4129SOL    HW224024   2.830   3.008   2.735 -0.1214  0.0990 -0.2680
 4130SOL     OW24025   0.640   2.686  10.706 -0.1345  0.0071 -0.8846
 4130SOL    HW124026   0.643   2.684  10.801  1.5629  1.0914 -0.9243
 4130SOL    HW224027   0.733   2.685  10.687 -0.0995  1.8202 -0.7642
 4131SOL     OW24028   1.477   3.937   7.523  0.1255 -0.2606  0.5155
 4131SOL    HW124029   1.504   3.849   7.499 -2.0199 -1.4469  2.4463
 4131SOL    HW224030   1.383   3.928   7.539  0.1240  0.1724  0.7691
 4132SOL     OW24031   1.944   2.365  14.929  0.2003 -0.0172 -0.5917
 4132SOL    HW124032   1.952   2.451  14.971  2.1463  0.1206 -1.2500
 4132SOL    HW224033   1.886   2.324  14.993  1.5639 -2.3771 -0.8929
 4133SOL     OW24034   1.851   4.331   3.607 -0.3269  0.2159 -0.4163
 4133SOL    HW124035   1.858   4.374   3.522 -1.8045  0.2340 -0.5360
 4133SOL    HW224036   1.763   4.355   3.636 -0.4343 -0.3615 -0.2602
 4134SOL     OW24037   4.396   2.617   6.061 -0.5626 -0.2263  0.3527
 4134SOL    HW124038   4.446   2.633   6.141 -0.2517  0.0861  0.0939
 4134SOL    HW224039   4.444   2.553   6.009 -0.7186 -0.1481  0.1102
 4135SOL     OW24040   2.525   4.311   1.094  0.4042 -0.3337  0.2248
 4135SOL    HW124041   2.454   4.375   1.091  1.7696  1.0831 -2.7824
 4135SOL    HW224042   2.496   4.235   1.143 -0.4301  0.0221  0.2771
 4136SOL     OW24043   0.010   3.730   0.741 -0.3983 -0.4141  0.0544
 4136SOL    HW124044   4.703   3.807   0.710 -1.8819 -0.7721  1.4458
 4136SOL    HW224045   0.083   3.717   0.680  1.1507 -0.5784  1.9670
 4137SOL     OW24046   3.345   0.921  17.350 -0.1553  0.1629 -0.2625
 4137SOL    HW124047   3.252   0.935  17.331 -0.3361  0.3538  0.7755
 4137SOL    HW224048   3.383   0.996  17.303 -2.8496  0.7915 -1.4479
 4138SOL     OW24049   1.799   3.001   4.243  0.4945  0.3473  0.0468
 4138SOL    HW124050   1.837   3.075   4.291 -0.5276  0.2934  0.9433
 4138SOL    HW224051   1.726   3.044   4.198  0.2974 -1.8464 -1.7333
 4139SOL     OW24052   3.886   0.953   2.374  0.1822  0.0325  0.0472
 4139SOL    HW124053   3.945   0.999   2.434  0.7428 -0.7591  0.1033
 4139SOL    HW224054   3.921   0.975   2.288  2.4038  1.1925  1.2565
 4140SOL     OW24055   4.230   3.898  14.049 -0.0896  0.3346 -0.0796
 4140SOL    HW124056   4.170   3.931  14.116 -0.4368 -0.0205 -0.2151
 4140SOL    HW224057   4.175   3.931  13.978 -0.3026 -1.1898 -0.6199
 4141SOL     OW24058   4.356   3.049   1.737  0.2708  0.4764  0.3541
 4141SOL    HW124059   4.283   3.031   1.677 -1.0789 -2.0315  2.7424
 4141SOL    HW224060   4.430   3.016   1.687 -0.1895  0.3500 -0.2441
 4142SOL     OW24061   0.038   3.158  16.383 -0.5827  0.2266 -0.0262
 4142SOL    HW124062   4.722   3.140  16.308 -0.9114  0.7190  0.0944
 4142SOL    HW224063   0.077   3.241  16.355 -0.2862 -0.3445 -1.2961
 4143SOL     OW24064   1.704   1.360   4.919  0.2639 -0.4127  0.1592
 4143SOL    HW124065   1.683   1.393   5.007 -1.0890  1.6636 -0.9523
 4143SOL    HW224066   1.620   1.331   4.884 -0.1612 -1.1488  1.7913
 4144SOL     OW24067   3.237   0.033  15.453  0.9161  0.0440 -0.3301
 4144SOL    HW124068   3.275   0.113  15.490 -0.7785  0.4006  0.6672
 4144SOL    HW224069   3.308   4.738  15.400 -1.6363 -0.4339 -3.4327
 4145SOL     OW24070   1.490   3.281   9.560  0.4022  0.2529 -0.0068
 4145SOL    HW124071   1.544   3.300   9.637 -0.5939  0.2382  0.6883
 4145SOL    HW224072   1.514   3.190   9.544 -0.4132 -0.0791  0.7004
 4146SOL     OW24073   3.175   1.639   6.719 -0.5233 -0.1400  0.1849
 4146SOL    HW124074   3.157   1.608   6.808 -2.0542  0.7765  0.2033
 4146SOL    HW224075   3.161   1.728   6.751 -1.0612  0.1843 -0.9626
 4147SOL     OW24076   3.414   0.981  12.020 -0.1009  0.3284  0.2284
 4147SOL    HW124077   3.450   0.895  12.039 -0.2418  0.6753  2.0807
 4147SOL    HW224078   3.348   0.983  12.090 -0.1857 -0.0264  0.1573
 4148SOL     OW24079   2.462   1.649   6.683 -0.0097 -0.3721  0.4894
 4148SOL    HW124080   2.554   1.673   6.676  0.1633 -1.1649  0.0073
 4148SOL    HW224081   2.425   1.712   6.745 -1.5061  0.0537 -0.8046
 4149SOL     OW24082   1.472   0.888   7.581  0.0222 -0.3101  0.2485
 4149SOL    HW124083   1.474   0.940   7.661  0.2795 -0.2972  0.2356
 4149SOL    HW224084   1.382   0.889   7.549  0.5761 -0.1213 -1.3048
 4150SOL     OW24085   3.122   2.894   8.901 -0.0918  0.6149 -0.0415
 4150SOL    HW124086   3.161   2.982   8.896 -0.9898  0.9244 -1.3659
 4150SOL    HW224087   3.198   2.838   8.888 -0.7594 -0.0792 -0.8723
 4151SOL     OW24088   4.643   3.659   7.452 -0.3073  0.0668  0.4605
 4151SOL    HW124089   4.611   3.654   7.542 -0.2726  0.1833  0.4796
 4151SOL    HW224090   4.707   3.588   7.451 -0.7834 -0.3700  1.4664
 4152SOL     OW24091   2.909   2.044   6.859 -0.3999 -0.3552 -0.6504
 4152SOL    HW124092   2.846   1.978   6.889 -1.0081  0.2418 -0.6148
 4152SOL    HW224093   2.900   2.119   6.919 -1.0190 -1.9716  1.2640
 4153SOL     OW24094   3.788   3.129   8.874 -0.1004 -0.0248  0.1380
 4153SOL    HW124095   3.822   3.106   8.960 -1.4022  0.0303  0.6607
 4153SOL    HW224096   3.812   3.221   8.864  0.2771 -0.0464  0.8775
 4154SOL     OW24097   1.932   1.785  17.258  0.2798  0.5249  0.0633
 4154SOL    HW124098   1.882   1.855  17.216  0.5604 -0.2735 -1.6033
 4154SOL    HW224099   1.893   1.702  17.229  0.1036  0.2911  0.9773
 4155SOL     OW24100   0.332   4.736   5.803 -0.0855 -0.4183  0.0831
 4155SOL    HW124101   0.326   4.648   5.766 -0.8396  1.1777 -3.5475
 4155SOL    HW224102   0.275   4.732   5.880 -0.7947 -0.2355 -0.4289
 4156SOL     OW24103   0.202   0.251   1.840  0.0406 -0.5419 -0.8225
 4156SOL    HW124104   0.140   0.285   1.903  0.0450 -0.0794 -1.0723
 4156SOL    HW224105   0.278   0.303   1.864 -0.4682 -0.6856  1.0830
 4157SOL     OW24106   0.075   1.511   9.484  0.0481 -0.2453 -0.1357
 4157SOL    HW124107   0.160   1.541   9.455  0.1373 -1.5486 -1.2614
 4157SOL    HW224108   0.070   1.421   9.451 -0.5755 -1.0525  2.1464
 4158SOL     OW24109   3.775   2.474   7.386  0.3815  0.1163 -0.7721
 4158SOL    HW124110   3.808   2.410   7.449 -2.4461 -3.7281 -3.2359
 4158SOL    HW224111   3.685   2.445   7.379 -0.2212  1.5294  1.2692
 4159SOL     OW24112   1.253   3.196   6.960 -0.1441  0.0196  0.5765
 4159SOL    HW124113   1.264   3.225   6.869  0.2251  1.5858  1.1194
 4159SOL    HW224114   1.196   3.119   6.954 -0.6655  0.4622 -0.1810
 4160SOL     OW24115   1.557   4.717  17.112  0.1464  0.0440  0.0895
 4160SOL    HW124116   1.547   4.739  17.020  2.5284 -0.2226 -0.2228
 4160SOL    HW224117   1.594   4.629  17.105  2.8666  1.2363 -0.3440
 4161SOL     OW24118   1.017   4.590   0.054 -0.3671 -0.3109  0.2722
 4161SOL    HW124119   0.964   4.615   0.129  0.6185  1.0110  0.5226
 4161SOL    HW224120   1.018   4.497   0.079  0.2920  0.2436  2.3248
 4162SOL     OW24121   0.989   0.101   3.663  0.1676 -0.0847 -0.1935
 4162SOL    HW124122   0.930   0.143   3.600 -0.5717 -0.5650  0.1667
 4162SOL    HW224123   1.070   0.069   3.624 -0.3317 -2.2694  0.5476
 4163SOL     OW24124   3.994   0.198   7.498 -0.1746  0.2281 -0.3481
 4163SOL    HW124125   3.971   0.128   7.558 -1.9883  1.0364 -0.1060
 4163SOL    HW224126   4.034   0.141   7.432  2.1855  0.1357  1.1575
 4164SOL     OW24127   3.545   3.579   7.300  0.1501 -0.5642 -0.1849
 4164SOL    HW124128   3.465   3.568   7.248 -0.8183 -2.3300  1.6940
 4164SOL    HW224129   3.560   3.484   7.305  0.5448 -0.4992 -0.1405
 4165SOL     OW24130   4.355   3.629   7.348  0.0827 -0.9109 -0.1781
 4165SOL    HW124131   4.394   3.608   7.433  0.8823 -0.0218 -0.3210
 4165SOL    HW224132   4.271   3.661   7.379  1.2299  0.5698  1.3890
 4166SOL     OW24133   2.674   1.484   2.940  0.0278  0.2913 -0.0754
 4166SOL    HW124134   2.722   1.512   3.018  0.6934 -2.9419  0.7013
 4166SOL    HW224135   2.588   1.488   2.983 -0.3420  0.1934 -0.7993
 4167SOL     OW24136   1.579   1.486  17.648 -0.0524  0.1816  0.2624
 4167SOL    HW124137   1.653   1.431  17.624 -0.4621  0.2386 -1.1185
 4167SOL    HW224138   1.590   1.490  17.743  1.2554  0.1355  0.1011
 4168SOL     OW24139   3.957   4.007  12.112  0.7128 -0.3115  0.3885
 4168SOL    HW124140   3.964   4.036  12.021 -0.0379  1.3869  0.8692
 4168SOL    HW224141   3.934   4.091  12.154  0.1565  0.3308 -1.2034
 4169SOL     OW24142   4.685   1.048   4.944  0.4106  0.7530 -0.1644
 4169SOL    HW124143   4.618   0.984   4.969  0.8711  0.8296  1.2551
 4169SOL    HW224144   4.647   1.066   4.857 -1.6611 -1.8470  0.2004
 4170SOL     OW24145   0.432   0.739   2.279  0.2336 -0.1733 -0.0130
 4170SOL    HW124146   0.428   0.679   2.204  3.0780 -0.8825  0.4134
 4170SOL    HW224147   0.438   0.683   2.357 -3.0125 -1.3012 -0.5368
 4171SOL     OW24148   4.468   2.036   9.628  0.3974 -0.2043  0.3700
 4171SOL    HW124149   4.470   2.108   9.564 -1.2783  0.6228  1.2374
 4171SOL    HW224150   4.561   2.013   9.635  0.5044  0.3281  0.7515
 4172SOL     OW24151   1.936   2.100  17.579 -0.1472 -0.0058 -0.5669
 4172SOL    HW124152   1.937   2.027  17.641 -2.0933 -0.0506 -0.5951
 4172SOL    HW224153   1.844   2.125  17.576  0.3828  1.5173 -3.9311
 4173SOL     OW24154   2.357   3.898  13.628  0.3321  0.5253 -0.3766
 4173SOL    HW124155   2.348   3.989  13.655  2.5416  0.9940 -1.1849
 4173SOL    HW224156   2.408   3.932  13.555 -1.1719  0.2976 -1.5256
 4174SOL     OW24157   0.817   1.632   4.841  0.2395  0.0350  0.5031
 4174SOL    HW124158   0.821   1.698   4.909  3.3077 -1.6684  1.9443
 4174SOL    HW224159   0.723   1.646   4.825  0.6446 -0.2220 -2.0722
 4175SOL     OW24160   1.836   3.795   5.607 -0.1589  0.0215  0.3188
 4175SOL    HW124161   1.826   3.861   5.676 -0.0907  0.2096  0.1513
 4175SOL    HW224162   1.860   3.849   5.531  0.0042  2.0617  1.8394
 4176SOL     OW24163   1.604   4.263   7.157 -0.3717  0.1587 -0.2239
 4176SOL    HW124164   1.550   4.323   7.209 -2.0573 -2.2138  0.7613
 4176SOL    HW224165   1.563   4.182   7.186 -0.6966  0.5600  0.4458
 4177SOL     OW24166   2.034   1.085   8.022 -0.1147 -0.3920  0.0458
 4177SOL    HW124167   2.012   1.162   8.074 -0.3697 -0.6448  0.3205
 4177SOL    HW224168   1.950   1.038   8.021 -0.4739  0.2690 -0.4285
 4178SOL     OW24169   2.728   2.714   7.510  0.0100 -0.2241 -0.2170
 4178SOL    HW124170   2.714   2.672   7.424 -0.1719 -0.5946 -0.0073
 4178SOL    HW224171   2.643   2.753   7.530  0.7617  2.1913 -1.7431
 4179SOL     OW24172   1.010   1.856   7.662 -0.1386 -0.3403  0.0013
 4179SOL    HW124173   0.973   1.944   7.659 -0.9542 -0.6594  0.7494
 4179SOL    HW224174   0.987   1.824   7.749  3.0287 -2.4482  0.0676
 4180SOL     OW24175   4.217   0.707  17.317  0.1937  0.2152 -0.6257
 4180SOL    HW124176   4.224   0.676  17.226 -0.0682 -0.1824 -0.5072
 4180SOL    HW224177   4.130   0.745  17.305 -1.4584 -2.5903  2.7772
 4181SOL     OW24178   0.351   3.526   8.956 -0.0341  0.0983  0.4102
 4181SOL    HW124179   0.417   3.594   8.941  2.4339 -2.2038  0.9425
 4181SOL    HW224180   0.281   3.568   8.906 -0.3534  1.4475  1.9842
 4182SOL     OW24181   3.380   3.907   4.850 -0.8080  0.4353 -0.2506
 4182SOL    HW124182   3.326   3.884   4.926 -0.7857  0.1728 -0.3161
 4182SOL    HW224183   3.373   3.826   4.801 -0.0979  0.5394 -0.5366
 4183SOL     OW24184   1.036   2.221  10.588  0.5763  0.6197  0.6230
 4183SOL    HW124185   1.005   2.302  10.629 -2.4124 -0.7122  0.9646
 4183SOL    HW224186   1.115   2.257  10.548  1.6625 -1.0323  1.3137
 4184SOL     OW24187   4.068   2.681  12.824 -0.0238 -0.2393 -0.0166
 4184SOL    HW124188   4.002   2.696  12.757  0.1950  0.3028 -0.1145
 4184SOL    HW224189   4.142   2.731  12.790  1.3083 -2.2212 -0.0062
 4185SOL     OW24190   4.004   2.096  10.514 -0.1836  0.3645 -0.1496
 4185SOL    HW124191   4.060   2.024  10.543 -0.6549  0.2187  0.3884
 4185SOL    HW224192   4.075   2.148  10.475  2.9517 -1.6099  2.9060
 4186SOL     OW24193   1.258   0.817  17.298  0.7423 -0.3508  0.0222
 4186SOL    HW124194   1.328   0.852  17.354  0.5744 -0.9068  0.5744
 4186SOL    HW224195   1.240   0.731  17.335 -0.5066 -0.1121 -0.0205
 4187SOL     OW24196   1.784   1.319   4.345 -0.2398  0.3580  0.6999
 4187SOL    HW124197   1.724   1.251   4.313  0.8056 -0.7728  1.1360
 4187SOL    HW224198   1.851   1.262   4.383 -0.5729  0.4571  1.4289
 4188SOL     OW24199   0.581   2.851   2.248 -0.5281  0.5539  0.4299
 4188SOL    HW124200   0.517   2.850   2.177  0.4174 -2.7159 -0.3777
 4188SOL    HW224201   0.645   2.784   2.221  0.1577  2.2482 -2.1730
 4189SOL     OW24202   0.707   0.848   3.716  0.0703 -0.0264  0.5686
 4189SOL    HW124203   0.676   0.829   3.804 -1.4798  0.3398  0.1127
 4189SOL    HW224204   0.642   0.909   3.681  0.6471  0.3195  0.1058
 4190SOL     OW24205   1.162   1.712   4.622 -0.3767 -0.3664  0.2630
 4190SOL    HW124206   1.174   1.661   4.542 -1.7511  0.9117 -0.7541
 4190SOL    HW224207   1.254   1.737   4.632 -0.5844  0.7133 -0.5191
 4191SOL     OW24208   1.396   3.693   1.508 -0.4064  0.2936 -0.1831
 4191SOL    HW124209   1.312   3.674   1.466  0.5537 -1.7629 -1.1627
 4191SOL    HW224210   1.416   3.779   1.470 -1.9085  1.3978  1.5344
 4192SOL     OW24211   4.424   2.525   7.804 -0.5833 -0.5853 -0.0243
 4192SOL    HW124212   4.447   2.606   7.850 -1.4711 -0.2056 -0.2276
 4192SOL    HW224213   4.430   2.461   7.875  2.9463 -1.8404 -1.5008
 4193SOL     OW24214   1.309   2.087   1.503 -0.0645  0.1407 -0.2981
 4193SOL    HW124215   1.374   2.137   1.453  0.3196  0.3229  0.3858
 4193SOL    HW224216   1.344   1.999   1.491  2.2368  1.1503 -1.0249
 4194SOL     OW24217   2.242   1.703   3.416 -0.8607  0.5476 -0.0573
 4194SOL    HW124218   2.186   1.651   3.358  1.2627 -3.5984  1.6598
 4194SOL    HW224219   2.280   1.761   3.350 -3.6039 -0.9576 -2.9455
 4195SOL     OW24220   3.290   1.291   8.786  0.4875 -0.1776  0.4342
 4195SOL    HW124221   3.256   1.222   8.843  1.5307 -1.1528 -0.1219
 4195SOL    HW224222   3.221   1.286   8.719 -1.1899 -1.1532  2.2357
 4196SOL     OW24223   4.322   1.075   6.984  0.0150  0.1269  0.3111
 4196SOL    HW124224   4.351   1.101   6.897  0.6529  1.3216  0.8829
 4196SOL    HW224225   4.329   0.980   6.975 -3.7456  0.1986 -3.7157
 4197SOL     OW24226   1.551   2.825   4.032  0.2592  0.2472 -0.1883
 4197SOL    HW124227   1.478   2.874   4.070 -0.2448 -1.2920  0.8163
 4197SOL    HW224228   1.521   2.735   4.026  0.8357  0.0564 -0.2009
 4198SOL     OW24229   3.873   2.988   3.137 -0.4877 -0.0819 -0.2942
 4198SOL    HW124230   3.822   2.913   3.167  0.8805 -0.9653 -0.1569
 4198SOL    HW224231   3.799   3.041   3.107 -2.6437 -2.8667  0.0921
 4199SOL     OW24232   0.837   4.024   4.302 -0.2789  0.2218  0.3368
 4199SOL    HW124233   0.749   3.987   4.307 -0.4080  0.2730 -1.3066
 4199SOL    HW224234   0.828   4.101   4.246 -2.5072 -0.9404 -0.9105
 4200SOL     OW24235   0.263   3.162   2.354 -0.0175  1.1860  0.3253
 4200SOL    HW124236   0.333   3.143   2.291 -1.0067 -1.1583 -0.0584
 4200SOL    HW224237   0.306   3.113   2.424 -2.9955 -0.9818  0.6321
 4201SOL     OW24238   2.508   0.680   1.435 -0.4777 -0.2872 -0.0938
 4201SOL    HW124239   2.581   0.620   1.417 -0.5760  0.5015 -3.1401
 4201SOL    HW224240   2.435   0.639   1.387 -0.7643  0.7509 -0.5426
 4202SOL     OW24241   2.475   1.407   3.810  0.0819  0.1184 -0.0396
 4202SOL    HW124242   2.409   1.393   3.742  0.6128  1.6843 -0.8794
 4202SOL    HW224243   2.553   1.407   3.756  0.0480  0.8058 -0.0944
 4203SOL     OW24244   0.995   3.425   3.551  0.0618 -0.5731 -0.2059
 4203SOL    HW124245   0.955   3.478   3.482  0.8619  0.4361  0.0984
 4203SOL    HW224246   1.045   3.356   3.508  0.7647  0.0197 -0.3518
 4204SOL     OW24247   3.930   0.810   6.788 -0.1178 -0.3608  0.2058
 4204SOL    HW124248   3.842   0.807   6.824 -0.2129  0.1540  0.0142
 4204SOL    HW224249   3.962   0.887   6.835  1.2804 -1.1823  0.6165
 4205SOL     OW24250   0.447   0.317   1.958 -0.3197  0.0812 -0.1247
 4205SOL    HW124251   0.491   0.370   1.892  2.7603  1.3207  2.9211
 4205SOL    HW224252   0.488   0.234   1.933 -1.5716 -0.7461  0.5384
 4206SOL     OW24253   0.427   4.704  14.145  0.4038 -0.7695 -0.1667
 4206SOL    HW124254   0.394   4.710  14.055 -2.2770 -0.6699  0.8286
 4206SOL    HW224255   0.512   4.666  14.123  1.1649 -0.2450  1.8211
 4207SOL     OW24256   0.326   1.495   9.744  0.0994 -0.2363  0.1368
 4207SOL    HW124257   0.334   1.521   9.652  0.2474  3.6481  1.2517
 4207SOL    HW224258   0.384   1.560   9.784 -0.5168  0.0888  0.4955
 4208SOL     OW24259   2.705   2.693  16.270 -0.7980  0.0701  0.3535
 4208SOL    HW124260   2.792   2.713  16.235 -0.6029 -1.7810 -0.2532
 4208SOL    HW224261   2.663   2.773  16.239 -0.3662  0.3329  0.4324
 4209SOL     OW24262   0.159   0.845   7.777  0.0281 -0.4802  0.0157
 4209SOL    HW124263   0.133   0.791   7.852 -0.1032  1.4513  1.3643
 4209SOL    HW224264   0.247   0.868   7.807  0.1680  0.9814 -1.5569
 4210SOL     OW24265   4.712   3.883  13.049  0.3575  0.2598  0.4875
 4210SOL    HW124266   0.012   3.849  12.970 -0.3570  3.2671 -1.1793
 4210SOL    HW224267   4.632   3.920  13.011  0.7995  2.1630  1.3969
 4211SOL     OW24268   3.180   3.766   7.188 -0.3175 -0.1539 -0.5034
 4211SOL    HW124269   3.216   3.847   7.152  1.1709 -0.3831  0.4957
 4211SOL    HW224270   3.101   3.760   7.134  0.5146 -0.5548 -1.6911
 4212SOL     OW24271   1.779   1.368   3.226  0.4584 -0.0080 -0.0489
 4212SOL    HW124272   1.748   1.449   3.265  1.5130  0.0545  0.6448
 4212SOL    HW224273   1.810   1.328   3.307 -0.7573  0.1961  0.5170
 4213SOL     OW24274   2.008   2.029  10.556 -0.5543  0.2535 -0.5303
 4213SOL    HW124275   2.011   2.114  10.513  2.0648 -1.2243 -3.3762
 4213SOL    HW224276   1.991   1.970  10.482  1.3149 -1.5853  0.4926
 4214SOL     OW24277   4.329   1.178   2.603  0.6688 -0.0229 -0.3391
 4214SOL    HW124278   4.405   1.230   2.630  0.5886 -0.3206  0.4647
 4214SOL    HW224279   4.372   1.094   2.619 -2.4289 -1.4100  0.6673
 4215SOL     OW24280   3.930   3.504   1.854 -0.0908 -0.2949 -0.1146
 4215SOL    HW124281   3.869   3.551   1.911  0.7819 -1.1533  1.5362
 4215SOL    HW224282   3.886   3.419   1.842 -2.1564  0.8100 -0.3112
 4216SOL     OW24283   4.061   2.310  13.610 -0.4543 -0.0003  0.2173
 4216SOL    HW124284   4.144   2.295  13.654 -1.1819  0.1352  1.6475
 4216SOL    HW224285   4.082   2.293  13.519 -0.9231 -1.8303  0.4471
 4217SOL     OW24286   2.070   1.179   6.483  0.1415 -0.3469 -0.5335
 4217SOL    HW124287   2.111   1.235   6.548  1.8287  0.0213 -1.9247
 4217SOL    HW224288   2.147   1.155   6.432  1.5682  3.4222 -0.1086
 4218SOL     OW24289   3.810   2.957   4.887 -0.1208 -0.2404  0.1596
 4218SOL    HW124290   3.804   2.937   4.794 -2.6757  1.6873 -0.1119
 4218SOL    HW224291   3.804   2.867   4.918  0.5198  0.2751  1.7833
 4219SOL     OW24292   1.836   2.235   0.121  0.5910 -0.0784 -0.1669
 4219SOL    HW124293   1.773   2.306   0.105  0.1606 -0.4707 -0.2012
 4219SOL    HW224294   1.786   2.158   0.097  0.1734  0.1239  0.0626
 4220SOL     OW24295   0.696   0.909   8.429  0.6324 -0.2185  0.4544
 4220SOL    HW124296   0.726   0.832   8.381 -0.9734 -0.2694 -0.4487
 4220SOL    HW224297   0.734   0.991   8.398 -0.4073  0.0277 -0.1533
 4221SOL     OW24298   0.022   0.019   9.332  0.3276 -0.0118 -0.3226
 4221SOL    HW124299   0.014   0.019   9.237 -1.1161  4.2263 -0.2302
 4221SOL    HW224300   4.680   0.062   9.358 -0.5652 -2.3525  0.7090
 4222SOL     OW24301   2.532   1.737   6.355  0.4914 -0.6362 -0.1512
 4222SOL    HW124302   2.625   1.734   6.378 -0.0374 -0.0522  2.0602
 4222SOL    HW224303   2.503   1.649   6.379  0.1693 -0.9690 -1.7396
 4223SOL     OW24304   4.073   1.516   5.085  1.0707  0.5871 -0.0581
 4223SOL    HW124305   4.062   1.584   5.018  0.0531  1.6227  1.1597
 4223SOL    HW224306   4.067   1.430   5.043  0.1970  0.4597  0.3289
 4224SOL     OW24307   0.768   3.755   1.920 -0.1004  0.6181 -0.6441
 4224SOL    HW124308   0.779   3.688   1.987 -2.6460 -0.5252 -1.3612
 4224SOL    HW224309   0.724   3.828   1.963 -1.3611 -0.0858 -0.7161
 4225SOL     OW24310   4.134   2.310   1.524 -0.2747 -0.4987  0.3607
 4225SOL    HW124311   4.110   2.376   1.589  1.4459  0.8675 -0.4299
 4225SOL    HW224312   4.129   2.231   1.579 -3.0393 -1.6626 -1.5498
 4226SOL     OW24313   0.936   4.455   6.122  0.1143 -0.0068 -0.2626
 4226SOL    HW124314   0.974   4.370   6.099  1.1359 -0.2382  2.1724
 4226SOL    HW224315   0.846   4.431   6.140 -0.6449  2.2194 -1.0934
 4227SOL     OW24316   4.560   3.241   4.744  0.2413  0.0761  0.3477
 4227SOL    HW124317   4.508   3.230   4.665  1.3801 -1.4399 -0.1772
 4227SOL    HW224318   4.601   3.155   4.753  1.0074  0.7141  3.1427
 4228SOL     OW24319   0.727   4.634   1.777  0.0878 -0.1603 -0.2475
 4228SOL    HW124320   0.753   4.604   1.864  0.0720  0.1180 -0.1463
 4228SOL    HW224321   0.795   4.595   1.722 -0.1272 -3.5091  1.8712
 4229SOL     OW24322   0.133   1.233   9.506  0.1842  0.1782  0.2269
 4229SOL    HW124323   0.225   1.249   9.524  0.3666 -0.1568 -0.4049
 4229SOL    HW224324   0.130   1.140   9.528 -3.8240  0.3413  0.4508
 4230SOL     OW24325   1.628   3.444   7.269 -0.2125  0.5181  0.1823
 4230SOL    HW124326   1.629   3.464   7.175 -2.0436  0.4107  0.1461
 4230SOL    HW224327   1.720   3.416   7.278 -0.4959 -0.3484  0.4353
 4231SOL     OW24328   1.325   4.073   2.729  0.3271  0.1898  0.1594
 4231SOL    HW124329   1.274   4.012   2.783  0.0389  0.7072  0.4695
 4231SOL    HW224330   1.389   4.097   2.796  1.2762 -0.2562 -0.5945
 4232SOL     OW24331   0.126   2.756   1.673  0.8406  0.5508 -0.2048
 4232SOL    HW124332   0.051   2.722   1.624  0.0482  1.5313  0.3407
 4232SOL    HW224333   0.177   2.676   1.660 -1.1509 -0.0056 -4.8137
 4233SOL     OW24334   2.180   1.561  13.572 -0.2121 -0.0994  0.2804
 4233SOL    HW124335   2.248   1.566  13.639 -0.2067  4.4340 -0.0656
 4233SOL    HW224336   2.218   1.578  13.486  0.1115 -1.7903  0.0869
 4234SOL     OW24337   0.707   0.943   5.029  0.0427 -0.2614 -0.8746
 4234SOL    HW124338   0.779   1.005   5.036 -0.4753  0.4868 -2.1379
 4234SOL    HW224339   0.729   0.888   5.104 -0.4074  0.4595 -0.2153
 4235SOL     OW24340   3.372   2.081   8.935 -0.2992  0.2883 -0.2216
 4235SOL    HW124341   3.457   2.040   8.947 -1.2572 -1.5030  0.4015
 4235SOL    HW224342   3.381   2.173   8.960  1.3646  0.8798 -2.8761
 4236SOL     OW24343   4.665   3.544   4.101 -0.3680 -0.2378 -0.7611
 4236SOL    HW124344   4.574   3.563   4.125 -0.8143 -1.8452 -1.1956
 4236SOL    HW224345   4.711   3.574   4.179  0.7645 -0.5763 -1.3040
 4237SOL     OW24346   3.377   2.603   4.770 -0.2529  0.1293  0.1191
 4237SOL    HW124347   3.367   2.542   4.697  1.6698 -0.0787  0.0486
 4237SOL    HW224348   3.310   2.570   4.831  0.2189 -1.7270 -0.3688
 4238SOL     OW24349   3.396   2.633   7.448  0.2788  0.7493 -0.1279
 4238SOL    HW124350   3.403   2.548   7.405 -1.5009  1.1642 -1.1916
 4238SOL    HW224351   3.488   2.642   7.476 -0.5394 -0.2684  2.8966
 4239SOL     OW24352   3.976   1.155  13.123  0.2641  0.5025  0.3796
 4239SOL    HW124353   3.957   1.117  13.209  0.5761  2.6104  1.3913
 4239SOL    HW224354   4.072   1.152  13.123  0.2061 -1.0777 -0.8771
 4240SOL     OW24355   3.626   2.625   7.917  0.1795 -0.4313 -0.0509
 4240SOL    HW124356   3.615   2.718   7.937 -0.8718 -0.9901  1.9174
 4240SOL    HW224357   3.573   2.575   7.978  1.9154 -2.1543  0.0686
 4241SOL     OW24358   4.150   3.475   2.017 -0.2548 -0.4619  0.1143
 4241SOL    HW124359   4.225   3.470   1.957 -0.0976 -1.8131  0.4290
 4241SOL    HW224360   4.081   3.488   1.952 -1.0128 -1.1172  0.7838
 4242SOL     OW24361   4.110   1.749   1.083  0.4058 -0.0173  0.5577
 4242SOL    HW124362   4.154   1.665   1.076  2.8421  1.1447  2.0201
 4242SOL    HW224363   4.037   1.729   1.142 -2.4784  2.0629 -2.2535
 4243SOL     OW24364   4.371   2.005   8.099 -0.0495 -0.1421 -0.5247
 4243SOL    HW124365   4.395   1.913   8.111  0.2899 -0.1928 -1.6515
 4243SOL    HW224366   4.276   1.996   8.107  0.3633 -1.6542  2.9219
 4244SOL     OW24367   1.606   2.333   8.685 -0.3260  0.7645 -0.2922
 4244SOL    HW124368   1.588   2.409   8.741 -1.4741  1.7783 -2.0227
 4244SOL    HW224369   1.525   2.336   8.634 -1.0993 -1.2984  0.8269
 4245SOL     OW24370   0.708   4.488   2.492  0.0412 -0.0958 -0.1102
 4245SOL    HW124371   0.637   4.548   2.514  0.5573  1.1526 -1.7983
 4245SOL    HW224372   0.664   4.410   2.458 -2.5084  0.3745  2.1582
 4246SOL     OW24373   4.480   2.913   0.368 -0.1445 -0.3011 -0.4031
 4246SOL    HW124374   4.439   2.964   0.437 -0.4286 -1.0392 -0.0249
 4246SOL    HW224375   4.502   2.971   0.295 -0.0436 -1.1416 -1.0448
 4247SOL     OW24376   0.262   0.784   4.434  0.1853 -0.2352 -0.3425
 4247SOL    HW124377   0.329   0.848   4.456 -0.0066 -0.3574  0.6149
 4247SOL    HW224378   0.266   0.733   4.515 -0.0793 -0.9555 -0.7844
 4248SOL     OW24379   0.837   0.804   9.345  0.6437  0.1371  0.2475
 4248SOL    HW124380   0.853   0.898   9.336  0.0720  0.3485  1.4733
 4248SOL    HW224381   0.921   0.759   9.347  0.6056  0.2135  2.9142
 4249SOL     OW24382   2.020   2.861   2.060  0.4931  0.2913  0.0411
 4249SOL    HW124383   2.028   2.781   2.112  1.5519  0.5769  0.3243
 4249SOL    HW224384   1.930   2.892   2.067  0.1061 -0.9170  0.4403
 4250SOL     OW24385   3.562   1.593   1.491  0.0714  0.1971 -0.0558
 4250SOL    HW124386   3.520   1.540   1.558  1.5779 -0.6273  0.2275
 4250SOL    HW224387   3.485   1.614   1.438 -0.7302 -0.0778  1.0293
 4251SOL     OW24388   3.034   1.663  13.587 -0.3973  0.4632  0.3160
 4251SOL    HW124389   3.099   1.594  13.592 -0.5574  0.3485  0.8521
 4251SOL    HW224390   3.006   1.645  13.497 -0.1952  0.3406  0.2784
 4252SOL     OW24391   4.638   2.538   4.762  0.9606 -0.1542  0.1163
 4252SOL    HW124392   4.556   2.494   4.740  0.6854  0.5207 -0.2089
 4252SOL    HW224393   4.696   2.498   4.698  3.3631 -1.3347  3.0465
 4253SOL     OW24394   1.444   0.072   6.969  0.4551 -0.4957  0.0992
 4253SOL    HW124395   1.428   0.059   6.875 -0.5846  1.9238 -0.0392
 4253SOL    HW224396   1.494   4.731   6.977 -1.0795 -1.3407  1.2003
 4254SOL     OW24397   1.377   3.014   3.359 -0.2026  0.1678 -0.2821
 4254SOL    HW124398   1.387   3.030   3.265  1.7353  1.7376  0.1865
 4254SOL    HW224399   1.356   2.920   3.354  0.2167  0.1049 -0.8526
 4255SOL     OW24400   2.805   0.556   2.736  0.4509  0.1917  0.0234
 4255SOL    HW124401   2.892   0.596   2.745  0.7811 -0.6409  0.5934
 4255SOL    HW224402   2.771   0.559   2.826 -0.7819 -4.3650 -0.2939
 4256SOL     OW24403   4.261   2.780  13.886 -0.3258  0.1642  0.1552
 4256SOL    HW124404   4.177   2.772  13.841  0.3201 -1.7894 -0.6998
 4256SOL    HW224405   4.219   2.741  13.963  0.0047  2.2004  1.3503
 4257SOL     OW24406   3.050   3.196   9.115 -0.5634 -0.0496  0.4612
 4257SOL    HW124407   3.143   3.205   9.133  0.0923  0.2236 -2.9441
 4257SOL    HW224408   3.008   3.281   9.118 -3.1211 -1.3013  0.5097
 4258SOL     OW24409   0.525   2.356   4.948 -0.0930  0.0997  0.3432
 4258SOL    HW124410   0.517   2.261   4.954 -2.6103  0.2852 -0.0935
 4258SOL    HW224411   0.452   2.379   4.890 -0.2530 -0.7279  0.2280
 4259SOL     OW24412   3.563   1.455   6.291 -0.4142 -0.4544 -0.3462
 4259SOL    HW124413   3.553   1.384   6.353  0.9587 -0.8791 -0.6062
 4259SOL    HW224414   3.489   1.512   6.312 -0.6859 -1.5131  1.5152
 4260SOL     OW24415   1.958   4.299   9.105 -0.3396  0.4458 -0.6530
 4260SOL    HW124416   1.994   4.267   9.022  1.9900 -0.1458  0.5684
 4260SOL    HW224417   2.039   4.298   9.157 -0.1327 -1.0240 -0.9991
 4261SOL     OW24418   2.664   3.017   6.936  0.4674  0.3769 -0.0140
 4261SOL    HW124419   2.669   2.986   6.846  2.8171 -0.1393  0.3200
 4261SOL    HW224420   2.666   2.937   6.987  1.3953 -0.5963 -1.6014
 4262SOL     OW24421   3.417   1.637  16.363  0.2621  0.3436 -0.4320
 4262SOL    HW124422   3.510   1.652  16.380  0.3067  0.3070 -0.6442
 4262SOL    HW224423   3.405   1.696  16.288 -0.9711 -1.0206 -1.3005
 4263SOL     OW24424   3.393   2.322   2.666 -0.4037  0.2812  0.3249
 4263SOL    HW124425   3.310   2.366   2.647 -0.4470 -0.3018 -0.8325
 4263SOL    HW224426   3.395   2.324   2.761 -3.0785  0.1551  0.3878
 4264SOL     OW24427   0.820   4.611  17.263 -0.2199 -0.6124  0.1204
 4264SOL    HW124428   0.848   4.581  17.349 -0.6715  3.4114  1.7077
 4264SOL    HW224429   0.870   4.693  17.261 -1.3686  0.1117  0.7204
 4265SOL     OW24430   1.559   2.617   1.681 -0.1302  0.0221 -0.3135
 4265SOL    HW124431   1.568   2.708   1.652 -1.2079 -0.3125 -1.7355
 4265SOL    HW224432   1.645   2.590   1.712  0.4545  2.4051  0.1590
 4266SOL     OW24433   0.058   0.013   9.653 -0.0252 -0.2008  0.2178
 4266SOL    HW124434   0.109   4.728   9.576 -1.6541  1.2932 -1.3541
 4266SOL    HW224435   0.005   0.083   9.614 -1.2451 -1.7238 -0.8677
 4267SOL     OW24436   3.582   4.210   3.860 -0.2912 -0.3881 -0.2950
 4267SOL    HW124437   3.593   4.302   3.883 -1.1806 -0.0724 -1.1591
 4267SOL    HW224438   3.627   4.208   3.776  0.2560 -0.2222 -0.0037
 4268SOL     OW24439   0.336   3.722  12.148  0.6360  0.2208  0.2965
 4268SOL    HW124440   0.321   3.748  12.239 -0.1986 -2.1959  0.8461
 4268SOL    HW224441   0.333   3.806  12.102  0.2618 -0.7808 -1.4855
 4269SOL     OW24442   0.895   1.333  10.652 -0.5530 -0.1074 -0.0235
 4269SOL    HW124443   0.867   1.242  10.646 -0.7292 -0.0851  0.4271
 4269SOL    HW224444   0.944   1.333  10.570 -0.6981  3.0659 -0.1198
 4270SOL     OW24445   1.714   0.319   6.257  0.2298  0.2682  0.1854
 4270SOL    HW124446   1.687   0.243   6.309  0.1112 -0.2529 -0.6424
 4270SOL    HW224447   1.646   0.383   6.280  1.8653  2.5530 -1.3267
 4271SOL     OW24448   4.092   0.926  15.355  0.4204 -0.1764 -0.5377
 4271SOL    HW124449   4.099   0.831  15.345 -0.0483 -0.5355  2.5090
 4271SOL    HW224450   4.182   0.955  15.344 -0.6024  2.8807 -0.9043
 4272SOL     OW24451   0.515   3.094   6.308 -0.2717  0.3328  0.3314
 4272SOL    HW124452   0.432   3.047   6.304 -0.5959  1.0894 -1.8157
 4272SOL    HW224453   0.507   3.109   6.402 -1.2340 -2.4586  0.6646
 4273SOL     OW24454   3.679   1.074  13.076  0.1900 -0.0977  0.7946
 4273SOL    HW124455   3.647   1.151  13.030  0.3713  0.0357  0.8927
 4273SOL    HW224456   3.735   1.110  13.145 -1.5586 -0.7484  2.5616
 4274SOL     OW24457   2.900   1.961  10.785 -0.2698 -0.6375  0.2676
 4274SOL    HW124458   2.882   1.876  10.826  1.7884 -2.3014 -2.2494
 4274SOL    HW224459   2.822   2.013  10.805  1.0171  1.2181  0.4992
 4275SOL     OW24460   1.398   0.983  11.466 -0.1733  0.2071  0.2547
 4275SOL    HW124461   1.410   0.963  11.373  0.8454 -0.9625  0.6381
 4275SOL    HW224462   1.416   0.898  11.507  0.2568 -0.0038 -0.3597
 4276SOL     OW24463   1.009   1.683   3.883 -0.1538 -0.6163  0.1124
 4276SOL    HW124464   1.046   1.656   3.968 -0.3084  0.2749  0.4579
 4276SOL    HW224465   0.919   1.652   3.894 -0.7175  0.3487 -1.9259
 4277SOL     OW24466   3.720   3.840  14.192 -0.5271  0.2643 -0.0817
 4277SOL    HW124467   3.798   3.795  14.159  0.2808  2.1487 -0.7314
 4277SOL    HW224468   3.750   3.831  14.283  1.1140  0.4183 -0.6047
 4278SOL     OW24469   4.487   2.034  17.453  0.3062 -0.2421 -0.8519
 4278SOL    HW124470   4.416   2.071  17.505  1.6187 -3.0602  2.9473
 4278SOL    HW224471   4.532   1.998  17.530 -0.0403 -0.3234 -0.6880
 4279SOL     OW24472   3.547   1.029   1.991 -0.1513 -0.6742  0.1696
 4279SOL    HW124473   3.621   0.983   1.954 -0.2954  0.2433 -1.2632
 4279SOL    HW224474   3.590   1.093   2.048  1.2003 -1.6431  0.2369
 4280SOL     OW24475   3.602   0.235   4.674 -0.3567 -0.0732  0.1931
 4280SOL    HW124476   3.649   0.198   4.599  0.1587 -0.9302  0.9323
 4280SOL    HW224477   3.673   0.270   4.728  1.3794 -0.3487 -1.9202
 4281SOL     OW24478   4.001   0.555   9.631 -1.0358 -0.1955  0.2414
 4281SOL    HW124479   4.084   0.577   9.672 -0.7323  0.0054 -0.4749
 4281SOL    HW224480   4.023   0.545   9.538  1.1413 -0.8321  0.8339
 4282SOL     OW24481   0.479   0.960   2.417 -0.3369  0.0912 -0.4040
 4282SOL    HW124482   0.432   0.927   2.494  1.6065 -2.5870 -0.3793
 4282SOL    HW224483   0.481   0.878   2.368 -0.9080 -0.3896  0.3855
 4283SOL     OW24484   3.016   1.533   5.464 -0.3361  0.7450  0.1273
 4283SOL    HW124485   3.050   1.447   5.488  2.8961  1.6217 -1.2937
 4283SOL    HW224486   3.076   1.584   5.518  1.7260 -0.8702 -0.6701
 4284SOL     OW24487   0.896   2.820  15.650 -0.1464  0.2284 -0.0204
 4284SOL    HW124488   0.923   2.886  15.586  0.9633 -1.8097 -1.6547
 4284SOL    HW224489   0.955   2.749  15.624 -0.5702  0.6092 -2.0370
 4285SOL     OW24490   2.040   3.343   6.884 -0.1958  0.1369 -0.0760
 4285SOL    HW124491   2.109   3.406   6.905  0.6899 -0.2914 -1.7357
 4285SOL    HW224492   1.991   3.385   6.813 -0.4826  0.6600  0.4361
 4286SOL     OW24493   0.032   2.568  14.217 -0.1207 -0.0754 -0.0067
 4286SOL    HW124494   4.690   2.618  14.225 -0.3751 -0.4276 -0.4154
 4286SOL    HW224495   0.066   2.610  14.138  0.7589 -0.7889  0.0004
 4287SOL     OW24496   1.294   3.258   5.893 -0.0304 -0.1361 -0.0232
 4287SOL    HW124497   1.386   3.259   5.868 -0.0342  1.1972  0.0438
 4287SOL    HW224498   1.281   3.179   5.946 -1.3334 -0.2880 -0.5636
 4288SOL     OW24499   1.315   0.987   7.816  0.0361  0.4186 -0.2513
 4288SOL    HW124500   1.281   0.901   7.841  0.4787  1.0761  2.6228
 4288SOL    HW224501   1.234   1.020   7.780 -1.7014  0.7797  3.9652
 4289SOL     OW24502   1.433   2.232   3.611  0.1704 -0.2438  0.3801
 4289SOL    HW124503   1.344   2.219   3.577  0.8334 -1.3692 -0.9271
 4289SOL    HW224504   1.440   2.327   3.601  1.0904 -0.4569 -0.9826
 4290SOL     OW24505   0.767   2.993   5.549  0.4558 -0.1888  0.0145
 4290SOL    HW124506   0.751   2.999   5.644 -1.2687 -0.6495 -0.2462
 4290SOL    HW224507   0.810   2.909   5.532 -0.6705 -0.8627  0.4633
 4291SOL     OW24508   1.575   4.274  10.723  0.3921 -0.8108 -0.6843
 4291SOL    HW124509   1.563   4.342  10.657  1.0175 -1.5659 -1.5805
 4291SOL    HW224510   1.607   4.327  10.796 -0.9556  2.0303 -2.1395
 4292SOL     OW24511   2.364   1.657  13.347  0.0724  0.8896 -0.6386
 4292SOL    HW124512   2.406   1.581  13.388 -0.9421  0.9637  0.5433
 4292SOL    HW224513   2.366   1.632  13.254  0.6985 -0.1856 -0.3349
 4293SOL     OW24514   0.909   3.096  12.377 -0.1771 -0.1229 -0.3925
 4293SOL    HW124515   0.980   3.121  12.437  0.0215  1.7056 -1.3931
 4293SOL    HW224516   0.916   3.170  12.317 -0.8792 -0.1651 -0.5228
 4294SOL     OW24517   0.899   3.278   8.251  0.4323 -0.8864  0.5797
 4294SOL    HW124518   0.807   3.266   8.229  0.4304 -2.3442  1.3780
 4294SOL    HW224519   0.928   3.192   8.282 -0.6483 -1.7301 -0.8078
 4295SOL     OW24520   0.832   1.675  16.705  0.2426  0.0572 -0.0813
 4295SOL    HW124521   0.911   1.703  16.659 -0.6545  0.6573 -1.2334
 4295SOL    HW224522   0.763   1.716  16.654 -0.0725  0.4679  0.6658
 4296SOL     OW24523   3.170   3.131   6.263  0.2460 -0.6595  0.3414
 4296SOL    HW124524   3.135   3.166   6.345 -0.5256  2.2533 -1.2273
 4296SOL    HW224525   3.141   3.204   6.208 -1.0581 -0.5909  1.1312
 4297SOL     OW24526   2.966   1.232   4.231  0.1582 -0.2669 -0.0707
 4297SOL    HW124527   2.936   1.180   4.306 -0.0370  0.2220  0.1855
 4297SOL    HW224528   2.900   1.299   4.244  0.6714  0.4907 -1.4343
 4298SOL     OW24529   1.520   4.256   6.164 -0.0451  0.3399 -0.1698
 4298SOL    HW124530   1.606   4.292   6.185  0.1379  0.0330 -0.3769
 4298SOL    HW224531   1.467   4.330   6.191 -0.5956 -0.4765  1.0044
 4299SOL     OW24532   0.071   2.917  13.795  0.5628  0.9821  0.1999
 4299SOL    HW124533   0.071   2.971  13.716 -1.0911 -0.3746 -0.7458
 4299SOL    HW224534   0.116   2.838  13.764  2.3851  1.3244  2.0244
 4300SOL     OW24535   4.085   4.063   2.246  0.1546  0.2519  0.1611
 4300SOL    HW124536   4.103   3.971   2.267 -0.5878  0.4800  1.8385
 4300SOL    HW224537   4.101   4.098   2.334  3.3138 -2.4221  0.6489
 4301SOL     OW24538   4.184   0.454   3.209  0.1224 -0.4818 -0.0118
 4301SOL    HW124539   4.178   0.366   3.173 -0.2382 -0.9708  1.2803
 4301SOL    HW224540   4.227   0.499   3.135 -0.9648 -0.0315 -0.3811
 4302SOL     OW24541   4.499   1.015   8.457 -0.1903  0.0068 -0.5533
 4302SOL    HW124542   4.557   0.989   8.528  1.4609  0.9781 -1.5302
 4302SOL    HW224543   4.454   0.938   8.422 -0.5986 -0.3200  0.7024
 4303SOL     OW24544   1.155   0.582   0.520 -0.0004  0.2151 -0.1086
 4303SOL    HW124545   1.123   0.668   0.492 -1.4744 -0.7679 -1.4558
 4303SOL    HW224546   1.122   0.525   0.450 -0.4832 -0.3339  0.5685
 4304SOL     OW24547   3.787   0.331   3.542 -0.3006  0.7240 -0.0752
 4304SOL    HW124548   3.772   0.413   3.589 -1.1469  0.3780  0.2719
 4304SOL    HW224549   3.722   0.336   3.471 -1.6369 -1.6809  0.9599
 4305SOL     OW24550   2.544   4.249   9.309  0.3291  0.4359  0.2535
 4305SOL    HW124551   2.599   4.298   9.248 -1.6945  0.5545 -1.4795
 4305SOL    HW224552   2.500   4.209   9.234  0.6737  2.0831 -0.8272
 4306SOL     OW24553   3.165   1.150  12.707 -0.0027  0.0730 -0.3436
 4306SOL    HW124554   3.155   1.149  12.612  2.0469  0.9521 -0.5742
 4306SOL    HW224555   3.077   1.124  12.736 -0.1455  0.9944  0.0679
 4307SOL     OW24556   3.200   0.986  12.210  0.5513  0.0471 -0.4995
 4307SOL    HW124557   3.180   0.936  12.289  1.3375 -0.4232 -0.5942
 4307SOL    HW224558   3.198   1.075  12.245  1.6227 -0.8855  1.9373
 4308SOL     OW24559   3.679   0.977   8.080  0.4005  0.5563  0.2419
 4308SOL    HW124560   3.678   1.070   8.059 -0.9649  0.4684 -0.0719
 4308SOL    HW224561   3.610   0.943   8.024  1.0044 -0.7181  0.2652
 4309SOL     OW24562   4.569   1.701  11.498 -1.0634 -0.2673  0.2059
 4309SOL    HW124563   4.579   1.793  11.474 -3.4395  0.1221  0.6789
 4309SOL    HW224564   4.519   1.701  11.580 -1.8750 -1.0250 -0.2821
 4310SOL     OW24565   2.278   1.234  13.904 -0.3152 -0.4438  0.2857
 4310SOL    HW124566   2.234   1.175  13.843 -1.9128  1.3670 -0.3180
 4310SOL    HW224567   2.279   1.183  13.986 -0.7046  2.1221  1.8844
 4311SOL     OW24568   3.369   4.512   4.552 -0.3077 -0.3998 -0.1055
 4311SOL    HW124569   3.399   4.490   4.464  0.2749 -2.2956  0.5768
 4311SOL    HW224570   3.362   4.606   4.535  1.0750 -0.3370 -0.2959
 4312SOL     OW24571   0.379   0.739  11.693 -0.2838 -0.0686 -0.2432
 4312SOL    HW124572   0.312   0.785  11.744  0.6086  0.0764  0.7764
 4312SOL    HW224573   0.462   0.775  11.723  0.4946 -1.8802 -0.1997
 4313SOL     OW24574   3.642   2.705   7.579  0.3271 -0.7047  0.4403
 4313SOL    HW124575   3.650   2.787   7.530  1.7623  0.4160  2.5273
 4313SOL    HW224576   3.732   2.684   7.604  0.3240  1.0386  1.8738
 4314SOL     OW24577   0.717   2.270  16.865  0.6088 -0.1803  0.0547
 4314SOL    HW124578   0.684   2.343  16.812 -0.4911 -0.8852 -0.2219
 4314SOL    HW224579   0.639   2.215  16.877  0.4768 -0.1438 -0.6761
 4315SOL     OW24580   3.988   2.061   1.919 -0.0380  0.2686 -0.1647
 4315SOL    HW124581   3.937   1.981   1.926  1.5833 -0.8107 -0.7468
 4315SOL    HW224582   3.927   2.122   1.961  1.2702  1.4809  0.0138
 4316SOL     OW24583   0.050   2.272   1.453  0.5889  0.5921 -0.2564
 4316SOL    HW124584   0.094   2.316   1.379  0.4995  0.6951 -0.2480
 4316SOL    HW224585   0.110   2.300   1.522  0.1151  2.1649 -0.4696
 4317SOL     OW24586   2.749   4.069  10.804  0.6766  0.2012 -0.2067
 4317SOL    HW124587   2.752   4.162  10.825  0.6910  0.0367  0.5132
 4317SOL    HW224588   2.728   4.036  10.891 -0.6568  2.9419  0.4920
 4318SOL     OW24589   0.487   3.765   9.185  0.3965 -0.2956  0.2380
 4318SOL    HW124590   0.407   3.810   9.160 -0.3382 -1.1929  0.9378
 4318SOL    HW224591   0.457   3.687   9.232 -2.6865  0.3026 -0.7454
 4319SOL     OW24592   4.381   0.143  12.496 -0.2562  0.4598 -0.3398
 4319SOL    HW124593   4.429   0.200  12.437  1.0721 -0.3102  0.0117
 4319SOL    HW224594   4.340   0.084  12.433  2.0486  0.4379 -1.8026
 4320SOL     OW24595   1.625   1.487   0.162 -0.2488 -0.2518  0.6596
 4320SOL    HW124596   1.675   1.536   0.227 -0.7656  2.1808 -0.7750
 4320SOL    HW224597   1.539   1.475   0.204 -0.8875 -0.9237 -0.8279
 4321SOL     OW24598   3.488   3.887  12.270 -0.9229  0.9147 -0.3222
 4321SOL    HW124599   3.531   3.939  12.202  0.6156  1.5245  1.1139
 4321SOL    HW224600   3.528   3.801  12.264  0.3543  1.6355 -1.9889
 4322SOL     OW24601   1.327   1.865  17.320  0.1927 -0.0345 -0.4325
 4322SOL    HW124602   1.240   1.898  17.342  0.6084  0.6123  0.2359
 4322SOL    HW224603   1.297   1.797  17.259  0.5096  0.3333 -1.0023
 4323SOL     OW24604   1.563   3.591   3.531  0.4872  0.2168  0.1440
 4323SOL    HW124605   1.613   3.643   3.468 -0.3304 -0.5584 -1.1394
 4323SOL    HW224606   1.596   3.604   3.620 -1.0283  0.3714  0.6838
 4324SOL     OW24607   1.653   2.317  11.990  0.1983  0.4347 -0.2296
 4324SOL    HW124608   1.623   2.250  11.929  1.2278  1.1349 -1.5011
 4324SOL    HW224609   1.580   2.313  12.052  0.6575 -1.7697  0.1626
 4325SOL     OW24610   2.761   0.607   5.012 -0.7665 -0.4392 -0.0506
 4325SOL    HW124611   2.835   0.549   4.992 -2.4495 -2.4195 -0.5666
 4325SOL    HW224612   2.807   0.691   5.004  2.0934 -1.8219  1.7113
 4326SOL     OW24613   4.372   2.840   4.635 -0.1742  0.0105  0.8976
 4326SOL    HW124614   4.296   2.898   4.629  0.2420  0.2814 -1.6713
 4326SOL    HW224615   4.343   2.778   4.702 -1.0451 -1.0814 -0.4750
 4327SOL     OW24616   4.589   0.559   4.427 -0.0048 -0.0024  0.4754
 4327SOL    HW124617   4.599   0.505   4.348  1.8682 -1.0081  1.4111
 4327SOL    HW224618   4.494   0.562   4.442 -0.0578 -2.4616  0.5745
 4328SOL     OW24619   0.846   4.729  14.891 -0.0182  0.1293  0.1926
 4328SOL    HW124620   0.845   0.084  14.884  0.4571  0.1837  0.8618
 4328SOL    HW224621   0.917   4.712  14.829 -0.4245  0.1720 -0.2832
 4329SOL     OW24622   1.801   3.221   3.627  0.1897 -0.1467  0.2372
 4329SOL    HW124623   1.733   3.178   3.577  0.5911 -0.8648  0.3079
 4329SOL    HW224624   1.861   3.152   3.656  0.7062  1.1361  2.2397
 4330SOL     OW24625   3.341   2.452   3.598  0.0495  0.1319  0.1543
 4330SOL    HW124626   3.249   2.480   3.607 -0.1781 -0.8054  0.7525
 4330SOL    HW224627   3.316   2.373   3.551  2.6042 -0.5211 -0.0931
 4331SOL     OW24628   2.514   0.222   9.885 -0.8369  0.3954  0.0647
 4331SOL    HW124629   2.472   0.307   9.895 -0.2343  0.3290  3.2109
 4331SOL    HW224630   2.508   0.193   9.977  2.2126 -3.8650 -1.0973
 4332SOL     OW24631   4.562   3.007  15.050 -0.2723 -0.1151 -1.3820
 4332SOL    HW124632   4.635   2.955  15.019 -0.3128 -0.2177 -1.3050
 4332SOL    HW224633   4.607   3.089  15.072 -0.7970 -0.3722  0.5976
 4333SOL     OW24634   3.336   3.312   0.971 -0.1701  0.0374  0.1339
 4333SOL    HW124635   3.390   3.366   0.914  0.6943  0.5312  1.4241
 4333SOL    HW224636   3.264   3.290   0.912 -1.2281  0.7540  1.1500
 4334SOL     OW24637   3.437   0.355   8.760  0.1021  0.0541  0.0980
 4334SOL    HW124638   3.530   0.371   8.743  0.4666 -1.0581  1.0468
 4334SOL    HW224639   3.449   0.330   8.851  0.7638  1.6049  0.4369
 4335SOL     OW24640   3.981   3.794   8.412 -0.1142 -0.6489 -0.7565
 4335SOL    HW124641   4.020   3.770   8.496  0.5017  2.5120 -0.1432
 4335SOL    HW224642   4.029   3.869   8.376  1.2960 -0.7992  0.7710
 4336SOL     OW24643   4.675   1.239   8.397 -0.3368  0.1321 -0.0962
 4336SOL    HW124644   4.729   1.166   8.428  0.0602  1.5577  2.6491
 4336SOL    HW224645   4.593   1.200   8.427  0.5980 -0.8179  1.2597
 4337SOL     OW24646   3.500   1.176   4.709  0.4501 -0.4517  0.3351
 4337SOL    HW124647   3.505   1.132   4.624 -0.2063 -2.6902  1.4563
 4337SOL    HW224648   3.497   1.268   4.686  0.7003 -0.3712  0.6325
 4338SOL     OW24649   3.024   2.597   9.319  0.3394  0.5798  0.1797
 4338SOL    HW124650   3.019   2.561   9.407 -0.6983 -0.7106 -0.4035
 4338SOL    HW224651   3.119   2.604   9.304  0.7092  1.3744  2.9159
 4339SOL     OW24652   1.587   3.045   9.453 -0.0618  0.2402 -0.1829
 4339SOL    HW124653   1.578   3.000   9.369 -1.4356 -0.3626  0.2917
 4339SOL    HW224654   1.668   3.008   9.489 -0.2019  1.7334  1.6566
 4340SOL     OW24655   4.115   0.386   5.391 -0.0466 -0.9844  0.2500
 4340SOL    HW124656   4.188   0.342   5.348  2.1433  2.4886  0.3927
 4340SOL    HW224657   4.145   0.435   5.467  1.2998  1.2983 -1.7374
 4341SOL     OW24658   4.674   3.512   1.387 -0.4618  0.4176 -0.1566
 4341SOL    HW124659   4.643   3.517   1.477  1.3775 -3.3221  0.6755
 4341SOL    HW224660   4.661   3.600   1.351  1.3062  0.7108 -0.0768
 4342SOL     OW24661   1.578   2.465   8.036 -0.1385  0.0339  0.7034
 4342SOL    HW124662   1.578   2.558   8.056 -2.0435  0.1818 -0.0258
 4342SOL    HW224663   1.494   2.439   7.998 -0.9136  3.7141 -0.0973
 4343SOL     OW24664   3.697   3.524   3.451 -0.8252  0.4230 -0.2917
 4343SOL    HW124665   3.764   3.475   3.498 -1.0296  1.7954  1.4312
 4343SOL    HW224666   3.673   3.586   3.520  0.2750  0.4810  0.0383
 4344SOL     OW24667   4.358   1.959   7.687 -0.0106 -0.1304  0.3073
 4344SOL    HW124668   4.296   1.935   7.756  1.7512 -0.2104  1.8584
 4344SOL    HW224669   4.397   2.036   7.728 -3.4582  1.7319  0.0606
 4345SOL     OW24670   2.184   0.752  16.825 -0.6064 -0.1179  0.5020
 4345SOL    HW124671   2.267   0.739  16.870 -1.0395  0.0838  1.3692
 4345SOL    HW224672   2.205   0.821  16.763 -1.3256  0.1690  0.5812
 4346SOL     OW24673   2.346   4.185   2.184  0.1090  0.2467  0.2029
 4346SOL    HW124674   2.264   4.141   2.207  0.6573  0.4601  2.6049
 4346SOL    HW224675   2.320   4.233   2.106  0.4380 -0.2441 -0.2073
 4347SOL     OW24676   1.149   3.724   4.297  0.5723  0.3507 -0.1970
 4347SOL    HW124677   1.107   3.796   4.343  0.4415  1.0032 -1.3244
 4347SOL    HW224678   1.124   3.651   4.353  1.3282  0.5830  0.4304
 4348SOL     OW24679   3.613   0.634   8.608  0.7665  0.4240 -0.4082
 4348SOL    HW124680   3.614   0.589   8.692 -2.6231 -1.9717 -1.6533
 4348SOL    HW224681   3.648   0.719   8.636 -0.0905  0.3154  0.9949
 4349SOL     OW24682   2.854   3.947  16.900  0.4487  0.1269  0.4574
 4349SOL    HW124683   2.788   3.889  16.862 -0.9416  0.0823  2.8891
 4349SOL    HW224684   2.931   3.899  16.871  1.4319  1.1141  1.4114
 4350SOL     OW24685   2.952   2.576  15.497  0.3550 -0.2075  0.8028
 4350SOL    HW124686   2.871   2.557  15.450  0.2255 -1.5602  1.5681
 4350SOL    HW224687   2.928   2.632  15.570 -1.0765 -2.0070  1.6944
 4351SOL     OW24688   0.480   1.105   4.939 -0.1000  0.2692  0.4940
 4351SOL    HW124689   0.528   1.035   4.984  1.7493 -1.0516 -3.5640
 4351SOL    HW224690   0.398   1.057   4.926 -1.1327  1.7783  1.4324
 4352SOL     OW24691   0.567   0.389  15.578 -0.1415 -0.1744 -0.5685
 4352SOL    HW124692   0.552   0.316  15.638  0.7177 -0.9731 -1.3335
 4352SOL    HW224693   0.484   0.397  15.530  0.1742 -0.3884 -1.1464
 4353SOL     OW24694   3.261   3.233  16.248  0.4340 -0.2459 -0.0650
 4353SOL    HW124695   3.214   3.300  16.198 -1.1243 -1.4832 -0.2925
 4353SOL    HW224696   3.259   3.162  16.183  0.8143 -2.2888  2.1723
 4354SOL     OW24697   3.437   4.608  11.315  0.3217 -0.8725 -0.0302
 4354SOL    HW124698   3.373   4.567  11.374  0.4217 -0.1027  0.6098
 4354SOL    HW224699   3.409   4.569  11.232 -1.9819  2.0008 -0.5792
 4355SOL     OW24700   2.662   4.441  14.560 -0.1204  0.1328  0.3846
 4355SOL    HW124701   2.573   4.422  14.590  0.6384 -2.3415  1.0203
 4355SOL    HW224702   2.715   4.366  14.586  0.0117 -1.2325 -3.8406
 4356SOL     OW24703   1.895   3.351  10.868 -0.1702 -0.5119  0.0661
 4356SOL    HW124704   1.850   3.352  10.953  4.3029 -0.0601  2.4278
 4356SOL    HW224705   1.938   3.266  10.877  0.1030 -0.4603 -0.7436
 4357SOL     OW24706   3.490   2.737   8.414 -0.4444 -0.0993  0.1537
 4357SOL    HW124707   3.465   2.655   8.370  1.9567 -0.3423 -0.7478
 4357SOL    HW224708   3.410   2.785   8.393  0.5915  0.9105 -1.4449
 4358SOL     OW24709   4.136   1.643   9.201  0.0279  0.3934 -0.3074
 4358SOL    HW124710   4.110   1.694   9.277 -2.4903 -2.7196  0.9370
 4358SOL    HW224711   4.153   1.557   9.239  0.2749  1.2102  1.4000
 4359SOL     OW24712   1.370   2.463  15.568  0.1522  0.1656 -0.2262
 4359SOL    HW124713   1.465   2.468  15.577  0.2252 -2.6183  0.7031
 4359SOL    HW224714   1.363   2.520  15.491 -1.6340 -0.8691 -0.8333
 4360SOL     OW24715   3.858   3.850   6.207  0.4494  0.3507 -0.4077
 4360SOL    HW124716   3.853   3.839   6.112  0.2550 -1.8897 -0.1371
 4360SOL    HW224717   3.949   3.825   6.221 -0.5374 -2.1535  1.4908
 4361SOL     OW24718   0.423   0.814  14.419 -0.3076 -0.6738  0.5428
 4361SOL    HW124719   0.485   0.857  14.359 -1.1849  2.0043  1.5729
 4361SOL    HW224720   0.404   0.745  14.356 -1.0725 -0.3315  0.4001
 4362SOL     OW24721   0.700   2.740   7.728 -0.3205 -0.1073  0.0746
 4362SOL    HW124722   0.621   2.726   7.780 -0.0305  2.5650  1.2447
 4362SOL    HW224723   0.670   2.812   7.672 -0.5801 -1.3563 -1.3981
 4363SOL     OW24724   1.285   1.276   6.849  0.1091 -0.3145 -0.3486
 4363SOL    HW124725   1.266   1.191   6.889 -1.3984 -0.1695 -0.7385
 4363SOL    HW224726   1.201   1.314   6.876  0.8207  1.5559 -0.7958
 4364SOL     OW24727   1.479   0.239  11.831 -0.1160 -0.2159  0.1581
 4364SOL    HW124728   1.560   0.189  11.834 -0.4724 -0.8757 -1.4685
 4364SOL    HW224729   1.465   0.244  11.737 -0.5666 -0.3758  0.2171
 4365SOL     OW24730   0.053   4.155   2.426 -0.2698 -0.1216 -0.4033
 4365SOL    HW124731   0.135   4.204   2.432 -0.0616 -0.2097 -2.5102
 4365SOL    HW224732   0.063   4.120   2.338 -0.8821 -1.3119  0.0021
 4366SOL     OW24733   1.675   1.523   3.874 -0.4282  0.0323  0.6137
 4366SOL    HW124734   1.588   1.513   3.914 -0.7003  0.8878  0.2353
 4366SOL    HW224735   1.719   1.540   3.957  1.0424 -0.7609 -0.0093
 4367SOL     OW24736   2.293   0.555   7.624 -0.8748  0.2497  0.5142
 4367SOL    HW124737   2.212   0.604   7.613 -0.5033  0.8127  0.2647
 4367SOL    HW224738   2.263   0.485   7.681  1.8986 -2.4095 -1.2439
 4368SOL     OW24739   2.841   3.512   5.839 -0.0227  0.4328  0.1593
 4368SOL    HW124740   2.770   3.574   5.853  0.0803  0.4934  0.4197
 4368SOL    HW224741   2.841   3.473   5.927 -0.0172  0.4312  0.1586
 4369SOL     OW24742   0.110   4.739  10.742  0.5492 -0.3266  0.0286
 4369SOL    HW124743   0.181   4.729  10.805  0.3086  0.1779  0.3807
 4369SOL    HW224744   0.161   0.015  10.663  2.5766 -0.8638  1.2306
 4370SOL     OW24745   0.990   1.181  11.920 -0.4131 -0.6387 -0.4510
 4370SOL    HW124746   0.974   1.109  11.981 -1.5270 -0.9059 -1.0396
 4370SOL    HW224747   1.085   1.177  11.907 -0.1708 -1.0018  1.4971
 4371SOL     OW24748   2.385   4.287   6.094 -0.0268 -0.6752 -0.5219
 4371SOL    HW124749   2.458   4.268   6.152 -1.1421  0.0090  1.1387
 4371SOL    HW224750   2.430   4.290   6.010  0.0788  0.0042 -0.4421
 4372SOL     OW24751   0.984   4.655   3.913  0.2149  0.2847  0.1734
 4372SOL    HW124752   1.069   4.609   3.916 -0.1094 -0.1587  2.3054
 4372SOL    HW224753   0.940   4.598   3.850  1.6042 -1.2720  0.5885
 4373SOL     OW24754   1.121   3.734   0.637 -0.4519 -0.4818  0.0523
 4373SOL    HW124755   1.041   3.682   0.638  0.0047 -1.1573  1.7120
 4373SOL    HW224756   1.151   3.710   0.724 -1.3975 -0.8533  0.2722
 4374SOL     OW24757   0.751   2.693   4.689 -0.2265  0.1017 -0.3853
 4374SOL    HW124758   0.744   2.658   4.778 -1.3323  1.3479  0.0234
 4374SOL    HW224759   0.795   2.618   4.650  0.1787  0.4571 -0.6248
 4375SOL     OW24760   3.533   1.272   9.298  0.1624 -0.1155  0.1820
 4375SOL    HW124761   3.459   1.321   9.262  0.3273  0.0185  0.0260
 4375SOL    HW224762   3.530   1.194   9.242 -1.4524  2.1648 -2.9018
 4376SOL     OW24763   3.901   1.812   9.777 -0.6794 -0.2312  0.2963
 4376SOL    HW124764   3.949   1.731   9.755 -1.5018 -0.4311 -0.7571
 4376SOL    HW224765   3.938   1.877   9.718  3.9177 -4.0844 -1.0714
 4377SOL     OW24766   3.946   1.814   0.832  0.4767  0.2576  0.0156
 4377SOL    HW124767   3.877   1.777   0.887 -1.0988 -1.7974 -3.3171
 4377SOL    HW224768   4.012   1.846   0.893 -0.3039  0.8576  0.5501
 4378SOL     OW24769   4.222   0.203   4.951 -0.2999 -0.1545  0.2473
 4378SOL    HW124770   4.134   0.237   4.941 -0.1753  0.4722  1.3179
 4378SOL    HW224771   4.270   0.284   4.933  0.0768 -0.0569  1.7220
 4379SOL     OW24772   2.264   1.038   2.589  0.1057 -0.0679  0.6202
 4379SOL    HW124773   2.255   0.977   2.662 -0.2740 -1.2538 -0.4298
 4379SOL    HW224774   2.177   1.029   2.551 -0.0172 -0.1193  0.9134
 4380SOL     OW24775   2.391   0.332   2.393  0.9477 -0.1230 -0.2382
 4380SOL    HW124776   2.463   0.369   2.446 -1.1550  0.9886  1.8321
 4380SOL    HW224777   2.380   0.243   2.425  0.6622  0.1732  0.4932
 4381SOL     OW24778   0.980   1.106   0.186  0.4665 -0.2661 -0.0047
 4381SOL    HW124779   1.025   1.021   0.185 -1.0655 -1.0771 -0.0281
 4381SOL    HW224780   0.914   1.094   0.118  0.5248  2.2997 -0.5014
 4382SOL     OW24781   2.749   3.055   3.140  0.0791 -0.0370  0.1828
 4382SOL    HW124782   2.668   3.017   3.175 -0.0695  0.2225  0.1245
 4382SOL    HW224783   2.788   2.977   3.102  0.2519 -0.7958  1.9641
 4383SOL     OW24784   2.012   1.053   5.918 -0.7759  0.0483  0.4203
 4383SOL    HW124785   1.937   1.033   5.862 -0.6425 -0.9479  0.5887
 4383SOL    HW224786   2.015   1.148   5.925  1.4685  0.0657 -0.7975
 4384SOL     OW24787   2.931   2.233   7.532  0.0490  0.1031 -0.1215
 4384SOL    HW124788   2.916   2.200   7.621  1.8652 -0.1695  0.0784
 4384SOL    HW224789   2.912   2.327   7.534  1.5434  0.3963  0.8597
 4385SOL     OW24790   1.050   3.683   2.206 -0.1441  0.1533  0.1779
 4385SOL    HW124791   0.977   3.623   2.220  0.5129 -0.1217  2.3671
 4385SOL    HW224792   1.075   3.704   2.295 -0.8647  1.1148  0.1504
 4386SOL     OW24793   0.581   1.211  13.661 -0.3229  0.3049  0.1615
 4386SOL    HW124794   0.568   1.116  13.656  2.8645 -0.1610  0.7363
 4386SOL    HW224795   0.595   1.227  13.754  0.3775  2.1476 -0.2700
 4387SOL     OW24796   3.845   1.456  17.379  0.4492 -0.6518 -0.7453
 4387SOL    HW124797   3.903   1.436  17.306  1.9292  0.0663  0.2434
 4387SOL    HW224798   3.901   1.521  17.421 -1.1087  0.0490  0.2335
 4388SOL     OW24799   0.318   0.188   4.477  0.1432 -0.2912 -0.0377
 4388SOL    HW124800   0.305   0.186   4.572  0.6215 -1.8644 -0.0019
 4388SOL    HW224801   0.273   0.265   4.444  0.1982 -0.8228 -1.3820
 4389SOL     OW24802   2.642   1.451   8.665 -0.6478  0.1276  0.6138
 4389SOL    HW124803   2.703   1.433   8.737 -1.7907 -0.8497  1.3277
 4389SOL    HW224804   2.563   1.465   8.718  0.6073  0.9534  2.2947
 4390SOL     OW24805   4.373   3.181   3.229  0.3793 -0.6604  0.0149
 4390SOL    HW124806   4.336   3.148   3.147  1.6223 -0.4463 -0.6352
 4390SOL    HW224807   4.431   3.110   3.254  0.7870 -0.1811  0.4376
 4391SOL     OW24808   2.456   2.794   2.873  0.8066 -0.1303  1.1410
 4391SOL    HW124809   2.512   2.740   2.929 -1.0070 -2.2062  0.9663
 4391SOL    HW224810   2.525   2.841   2.827  0.0423  0.5748  0.7162
 4392SOL     OW24811   1.024   2.909   3.575 -0.3610 -0.1746 -0.2971
 4392SOL    HW124812   1.050   2.973   3.641 -0.7627  0.6523 -0.9520
 4392SOL    HW224813   1.078   2.834   3.602  0.7730  1.0106  0.6950
 4393SOL     OW24814   0.654   4.141   2.710 -0.3428 -0.4062  0.0491
 4393SOL    HW124815   0.576   4.195   2.720  0.4626  0.5635  1.0438
 4393SOL    HW224816   0.694   4.155   2.796  0.1754 -1.5250 -0.0148
 4394SOL     OW24817   3.170   0.745   3.950  0.0830  0.1039  0.0004
 4394SOL    HW124818   3.149   0.806   3.879  3.8273 -0.0816 -1.2611
 4394SOL    HW224819   3.135   0.665   3.913  0.9750  0.3400 -1.3600
 4395SOL     OW24820   4.098   1.144   6.312  0.0157  0.4728 -0.0030
 4395SOL    HW124821   4.103   1.208   6.241  0.0286 -0.1000 -0.5191
 4395SOL    HW224822   4.016   1.103   6.285  1.0601 -1.8628  0.4259
 4396SOL     OW24823   0.719   0.810   2.603  0.3251  0.4630  0.4110
 4396SOL    HW124824   0.764   0.768   2.531 -2.3840 -1.2035 -0.3344
 4396SOL    HW224825   0.630   0.780   2.584  2.2152 -4.0215 -1.2329
 4397SOL     OW24826   0.422   0.086   5.313 -0.0009 -0.0754 -0.2524
 4397SOL    HW124827   0.331   0.115   5.316 -0.2561 -0.9988  1.2027
 4397SOL    HW224828   0.469   0.170   5.312 -0.6369  0.2866  0.1791
 4398SOL     OW24829   0.770   2.072  16.346  0.6193  0.7686 -0.0088
 4398SOL    HW124830   0.852   2.080  16.396  1.3430  1.1919 -1.2588
 4398SOL    HW224831   0.784   1.986  16.308 -0.6299  0.3119  0.5789
 4399SOL     OW24832   4.066   2.916  10.014  0.5417  0.0222  0.3335
 4399SOL    HW124833   4.061   2.928   9.919 -0.1718 -2.0221  0.1168
 4399SOL    HW224834   3.985   2.867  10.024  1.1420 -1.2029 -0.7106
 4400SOL     OW24835   3.608   0.930  15.746 -0.8174 -0.3032 -0.3865
 4400SOL    HW124836   3.530   0.972  15.708  0.3265  2.4972  0.3829
 4400SOL    HW224837   3.592   0.931  15.840  2.6255 -1.5628  0.2040
 4401SOL     OW24838   3.947   1.397   7.235  0.0930 -0.0915  0.1006
 4401SOL    HW124839   3.975   1.315   7.276 -0.4551 -0.5651 -0.4891
 4401SOL    HW224840   4.006   1.397   7.160  1.9202  1.2236  1.5115
 4402SOL     OW24841   1.242   3.130   9.901 -0.0323 -0.0971  0.2403
 4402SOL    HW124842   1.152   3.136   9.869 -1.0195 -3.0230  2.4452
 4402SOL    HW224843   1.264   3.222   9.886 -0.3157 -0.0147  0.3340
 4403SOL     OW24844   2.734   2.977   4.705 -0.2349  0.3965 -0.5981
 4403SOL    HW124845   2.814   2.929   4.685  0.3652  1.1462  0.0606
 4403SOL    HW224846   2.695   2.917   4.769 -0.2982  1.2673  0.1658
 4404SOL     OW24847   1.311   4.481   1.788  0.1596 -0.5414 -0.0941
 4404SOL    HW124848   1.300   4.552   1.852 -0.0133 -1.4977  0.9333
 4404SOL    HW224849   1.406   4.482   1.780  0.3368  0.6295  2.2055
 4405SOL     OW24850   2.220   1.154   4.818 -0.1923 -0.0322  0.7445
 4405SOL    HW124851   2.126   1.170   4.807 -0.3461 -1.5668 -0.1583
 4405SOL    HW224852   2.230   1.153   4.913 -0.6587  0.8014  0.8101
 4406SOL     OW24853   2.434   2.680   5.389 -0.2858  0.1173  0.1852
 4406SOL    HW124854   2.434   2.623   5.466  0.8940 -0.2818 -0.1019
 4406SOL    HW224855   2.432   2.612   5.322 -0.5283  0.6687 -0.3618
 4407SOL     OW24856   0.067   1.920  15.975  0.2189  0.0879  0.1298
 4407SOL    HW124857   0.047   1.827  15.976  0.3644  0.0488 -1.1000
 4407SOL    HW224858   0.141   1.917  15.914  0.3402  0.8622  0.2338
 4408SOL     OW24859   1.427   0.827   4.828 -0.3420  0.2039 -0.6333
 4408SOL    HW124860   1.360   0.843   4.761 -0.3828  1.0289 -0.3946
 4408SOL    HW224861   1.372   0.795   4.899 -1.7834 -1.7953 -2.6584
 4409SOL     OW24862   0.174   1.639   0.978  0.2795 -0.0831 -0.1316
 4409SOL    HW124863   0.207   1.641   0.888 -0.7599  1.2004 -0.4972
 4409SOL    HW224864   0.246   1.672   1.032 -0.5221  1.3404  0.0680
 4410SOL     OW24865   3.207   1.334  11.661  0.3240  0.1523 -0.3705
 4410SOL    HW124866   3.257   1.260  11.695  1.3802  1.6680  1.3939
 4410SOL    HW224867   3.117   1.314  11.685 -0.5051  0.1359 -3.4397
 4411SOL     OW24868   4.167   0.587   6.055  0.5266  0.1496 -0.3058
 4411SOL    HW124869   4.226   0.540   6.115  0.4299 -1.7895 -1.7663
 4411SOL    HW224870   4.166   0.522   5.986 -4.7256 -1.2788  1.1155
 4412SOL     OW24871   1.981   0.671   5.404 -0.5905 -0.2049  0.8376
 4412SOL    HW124872   2.064   0.696   5.445  0.8278  0.3961 -2.4580
 4412SOL    HW224873   1.947   0.758   5.381  2.2637  0.5579 -0.4753
 4413SOL     OW24874   2.379   1.996   2.477  0.3473  0.4916  0.3956
 4413SOL    HW124875   2.373   2.024   2.385  1.3551 -2.8667 -0.6888
 4413SOL    HW224876   2.398   2.080   2.520 -0.2498  0.5513  0.5374
 4414SOL     OW24877   3.285   4.662   5.249  0.2358 -0.0464  0.3254
 4414SOL    HW124878   3.321   4.598   5.187 -0.6631  1.3655 -1.6784
 4414SOL    HW224879   3.331   4.639   5.330  0.4588 -0.9772 -0.0684
 4415SOL     OW24880   1.065   3.990   5.940 -0.0570  0.0812  0.0248
 4415SOL    HW124881   1.041   3.904   5.975  0.4581  0.1803  0.6063
 4415SOL    HW224882   1.040   3.979   5.848  0.6686 -0.6659 -0.0865
 4416SOL     OW24883   0.254   3.597  16.133 -0.2656  0.1621  0.5166
 4416SOL    HW124884   0.201   3.673  16.157 -0.8647  0.1196 -0.6777
 4416SOL    HW224885   0.327   3.599  16.195 -0.1093 -1.3695  0.3795
 4417SOL     OW24886   2.147   3.376   8.744 -0.3115 -0.0453 -0.0459
 4417SOL    HW124887   2.101   3.299   8.777  3.4142 -2.1969 -0.0017
 4417SOL    HW224888   2.112   3.372   8.655 -0.7840 -0.5561  0.1612
 4418SOL     OW24889   0.954   1.828   6.287 -0.1838  0.2765  0.3504
 4418SOL    HW124890   1.022   1.780   6.334  1.5196  2.3644  0.0352
 4418SOL    HW224891   0.876   1.808   6.338  0.1114  2.1231  1.5170
 4419SOL     OW24892   4.516   1.850   6.776 -0.3552 -0.0921  0.0589
 4419SOL    HW124893   4.508   1.937   6.737  0.6829  0.6408  1.4823
 4419SOL    HW224894   4.594   1.852   6.831  0.0718 -2.8542 -0.4717
 4420SOL     OW24895   4.361   3.426   9.804  0.1944  0.1177  0.7137
 4420SOL    HW124896   4.449   3.447   9.834  0.0852 -0.5339  1.5151
 4420SOL    HW224897   4.346   3.360   9.872 -1.2292  2.0841  2.3201
 4421SOL     OW24898   4.085   2.895  13.019  0.2535 -0.4647 -0.0457
 4421SOL    HW124899   4.176   2.865  13.029  0.0896 -1.1796 -0.7494
 4421SOL    HW224900   4.049   2.813  12.987 -4.5671  2.0501 -0.9197
 4422SOL     OW24901   2.543   1.816   3.851 -0.3625 -0.1917 -0.0839
 4422SOL    HW124902   2.629   1.855   3.839 -0.9181  1.5333  1.4813
 4422SOL    HW224903   2.520   1.785   3.764  3.1182 -0.2487 -0.9779
 4423SOL     OW24904   0.135   2.908  15.855 -0.3607  0.3478 -0.3161
 4423SOL    HW124905   0.123   2.836  15.916 -1.7071  0.9564  0.1384
 4423SOL    HW224906   0.228   2.907  15.832 -0.5180 -0.4013 -0.9246
 4424SOL     OW24907   4.162   3.140   6.065 -0.0415 -0.4965  0.0136
 4424SOL    HW124908   4.116   3.140   6.149  0.2753  0.0622  0.1862
 4424SOL    HW224909   4.253   3.167   6.082  0.4122 -0.9765 -1.6574
 4425SOL     OW24910   3.164   3.291   1.469 -0.2910 -0.5049 -0.0088
 4425SOL    HW124911   3.078   3.319   1.438 -0.8565 -0.9658  1.1721
 4425SOL    HW224912   3.188   3.234   1.395 -1.5750 -0.2531 -0.6177
 4426SOL     OW24913   1.567   2.273   7.651 -0.4096 -0.2456 -0.0330
 4426SOL    HW124914   1.569   2.197   7.593 -1.8843 -0.4589  0.2054
 4426SOL    HW224915   1.633   2.322   7.601  0.1549 -1.0129 -0.0273
 4427SOL     OW24916   0.522   3.743   3.918 -0.3237 -0.3576  0.0560
 4427SOL    HW124917   0.581   3.767   3.847 -1.4314  2.0694 -0.0567
 4427SOL    HW224918   0.577   3.763   3.994  1.4423 -0.6579 -1.1419
 4428SOL     OW24919   1.174   1.143   4.084  0.1833  0.1374  0.0076
 4428SOL    HW124920   1.123   1.074   4.041  1.2459 -0.3997 -0.3981
 4428SOL    HW224921   1.127   1.157   4.166 -0.6996 -1.0861 -0.2889
 4429SOL     OW24922   2.120   2.718   2.636  0.0735 -0.4209 -0.6195
 4429SOL    HW124923   2.057   2.683   2.698  0.1692 -0.8300 -0.7565
 4429SOL    HW224924   2.198   2.663   2.638  1.2438  1.1145 -3.0045
 4430SOL     OW24925   3.315   4.181   6.644  0.3129 -0.1989 -0.2528
 4430SOL    HW124926   3.351   4.138   6.567  1.4099  0.1193  0.0756
 4430SOL    HW224927   3.329   4.110   6.707 -0.6215  1.5681  1.9487
 4431SOL     OW24928   3.449   4.666  11.844  0.0428 -0.5884  0.4221
 4431SOL    HW124929   3.478   4.577  11.866  0.0659 -1.0797 -1.6201
 4431SOL    HW224930   3.506   4.697  11.774 -0.1559 -1.2856 -0.0427
 4432SOL     OW24931   3.093   3.239  15.796  0.2862 -0.3019 -0.1097
 4432SOL    HW124932   3.069   3.331  15.783 -0.6144 -0.3455  1.2007
 4432SOL    HW224933   3.123   3.212  15.709  0.5918  1.2189 -0.4661
 4433SOL     OW24934   2.938   0.984   2.463 -0.2503  0.5181 -0.1547
 4433SOL    HW124935   3.013   1.003   2.406 -0.6298 -0.2494 -0.9111
 4433SOL    HW224936   2.950   1.049   2.533 -1.0833  1.8344 -1.2567
 4434SOL     OW24937   2.827   2.327  11.104 -0.5114  0.3865  0.0452
 4434SOL    HW124938   2.902   2.277  11.072 -1.1347 -2.2189  2.6566
 4434SOL    HW224939   2.871   2.386  11.166 -2.1562  1.8791 -0.2239
 4435SOL     OW24940   4.003   2.638   2.418  0.3743 -0.0429  0.1115
 4435SOL    HW124941   3.963   2.719   2.449  2.0933  0.8953 -0.1181
 4435SOL    HW224942   4.092   2.666   2.396  0.4471 -1.1859 -1.0758
 4436SOL     OW24943   0.883   4.338   3.531  0.3541 -0.0542 -0.2768
 4436SOL    HW124944   0.935   4.417   3.519  0.3359  0.0221  0.1701
 4436SOL    HW224945   0.906   4.293   3.449  0.0771  0.7223 -0.7857
 4437SOL     OW24946   0.457   3.338   8.329 -0.2012 -0.2505 -0.0843
 4437SOL    HW124947   0.490   3.426   8.349 -0.7067 -0.1742  0.4131
 4437SOL    HW224948   0.538   3.288   8.339  1.3473  1.8795 -2.0311
 4438SOL     OW24949   1.689   1.150   8.129  0.2795  0.1688  0.4131
 4438SOL    HW124950   1.719   1.240   8.138 -0.9457  0.3259  3.0360
 4438SOL    HW224951   1.659   1.154   8.038 -0.0914 -0.7881  0.4964
 4439SOL     OW24952   1.775   0.843   2.048 -0.4931 -0.0468  0.0641
 4439SOL    HW124953   1.851   0.880   2.093  0.0716 -1.1153 -0.0198
 4439SOL    HW224954   1.801   0.751   2.054  0.5842  0.1813 -0.8537
 4440SOL     OW24955   3.586   2.480   3.444 -0.0233  0.6215  0.1151
 4440SOL    HW124956   3.516   2.486   3.509 -0.5078 -0.6993 -0.2806
 4440SOL    HW224957   3.544   2.517   3.367 -0.0324 -0.4446 -0.3969
 4441SOL     OW24958   1.294   2.606  10.257 -0.7048 -0.8569  0.2719
 4441SOL    HW124959   1.352   2.664  10.306 -2.2919  0.3219  0.7452
 4441SOL    HW224960   1.209   2.650  10.251  0.7504  2.0617  1.0124
 4442SOL     OW24961   4.719   2.066  11.909  0.4389  0.1073  0.1939
 4442SOL    HW124962   0.040   2.133  11.878 -0.6018  0.9330 -0.0757
 4442SOL    HW224963   0.023   2.036  11.989 -2.9975  0.1036  2.0779
 4443SOL     OW24964   1.721   1.989   1.888 -0.5299  0.1318  0.5621
 4443SOL    HW124965   1.728   2.066   1.832  1.8974 -0.2751  0.3223
 4443SOL    HW224966   1.755   1.927   1.823  1.1333 -1.8409  3.2701
 4444SOL     OW24967   1.147   1.509   6.430  0.1859  0.5586  0.0160
 4444SOL    HW124968   1.208   1.441   6.461 -0.0259  0.5587  0.4400
 4444SOL    HW224969   1.203   1.570   6.383  1.1145 -0.5829 -0.3679
 4445SOL     OW24970   3.809   3.182   8.520  0.5607 -0.5548 -0.6141
 4445SOL    HW124971   3.739   3.211   8.462 -1.9624  0.0033  2.7396
 4445SOL    HW224972   3.754   3.139   8.585  1.2014  0.5690  0.6586
 4446SOL     OW24973   1.933   2.018   8.838 -0.3758  0.4438 -0.4233
 4446SOL    HW124974   1.881   2.087   8.881 -0.9686 -0.2916  0.0435
 4446SOL    HW224975   1.884   1.940   8.864  0.4385 -0.0246 -0.3046
 4447SOL     OW24976   1.295   0.979   9.093  0.3269 -0.2527  0.0131
 4447SOL    HW124977   1.306   0.970   8.998  0.7645  0.2194  0.0145
 4447SOL    HW224978   1.286   0.889   9.124  0.5662 -0.7390 -1.3421
 4448SOL     OW24979   1.588   2.531   3.993  0.0724  0.2049 -0.2949
 4448SOL    HW124980   1.501   2.535   4.031 -0.1507 -1.1800 -0.6755
 4448SOL    HW224981   1.582   2.462   3.926  0.1342  0.4310 -0.5361
 4449SOL     OW24982   4.231   2.745   2.671 -0.0210  0.0745  0.0782
 4449SOL    HW124983   4.161   2.754   2.607  1.1520  0.5123 -1.1296
 4449SOL    HW224984   4.262   2.835   2.672 -0.5963  0.2777 -0.2975
 4450SOL     OW24985   3.562   0.906  14.894 -0.0593 -0.1633 -0.8045
 4450SOL    HW124986   3.476   0.871  14.916  0.8294 -1.3290  0.8399
 4450SOL    HW224987   3.614   0.827  14.880 -0.4212 -0.3719 -0.9719
 4451SOL     OW24988   0.767   1.367   0.311 -0.7162 -0.4161 -0.6740
 4451SOL    HW124989   0.837   1.378   0.247  0.1588 -0.1254  0.3392
 4451SOL    HW224990   0.693   1.389   0.254 -2.0378 -1.9170  0.4492
 4452SOL     OW24991   2.402   1.442  13.726 -0.2793 -0.2088  0.3352
 4452SOL    HW124992   2.464   1.474  13.792  0.2099 -1.1613  0.3414
 4452SOL    HW224993   2.349   1.374  13.768  2.1529 -2.2437  0.0526
 4453SOL     OW24994   4.602   1.529   8.109 -0.4754 -0.5569 -0.0801
 4453SOL    HW124995   4.654   1.456   8.076 -1.1555 -1.2207  0.3177
 4453SOL    HW224996   4.619   1.533   8.203 -1.4418 -0.1848  0.0814
 4454SOL     OW24997   1.065   0.952   6.217 -0.9167  0.0268  0.1842
 4454SOL    HW124998   1.135   0.976   6.277  0.2119  0.1753 -1.1882
 4454SOL    HW224999   1.120   0.908   6.152 -1.6303  0.5820 -0.7980
 4455SOL     OW25000   0.739   2.796   0.957  0.4240 -0.1859 -0.1554
 4455SOL    HW125001   0.770   2.711   0.924  0.4070 -1.0824  2.1645
 4455SOL    HW225002   0.663   2.775   1.010  1.5236 -2.7865  0.4144
 4456SOL     OW25003   3.444   4.249   1.161 -0.4007  0.0782  0.4213
 4456SOL    HW125004   3.350   4.269   1.165 -0.4311  0.2070 -0.8536
 4456SOL    HW225005   3.486   4.335   1.151  0.9681 -0.5762  0.6575
 4457SOL     OW25006   4.401   0.200   2.364 -0.2912  0.7630  0.8239
 4457SOL    HW125007   4.459   0.234   2.432 -1.6202  0.0667  2.3279
 4457SOL    HW225008   4.329   0.179   2.424  1.7243 -0.5636  2.7744
 4458SOL     OW25009   1.624   3.776   7.924 -0.4078  0.2409 -0.1231
 4458SOL    HW125010   1.578   3.718   7.864  3.9768 -0.7333 -2.5992
 4458SOL    HW225011   1.556   3.821   7.973 -0.1497  2.5024 -1.8233
 4459SOL     OW25012   4.659   1.969   3.337 -0.0699  0.2643  0.2220
 4459SOL    HW125013   4.657   2.039   3.402  1.3537  0.8185 -0.3271
 4459SOL    HW225014   4.730   2.004   3.283 -0.9525  0.4754 -0.7987
 4460SOL     OW25015   3.636   2.877   4.205 -0.0899  0.2561 -0.3799
 4460SOL    HW125016   3.571   2.906   4.270 -0.5532  0.1149 -0.7785
 4460SOL    HW225017   3.697   2.951   4.203 -1.2824  1.1645 -2.9220
 4461SOL     OW25018   1.164   2.778   8.603  0.1220  0.1370 -0.5856
 4461SOL    HW125019   1.153   2.798   8.696  0.1645  2.3430 -1.0449
 4461SOL    HW225020   1.189   2.863   8.566 -1.9210  0.7975 -0.4717
 4462SOL     OW25021   0.683   4.306   1.882 -0.0699 -0.2520 -0.1940
 4462SOL    HW125022   0.653   4.240   1.821  0.3888  0.1903 -0.8992
 4462SOL    HW225023   0.759   4.259   1.917 -0.8001 -0.4218  1.1436
 4463SOL     OW25024   3.719   2.019  14.348 -0.0512 -0.3242 -0.1036
 4463SOL    HW125025   3.715   2.039  14.441 -0.1844 -0.3358 -0.1074
 4463SOL    HW225026   3.669   1.937  14.355 -0.0927 -0.2247  0.6671
 4464SOL     OW25027   2.512   0.841   3.140 -0.4957 -0.0162 -0.4638
 4464SOL    HW125028   2.456   0.898   3.088 -1.0593  0.2790  0.4649
 4464SOL    HW225029   2.529   0.767   3.081  0.3453  1.0807 -1.5826
 4465SOL     OW25030   3.947   4.386   4.359  0.4834 -0.3451 -0.2182
 4465SOL    HW125031   3.924   4.413   4.270  1.7503 -0.9971 -0.7349
 4465SOL    HW225032   4.025   4.439   4.373 -0.2162  0.5409  0.3765
 4466SOL     OW25033   0.704   2.860   5.292  0.1894 -0.2186 -0.1199
 4466SOL    HW125034   0.730   2.940   5.338  0.1277 -0.2627 -0.0097
 4466SOL    HW225035   0.616   2.838   5.320  0.7591  0.2550  2.0415
 4467SOL     OW25036   3.985   0.404   8.732  0.2803  0.3625  0.2176
 4467SOL    HW125037   4.060   0.447   8.773  1.1287 -1.7423  0.8448
 4467SOL    HW225038   3.982   0.447   8.646  0.7122 -0.6600 -0.3127
 4468SOL     OW25039   4.332   2.451   1.011 -0.4013 -0.2661  0.3515
 4468SOL    HW125040   4.417   2.441   0.967  0.2320  3.1026  0.8282
 4468SOL    HW225041   4.319   2.545   1.002  1.5503 -0.0277  0.0284
 4469SOL     OW25042   1.332   1.239   8.792 -0.3195  0.2330 -0.2535
 4469SOL    HW125043   1.288   1.249   8.876  0.2111 -1.0351  0.1797
 4469SOL    HW225044   1.323   1.328   8.757  1.1530 -0.1399 -1.5888
 4470SOL     OW25045   3.563   1.125  12.257  0.1986 -0.1339  0.4014
 4470SOL    HW125046   3.500   1.196  12.266  0.4760 -0.0049  1.3465
 4470SOL    HW225047   3.546   1.089  12.169 -2.1850  1.9754  0.0076
 4471SOL     OW25048   2.909   1.781   5.721 -0.7244 -0.0495  0.4609
 4471SOL    HW125049   2.927   1.717   5.791  1.2005 -0.3520 -0.3167
 4471SOL    HW225050   3.002   1.791   5.701 -0.9402  0.4861 -0.2534
 4472SOL     OW25051   0.461   4.666   3.397  0.1079 -0.4965  0.0968
 4472SOL    HW125052   0.458   4.609   3.474 -1.1588 -0.9419 -0.2834
 4472SOL    HW225053   0.404   4.732   3.436  0.5957 -0.3808  0.6129
 4473SOL     OW25054   1.662   0.933   5.869 -0.1645  0.4301 -0.4451
 4473SOL    HW125055   1.614   0.867   5.819  1.8229 -2.9796  2.0798
 4473SOL    HW225056   1.738   0.883   5.899 -1.2248 -0.5365  0.6333
 4474SOL     OW25057   1.050   0.871   2.490  0.3631  0.2707 -0.4298
 4474SOL    HW125058   1.107   0.830   2.555 -0.2959 -0.7004 -0.4785
 4474SOL    HW225059   1.103   0.950   2.476 -0.9242  1.2442  0.1510
 4475SOL     OW25060   0.792   2.061   2.815  0.1387  0.2739 -0.0204
 4475SOL    HW125061   0.749   1.986   2.775  4.8954 -3.9536  2.7674
 4475SOL    HW225062   0.805   2.127   2.747 -0.9346  0.6362  0.1283
 4476SOL     OW25063   1.739   0.990  15.032 -0.1149  0.2536  0.3922
 4476SOL    HW125064   1.686   1.055  15.078 -2.4971 -0.7834 -0.8972
 4476SOL    HW225065   1.817   1.045  15.020 -0.2358  1.0063  2.9487
 4477SOL     OW25066   2.021   1.784   7.922 -0.0821 -0.0314  0.2781
 4477SOL    HW125067   2.104   1.832   7.930 -0.9188  1.2750  1.1289
 4477SOL    HW225068   1.972   1.852   7.875 -0.0227  0.9703  1.6722
 4478SOL     OW25069   3.050   2.046   7.812  0.1961  0.3092  0.3914
 4478SOL    HW125070   3.022   2.083   7.896 -0.2837 -1.1412  0.8732
 4478SOL    HW225071   3.085   1.962   7.843  0.2630  0.3905  0.5367
 4479SOL     OW25072   3.152   1.451  16.081 -0.0451 -0.0219 -0.6953
 4479SOL    HW125073   3.195   1.486  16.003  1.1046 -0.6958 -0.3604
 4479SOL    HW225074   3.060   1.474  16.069  0.3181  0.6205 -2.2276
 4480SOL     OW25075   3.685   0.131  15.546  0.0139 -0.4862  0.1721
 4480SOL    HW125076   3.667   0.057  15.488  2.2515  0.0827 -1.2595
 4480SOL    HW225077   3.623   0.116  15.617 -0.5203  1.3919  0.1047
 4481SOL     OW25078   0.737   2.954   8.841 -0.0971 -0.8963  0.0233
 4481SOL    HW125079   0.796   2.994   8.905 -0.8752  2.0429 -1.0686
 4481SOL    HW225080   0.650   2.993   8.856  1.1426  1.9463 -0.0614
 4482SOL     OW25081   1.103   1.473   7.268 -0.2707  0.2022 -0.3479
 4482SOL    HW125082   1.035   1.530   7.304  0.6555  0.1521  1.4817
 4482SOL    HW225083   1.052   1.396   7.243 -2.0733  0.9050  1.1683
 4483SOL     OW25084   4.536   1.780   8.524 -0.8672  0.3357 -0.5985
 4483SOL    HW125085   4.513   1.690   8.503 -0.6705 -0.8370  4.3103
 4483SOL    HW225086   4.473   1.794   8.595  0.2433  0.4671  0.3486
 4484SOL     OW25087   3.913   2.140   5.381  0.2855  0.2391 -0.1264
 4484SOL    HW125088   3.971   2.120   5.454  1.2368 -0.5153 -1.0794
 4484SOL    HW225089   3.910   2.050   5.350 -0.5812  0.3598 -0.4025
 4485SOL     OW25090   2.411   3.168  17.684 -0.6992  0.2125  0.5627
 4485SOL    HW125091   2.403   3.263  17.682  0.8832  0.3371  0.6371
 4485SOL    HW225092   2.351   3.139  17.753 -2.1900  1.0395 -0.3803
 4486SOL     OW25093   4.336   0.856   4.700 -0.9073  0.0258 -0.2105
 4486SOL    HW125094   4.247   0.886   4.682 -0.9335 -0.7635 -1.4344
 4486SOL    HW225095   4.389   0.935   4.699 -2.0210  0.7912  1.9648
 4487SOL     OW25096   1.111   0.246   3.412  0.3713  1.1450 -0.0130
 4487SOL    HW125097   1.119   0.340   3.426 -0.4355  0.5627  4.4335
 4487SOL    HW225098   1.017   0.230   3.399  0.3698  0.3823  0.9369
 4488SOL     OW25099   1.848   1.766   8.916 -0.6183  0.1838 -0.1140
 4488SOL    HW125100   1.868   1.748   9.008 -1.1480  0.5416  0.0720
 4488SOL    HW225101   1.757   1.739   8.905 -0.6922 -0.0575  1.1092
 4489SOL     OW25102   4.019   2.873   3.350 -0.3936  0.3989  0.1178
 4489SOL    HW125103   3.988   2.921   3.273  0.2400 -0.5010 -0.6984
 4489SOL    HW225104   4.097   2.839   3.307 -0.9995  0.2414 -0.8687
 4490SOL     OW25105   3.529   1.424   3.547 -0.4330 -0.0462 -0.0562
 4490SOL    HW125106   3.504   1.419   3.639  0.5024  1.3894  0.2722
 4490SOL    HW225107   3.497   1.341   3.510  2.0404 -0.0149 -2.3014
 4491SOL     OW25108   4.174   3.465   0.693 -0.2382  0.0382 -0.2214
 4491SOL    HW125109   4.123   3.385   0.707  3.0306 -2.1230 -0.7515
 4491SOL    HW225110   4.250   3.463   0.750 -0.4981  2.9573  0.2213
 4492SOL     OW25111   3.393   0.056   7.212 -0.6636 -0.3406  0.5182
 4492SOL    HW125112   3.467   0.099   7.170 -1.0459  1.4141  1.6605
 4492SOL    HW225113   3.439   0.022   7.289  0.2726 -2.7207 -1.0797
 4493SOL     OW25114   0.889   2.710   5.562  0.2716 -0.2503 -0.3641
 4493SOL    HW125115   0.823   2.725   5.630  0.3285 -0.8123 -0.1861
 4493SOL    HW225116   0.972   2.716   5.609  0.0829 -0.7953  0.0241
 4494SOL     OW25117   4.452   4.637   7.024  0.5483 -0.6441  0.4277
 4494SOL    HW125118   4.539   4.605   7.045  0.5300  0.2241  1.8054
 4494SOL    HW225119   4.400   4.587   7.087 -2.9302  1.4158 -0.8288
 4495SOL     OW25120   3.122   3.974   5.803 -0.2160 -0.0262 -0.4827
 4495SOL    HW125121   3.060   3.991   5.875 -0.0257 -2.3443  0.2325
 4495SOL    HW225122   3.176   3.907   5.845 -1.4170 -0.4088  0.4560
 4496SOL     OW25123   0.626   1.983   9.306 -0.4784 -0.7597 -0.3800
 4496SOL    HW125124   0.667   1.984   9.220 -1.2306  1.0982 -0.7082
 4496SOL    HW225125   0.701   2.015   9.354 -0.5192  0.7572 -1.3091
 4497SOL     OW25126   3.539   0.632  17.128  0.2981  0.1154  0.4019
 4497SOL    HW125127   3.577   0.554  17.086  0.7222  0.8213 -0.5196
 4497SOL    HW225128   3.560   0.698  17.062 -1.6517 -0.9162 -1.2285
 4498SOL     OW25129   1.887   1.347  10.921  0.3469 -0.5046 -0.1249
 4498SOL    HW125130   1.925   1.407  10.985 -1.4779  1.2344 -0.6664
 4498SOL    HW225131   1.901   1.392  10.837  0.2327  1.3779  0.8651
 4499SOL     OW25132   1.648   0.320   1.337  0.0107  0.3213  0.0656
 4499SOL    HW125133   1.635   0.258   1.409  0.2019  0.3239  0.1032
 4499SOL    HW225134   1.564   0.316   1.293 -0.4092  0.5260  0.8557
 4500SOL     OW25135   4.487   3.728   4.383 -0.3253  0.3159  0.4373
 4500SOL    HW125136   4.563   3.751   4.435  0.4673 -2.5825  0.5356
 4500SOL    HW225137   4.416   3.785   4.413  0.1003  1.5584 -0.8925
 4501SOL     OW25138   0.492   2.563   3.368  0.1661  0.1817 -0.0387
 4501SOL    HW125139   0.554   2.490   3.370 -0.1891 -0.1033  0.7288
 4501SOL    HW225140   0.474   2.575   3.462 -0.0472 -1.3941  0.1137
 4502SOL     OW25141   2.071   2.185   4.140  0.8246  0.0895  0.4789
 4502SOL    HW125142   2.065   2.107   4.085  1.5677 -1.0236  1.9890
 4502SOL    HW225143   2.011   2.155   4.208  0.0064  0.2846 -0.1598
 4503SOL     OW25144   0.016   0.239   8.852 -0.1658 -0.0086 -0.1746
 4503SOL    HW125145   4.715   0.280   8.929  0.8109  2.7664 -1.1115
 4503SOL    HW225146   4.686   0.203   8.799  2.6819 -0.7642 -3.4287
 4504SOL     OW25147   0.117   1.353  11.717  0.1681 -0.3334 -0.1150
 4504SOL    HW125148   0.024   1.355  11.695  0.8596  2.8482 -2.8222
 4504SOL    HW225149   0.142   1.298  11.643  1.7097  0.8783 -0.5030
 4505SOL     OW25150   1.956   3.036   3.728  0.3936 -0.6458 -0.4132
 4505SOL    HW125151   2.019   3.006   3.794  1.8974  0.6994 -1.2433
 4505SOL    HW225152   1.871   3.012   3.763 -0.3507  2.2796 -0.2494
 4506SOL     OW25153   1.405   3.710  11.931 -0.0201 -0.0418 -0.0471
 4506SOL    HW125154   1.373   3.670  12.012  1.5682  2.2827  1.7213
 4506SOL    HW225155   1.359   3.662  11.862  0.6256  0.1770 -0.6376
 4507SOL     OW25156   1.978   3.868   4.567  0.3151  0.0097 -0.2335
 4507SOL    HW125157   2.062   3.825   4.585  1.1481  1.2980 -0.9825
 4507SOL    HW225158   1.967   3.913   4.651  1.1235  1.5252 -0.9280
 4508SOL     OW25159   2.466   2.216   2.589 -0.2240 -0.4327  0.1763
 4508SOL    HW125160   2.423   2.244   2.670 -1.8981 -0.3511 -0.7433
 4508SOL    HW225161   2.533   2.285   2.595  0.4686 -1.0680 -0.3033
 4509SOL     OW25162   1.252   2.368  10.497 -0.2169  0.4412  0.6019
 4509SOL    HW125163   1.321   2.403  10.553  0.7639 -1.9274  0.8796
 4509SOL    HW225164   1.278   2.413  10.417 -0.3548  2.8846  1.9573
 4510SOL     OW25165   0.267   2.774   1.162  0.0962  0.1473 -0.4650
 4510SOL    HW125166   0.239   2.835   1.094 -0.9100  0.4200  0.1832
 4510SOL    HW225167   0.180   2.755   1.198  1.3925 -0.1622  2.4904
 4511SOL     OW25168   0.274   2.023  13.402 -0.2076 -0.4038 -0.2552
 4511SOL    HW125169   0.206   1.984  13.347 -0.1770 -1.1208  0.2190
 4511SOL    HW225170   0.313   2.080  13.336  0.4593 -2.6783 -1.8089
 4512SOL     OW25171   4.583   0.376   4.215  0.5667 -0.4974 -0.1627
 4512SOL    HW125172   4.563   0.299   4.161 -0.5954  0.5340 -1.2277
 4512SOL    HW225173   4.649   0.421   4.163  1.3519 -0.7285  0.6526
 4513SOL     OW25174   3.271   3.661  12.140 -0.5218  0.0565 -0.8765
 4513SOL    HW125175   3.261   3.713  12.060 -2.9934  0.5578 -0.2273
 4513SOL    HW225176   3.339   3.712  12.185 -0.8750 -0.8798  0.7200
 4514SOL     OW25177   0.183   0.719   8.414  0.3482 -0.6359 -0.3644
 4514SOL    HW125178   0.198   0.809   8.444  1.7389 -1.1803  0.5665
 4514SOL    HW225179   0.271   0.700   8.384  0.3914 -0.0945 -0.5656
 4515SOL     OW25180   4.133   3.193   3.939 -0.2679 -0.0003 -0.0412
 4515SOL    HW125181   4.077   3.120   3.912 -0.1200 -0.6905  1.5086
 4515SOL    HW225182   4.199   3.158   3.999  1.7420  0.1569 -2.1862
 4516SOL     OW25183   3.916   1.359   8.894 -0.1033 -0.4277  0.2163
 4516SOL    HW125184   3.904   1.328   8.984 -1.4523  0.3903  0.3259
 4516SOL    HW225185   3.969   1.439   8.902 -0.3725 -0.2548  0.2698
 4517SOL     OW25186   0.926   0.133   8.055  0.0131 -0.2811 -0.3989
 4517SOL    HW125187   0.949   0.225   8.047 -1.4010  0.1283  0.3339
 4517SOL    HW225188   0.831   0.144   8.056 -0.1409 -1.7424  0.6151
 4518SOL     OW25189   3.944   0.501   4.642  0.2401 -0.1825  0.0424
 4518SOL    HW125190   4.002   0.463   4.576  0.6393  0.4205  0.0406
 4518SOL    HW225191   3.908   0.574   4.591  2.6542  0.7322 -0.3382
 4519SOL     OW25192   0.717   3.340   5.109  0.3017 -0.4669 -0.0420
 4519SOL    HW125193   0.696   3.421   5.062  1.6751  0.5272  1.0387
 4519SOL    HW225194   0.724   3.380   5.196  1.3817 -2.7117  0.9155
 4520SOL     OW25195   3.252   1.605   4.563  0.0361 -0.1678 -0.0667
 4520SOL    HW125196   3.180   1.590   4.623 -0.6983  1.2805 -0.5872
 4520SOL    HW225197   3.212   1.572   4.483  0.1615  0.7822 -0.5292
 4521SOL     OW25198   1.130   3.567   6.759  0.5370 -0.0443 -0.2148
 4521SOL    HW125199   1.140   3.589   6.852  2.8483 -1.6064 -0.0784
 4521SOL    HW225200   1.176   3.484   6.743 -0.9263 -1.1294  1.1610
 4522SOL     OW25201   0.357   1.416   3.786  0.1974  0.0383 -0.3345
 4522SOL    HW125202   0.276   1.444   3.743  0.2287  1.5902  0.6015
 4522SOL    HW225203   0.341   1.447   3.875 -1.0200 -0.9368 -0.2214
 4523SOL     OW25204   0.408   3.186   6.623  0.4113 -0.5036 -0.4265
 4523SOL    HW125205   0.493   3.147   6.642  0.2341  0.3083  2.0909
 4523SOL    HW225206   0.387   3.200   6.715 -1.1627 -1.7734 -0.5908
 4524SOL     OW25207   2.190   2.911   2.871 -0.1355 -0.3104 -0.4788
 4524SOL    HW125208   2.254   2.870   2.812 -3.3554 -3.3743 -1.8157
 4524SOL    HW225209   2.114   2.856   2.854  0.5475 -1.6848  0.8805
 4525SOL     OW25210   3.713   0.420  15.630 -0.0732  0.1282 -0.8132
 4525SOL    HW125211   3.748   0.381  15.710 -0.4227  1.3461 -0.0765
 4525SOL    HW225212   3.711   0.340  15.578  1.9725 -1.4332  1.4931
 4526SOL     OW25213   0.481   1.183  13.343 -0.0879  0.0660  0.5664
 4526SOL    HW125214   0.451   1.229  13.265 -0.4551 -0.7732  0.2139
 4526SOL    HW225215   0.480   1.091  13.319 -1.2341 -0.3088  2.0385
 4527SOL     OW25216   1.553   3.369  15.793  0.5373 -0.3613  0.0548
 4527SOL    HW125217   1.568   3.369  15.699  1.2715  0.5423  0.1695
 4527SOL    HW225218   1.629   3.418  15.824 -0.7821  2.3985 -1.1611
 4528SOL     OW25219   0.077   0.658   4.277 -0.1690 -0.2994  0.2990
 4528SOL    HW125220   0.157   0.707   4.300 -0.6173  1.2075 -1.3448
 4528SOL    HW225221   0.019   0.714   4.329  0.2444 -0.0708  0.5156
 4529SOL     OW25222   4.006   4.144   4.733  0.3842 -0.4127  0.2584
 4529SOL    HW125223   3.963   4.067   4.771  1.0406  0.1162  2.0676
 4529SOL    HW225224   4.001   4.112   4.643 -1.3929 -0.7699  0.4735
 4530SOL     OW25225   4.290   0.708   2.763 -0.1115  0.4214  0.3402
 4530SOL    HW125226   4.321   0.656   2.689 -0.1368  0.2667  0.4400
 4530SOL    HW225227   4.200   0.734   2.742  0.1073  0.0573 -1.0493
 4531SOL     OW25228   1.729   1.800   3.272  0.0496 -0.4065  0.3772
 4531SOL    HW125229   1.720   1.892   3.294  0.9888 -0.2422  0.0630
 4531SOL    HW225230   1.794   1.775   3.338 -0.1439  2.2818  1.5770
 4532SOL     OW25231   0.984   1.886   1.199  0.3255 -0.0359 -0.2062
 4532SOL    HW125232   0.961   1.796   1.223 -0.8349 -0.1857 -1.8788
 4532SOL    HW225233   0.895   1.921   1.197  1.2357  2.3411 -0.0349
 4533SOL     OW25234   0.836   3.974   6.198  0.1834 -0.0986  0.2983
 4533SOL    HW125235   0.912   4.025   6.227 -0.7576  0.9917  0.8202
 4533SOL    HW225236   0.881   3.890   6.214  0.7356  0.2547  0.6054
 4534SOL     OW25237   3.552   0.849   1.035 -0.6226  0.3800  0.3358
 4534SOL    HW125238   3.543   0.930   1.084 -0.1329  0.6831 -0.0650
 4534SOL    HW225239   3.483   0.850   0.968  0.2961  0.6876 -0.6146
 4535SOL     OW25240   3.978   4.670   3.207  0.2044  1.0100 -1.1988
 4535SOL    HW125241   3.902   4.636   3.160  0.6284 -2.7942  0.8684
 4535SOL    HW225242   3.995   4.598   3.268 -0.8104  1.7261 -0.0767
 4536SOL     OW25243   2.618   0.612   3.447  0.0222 -0.2665  0.3236
 4536SOL    HW125244   2.544   0.669   3.423 -0.0254 -0.6441 -0.4325
 4536SOL    HW225245   2.593   0.525   3.415  1.0652 -0.1202 -0.8813
 4537SOL     OW25246   0.313   2.335   3.946  0.2547  0.0359  0.1515
 4537SOL    HW125247   0.326   2.429   3.943  1.0226 -0.1158 -1.1065
 4537SOL    HW225248   0.344   2.316   3.857 -1.9033 -0.2894 -0.5249
 4538SOL     OW25249   1.712   1.690  15.168 -0.1583  0.3296  0.3563
 4538SOL    HW125250   1.630   1.739  15.164 -0.4174 -0.0318  1.1697
 4538SOL    HW225251   1.775   1.756  15.140 -0.0006 -0.4360 -1.0850
 4539SOL     OW25252   0.558   4.314   9.342  0.0381  0.1842 -0.0153
 4539SOL    HW125253   0.629   4.250   9.340  0.8595  1.1643 -2.0552
 4539SOL    HW225254   0.513   4.275   9.417  1.1776  0.8530  1.0247
 4540SOL     OW25255   3.958   2.050   2.358 -0.3595 -0.2822  0.4851
 4540SOL    HW125256   4.004   2.105   2.421 -0.7668  1.5995 -0.8698
 4540SOL    HW225257   4.008   1.969   2.347  0.6956  0.3784  0.4368
 4541SOL     OW25258   0.360   1.419   0.672 -0.8069 -0.1129 -0.6680
 4541SOL    HW125259   0.422   1.378   0.611  0.4768 -0.5361  0.9195
 4541SOL    HW225260   0.347   1.500   0.623 -0.5222  0.1276 -0.3452
 4542SOL     OW25261   1.777   0.298   6.605  0.7269  0.7068 -0.3969
 4542SOL    HW125262   1.867   0.324   6.586  1.7327 -2.5451 -0.0729
 4542SOL    HW225263   1.788   0.276   6.698  1.2473 -0.8511 -0.8247
 4543SOL     OW25264   2.350   2.307   3.060 -0.4474  0.1214 -0.2212
 4543SOL    HW125265   2.445   2.308   3.071 -0.3924 -1.0030 -0.6287
 4543SOL    HW225266   2.327   2.301   3.153  0.1391 -0.6251 -0.1291
 4544SOL     OW25267   3.875   0.251   5.829 -0.2360 -0.8903 -0.0968
 4544SOL    HW125268   3.886   0.242   5.734  0.2159  2.3854 -0.3543
 4544SOL    HW225269   3.789   0.213   5.848 -0.3189 -0.1626  0.9437
 4545SOL     OW25270   3.227   4.667   2.035  0.2920  0.3170 -0.4346
 4545SOL    HW125271   3.134   4.670   2.011  0.4077  1.1835 -0.7695
 4545SOL    HW225272   3.225   4.598   2.101  0.1756  1.0664  0.3386
 4546SOL     OW25273   3.561   0.047   8.948 -0.4089  0.2473 -0.0256
 4546SOL    HW125274   3.489   0.109   8.960 -0.1689  0.6337 -0.6056
 4546SOL    HW225275   3.592   0.028   9.036  2.4133  1.0114 -0.8798
 4547SOL     OW25276   3.037   3.397   2.422 -0.1310  0.5430  0.4491
 4547SOL    HW125277   3.113   3.437   2.464  0.4461  0.0401 -0.1209
 4547SOL    HW225278   3.051   3.402   2.327 -0.8217  1.1698  0.3739
 4548SOL     OW25279   1.115   3.158   6.555 -0.3057  0.1831  0.2469
 4548SOL    HW125280   1.147   3.154   6.465  0.2980 -2.2408  0.5704
 4548SOL    HW225281   1.027   3.181   6.525 -0.8143 -0.3527  1.3310
 4549SOL     OW25282   3.574   2.501   2.356 -0.1613 -0.5275 -0.9683
 4549SOL    HW125283   3.630   2.556   2.302  0.6370 -1.0535 -0.6661
 4549SOL    HW225284   3.532   2.561   2.418 -0.5018 -1.1307 -0.6070
 4550SOL     OW25285   3.928   0.613   3.242  0.4752  0.2093 -0.0820
 4550SOL    HW125286   3.867   0.565   3.185  1.5867  0.7580 -1.7390
 4550SOL    HW225287   4.016   0.586   3.217  0.0447 -0.5169 -0.7875
 4551SOL     OW25288   4.313   0.498   6.663  0.3474 -0.4180 -0.9046
 4551SOL    HW125289   4.239   0.543   6.705 -1.4993 -3.4253 -0.9062
 4551SOL    HW225290   4.283   0.459   6.581 -0.1952 -2.1580  0.1127
 4552SOL     OW25291   3.162   3.785  10.043 -0.3869  0.5854 -0.4770
 4552SOL    HW125292   3.115   3.827   9.971 -1.5803  1.7504  0.9930
 4552SOL    HW225293   3.133   3.693  10.041 -1.5696  0.9372  0.7217
 4553SOL     OW25294   1.011   2.408  17.401 -0.6229  0.6401 -0.0192
 4553SOL    HW125295   1.045   2.377  17.317  2.4026  1.6606  0.8387
 4553SOL    HW225296   0.991   2.498  17.377 -1.0997 -0.0762 -2.3189
 4554SOL     OW25297   0.437   4.463   3.595 -0.2965  0.0956  0.6681
 4554SOL    HW125298   0.519   4.415   3.582  0.3904  1.1872  0.9497
 4554SOL    HW225299   0.420   4.446   3.687  0.0835 -1.7216  0.4093
 4555SOL     OW25300   1.651   2.817   4.563  0.4074 -0.6473 -0.0086
 4555SOL    HW125301   1.594   2.799   4.488  0.1128  0.8781 -0.1370
 4555SOL    HW225302   1.655   2.735   4.612 -1.6120 -0.3906  0.5967
 4556SOL     OW25303   2.597   3.369  15.422  0.2188  0.4875  0.0936
 4556SOL    HW125304   2.652   3.437  15.382  1.3603  0.2313  1.2521
 4556SOL    HW225305   2.614   3.292  15.368  0.7651  2.1736 -2.1342
 4557SOL     OW25306   0.381   2.172  12.928  0.5571 -0.3299  0.1939
 4557SOL    HW125307   0.357   2.263  12.915  1.6663  0.3029  2.6930
 4557SOL    HW225308   0.430   2.142  12.851 -0.6665  0.4893 -0.9139
 4558SOL     OW25309   3.386   3.993   1.061  0.1413  0.0752  0.1515
 4558SOL    HW125310   3.330   3.964   1.133  1.0520  0.9062  1.1925
 4558SOL    HW225311   3.408   4.075   1.105  2.0058 -0.2893 -0.0932
 4559SOL     OW25312   1.589   2.540   6.898  0.3643 -0.1913  0.0527
 4559SOL    HW125313   1.611   2.575   6.984  0.5304  0.0933 -0.1053
 4559SOL    HW225314   1.505   2.581   6.878  0.2894  0.2070  1.2009
 4560SOL     OW25315   3.607   2.921  15.748 -0.1519 -0.2824 -0.0283
 4560SOL    HW125316   3.575   2.844  15.795 -0.2094 -0.9277 -1.1395
 4560SOL    HW225317   3.570   2.892  15.665 -0.7712 -3.8412  1.4614
 4561SOL     OW25318   3.893   4.207   2.865 -0.3907 -0.0549  0.5094
 4561SOL    HW125319   3.906   4.128   2.918 -2.7412 -0.0643  1.1131
 4561SOL    HW225320   3.880   4.160   2.783 -0.1372  0.8657 -0.0546
 4562SOL     OW25321   3.929   1.300   9.425  0.1355  0.1300 -0.2798
 4562SOL    HW125322   3.918   1.364   9.495  0.5862 -0.2962  0.1884
 4562SOL    HW225323   3.993   1.239   9.464 -0.8881  0.0582  1.2649
 4563SOL     OW25324   3.401   1.071   7.734 -0.2061  0.6159 -0.6943
 4563SOL    HW125325   3.421   1.096   7.644 -1.4242 -0.4837 -1.2660
 4563SOL    HW225326   3.404   1.155   7.779  1.5465 -1.6830  3.5396
 4564SOL     OW25327   2.301   3.198   5.611 -0.0914  0.2953 -0.2145
 4564SOL    HW125328   2.270   3.118   5.568 -0.1965  0.1298  0.1683
 4564SOL    HW225329   2.286   3.264   5.542 -1.6203  1.6812  1.4459
 4565SOL     OW25330   3.278   0.207   7.957  0.6343  0.6265  0.4843
 4565SOL    HW125331   3.224   0.187   7.881  0.0846  0.9785  0.7831
 4565SOL    HW225332   3.254   0.299   7.971 -2.1923  0.3735 -2.8409
 4566SOL     OW25333   0.861   1.816  17.236  0.5134 -0.1958  0.4485
 4566SOL    HW125334   0.823   1.795  17.151  2.3268  2.2620 -0.9785
 4566SOL    HW225335   0.882   1.729  17.271 -0.5181 -0.7523 -0.2974
 4567SOL     OW25336   0.089   0.429   5.336 -0.3341  0.7404 -0.0240
 4567SOL    HW125337   0.173   0.471   5.352  0.2019  0.6381 -2.5818
 4567SOL    HW225338   0.030   0.504   5.338  0.7377  1.5586  0.8011
 4568SOL     OW25339   2.868   0.159   6.158 -0.4420  0.1244  0.1289
 4568SOL    HW125340   2.790   0.115   6.193 -1.1968  1.1193 -0.2697
 4568SOL    HW225341   2.842   0.178   6.068 -1.7369  0.0936  0.4903
 4569SOL     OW25342   1.193   0.702   5.668 -0.1882 -0.2016  0.6508
 4569SOL    HW125343   1.209   0.755   5.589 -1.1551  0.4618  0.9081
 4569SOL    HW225344   1.282   0.700   5.703  0.2224 -0.1601 -0.3831
 4570SOL     OW25345   1.738   3.720   7.229 -0.4923  0.6961 -0.4906
 4570SOL    HW125346   1.666   3.777   7.201 -1.9678  0.3572  2.6048
 4570SOL    HW225347   1.772   3.693   7.144  0.2204 -0.9293  0.3163
 4571SOL     OW25348   3.115   3.907   1.573 -0.7283  0.0452  0.4186
 4571SOL    HW125349   3.125   3.892   1.667 -2.3850 -0.2518  0.5438
 4571SOL    HW225350   3.169   3.837   1.537 -0.0641  1.3885 -1.1543
 4572SOL     OW25351   2.283   0.306   7.771 -0.1442  0.5432 -0.4386
 4572SOL    HW125352   2.373   0.273   7.763  0.1426  1.7418 -2.1356
 4572SOL    HW225353   2.253   0.277   7.685  2.2785 -3.2280 -0.0442
 4573SOL     OW25354   1.185   2.351   8.851 -0.5237  0.2922  1.0715
 4573SOL    HW125355   1.118   2.332   8.785  0.1726  1.5515  0.0154
 4573SOL    HW225356   1.220   2.262   8.858  1.1837  0.8068 -1.0284
 4574SOL     OW25357   0.161   2.820  16.987 -0.4060 -0.2532 -0.3533
 4574SOL    HW125358   0.124   2.735  16.965 -1.9714 -0.6071  3.5824
 4574SOL    HW225359   0.086   2.873  16.962  0.8266  1.8979  0.5102
 4575SOL     OW25360   1.323   0.508   4.269  0.0667 -0.1196 -0.1019
 4575SOL    HW125361   1.364   0.567   4.206 -0.2462  0.8458  0.5954
 4575SOL    HW225362   1.280   0.446   4.211  1.6986 -1.3423 -0.0037
 4576SOL     OW25363   2.700   4.090  17.112 -0.3020  0.4411 -0.3595
 4576SOL    HW125364   2.657   4.076  17.028  0.1664 -2.1340 -0.1848
 4576SOL    HW225365   2.786   4.062  17.082  0.6515  1.4746  1.3618
 4577SOL     OW25366   1.128   0.964   5.889  0.0299  0.0733  0.4484
 4577SOL    HW125367   1.192   0.920   5.945  2.0455  1.3361 -0.8454
 4577SOL    HW225368   1.050   0.909   5.894  0.7959 -1.0354  0.0828
 4578SOL     OW25369   1.315   3.281   7.954 -0.1375  0.1582  0.2829
 4578SOL    HW125370   1.397   3.321   7.981 -0.0786  1.5715 -1.9234
 4578SOL    HW225371   1.338   3.189   7.967  1.2612  0.8726  2.7371
 4579SOL     OW25372   1.771   0.509   5.683 -0.4459 -0.4674  0.6764
 4579SOL    HW125373   1.734   0.450   5.618 -1.6785 -0.9005  1.7759
 4579SOL    HW225374   1.855   0.469   5.702 -0.5712 -1.8670 -1.7536
 4580SOL     OW25375   1.149   2.373  17.154  0.0403  0.4089 -0.1578
 4580SOL    HW125376   1.218   2.431  17.187  0.1595 -1.8533  3.5194
 4580SOL    HW225377   1.120   2.421  17.077  0.0628  0.5489 -0.0801
 4581SOL     OW25378   0.708   0.469  11.139 -0.4284  0.2627  0.1242
 4581SOL    HW125379   0.682   0.551  11.098 -0.7347 -0.0071 -0.2174
 4581SOL    HW225380   0.801   0.466  11.116  0.0072  0.8178  1.8381
 4582SOL     OW25381   4.627   3.119   7.408  0.2636  0.0525  0.4633
 4582SOL    HW125382   4.675   3.148   7.330 -3.0514  1.6838 -0.9404
 4582SOL    HW225383   4.583   3.197   7.441  1.2916  0.4707  0.8666
 4583SOL     OW25384   1.211   3.897   2.948 -0.0547  0.2474  0.2308
 4583SOL    HW125385   1.233   3.805   2.961  2.8863  0.9083 -0.1897
 4583SOL    HW225386   1.160   3.909   3.029 -2.5142  0.1923 -1.2980
 4584SOL     OW25387   2.658   2.806  10.723 -0.5076 -0.3742  0.2716
 4584SOL    HW125388   2.566   2.821  10.744 -0.6598 -1.6545  0.5394
 4584SOL    HW225389   2.704   2.876  10.769  1.6218 -0.3201 -1.9238
 4585SOL     OW25390   3.023   0.458   4.991  0.0053  0.0936  0.5076
 4585SOL    HW125391   3.083   0.384   4.981 -0.0813  0.1224 -0.2073
 4585SOL    HW225392   3.043   0.500   4.908  0.2295  0.5681  0.8014
 4586SOL     OW25393   3.860   3.536   6.479  0.1729 -0.2144 -0.3459
 4586SOL    HW125394   3.851   3.477   6.554  0.5732 -1.7623 -1.5042
 4586SOL    HW225395   3.798   3.597   6.518  1.9244  0.6787  1.0883
 4587SOL     OW25396   1.136   0.648  17.047 -0.0731 -0.1007  0.3051
 4587SOL    HW125397   1.176   0.682  16.967  0.0158  1.0874  0.8538
 4587SOL    HW225398   1.192   0.577  17.078  1.9683  1.0767 -0.6666
 4588SOL     OW25399   2.247   1.629   9.011 -0.6461  0.5179 -0.3678
 4588SOL    HW125400   2.189   1.569   8.964 -1.2361 -1.0683  2.4168
 4588SOL    HW225401   2.224   1.712   8.969  2.2816  0.7650 -1.4967
 4589SOL     OW25402   1.115   1.376  16.956  0.0741  0.4019 -0.4935
 4589SOL    HW125403   1.104   1.287  16.922 -0.0514 -0.1882  1.0791
 4589SOL    HW225404   1.206   1.398  16.936 -0.2599  0.7939 -1.5560
 4590SOL     OW25405   4.447   3.499   4.913  0.2388  0.0144  0.2519
 4590SOL    HW125406   4.479   3.414   4.885 -3.6572 -0.6232 -2.3674
 4590SOL    HW225407   4.359   3.480   4.947 -0.5148 -2.1393 -2.8996
 4591SOL     OW25408   3.860   3.280   3.668 -0.1936  0.1956 -0.2655
 4591SOL    HW125409   3.945   3.261   3.629 -0.4042 -0.4036 -0.4220
 4591SOL    HW225410   3.803   3.284   3.592 -0.0546 -1.6282 -0.4507
 4592SOL     OW25411   0.018   3.488   2.644  0.3281  0.0643 -0.5840
 4592SOL    HW125412   0.018   3.410   2.700 -2.4042  2.2536  2.4419
 4592SOL    HW225413   0.087   3.466   2.581  0.5626  0.0580 -0.3285
 4593SOL     OW25414   0.791   4.735   2.888 -0.3420  0.1443  0.0532
 4593SOL    HW125415   0.822   4.681   2.816 -0.5644  0.6438 -0.4131
 4593SOL    HW225416   0.861   0.001   2.953  0.3933  2.0981 -0.9316
 4594SOL     OW25417   1.556   0.222   3.994 -0.6423  0.8287 -0.2319
 4594SOL    HW125418   1.571   0.182   3.908 -0.6554  1.2957 -0.4519
 4594SOL    HW225419   1.468   0.192   4.017 -0.2786 -1.8592 -2.3975
 4595SOL     OW25420   3.653   1.271  16.368 -0.1030 -0.6987 -0.0567
 4595SOL    HW125421   3.654   1.253  16.462  1.5817 -1.7961 -0.2837
 4595SOL    HW225422   3.682   1.187  16.334  2.7421  0.7427 -1.2467
 4596SOL     OW25423   1.283   3.427   8.577 -0.8075 -0.0650  0.5543
 4596SOL    HW125424   1.212   3.424   8.513  0.8747  0.4103 -1.3081
 4596SOL    HW225425   1.234   3.405   8.657  0.7767 -1.7530  1.0535
 4597SOL     OW25426   1.439   1.016   4.084  0.9074  0.3910 -0.2514
 4597SOL    HW125427   1.350   1.044   4.109  0.7082 -0.7339  0.3033
 4597SOL    HW225428   1.443   1.044   3.993 -1.9726  0.5388 -0.3630
 4598SOL     OW25429   1.333   3.911  13.777 -0.7574 -0.3318 -0.6515
 4598SOL    HW125430   1.297   3.932  13.863 -0.9998 -1.2573 -0.5179
 4598SOL    HW225431   1.310   3.992  13.732  0.1126 -0.2487 -0.9383
 4599SOL     OW25432   1.969   1.612   2.263  0.6488  0.2166  0.1047
 4599SOL    HW125433   2.048   1.662   2.244  0.9568 -0.8463 -1.3607
 4599SOL    HW225434   1.943   1.579   2.177  1.0136 -0.2789  0.1822
 4600SOL     OW25435   2.301   2.253   8.607  0.1234 -0.8718 -0.5797
 4600SOL    HW125436   2.323   2.298   8.689 -3.0513  0.2073 -0.2900
 4600SOL    HW225437   2.365   2.295   8.549 -0.8691  0.9000 -0.3925
 4601SOL     OW25438   2.623   0.544   5.949  0.3151 -0.0935  0.1306
 4601SOL    HW125439   2.691   0.496   5.902 -0.3580 -1.9234  1.0430
 4601SOL    HW225440   2.573   0.470   5.983 -0.0177  0.5287  0.9888
 4602SOL     OW25441   3.090   4.332   7.807  0.0681 -0.3198  0.5651
 4602SOL    HW125442   3.170   4.366   7.848  1.7797 -1.7593 -1.6020
 4602SOL    HW225443   3.096   4.377   7.723  1.9184 -0.7102  0.4916
 4603SOL     OW25444   0.095   0.152   7.349 -0.2438  0.2207  0.1300
 4603SOL    HW125445   0.023   0.185   7.296 -1.0570 -0.2084  0.9779
 4603SOL    HW225446   0.056   0.117   7.429  0.9252 -1.3445  0.0151
 4604SOL     OW25447   3.778   4.459   7.976 -0.7073 -0.2940  0.0226
 4604SOL    HW125448   3.735   4.431   8.057 -1.7727  0.5751 -0.2475
 4604SOL    HW225449   3.795   4.551   7.996 -1.5818 -0.4923  1.6600
 4605SOL     OW25450   1.775   0.566   1.951  0.5532 -0.5979 -0.2139
 4605SOL    HW125451   1.744   0.650   1.917  0.3683  0.7796  3.3094
 4605SOL    HW225452   1.870   0.569   1.958  0.4752 -0.0361  0.6084
 4606SOL     OW25453   3.142   2.707   6.240 -0.4449  0.0097  0.0163
 4606SOL    HW125454   3.163   2.767   6.169  1.6336  0.0694  0.6669
 4606SOL    HW225455   3.229   2.677   6.266 -0.3915  0.9894  0.9610
 4607SOL     OW25456   0.057   4.355  11.333  0.0397 -0.0957  0.4270
 4607SOL    HW125457   0.010   4.428  11.372 -2.0501 -1.4138  0.3614
 4607SOL    HW225458   0.134   4.399  11.297 -0.7931  0.9485 -0.0820
 4608SOL     OW25459   4.293   0.754  10.205 -0.0608  0.1821  0.4059
 4608SOL    HW125460   4.278   0.669  10.164 -2.0436  0.5238  0.4094
 4608SOL    HW225461   4.297   0.812  10.129  1.8361 -0.0904  0.2945
 4609SOL     OW25462   0.190   1.550   5.620 -0.3104  0.1858  0.1769
 4609SOL    HW125463   0.260   1.601   5.661  0.4494  2.1572 -3.5533
 4609SOL    HW225464   0.190   1.587   5.532 -0.2147  0.9420  0.4939
 4610SOL     OW25465   2.158   2.605   8.526  0.0076 -0.2754  0.8970
 4610SOL    HW125466   2.251   2.584   8.515  0.2136  0.3320  1.4869
 4610SOL    HW225467   2.148   2.691   8.485  0.5091 -1.1310 -1.0096
 4611SOL     OW25468   4.526   1.202   1.532 -0.1998 -0.0111 -0.0113
 4611SOL    HW125469   4.618   1.180   1.520 -0.4473 -1.0155 -0.0823
 4611SOL    HW225470   4.497   1.111   1.536  1.8580 -0.7182 -1.9507
 4612SOL     OW25471   0.412   0.165  14.342 -0.0266 -0.5742 -0.3139
 4612SOL    HW125472   0.378   0.105  14.276 -0.0355 -0.5308 -0.3492
 4612SOL    HW225473   0.360   0.141  14.418 -0.7283  0.8716 -0.3423
 4613SOL     OW25474   4.407   2.995   3.835  0.2315  0.5028  0.1457
 4613SOL    HW125475   4.480   3.053   3.856  2.7179 -2.1390 -1.1740
 4613SOL    HW225476   4.354   3.015   3.912 -0.6841  0.8895 -0.5952
 4614SOL     OW25477   1.431   3.970   5.106  0.0719  0.6463  0.9424
 4614SOL    HW125478   1.465   3.923   5.030 -1.3695  0.3739  0.4720
 4614SOL    HW225479   1.489   3.946   5.179  0.0086  0.2249  0.8523
 4615SOL     OW25480   0.859   3.489   6.380 -0.2342  0.3464 -0.4004
 4615SOL    HW125481   0.911   3.423   6.425 -0.8691 -0.1305 -0.3678
 4615SOL    HW225482   0.775   3.445   6.366  0.6801 -0.2201 -4.3029
 4616SOL     OW25483   1.841   0.980  10.006 -0.1440  0.1725  0.7039
 4616SOL    HW125484   1.906   0.917   9.975 -0.7488 -0.6756  1.1745
 4616SOL    HW225485   1.793   0.937  10.076  2.6737 -3.2545  0.5426
 4617SOL     OW25486   3.572   1.716   4.166  0.0499 -0.5095  0.3681
 4617SOL    HW125487   3.647   1.774   4.178 -1.2950  1.2080  0.5836
 4617SOL    HW225488   3.503   1.773   4.200  0.3270 -1.0712  1.8382
 4618SOL     OW25489   1.531   3.753  16.581  0.2306  0.0638 -0.0495
 4618SOL    HW125490   1.508   3.802  16.502 -2.4886 -1.3617 -0.1481
 4618SOL    HW225491   1.448   3.711  16.604 -0.7092  0.6862 -2.2258
 4619SOL     OW25492   2.308   0.272  13.908  0.0015  0.0710  0.6214
 4619SOL    HW125493   2.332   0.364  13.896  3.0093 -0.5691  1.5432
 4619SOL    HW225494   2.215   0.283  13.891  0.3294  2.3923  0.3800
 4620SOL     OW25495   3.070   3.198   6.511  0.2469 -0.3905  0.2466
 4620SOL    HW125496   3.086   3.180   6.604  1.1665 -2.0688 -0.2532
 4620SOL    HW225497   2.992   3.142   6.508 -0.2527  0.3706 -1.0568
 4621SOL     OW25498   0.081   0.947   2.248 -0.5117 -0.3683  0.4168
 4621SOL    HW125499   4.730   0.922   2.265 -0.8622  0.9814  0.4836
 4621SOL    HW225500   0.124   0.905   2.323 -0.2644  1.2357  1.1532
 4622SOL     OW25501   0.395   4.151   5.109 -0.2423 -0.6224  0.0467
 4622SOL    HW125502   0.412   4.227   5.166  2.1538  0.7469 -2.5069
 4622SOL    HW225503   0.419   4.177   5.021 -0.5641 -0.5566 -0.0242
 4623SOL     OW25504   4.455   4.166   9.232 -0.0603 -0.1592  0.3960
 4623SOL    HW125505   4.447   4.210   9.147  0.2756  1.5142  1.2237
 4623SOL    HW225506   4.394   4.223   9.280 -0.1501  0.1923 -0.1307
 4624SOL     OW25507   1.505   2.134  15.248  0.2906 -0.3486  0.3985
 4624SOL    HW125508   1.445   2.144  15.174  1.2036  0.2555 -0.2712
 4624SOL    HW225509   1.450   2.154  15.323 -0.2737  0.2090 -0.1617
 4625SOL     OW25510   0.568   3.307   9.734 -0.2593  0.4999 -0.1341
 4625SOL    HW125511   0.632   3.350   9.792 -0.7215  0.4739  0.3978
 4625SOL    HW225512   0.629   3.281   9.665  0.4517  2.0205 -0.1012
 4626SOL     OW25513   0.439   4.079   2.070 -0.0406  0.0110  0.6219
 4626SOL    HW125514   0.450   4.119   1.983 -0.1704  2.2069  1.6202
 4626SOL    HW225515   0.527   4.054   2.098 -0.0772 -0.8172 -0.0082
 4627SOL     OW25516   3.297   2.632   9.307  0.3731 -0.3351  0.0725
 4627SOL    HW125517   3.328   2.712   9.264  1.5818 -2.1067 -2.3450
 4627SOL    HW225518   3.333   2.640   9.396  1.8909  1.8403 -0.7254
 4628SOL     OW25519   4.654   3.422   7.880  0.3040 -0.5524  0.2568
 4628SOL    HW125520   4.590   3.367   7.925  2.7347 -2.0783  1.8320
 4628SOL    HW225521   4.726   3.447   7.939  2.7620 -0.0651 -2.9531
 4629SOL     OW25522   3.933   4.223   8.254 -0.4378  0.1065 -0.1329
 4629SOL    HW125523   4.001   4.274   8.297  0.4333 -1.4888  0.3905
 4629SOL    HW225524   3.853   4.254   8.297 -1.5408 -0.4549 -1.7467
 4630SOL     OW25525   2.818   1.458   4.300 -0.3686  0.3032  0.1453
 4630SOL    HW125526   2.784   1.510   4.372  0.2190  2.0898 -0.8613
 4630SOL    HW225527   2.766   1.503   4.233  0.0651  0.3162 -0.1834
 4631SOL     OW25528   1.473   2.930   4.893  0.2376 -0.4624 -0.4242
 4631SOL    HW125529   1.414   2.900   4.962  1.2909  0.1993  0.7699
 4631SOL    HW225530   1.412   2.940   4.820  1.0346  3.0537 -0.6143
 4632SOL     OW25531   4.078   3.475  16.155 -0.9472 -0.1259 -0.5462
 4632SOL    HW125532   4.053   3.408  16.219  1.8976 -1.6727 -1.0837
 4632SOL    HW225533   4.027   3.442  16.081 -0.5700 -1.4726 -0.2066
 4633SOL     OW25534   1.844   1.434   8.553  0.2705  0.3692  0.3797
 4633SOL    HW125535   1.864   1.409   8.644  1.1090  0.1331  0.1379
 4633SOL    HW225536   1.918   1.387   8.512  0.5285  1.8355 -0.8232
 4634SOL     OW25537   4.465   2.412  17.136 -0.4193 -0.2546 -0.0490
 4634SOL    HW125538   4.534   2.397  17.200  0.6572 -0.3896 -1.2305
 4634SOL    HW225539   4.498   2.483  17.080  0.9157 -1.6017 -0.9734
 4635SOL     OW25540   4.645   3.051   3.188 -0.1568 -0.0145 -0.4647
 4635SOL    HW125541   4.738   3.027   3.190  0.0235  0.7760  0.5653
 4635SOL    HW225542   4.636   3.114   3.260  0.6276 -0.0061 -0.3695
 4636SOL     OW25543   4.661   2.529   8.826 -0.3062 -0.7299 -0.2859
 4636SOL    HW125544   4.571   2.495   8.829 -0.7785  0.4437 -1.5340
 4636SOL    HW225545   4.638   2.602   8.769 -0.4210 -0.5486 -0.0075
 4637SOL     OW25546   3.915   2.721   6.890 -0.1037 -0.5883 -0.1569
 4637SOL    HW125547   3.865   2.791   6.931  1.0718  0.3353 -0.2999
 4637SOL    HW225548   3.861   2.646   6.915  0.1479 -1.0464 -0.9601
 4638SOL     OW25549   1.531   0.937   7.112  0.3100  0.6075  0.0162
 4638SOL    HW125550   1.541   1.032   7.112 -0.1166  0.6514 -0.7532
 4638SOL    HW225551   1.563   0.917   7.200  1.5096  1.2507 -0.2708
 4639SOL     OW25552   4.690   4.689   2.546  0.1963  0.2369  0.4769
 4639SOL    HW125553   4.631   4.626   2.588  0.2350 -0.6425 -0.7809
 4639SOL    HW225554   4.650   0.031   2.574 -0.4901  0.5401 -1.3535
 4640SOL     OW25555   4.143   4.220   7.619  0.0669  0.1086  0.3616
 4640SOL    HW125556   4.096   4.165   7.682  2.6129 -0.5720  1.6828
 4640SOL    HW225557   4.215   4.157   7.608 -0.4960 -0.1199 -2.0608
 4641SOL     OW25558   0.461   3.284   3.569 -0.3219 -0.1816 -0.2436
 4641SOL    HW125559   0.443   3.336   3.490  0.3882  0.0260 -0.2642
 4641SOL    HW225560   0.449   3.352   3.635 -0.0303 -0.2002 -0.1742
 4642SOL     OW25561   2.165   2.263   8.273  0.5221  0.0403  0.1817
 4642SOL    HW125562   2.241   2.305   8.313  2.0478 -0.2834 -2.3497
 4642SOL    HW225563   2.164   2.322   8.197  0.0114 -2.4170 -1.7242
 4643SOL     OW25564   1.227   2.405   4.835  0.8028  0.4407 -0.1249
 4643SOL    HW125565   1.178   2.330   4.869  1.5310  0.8918  1.9256
 4643SOL    HW225566   1.315   2.391   4.870  1.0962 -3.4485 -2.3972
 4644SOL     OW25567   1.075   2.264   8.409  0.5749 -0.3499 -0.3326
 4644SOL    HW125568   1.070   2.353   8.373 -3.9232 -0.3870  0.1429
 4644SOL    HW225569   1.164   2.257   8.441  0.7802  0.9609 -0.6120
 4645SOL     OW25570   4.364   0.710   7.637  0.4646  0.4703  0.3320
 4645SOL    HW125571   4.296   0.683   7.699  1.0072  1.2246  1.2598
 4645SOL    HW225572   4.340   0.800   7.619 -0.9865 -0.1281 -0.7001
 4646SOL     OW25573   3.545   1.306   7.873  0.3159  0.6244  0.7715
 4646SOL    HW125574   3.607   1.268   7.935 -2.1239 -1.2812  2.0318
 4646SOL    HW225575   3.587   1.391   7.862  0.0173  0.6312 -0.2758
 4647SOL     OW25576   4.692   2.942   5.664 -0.2284 -0.3458 -0.0428
 4647SOL    HW125577   4.718   2.948   5.756 -1.2752  0.8979  0.1683
 4647SOL    HW225578   4.714   3.030   5.635  1.9286 -2.2864 -4.2002
 4648SOL     OW25579   3.210   3.010   4.517  0.2128 -0.2213 -0.1481
 4648SOL    HW125580   3.240   2.961   4.593 -0.8186 -0.9223 -0.2027
 4648SOL    HW225581   3.160   3.083   4.553  0.8956  0.5065 -0.6545
 4649SOL     OW25582   2.121   3.462   3.348 -0.0623 -0.4498  0.1769
 4649SOL    HW125583   2.078   3.450   3.433  0.2324  2.6331  0.7748
 4649SOL    HW225584   2.098   3.377   3.310 -1.1448 -0.5019  0.9493
 4650SOL     OW25585   3.368   0.951  10.323  0.3939 -0.0995  0.4129
 4650SOL    HW125586   3.323   0.989  10.247  0.6869 -0.9873 -0.2069
 4650SOL    HW225587   3.337   0.861  10.330  0.5391 -0.1571  0.3274
 4651SOL     OW25588   4.098   0.264   3.801 -0.5360 -0.1352 -0.1299
 4651SOL    HW125589   4.188   0.233   3.803 -0.0026  1.4789  1.0782
 4651SOL    HW225590   4.110   0.359   3.802  1.6272 -0.4019 -0.1968
 4652SOL     OW25591   4.195   4.346   6.127  0.6064 -0.8845 -0.0303
 4652SOL    HW125592   4.138   4.405   6.078 -1.0337 -2.1950  0.3072
 4652SOL    HW225593   4.146   4.332   6.208  1.5345  2.5711  1.1758
 4653SOL     OW25594   1.550   3.064   8.796  0.2875  0.4317 -0.7586
 4653SOL    HW125595   1.639   3.036   8.820 -0.0158  0.6894  0.6467
 4653SOL    HW225596   1.537   3.042   8.704  2.0031  0.0886 -0.9262
 4654SOL     OW25597   2.511   2.211   9.625  0.0698  0.4749  0.2382
 4654SOL    HW125598   2.539   2.167   9.545  0.9249  0.1121  0.7366
 4654SOL    HW225599   2.421   2.178   9.633  0.1296 -0.5944 -3.4806
 4655SOL     OW25600   3.445   3.360   8.682 -0.1101 -0.4222  0.1108
 4655SOL    HW125601   3.381   3.380   8.750 -0.0806 -2.0240  0.5943
 4655SOL    HW225602   3.522   3.326   8.727 -0.3156 -2.7857 -1.3277
 4656SOL     OW25603   0.365   0.234   5.629  0.3427  0.0011  0.2404
 4656SOL    HW125604   0.356   0.156   5.684 -0.2769  0.3084  0.5763
 4656SOL    HW225605   0.457   0.259   5.639  0.4793 -0.6022  0.4794
 4657SOL     OW25606   3.699   0.299   8.042 -0.2228  0.2003 -0.2047
 4657SOL    HW125607   3.678   0.390   8.064 -0.8545 -0.0503  0.2527
 4657SOL    HW225608   3.758   0.315   7.969 -1.2441  0.1561 -1.0379
 4658SOL     OW25609   0.227   1.292  17.405  0.0220  0.5752 -0.3203
 4658SOL    HW125610   0.235   1.334  17.320  0.6720 -0.4666 -0.7740
 4658SOL    HW225611   0.294   1.225  17.392  0.0829  0.4691  0.4807
 4659SOL     OW25612   0.018   2.808   2.658  0.2419 -0.1378 -0.7335
 4659SOL    HW125613   4.667   2.798   2.685  0.4976  0.4262  0.3426
 4659SOL    HW225614   0.055   2.818   2.746 -2.1937 -1.4375  0.4587
 4660SOL     OW25615   1.363   4.306   4.743 -0.3179 -0.0439 -0.0343
 4660SOL    HW125616   1.271   4.332   4.744 -0.3273 -0.1799  4.3254
 4660SOL    HW225617   1.404   4.362   4.809  1.0492  1.9519 -2.5403
 4661SOL     OW25618   2.531   1.870   9.757  0.0661  0.8601  0.5102
 4661SOL    HW125619   2.501   1.874   9.666  0.1932 -2.1833  0.3106
 4661SOL    HW225620   2.598   1.938   9.755  0.0630  0.8190 -1.1856
 4662SOL     OW25621   0.483   2.911   2.811 -0.0194 -0.2459  0.1707
 4662SOL    HW125622   0.499   2.902   2.905 -0.8786  0.1543  0.3597
 4662SOL    HW225623   0.424   2.837   2.798  1.2080 -1.6570  2.6322
 4663SOL     OW25624   1.103   2.830   7.690  0.5375  0.4573 -0.4856
 4663SOL    HW125625   1.126   2.825   7.783  0.2405  0.9341 -0.3891
 4663SOL    HW225626   1.188   2.826   7.646  1.2905  2.9569  0.7509
 4664SOL     OW25627   1.822   1.601  12.168  0.1885  0.1592 -0.2963
 4664SOL    HW125628   1.755   1.536  12.148 -1.7674  2.0256  0.1102
 4664SOL    HW225629   1.893   1.561  12.118 -0.2351  0.4885 -1.1482
 4665SOL     OW25630   4.620   3.193   6.986  0.1836  0.3625 -0.6108
 4665SOL    HW125631   4.613   3.099   6.999 -1.4480  0.6786  0.8047
 4665SOL    HW225632   4.534   3.227   7.010 -1.1494 -2.2944 -1.7660
 4666SOL     OW25633   3.504   2.816  15.494  0.0421 -0.6014 -0.7962
 4666SOL    HW125634   3.595   2.790  15.476 -0.0305 -1.8630  0.6050
 4666SOL    HW225635   3.451   2.746  15.455 -1.4315 -0.5763  1.1861
 4667SOL     OW25636   3.293   2.643  13.183  0.0265 -0.4756  0.3139
 4667SOL    HW125637   3.216   2.657  13.237 -1.5484 -0.3187 -1.9524
 4667SOL    HW225638   3.256   2.661  13.096 -1.6980 -1.0733  0.9243
 4668SOL     OW25639   0.886   1.323   5.398 -0.5187  0.4743 -0.2748
 4668SOL    HW125640   0.887   1.356   5.488  0.6479 -0.3823  0.0204
 4668SOL    HW225641   0.940   1.385   5.349  0.2493  0.7610  0.9290
 4669SOL     OW25642   1.051   0.377  13.700 -0.2757 -0.3485  0.3752
 4669SOL    HW125643   1.059   0.295  13.650  1.7858 -0.1657  0.4441
 4669SOL    HW225644   1.038   0.349  13.790  1.9171 -0.6482  0.5759
 4670SOL     OW25645   3.569   0.436   6.116  0.3292 -0.0506  0.0334
 4670SOL    HW125646   3.603   0.469   6.033  0.4879  0.0601  0.1422
 4670SOL    HW225647   3.631   0.369   6.145  0.1858  1.2227  3.2429
 4671SOL     OW25648   3.040   0.920   6.895  0.4051 -0.2606 -0.5496
 4671SOL    HW125649   3.127   0.920   6.855  0.8548 -0.6285  0.4331
 4671SOL    HW225650   3.031   1.008   6.931 -1.3405 -0.9674  0.7532
 4672SOL     OW25651   2.309   2.869   2.007 -0.1889  0.8820  0.2161
 4672SOL    HW125652   2.221   2.898   2.030 -0.1376  0.6641  0.6669
 4672SOL    HW225653   2.294   2.829   1.921  1.1330 -0.9011  0.8283
 4673SOL     OW25654   3.241   3.891  12.868 -0.2830 -0.4769 -0.7444
 4673SOL    HW125655   3.257   3.980  12.835 -0.7490  0.2572  0.9980
 4673SOL    HW225656   3.152   3.895  12.903  0.4668 -1.8610  1.3225
 4674SOL     OW25657   2.544   4.151   3.626  0.0387  0.6368 -0.0098
 4674SOL    HW125658   2.583   4.088   3.687 -1.7156 -1.9667 -1.5317
 4674SOL    HW225659   2.478   4.186   3.685 -2.3014 -2.1359 -0.9764
 4675SOL     OW25660   1.746   3.726   7.609  0.2267  0.3921 -0.2341
 4675SOL    HW125661   1.692   3.689   7.538 -0.7829  2.8114 -0.7345
 4675SOL    HW225662   1.792   3.800   7.569 -0.7877  1.8047  1.2028
 4676SOL     OW25663   1.960   0.693  17.264 -0.6576  0.1625  0.2288
 4676SOL    HW125664   1.961   0.714  17.170 -0.9023 -0.8673 -0.0035
 4676SOL    HW225665   1.867   0.710  17.277 -0.4336 -0.1682  2.2249
 4677SOL     OW25666   0.145   0.416   8.177 -0.3898 -0.9497  0.1751
 4677SOL    HW125667   0.229   0.435   8.133 -0.7157  2.7357  1.0961
 4677SOL    HW225668   0.158   0.326   8.205 -1.9726 -1.6274 -1.2485
 4678SOL     OW25669   2.514   2.086   5.439 -0.0407  0.1247  0.3045
 4678SOL    HW125670   2.538   2.138   5.515 -0.6479  1.7539 -0.5943
 4678SOL    HW225671   2.471   2.009   5.478 -0.8429 -0.9163 -2.6260
 4679SOL     OW25672   3.391   3.054   3.893  0.9364  0.2918  0.1916
 4679SOL    HW125673   3.362   3.116   3.826 -1.6524 -0.6804  0.4003
 4679SOL    HW225674   3.325   3.077   3.958 -1.0632 -2.7979 -0.7264
 4680SOL     OW25675   0.331   1.405   3.469 -0.0317  0.4597 -0.2539
 4680SOL    HW125676   0.277   1.410   3.548  2.2649  0.2875  1.3320
 4680SOL    HW225677   0.325   1.493   3.431 -0.6702  0.7644  0.5662
 4681SOL     OW25678   1.530   1.958   7.515  0.5798 -0.0098 -0.2280
 4681SOL    HW125679   1.490   2.044   7.504  0.1297 -0.2852 -0.7866
 4681SOL    HW225680   1.447   1.912   7.533 -0.0873  1.3067  0.0633
 4682SOL     OW25681   3.103   3.016   7.390 -0.3891 -0.3028  0.0957
 4682SOL    HW125682   3.047   2.982   7.460  0.6060  2.0662  2.0641
 4682SOL    HW225683   3.191   3.026   7.427 -0.9734 -0.0473  1.4291
 4683SOL     OW25684   0.360   0.082   7.457 -0.1934  0.0457  0.9023
 4683SOL    HW125685   0.269   0.081   7.427  0.4716 -1.1455 -1.1150
 4683SOL    HW225686   0.346   0.011   7.519  1.1063 -0.8521  0.1837
 4684SOL     OW25687   4.713   3.582   3.843  0.2350 -0.0620  0.7941
 4684SOL    HW125688   0.000   3.671   3.866 -0.4799  0.6007 -0.9262
 4684SOL    HW225689   4.693   3.555   3.933 -1.6620 -2.2390 -0.2709
 4685SOL     OW25690   3.039   1.879   6.369 -0.2745  0.5265  0.7706
 4685SOL    HW125691   3.134   1.892   6.376 -0.0913  1.2618 -2.9201
 4685SOL    HW225692   3.008   1.945   6.431 -0.9095  1.1530 -0.2061
 4686SOL     OW25693   0.941   2.970   1.001 -0.2867 -0.5493  0.1646
 4686SOL    HW125694   0.933   2.989   0.907 -1.2385 -1.6793  0.0199
 4686SOL    HW225695   0.876   2.899   0.997  0.5938 -1.3994  0.7316
 4687SOL     OW25696   0.119   1.992  10.099  0.0763  0.2762  0.3727
 4687SOL    HW125697   0.043   2.045  10.076  1.2739  1.0011 -1.8649
 4687SOL    HW225698   0.189   2.053  10.075 -0.1632  0.7403  0.8534
 4688SOL     OW25699   4.292   3.843   9.820 -0.2755 -0.3748  0.0111
 4688SOL    HW125700   4.353   3.904   9.860 -1.2607  1.2810 -1.0045
 4688SOL    HW225701   4.242   3.900   9.761  0.0247  1.0093  1.1024
 4689SOL     OW25702   3.592   1.875  16.668  0.1748  0.2713  0.3908
 4689SOL    HW125703   3.685   1.864  16.649 -0.0739 -0.9254 -0.0875
 4689SOL    HW225704   3.599   1.904  16.759  1.0242 -0.8505  0.6832
 4690SOL     OW25705   2.376   3.428  17.690 -0.2790 -0.9517 -0.1969
 4690SOL    HW125706   2.424   3.474   0.001 -0.9390 -0.6028  0.0216
 4690SOL    HW225707   2.418   3.463  17.611  0.0499  0.0831  0.4409
 4691SOL     OW25708   1.137   4.577   5.142  0.7080  0.3235 -0.1921
 4691SOL    HW125709   1.094   4.604   5.061  2.3685  1.0441 -0.8212
 4691SOL    HW225710   1.101   4.651   5.192 -2.0787 -1.1974  0.0514
 4692SOL     OW25711   3.161   0.888  14.315  0.0054  0.0536  0.1908
 4692SOL    HW125712   3.095   0.943  14.273  1.8056  0.6929 -1.8242
 4692SOL    HW225713   3.153   0.910  14.407  2.2778  0.0114  0.4051
 4693SOL     OW25714   2.922   3.333   0.616 -0.3799  0.2364  0.9749
 4693SOL    HW125715   2.904   3.256   0.563 -0.1681  0.9772 -0.1785
 4693SOL    HW225716   2.836   3.341   0.658  0.3226 -0.9962  2.6687
 4694SOL     OW25717   1.498   2.476  13.810 -0.0684 -0.3890  0.0749
 4694SOL    HW125718   1.589   2.484  13.782  0.1139 -3.0805 -0.0968
 4694SOL    HW225719   1.476   2.412  13.743 -1.6560 -0.8429  1.0213
 4695SOL     OW25720   3.136   1.376   7.825  0.0793  0.5170 -0.1591
 4695SOL    HW125721   3.157   1.293   7.782  2.1673  0.5213  0.8484
 4695SOL    HW225722   3.049   1.348   7.853  1.2263 -1.4649  1.4252
 4696SOL     OW25723   3.124   3.897   2.361  0.2655 -0.0939  0.7483
 4696SOL    HW125724   3.098   3.928   2.274 -4.3613  1.0166  2.5694
 4696SOL    HW225725   3.197   3.837   2.343 -1.4566 -2.3353  1.2080
 4697SOL     OW25726   2.092   2.428   7.754  0.4365  0.7274 -0.4244
 4697SOL    HW125727   2.159   2.476   7.705  1.5243  1.1761  1.5012
 4697SOL    HW225728   2.016   2.486   7.742  1.8558  3.2836  2.9637
 4698SOL     OW25729   0.498   4.700   2.378 -0.1446  0.0387 -0.7379
 4698SOL    HW125730   0.480   4.619   2.330  0.0993  0.4804 -1.5782
 4698SOL    HW225731   0.563   0.004   2.322  0.7018  0.1192  0.2920
 4699SOL     OW25732   1.601   0.626  17.144 -0.5548  0.5080 -0.1298
 4699SOL    HW125733   1.597   0.696  17.079  0.4628  0.9053  0.2313
 4699SOL    HW225734   1.613   0.670  17.228  0.5539 -0.7636  0.4016
 4700SOL     OW25735   2.452   4.308   3.399 -0.4615  0.0543 -0.0574
 4700SOL    HW125736   2.468   4.251   3.474 -3.8532 -1.2733 -0.3347
 4700SOL    HW225737   2.465   4.396   3.436  0.5027  0.3759 -1.1648
 4701SOL     OW25738   1.130   0.741   8.933  0.0623 -0.1063 -0.0138
 4701SOL    HW125739   1.163   0.699   8.853 -0.6896  1.2653 -1.0522
 4701SOL    HW225740   1.185   0.820   8.930  0.0206 -0.0664  0.2891
 4702SOL     OW25741   1.871   3.646   6.677  0.1518 -0.1235  0.0331
 4702SOL    HW125742   1.908   3.560   6.658  1.1320  0.5734 -1.1689
 4702SOL    HW225743   1.948   3.700   6.665  1.0463 -1.7589 -1.5615
 4703SOL     OW25744   4.254   1.682  10.476  0.2343  0.4905  0.3749
 4703SOL    HW125745   4.174   1.636  10.449 -0.5151  1.0162  1.6673
 4703SOL    HW225746   4.317   1.664  10.407 -0.4345 -0.0224 -0.0979
 4704SOL     OW25747   4.676   2.398   3.723 -0.8092  0.8124  0.1748
 4704SOL    HW125748   4.638   2.447   3.650 -0.2395  2.0957  0.7335
 4704SOL    HW225749   4.693   2.468   3.786  1.2861  0.7710 -0.3259
 4705SOL     OW25750   2.264   4.614   1.974  0.4728  0.0920  0.3383
 4705SOL    HW125751   2.318   4.636   1.897 -0.4710  1.7117  0.1524
 4705SOL    HW225752   2.256   4.519   1.966  0.1652 -0.0899  2.8959
 4706SOL     OW25753   4.221   2.456  12.631  0.1956  0.5926 -0.5924
 4706SOL    HW125754   4.134   2.465  12.591 -0.3366  0.6777  0.5679
 4706SOL    HW225755   4.274   2.501  12.566 -0.2026  0.9976 -0.6397
 4707SOL     OW25756   1.105   2.795  16.470  0.5931  0.4956 -0.3803
 4707SOL    HW125757   1.070   2.861  16.529 -0.9888 -0.1802 -0.5550
 4707SOL    HW225758   1.127   2.854  16.398  0.2433  1.6639  0.4731
 4708SOL     OW25759   2.572   0.284   8.724  0.2815 -0.0113 -0.7406
 4708SOL    HW125760   2.656   0.328   8.739  0.3537  0.4047 -2.2788
 4708SOL    HW225761   2.596   0.192   8.734 -0.5053 -0.2401 -0.9757
 4709SOL     OW25762   3.903   2.634   6.495 -0.1498 -0.1766  0.2189
 4709SOL    HW125763   3.974   2.570   6.489 -0.0934  0.0377 -1.2811
 4709SOL    HW225764   3.836   2.597   6.552 -0.5528 -1.0735 -0.8446
 4710SOL     OW25765   0.562   3.451   7.266 -0.5454  0.1937  0.3529
 4710SOL    HW125766   0.502   3.421   7.334 -1.9094  1.9632 -0.0544
 4710SOL    HW225767   0.502   3.461   7.192 -0.7203 -1.5561  0.2612
 4711SOL     OW25768   1.892   1.337  11.212  0.2483 -1.0766  0.2453
 4711SOL    HW125769   1.813   1.290  11.186  0.5374 -0.3336 -1.9939
 4711SOL    HW225770   1.966   1.297  11.167  1.6705  1.7894  0.0277
 4712SOL     OW25771   3.804   2.055   8.854  0.1320 -0.5093  0.0245
 4712SOL    HW125772   3.752   2.133   8.874 -1.1673 -1.6145  0.9230
 4712SOL    HW225773   3.770   2.022   8.770 -2.6297  1.9685  0.1712
 4713SOL     OW25774   1.210   0.931  14.010 -0.0750  0.0884 -0.1675
 4713SOL    HW125775   1.181   0.887  14.090  1.9601 -2.3598 -0.7975
 4713SOL    HW225776   1.137   0.992  14.000  0.4876  1.3414  3.1556
 4714SOL     OW25777   2.550   1.657   2.047 -0.1687  0.1486 -0.5187
 4714SOL    HW125778   2.461   1.664   2.012 -0.1959  0.2826 -0.4242
 4714SOL    HW225779   2.573   1.749   2.064  2.7954 -1.3517  3.5235
 4715SOL     OW25780   0.465   4.654   2.632 -0.4506  0.2859 -0.1247
 4715SOL    HW125781   0.410   4.581   2.603  2.3418 -1.4367 -1.1258
 4715SOL    HW225782   0.450   4.705   2.553 -0.6800  1.2261  0.5303
 4716SOL     OW25783   4.665   0.909   2.679  0.3754 -0.0073  0.1984
 4716SOL    HW125784   4.640   0.848   2.609  0.4815  0.4878 -0.2740
 4716SOL    HW225785   4.583   0.945   2.712  0.8886  1.6241 -0.3215
 4717SOL     OW25786   4.686   2.685   6.769 -0.0048 -0.5017 -0.5671
 4717SOL    HW125787   4.734   2.652   6.845 -0.1598  1.4231  0.3645
 4717SOL    HW225788   4.599   2.649   6.786 -0.2063  1.0215  1.5668
 4718SOL     OW25789   2.680   3.503   2.359 -0.4860 -0.4954  0.0072
 4718SOL    HW125790   2.623   3.565   2.405  1.0593  2.5809 -2.1913
 4718SOL    HW225791   2.752   3.561   2.335 -1.5524  1.6774  2.0378
 4719SOL     OW25792   1.052   3.957   6.695  0.1498  0.2160 -0.0745
 4719SOL    HW125793   1.065   3.955   6.790  1.1803 -0.7846 -0.2311
 4719SOL    HW225794   0.958   3.943   6.696  0.2454 -0.4942 -0.7155
 4720SOL     OW25795   0.764   1.415   8.296  0.0237 -0.0955 -0.2526
 4720SOL    HW125796   0.854   1.383   8.292  0.2881  0.7805 -1.5656
 4720SOL    HW225797   0.749   1.408   8.390  1.8156  2.9315  0.2516
 4721SOL     OW25798   0.275   0.562   2.763 -0.9445 -0.3766 -0.3412
 4721SOL    HW125799   0.276   0.480   2.814 -2.4274 -1.0000 -1.3010
 4721SOL    HW225800   0.207   0.609   2.811 -2.0897  0.4619 -2.7574
 4722SOL     OW25801   1.851   3.209  13.866 -0.4482 -0.2569  0.0865
 4722SOL    HW125802   1.763   3.238  13.888 -0.2949 -1.0801  1.7889
 4722SOL    HW225803   1.899   3.242  13.943 -2.5994 -0.0357  1.3265
 4723SOL     OW25804   0.520   2.531  16.988  0.1423  0.1804  0.1214
 4723SOL    HW125805   0.605   2.576  16.979 -0.2038  1.3624  2.8675
 4723SOL    HW225806   0.469   2.609  17.007  0.5538  0.6574 -0.7402
 4724SOL     OW25807   4.249   3.731   8.945 -0.1400 -0.0777  0.0876
 4724SOL    HW125808   4.156   3.727   8.969 -1.3580  1.5043 -4.3257
 4724SOL    HW225809   4.283   3.799   9.004 -0.3815  1.5025 -1.5800
 4725SOL     OW25810   4.275   0.898   2.358 -0.0215  0.3311  0.2130
 4725SOL    HW125811   4.297   0.975   2.305  1.4755  0.0001  0.3312
 4725SOL    HW225812   4.357   0.848   2.361 -0.4093 -0.3665 -1.2099
 4726SOL     OW25813   1.853   0.160   7.362  1.0428  0.6549  0.0880
 4726SOL    HW125814   1.804   0.215   7.424  1.9963  1.1567  0.3925
 4726SOL    HW225815   1.892   0.227   7.307 -0.1117  1.4570  0.2323
 4727SOL     OW25816   4.043   4.513  12.896 -0.7002 -0.0033  0.1839
 4727SOL    HW125817   3.983   4.541  12.965  0.4535 -0.3440  1.3302
 4727SOL    HW225818   3.990   4.435  12.882  0.9889 -0.6838 -2.3985
 4728SOL     OW25819   2.299   1.298   7.196  0.4843  0.2897  0.2742
 4728SOL    HW125820   2.386   1.260   7.209  0.6171 -0.0923 -1.7595
 4728SOL    HW225821   2.263   1.303   7.285 -1.4255 -4.1613 -0.2666
 4729SOL     OW25822   3.695   2.307   4.341 -0.3028 -1.1973  0.2197
 4729SOL    HW125823   3.628   2.358   4.297  0.1866 -0.0422  0.8115
 4729SOL    HW225824   3.647   2.260   4.409  1.8300 -4.1133 -0.3055
 4730SOL     OW25825   2.286   4.015  11.686  0.5423  0.5586 -0.4653
 4730SOL    HW125826   2.275   4.043  11.777  2.0866  1.1855 -0.4756
 4730SOL    HW225827   2.307   3.923  11.704  0.7853  1.1080  2.0229
 4731SOL     OW25828   3.397   4.467  11.093 -0.0087 -0.7098  0.0666
 4731SOL    HW125829   3.383   4.382  11.136 -1.4846 -1.0020 -1.0164
 4731SOL    HW225830   3.344   4.467  11.014  0.1934 -0.7638 -0.0671
 4732SOL     OW25831   2.828   1.216   6.654  0.0760 -0.1267  0.5645
 4732SOL    HW125832   2.787   1.223   6.568  2.9899 -1.2044 -0.9199
 4732SOL    HW225833   2.753   1.219   6.713 -0.4803  0.2920 -0.1756
 4733SOL     OW25834   1.301   2.850  11.705 -0.1620 -0.2218 -0.1150
 4733SOL    HW125835   1.220   2.817  11.745  0.5959 -0.9603  0.7971
 4733SOL    HW225836   1.358   2.854  11.782  2.8629  0.9782 -2.4284
 4734SOL     OW25837   0.324   0.102   9.063 -0.0898  0.2180 -0.0350
 4734SOL    HW125838   0.377   0.030   9.032 -0.5188  0.8791 -2.3145
 4734SOL    HW225839   0.331   0.091   9.158 -1.2623 -1.1429 -0.1223
 4735SOL     OW25840   4.104   0.386   5.873 -0.0190  0.2969 -0.3140
 4735SOL    HW125841   4.169   0.332   5.828 -2.9412 -1.7371 -2.0225
 4735SOL    HW225842   4.027   0.335   5.851 -1.3984  1.9238  0.7825
 4736SOL     OW25843   2.232   3.867   9.267  0.3805  0.4747  0.2613
 4736SOL    HW125844   2.179   3.913   9.333 -1.0422 -2.7094  1.3485
 4736SOL    HW225845   2.322   3.868   9.300  0.2863  0.3580  0.5195
 4737SOL     OW25846   4.209   3.615  12.357  0.3509 -0.2920 -0.5846
 4737SOL    HW125847   4.192   3.578  12.271 -2.1154 -1.4180  0.3897
 4737SOL    HW225848   4.180   3.539  12.408  0.1241  0.8319  0.9905
 4738SOL     OW25849   2.252   3.942   6.179 -0.1266  0.1676 -0.4384
 4738SOL    HW125850   2.298   3.868   6.219  0.0698 -0.2813 -1.4849
 4738SOL    HW225851   2.328   3.993   6.152 -0.9807  1.6733  0.0066
 4739SOL     OW25852   3.111   3.318   4.436  0.3459 -0.4994 -0.1250
 4739SOL    HW125853   3.151   3.371   4.506  0.5890 -0.0558 -0.6021
 4739SOL    HW225854   3.065   3.250   4.485 -1.0350  1.4406  1.2694
 4740SOL     OW25855   0.683   1.834   4.142  0.0726  0.3284  0.4703
 4740SOL    HW125856   0.633   1.875   4.071  0.1054 -1.0541 -0.3471
 4740SOL    HW225857   0.632   1.753   4.148  2.5143 -1.1224  1.6623
 4741SOL     OW25858   0.797   3.036   9.955 -0.4673 -0.2750  0.2657
 4741SOL    HW125859   0.724   3.010   9.899 -0.0221 -1.7825  0.3831
 4741SOL    HW225860   0.791   3.131   9.950  1.1469 -0.1304  1.0959
 4742SOL     OW25861   1.371   0.518   6.003 -0.0845 -0.1067 -0.6886
 4742SOL    HW125862   1.363   0.454   5.933  0.5171 -0.5645 -0.3291
 4742SOL    HW225863   1.292   0.515   6.057 -1.0325 -1.5262 -2.1441
 4743SOL     OW25864   1.627   3.984   9.842  0.3660  0.1828 -0.1765
 4743SOL    HW125865   1.706   3.938   9.871 -0.3664 -0.6056  0.5418
 4743SOL    HW225866   1.601   3.919   9.777  0.6217  0.3616 -0.4566
 4744SOL     OW25867   3.336   2.051   6.969 -0.3768  0.7635  0.0303
 4744SOL    HW125868   3.333   2.136   7.013 -0.5169  1.1698 -0.7545
 4744SOL    HW225869   3.341   1.990   7.042  2.7777  0.7127 -0.2170
 4745SOL     OW25870   3.666   3.894   4.284  0.4238  0.0603 -0.2352
 4745SOL    HW125871   3.683   3.869   4.193  0.6441 -0.5355 -0.0264
 4745SOL    HW225872   3.756   3.887   4.315 -0.1430 -1.8541  0.9897
 4746SOL     OW25873   2.276   3.303   9.429 -0.0082  0.5371 -0.1088
 4746SOL    HW125874   2.266   3.392   9.395 -0.3331  1.3086  2.0030
 4746SOL    HW225875   2.368   3.282   9.414  0.2676 -0.9754  3.6366
 4747SOL     OW25876   3.970   4.632   1.284  0.2618  0.3890  0.1572
 4747SOL    HW125877   3.982   4.596   1.372  0.5521 -3.1557 -1.3262
 4747SOL    HW225878   3.957   4.725   1.303 -1.1345  0.3978 -0.9108
 4748SOL     OW25879   4.543   1.381   4.711 -0.4296 -0.3143  0.3955
 4748SOL    HW125880   4.614   1.396   4.773  1.4654  0.3612 -1.9463
 4748SOL    HW225881   4.573   1.424   4.630 -0.4859  1.7016  1.4442
 4749SOL     OW25882   2.602   3.026   7.243 -0.5164  0.1132  0.3575
 4749SOL    HW125883   2.654   2.986   7.173  0.2766  0.5269  0.7046
 4749SOL    HW225884   2.583   2.952   7.301 -1.5626 -1.1006 -1.5826
 4750SOL     OW25885   4.387   1.383   7.208 -0.3916 -0.0640  0.4987
 4750SOL    HW125886   4.334   1.365   7.131  0.2023 -0.7631  0.2442
 4750SOL    HW225887   4.414   1.473   7.190  0.1378 -0.4973 -0.8711
 4751SOL     OW25888   4.473   2.698  14.921 -0.1139  0.2299 -0.4550
 4751SOL    HW125889   4.478   2.781  14.874  0.1693  0.3865 -0.1413
 4751SOL    HW225890   4.525   2.643  14.862  2.0455 -2.0807  3.6606
 4752SOL     OW25891   2.631   0.693  15.185 -0.1291 -0.4441 -0.3589
 4752SOL    HW125892   2.667   0.780  15.204  1.2633 -1.0650 -0.1303
 4752SOL    HW225893   2.601   0.666  15.272 -1.2513  0.2222 -0.5468
 4753SOL     OW25894   2.889   2.898   6.211 -0.0403 -0.0161 -0.6202
 4753SOL    HW125895   2.924   2.890   6.122  0.3866 -2.5759 -0.2313
 4753SOL    HW225896   2.808   2.940   6.182 -1.3337 -1.7543  0.4842
 4754SOL     OW25897   3.016   2.678  17.612 -0.1738 -0.0181 -0.1878
 4754SOL    HW125898   2.920   2.678  17.616 -0.1687 -1.6234 -0.4141
 4754SOL    HW225899   3.031   2.771  17.631  2.3376 -0.5045  0.2502
 4755SOL     OW25900   0.764   1.355  17.732  0.3691  0.2053 -0.0187
 4755SOL    HW125901   0.854   1.344  17.704  1.2050  3.8737  1.1354
 4755SOL    HW225902   0.723   1.284  17.684 -1.4313  2.0780 -1.2821
 4756SOL     OW25903   0.191   0.420  11.276  0.3167 -0.3487 -0.4041
 4756SOL    HW125904   0.257   0.470  11.229  0.8542 -0.6999 -0.0136
 4756SOL    HW225905   0.110   0.472  11.278 -1.3260 -2.8706 -1.4370
 4757SOL     OW25906   1.408   1.093   2.161 -0.7968 -0.0428 -0.1435
 4757SOL    HW125907   1.336   1.100   2.099  0.4273 -1.0506 -1.6697
 4757SOL    HW225908   1.474   1.078   2.094 -1.5919 -0.7802 -0.7524
 4758SOL     OW25909   1.722   2.545   4.978 -0.2679 -0.1614 -0.3555
 4758SOL    HW125910   1.737   2.456   5.011  2.1173  1.0936  1.8773
 4758SOL    HW225911   1.806   2.589   4.978 -0.1081 -0.4661  1.0543
 4759SOL     OW25912   3.214   1.921   3.474 -0.0334 -0.4071  0.1473
 4759SOL    HW125913   3.236   1.935   3.566 -2.3085  0.7160  0.5125
 4759SOL    HW225914   3.246   1.832   3.464 -1.7735 -0.7666 -2.1671
 4760SOL     OW25915   3.414   0.613   6.304 -0.5111 -0.0935 -0.1021
 4760SOL    HW125916   3.461   0.535   6.276  0.4115  0.1779  0.7110
 4760SOL    HW225917   3.481   0.664   6.350 -1.3685 -1.8534  3.0928
 4761SOL     OW25918   4.500   2.151   4.201  0.0226 -0.5470  0.2771
 4761SOL    HW125919   4.594   2.145   4.220  0.0476 -0.7423  0.0851
 4761SOL    HW225920   4.483   2.246   4.203 -1.8249 -0.8691 -0.7609
 4762SOL     OW25921   4.130   3.620   6.555 -0.2665 -0.2918 -0.4005
 4762SOL    HW125922   4.152   3.527   6.559 -0.6617 -0.3563  0.4155
 4762SOL    HW225923   4.035   3.612   6.554  0.0353 -3.5233 -2.6284
 4763SOL     OW25924   4.057   0.202   6.834  0.0959 -0.0895  0.0246
 4763SOL    HW125925   4.072   0.279   6.779 -2.1867  0.2142 -0.1775
 4763SOL    HW225926   4.144   0.198   6.875  1.0854 -0.4217 -2.1319
 4764SOL     OW25927   1.001   0.144   6.949  0.2306 -0.3601  0.1170
 4764SOL    HW125928   1.047   0.221   6.982  2.7679 -1.7207 -0.2237
 4764SOL    HW225929   1.051   0.131   6.868  1.6924 -0.6991  1.0811
 4765SOL     OW25930   2.734   2.796   7.073 -0.1028 -0.4803  0.9227
 4765SOL    HW125931   2.717   2.715   7.120 -0.0586 -1.5730 -0.9391
 4765SOL    HW225932   2.810   2.833   7.117 -0.0660  1.5113 -0.7954
 4766SOL     OW25933   2.180   2.361   5.381  0.1313  0.6931  0.3445
 4766SOL    HW125934   2.167   2.267   5.373  0.7417  0.3126  3.6149
 4766SOL    HW225935   2.156   2.385   5.292 -1.8243 -2.2659  0.0954
 4767SOL     OW25936   3.192   4.680   3.747  0.2095 -0.3731 -0.0248
 4767SOL    HW125937   3.168   4.596   3.786 -0.0975 -0.5040 -0.4881
 4767SOL    HW225938   3.133   4.732   3.802  1.5555  0.5249  0.5646
 4768SOL     OW25939   0.208   2.756   8.258  0.3465  0.3025  0.4049
 4768SOL    HW125940   0.288   2.712   8.288  0.9396  0.0196 -1.6051
 4768SOL    HW225941   0.171   2.776   8.344 -0.3021  3.1482 -0.5537
 4769SOL     OW25942   3.391   2.819   6.588  0.5332 -0.0695  0.0711
 4769SOL    HW125943   3.323   2.848   6.650 -0.2106 -1.6347 -0.0155
 4769SOL    HW225944   3.444   2.895   6.613 -0.5657 -0.1403  2.6749
 4770SOL     OW25945   0.520   2.159   8.107  0.2940 -0.2777  0.1307
 4770SOL    HW125946   0.496   2.085   8.052 -2.4307  0.9996 -0.3561
 4770SOL    HW225947   0.486   2.236   8.062 -0.2407 -0.0507  0.9173
 4771SOL     OW25948   0.636   0.226   7.271 -0.2802  0.2140 -0.2255
 4771SOL    HW125949   0.685   0.158   7.225  0.9638  0.7485  0.3129
 4771SOL    HW225950   0.561   0.230   7.211 -0.5340 -1.6826 -0.0130
 4772SOL     OW25951   2.696   1.127   2.981 -0.3977 -0.3010  0.6691
 4772SOL    HW125952   2.601   1.137   2.981 -0.1242  2.2400  0.5396
 4772SOL    HW225953   2.728   1.185   2.912  0.1572 -1.6968 -0.2537
 4773SOL     OW25954   4.117   1.251   7.078  0.2292  0.2655  0.5700
 4773SOL    HW125955   4.062   1.176   7.103 -0.4413  0.7055  0.4220
 4773SOL    HW225956   4.175   1.205   7.018 -1.6130 -0.7000 -0.4860
 4774SOL     OW25957   4.211   0.927   7.255  0.2869  0.3687 -0.7217
 4774SOL    HW125958   4.226   0.968   7.170  1.3384 -2.9353 -2.1143
 4774SOL    HW225959   4.124   0.959   7.281  0.5814  0.0281  0.7306
 4775SOL     OW25960   3.146   1.606   4.079 -0.1712  0.2626 -0.3337
 4775SOL    HW125961   3.061   1.650   4.073 -1.5461 -2.2784  0.2277
 4775SOL    HW225962   3.136   1.552   4.000 -0.8512  2.0052 -1.4544
 4776SOL     OW25963   1.978   2.474   7.300  0.3189 -0.2372 -1.0248
 4776SOL    HW125964   2.027   2.547   7.339 -2.5397  1.1120  0.0483
 4776SOL    HW225965   1.991   2.405   7.365 -0.4230 -1.4278 -2.1455
 4777SOL     OW25966   3.687   0.222   2.714 -0.2780  0.2141  0.2945
 4777SOL    HW125967   3.741   0.269   2.652  1.4281 -0.8523  0.9608
 4777SOL    HW225968   3.621   0.289   2.735 -1.7254 -0.6329 -1.5546
 4778SOL     OW25969   3.955   3.706   1.653 -0.2773  0.2213  0.5185
 4778SOL    HW125970   3.938   3.632   1.712  0.7808  0.7499  1.4864
 4778SOL    HW225971   4.008   3.762   1.709 -2.0666 -0.5075  2.9473
 4779SOL     OW25972   3.151   1.895   6.817 -0.0643  0.3314 -0.1346
 4779SOL    HW125973   3.073   1.946   6.836 -1.7498 -1.6004 -1.8078
 4779SOL    HW225974   3.210   1.939   6.878  1.3471 -3.5197  1.2907
 4780SOL     OW25975   2.166   0.005   1.039  0.2488 -0.6339 -0.3783
 4780SOL    HW125976   2.087   0.046   1.004  1.3294  1.0324 -0.8318
 4780SOL    HW225977   2.235   0.066   1.015  0.2854 -0.3758  0.3678
 4781SOL     OW25978   1.557   3.549   8.255  0.5113 -0.3557  0.4285
 4781SOL    HW125979   1.597   3.633   8.233 -1.1648  0.1336 -0.7727
 4781SOL    HW225980   1.476   3.576   8.297  1.3928 -1.8993  3.1088
 4782SOL     OW25981   3.944   1.565  10.886  0.6345  0.8894 -0.6169
 4782SOL    HW125982   3.919   1.507  10.814 -1.7852  2.4832 -1.0563
 4782SOL    HW225983   3.885   1.528  10.953 -0.7492  2.7148 -0.8418
 4783SOL     OW25984   1.692   2.673   8.724 -0.3745  0.0005 -0.2745
 4783SOL    HW125985   1.767   2.613   8.721  0.0381  0.5420 -1.0807
 4783SOL    HW225986   1.727   2.749   8.677  0.9426 -0.4278 -0.0070
 4784SOL     OW25987   2.289   2.678   4.191  0.3182 -0.4261 -0.3211
 4784SOL    HW125988   2.220   2.733   4.227  0.7992  0.4648 -0.7610
 4784SOL    HW225989   2.250   2.591   4.203 -0.9305  0.1601 -0.1274
 4785SOL     OW25990   4.030   2.113   6.890 -0.5272 -0.5879  0.1463
 4785SOL    HW125991   3.960   2.146   6.834 -0.6935  0.8036  1.1595
 4785SOL    HW225992   4.069   2.195   6.922  0.4068 -0.8763 -0.2501
 4786SOL     OW25993   0.897   1.765   7.920  0.1442  0.2829 -0.0554
 4786SOL    HW125994   0.948   1.797   7.994 -0.4401  1.4097 -0.1281
 4786SOL    HW225995   0.881   1.671   7.930  2.2633  0.0911  1.3658
 4787SOL     OW25996   3.647   3.072   5.052 -0.0938 -0.2131 -0.6328
 4787SOL    HW125997   3.717   3.042   4.993 -0.8551  0.5532 -1.9099
 4787SOL    HW225998   3.656   3.010   5.125  0.3107 -0.6850 -1.0738
 4788SOL     OW25999   2.695   1.212  17.201 -0.0438  0.7844  0.0512
 4788SOL    HW126000   2.713   1.303  17.177 -2.6400  0.8653 -1.6053
 4788SOL    HW226001   2.752   1.166  17.139  0.3133  0.9415  0.2661
 4789SOL     OW26002   1.204   2.248   9.636  0.4092 -0.0781 -0.6650
 4789SOL    HW126003   1.151   2.323   9.663  1.0488  0.2316 -0.2546
 4789SOL    HW226004   1.222   2.219   9.726 -0.9908  2.1158  0.3418
 4790SOL     OW26005   3.484   1.013  15.334  0.4966  0.3236  0.3234
 4790SOL    HW126006   3.483   1.099  15.293 -0.6498  0.8336  1.4058
 4790SOL    HW226007   3.577   1.000  15.350  0.5194  0.7033  0.5057
 4791SOL     OW26008   4.605   4.281   7.564  0.3892 -0.1918 -0.6846
 4791SOL    HW126009   4.643   4.211   7.617  1.1592  2.0069  1.6845
 4791SOL    HW226010   4.522   4.293   7.612  0.7642 -2.9843  0.6830
 4792SOL     OW26011   1.000   2.203  16.827 -0.2073  0.1005  0.1608
 4792SOL    HW126012   1.037   2.288  16.851  3.1357 -1.2175 -0.3897
 4792SOL    HW226013   0.907   2.224  16.838 -0.2529  1.1768 -2.3982
 4793SOL     OW26014   0.214   2.865   7.226  0.0255  0.1046  0.2040
 4793SOL    HW126015   0.125   2.844   7.254  0.4025 -0.6308  0.8437
 4793SOL    HW226016   0.230   2.944   7.277  1.2600 -0.8706  1.3307
 4794SOL     OW26017   0.639   2.377   7.658 -0.1591 -0.1100 -0.4319
 4794SOL    HW126018   0.691   2.419   7.589 -0.3788 -1.5272 -1.4583
 4794SOL    HW226019   0.546   2.387   7.638  0.3816  1.3805 -2.2407
 4795SOL     OW26020   1.580   0.022   5.953  0.5524  0.0849 -0.0420
 4795SOL    HW126021   1.650   0.086   5.954  0.2936  0.3832 -0.7825
 4795SOL    HW226022   1.545   0.054   5.869 -0.5333 -0.5622  0.1672
 4796SOL     OW26023   2.678   4.640   6.847  0.3998 -0.4198 -0.1038
 4796SOL    HW126024   2.739   4.706   6.878 -0.0351  0.7836 -1.8423
 4796SOL    HW226025   2.678   4.580   6.922  0.2455  0.6843  0.7856
 4797SOL     OW26026   3.003   0.534   4.739 -0.5760  0.0553 -0.1767
 4797SOL    HW126027   3.054   0.594   4.684 -0.5214  0.6491  0.5133
 4797SOL    HW226028   2.916   0.553   4.704 -0.3920  1.4285  0.0891
 4798SOL     OW26029   4.348   4.299   2.734  0.0290 -0.1913  0.5948
 4798SOL    HW126030   4.346   4.205   2.748 -1.9381 -0.1422  0.6995
 4798SOL    HW226031   4.262   4.317   2.695  1.0908 -1.1971 -2.1847
 4799SOL     OW26032   1.822   0.065  12.080  0.4338 -0.0177  0.0085
 4799SOL    HW126033   1.783   0.095  12.162 -0.7717 -0.8970 -0.2550
 4799SOL    HW226034   1.809   4.712  12.093  3.4720 -0.7789 -2.2803
 4800SOL     OW26035   3.810   3.723   2.868  0.1931 -0.1526  0.4701
 4800SOL    HW126036   3.747   3.775   2.818 -0.8868 -1.6931  0.2381
 4800SOL    HW226037   3.887   3.780   2.865 -0.2788  0.4886  0.7661
 4801SOL     OW26038   2.303   2.715  14.914  0.3759 -0.6783 -0.1454
 4801SOL    HW126039   2.306   2.625  14.880  2.3677 -0.7390  0.1726
 4801SOL    HW226040   2.395   2.742  14.912  0.5440 -1.3879 -1.7803
 4802SOL     OW26041   3.605   3.360   4.834 -0.0147  0.2450 -0.1045
 4802SOL    HW126042   3.579   3.276   4.795  0.6120  0.1484 -0.3078
 4802SOL    HW226043   3.602   3.423   4.761 -0.9055  0.3499  0.0199
 4803SOL     OW26044   1.799   3.631   8.994  0.2977  0.1709 -0.3644
 4803SOL    HW126045   1.862   3.654   8.927  0.5114  2.4806  0.6445
 4803SOL    HW226046   1.835   3.545   9.018 -2.4062 -0.9141 -0.1424
 4804SOL     OW26047   3.146   2.668  13.801 -0.1658  0.2581 -0.4865
 4804SOL    HW126048   3.129   2.756  13.767  1.2391  0.6096 -0.2939
 4804SOL    HW226049   3.080   2.613  13.758 -0.4286  1.6088 -1.8108
 4805SOL     OW26050   1.465   3.183   8.518 -0.1024 -0.2045  1.0825
 4805SOL    HW126051   1.533   3.227   8.468 -1.7718  0.7067 -0.4133
 4805SOL    HW226052   1.408   3.256   8.544 -1.7959 -0.8346 -0.7820
 4806SOL     OW26053   3.160   4.252   8.601  0.1895  0.2248  0.0245
 4806SOL    HW126054   3.190   4.219   8.685 -0.0287 -1.0968 -0.4268
 4806SOL    HW226055   3.106   4.331   8.610 -2.3462 -1.5738  0.3412
 4807SOL     OW26056   4.635   3.917   4.103 -0.5386 -0.1108 -0.2619
 4807SOL    HW126057   4.558   3.868   4.074 -2.0582  0.7652  2.2342
 4807SOL    HW226058   4.692   3.911   4.026 -1.6116 -3.4057 -0.8052
 4808SOL     OW26059   4.559   2.420   3.205  0.2115  0.6179 -0.4133
 4808SOL    HW126060   4.638   2.366   3.202 -0.4835 -0.4854  1.4924
 4808SOL    HW226061   4.509   2.394   3.282 -1.1080  1.3828 -1.0049
 4809SOL     OW26062   1.752   1.872   4.397 -0.2346 -0.1260 -0.0940
 4809SOL    HW126063   1.728   1.848   4.308 -0.4811 -0.0469 -0.0501
 4809SOL    HW226064   1.688   1.821   4.447 -1.1067 -0.3223 -1.4149
 4810SOL     OW26065   4.216   1.135   5.135  0.2645  0.2996  0.1267
 4810SOL    HW126066   4.153   1.063   5.135  0.1772  0.3837 -2.6635
 4810SOL    HW226067   4.224   1.146   5.230 -2.5156  0.9309  0.2553
 4811SOL     OW26068   3.968   0.869   9.075 -0.8174 -0.6959  0.5836
 4811SOL    HW126069   3.934   0.890   8.988  0.2725 -1.4764 -0.0362
 4811SOL    HW226070   3.921   0.931   9.130 -1.8585 -2.0073  1.1686
 4812SOL     OW26071   1.499   4.521   6.698 -0.1128  0.0595 -0.4040
 4812SOL    HW126072   1.488   4.429   6.675  1.5501  0.0399 -1.1130
 4812SOL    HW226073   1.561   4.550   6.632  1.1262  2.5704  1.8729
 4813SOL     OW26074   4.423   1.505  11.840  0.3254  0.6399 -0.4347
 4813SOL    HW126075   4.391   1.524  11.928  0.4715 -1.8992  0.1800
 4813SOL    HW226076   4.370   1.573  11.799 -0.4134  0.6420  0.5261
 4814SOL     OW26077   3.428   2.883   8.891  0.6828  0.5606 -0.2232
 4814SOL    HW126078   3.492   2.872   8.821  2.0344 -0.7456  1.2143
 4814SOL    HW226079   3.391   2.970   8.877  1.3218  0.8325 -0.2216
 4815SOL     OW26080   1.955   0.910   1.757  0.0559  0.8150 -0.1221
 4815SOL    HW126081   1.970   0.837   1.817 -1.3723 -1.1386 -2.1071
 4815SOL    HW226082   1.876   0.885   1.708  1.3235 -1.1053 -1.2170
 4816SOL     OW26083   1.057   1.033  14.797  0.1484 -0.1575  0.1416
 4816SOL    HW126084   1.121   1.021  14.867  0.3322  0.2044  0.0306
 4816SOL    HW226085   1.055   1.126  14.777 -0.3752 -0.2915 -0.4334
 4817SOL     OW26086   2.095   0.026   5.250  0.0374 -0.6035  0.3268
 4817SOL    HW126087   2.154   0.094   5.218 -0.0025 -0.2867  0.9271
 4817SOL    HW226088   2.054   0.078   5.318  1.2680  3.5452 -2.1461
 4818SOL     OW26089   4.370   0.334   5.283  0.3965  0.2836 -0.3894
 4818SOL    HW126090   4.367   0.428   5.265  0.9156  0.5443  0.9121
 4818SOL    HW226091   4.427   0.324   5.359  0.6872  2.1891 -0.3742
 4819SOL     OW26092   0.150   0.750  10.579  0.0104  0.3038 -0.3864
 4819SOL    HW126093   0.088   0.721  10.645 -1.3113  0.7400 -1.4292
 4819SOL    HW226094   0.203   0.814  10.626  1.6433 -0.5674 -1.0448
 4820SOL     OW26095   3.891   3.742   1.386 -0.2170  0.4327 -0.1611
 4820SOL    HW126096   3.930   3.656   1.371  3.6813  1.9790  1.0961
 4820SOL    HW226097   3.897   3.746   1.481  0.2078 -1.2192 -0.1101
 4821SOL     OW26098   0.015   2.834   1.290 -0.0333  0.0806 -0.1965
 4821SOL    HW126099   4.718   2.814   1.376 -1.0282  0.7673 -0.4582
 4821SOL    HW226100   4.672   2.834   1.241 -1.6743 -0.9802  2.6093
 4822SOL     OW26101   0.138   1.824   6.221  0.3857 -0.6355  0.1192
 4822SOL    HW126102   0.133   1.729   6.229 -1.1202 -0.4548  1.3021
 4822SOL    HW226103   0.059   1.847   6.271 -1.5514  0.1411 -3.2455
 4823SOL     OW26104   0.552   2.084   5.039  0.0202 -1.2085 -0.3487
 4823SOL    HW126105   0.506   2.000   5.041 -0.2311 -1.0499  0.8641
 4823SOL    HW226106   0.577   2.096   5.131  0.3344 -1.0424 -0.4545
 4824SOL     OW26107   0.450   0.889  11.148 -0.6196  0.3962 -0.1099
 4824SOL    HW126108   0.402   0.972  11.143  0.5989  1.0347 -1.1354
 4824SOL    HW226109   0.515   0.908  11.216  2.0667  1.3828 -2.9796
 4825SOL     OW26110   3.425   0.524   5.124 -0.8019  0.1178 -0.1787
 4825SOL    HW126111   3.356   0.486   5.178  0.2038  1.3701  1.9728
 4825SOL    HW226112   3.508   0.498   5.165 -0.4335  0.4631 -0.7139
 4826SOL     OW26113   4.539   0.520  13.040  0.3321  0.3747 -0.2863
 4826SOL    HW126114   4.518   0.610  13.065  0.0065  0.5223 -1.0978
 4826SOL    HW226115   4.622   0.545  12.999  0.0385 -0.1960 -1.2277
 4827SOL     OW26116   2.344   3.882   4.510 -0.2312  0.4429 -0.6342
 4827SOL    HW126117   2.273   3.927   4.465 -0.7978  0.3235  0.1337
 4827SOL    HW226118   2.366   3.932   4.589  3.7883 -0.1451 -1.4146
 4828SOL     OW26119   2.210   1.149  16.112  0.2281 -0.1297 -0.7713
 4828SOL    HW126120   2.294   1.104  16.107  0.3752 -0.1445  1.5040
 4828SOL    HW226121   2.214   1.195  16.197 -1.6718 -3.4986  1.1483
 4829SOL     OW26122   0.969   4.172   6.323  0.3394 -0.2306  0.5046
 4829SOL    HW126123   0.894   4.233   6.327  0.9840  0.6676 -1.0032
 4829SOL    HW226124   1.021   4.190   6.400  1.2778 -0.4009 -0.0912
 4830SOL     OW26125   1.068   3.527   4.135  0.0834  0.0487 -0.4871
 4830SOL    HW126126   1.106   3.601   4.182  1.5823 -1.6829  1.0266
 4830SOL    HW226127   1.079   3.449   4.190 -0.3377  0.5566  0.3030
 4831SOL     OW26128   3.706   3.068   3.808 -0.0153  0.1319 -0.2847
 4831SOL    HW126129   3.717   3.057   3.713 -1.5086  0.2869 -0.4806
 4831SOL    HW226130   3.618   3.108   3.810  0.9232  2.2639 -1.2524
 4832SOL     OW26131   0.121   4.351   7.342  0.0617 -0.0955 -0.2255
 4832SOL    HW126132   0.179   4.407   7.291  0.0771  0.0468 -0.0529
 4832SOL    HW226133   0.055   4.318   7.281 -1.3254  1.1085  0.6029
 4833SOL     OW26134   3.100   0.477   3.799 -0.6637 -0.0443  0.0107
 4833SOL    HW126135   3.091   0.540   3.728  1.3689 -1.0773 -1.1823
 4833SOL    HW226136   3.135   0.410   3.740 -2.2728 -0.6580 -0.2545
 4834SOL     OW26137   4.107   3.588   9.260  0.2340 -0.1581 -0.0976
 4834SOL    HW126138   4.048   3.522   9.297 -0.0189 -0.7581 -1.5869
 4834SOL    HW226139   4.050   3.640   9.204 -0.4926 -0.6178  0.2125
 4835SOL     OW26140   0.182   4.603   1.901  0.6983 -0.4019  1.0753
 4835SOL    HW126141   0.181   4.666   1.973  0.3778  1.1338 -0.2749
 4835SOL    HW226142   0.239   4.535   1.938  0.1482 -1.3351  0.2024
 4836SOL     OW26143   3.303   0.650  14.272  0.0717  0.2241  0.2785
 4836SOL    HW126144   3.313   0.673  14.180  1.1338 -0.2552  0.2645
 4836SOL    HW226145   3.247   0.723  14.296 -0.7163  0.3491 -1.9612
 4837SOL     OW26146   0.937   0.531   5.540 -0.2633 -0.3611  0.4479
 4837SOL    HW126147   0.939   0.538   5.445 -1.9674  1.8160  0.5539
 4837SOL    HW226148   1.004   0.589   5.575 -1.1068 -0.5054  2.3536
 4838SOL     OW26149   3.566   3.616   5.943  0.3604  0.8227 -0.4922
 4838SOL    HW126150   3.627   3.563   5.892 -1.6130 -1.3281 -0.6445
 4838SOL    HW226151   3.532   3.665   5.868 -1.7488 -0.4850 -0.3873
 4839SOL     OW26152   2.314   2.304   2.792  0.9051 -0.1916 -0.5951
 4839SOL    HW126153   2.341   2.395   2.775 -0.2397  0.1643 -0.5190
 4839SOL    HW226154   2.329   2.304   2.887 -1.7727 -1.3226 -0.1905
 4840SOL     OW26155   0.174   2.780  10.238  0.1132  0.0654  0.3377
 4840SOL    HW126156   0.156   2.754  10.328 -0.7642 -0.0940  0.1108
 4840SOL    HW226157   0.237   2.852  10.248  0.5615 -0.6228  2.5110
 4841SOL     OW26158   4.636   1.657   0.986 -0.0337  0.1904 -0.2769
 4841SOL    HW126159   4.728   1.668   1.013 -0.1207  2.9575 -1.1282
 4841SOL    HW226160   4.650   1.713   0.910 -1.3715 -0.5665 -1.0726
 4842SOL     OW26161   2.021   1.798   4.612 -0.0138 -0.2768 -0.1353
 4842SOL    HW126162   1.945   1.838   4.569 -0.0914 -1.3660 -1.0128
 4842SOL    HW226163   2.014   1.711   4.574 -1.3365 -0.2832  0.1293
 4843SOL     OW26164   2.325   0.334  13.055 -0.1575  0.6036 -0.2904
 4843SOL    HW126165   2.304   0.398  12.986  0.1209  1.8889  0.8171
 4843SOL    HW226166   2.381   0.383  13.115 -0.1688 -0.9951  1.0151
 4844SOL     OW26167   1.444   2.382  10.282  0.3932 -0.0239 -0.5532
 4844SOL    HW126168   1.520   2.361  10.227  1.6390  1.1726  0.7469
 4844SOL    HW226169   1.425   2.473  10.260 -0.9702  0.1882  1.5412
 4845SOL     OW26170   4.722   0.443   4.006 -0.1430 -0.1004 -0.0496
 4845SOL    HW126171   4.711   0.478   3.917 -0.8350 -1.3234 -0.4475
 4845SOL    HW226172   0.078   0.445   4.008 -0.1495  0.9374 -0.5405
 4846SOL     OW26173   3.540   2.097  10.913  0.2213 -0.3139 -0.0405
 4846SOL    HW126174   3.456   2.082  10.870  0.9525  1.0232 -1.9422
 4846SOL    HW226175   3.516   2.104  11.005  0.5343  1.5705 -0.1037
 4847SOL     OW26176   1.287   3.173   8.287 -0.7709 -0.7552  0.4427
 4847SOL    HW126177   1.312   3.265   8.300  0.4788 -1.3554  2.3470
 4847SOL    HW226178   1.229   3.176   8.211 -0.1535  1.4472  0.0418
 4848SOL     OW26179   2.106   2.419  11.858 -0.3596  0.4723 -0.8333
 4848SOL    HW126180   2.124   2.368  11.937 -0.3601  0.1715 -1.0274
 4848SOL    HW226181   2.025   2.378  11.828 -0.7690  0.3994  0.3550
 4849SOL     OW26182   3.228   2.480   3.171  0.1865 -0.5118 -0.0365
 4849SOL    HW126183   3.316   2.518   3.174 -0.5382  1.0743  0.6183
 4849SOL    HW226184   3.232   2.424   3.249  1.0792 -2.1847 -1.2734
 4850SOL     OW26185   2.916   2.564   2.251 -0.1793  0.5435 -0.2681
 4850SOL    HW126186   2.902   2.616   2.172  1.1157 -1.6970 -1.9624
 4850SOL    HW226187   2.980   2.500   2.220  1.1907  0.8458  1.8822
 4851SOL     OW26188   2.107   3.574   9.975  0.2324  0.5447  0.2931
 4851SOL    HW126189   2.121   3.585   9.881  0.9262 -2.6177  0.0252
 4851SOL    HW226190   2.029   3.626   9.994 -0.4762 -0.6016  0.5483
 4852SOL     OW26191   0.201   3.373   1.680 -0.5152  0.0561  0.4781
 4852SOL    HW126192   0.285   3.332   1.660 -0.5106 -0.2874  1.2131
 4852SOL    HW226193   0.174   3.335   1.764  2.0743 -0.1746  1.2047
 4853SOL     OW26194   0.914   0.648   6.592 -0.5789 -0.0336 -0.2205
 4853SOL    HW126195   1.008   0.649   6.577 -0.3532  1.2037  1.2888
 4853SOL    HW226196   0.905   0.728   6.644 -2.4959 -0.3290 -0.1120
 4854SOL     OW26197   1.346   2.221  15.044 -0.4765 -0.0392 -0.0655
 4854SOL    HW126198   1.389   2.204  14.960 -0.6849  0.4961 -0.2809
 4854SOL    HW226199   1.255   2.225  15.014 -0.1373 -1.3833 -1.2858
 4855SOL     OW26200   3.245   2.966  13.307  0.9082  0.3276  0.4366
 4855SOL    HW126201   3.239   3.043  13.249  1.0242  1.2637  1.6691
 4855SOL    HW226202   3.316   2.924  13.259  1.3066  1.7918 -0.2691
 4856SOL     OW26203   3.726   3.493   8.635  0.5430 -0.7552  0.1493
 4856SOL    HW126204   3.726   3.397   8.631 -0.3558 -0.7482  0.0393
 4856SOL    HW226205   3.651   3.515   8.580 -0.4936 -2.3961  0.9134
 4857SOL     OW26206   4.388   0.793   4.242 -0.3560  0.0302 -0.6778
 4857SOL    HW126207   4.330   0.822   4.172  1.5467  1.4424 -1.6586
 4857SOL    HW226208   4.311   0.757   4.287  0.3171  0.1044  0.5292
 4858SOL     OW26209   2.185   3.716  12.866 -0.2204  0.0693  0.1619
 4858SOL    HW126210   2.252   3.784  12.871 -0.1677  0.0581 -0.3826
 4858SOL    HW226211   2.162   3.735  12.775 -0.6364  0.2091  0.2958
 4859SOL     OW26212   3.375   0.424   8.373 -0.1169 -0.2300  0.6797
 4859SOL    HW126213   3.433   0.349   8.387  0.3186 -0.1479 -0.6038
 4859SOL    HW226214   3.307   0.421   8.440  1.5237  2.0031  2.4351
 4860SOL     OW26215   0.795   0.653   8.058 -0.6072  0.5984  0.5734
 4860SOL    HW126216   0.721   0.599   8.086  0.6174 -2.6479 -2.4278
 4860SOL    HW226217   0.864   0.630   8.120 -0.1445 -0.4839 -0.3434
 4861SOL     OW26218   2.616   0.637  12.996 -0.4763 -0.3131  0.0449
 4861SOL    HW126219   2.589   0.628  13.088 -0.7134  2.1857  0.2348
 4861SOL    HW226220   2.709   0.659  12.996 -0.4065 -0.6065 -1.1313
 4862SOL     OW26221   2.493   4.529   5.392 -0.4480  0.1035 -0.2950
 4862SOL    HW126222   2.547   4.549   5.469  0.9702  0.1156 -1.3094
 4862SOL    HW226223   2.426   4.597   5.398 -0.2203  0.1579  1.5865
 4863SOL     OW26224   1.487   4.410  13.899 -0.6966 -0.0462 -0.1407
 4863SOL    HW126225   1.533   4.401  13.983 -1.6424  1.7072  0.5639
 4863SOL    HW226226   1.412   4.456  13.938  0.7167  0.1115  2.4206
 4864SOL     OW26227   1.943   2.656   3.625 -0.0081 -0.0797  0.7299
 4864SOL    HW126228   1.850   2.680   3.632 -0.1750 -1.1138  2.0309
 4864SOL    HW226229   1.974   2.747   3.623 -1.5498  0.3898 -1.8445
 4865SOL     OW26230   1.026   0.190   7.278 -0.2666 -0.3314  0.1612
 4865SOL    HW126231   1.081   0.261   7.310 -2.2004  1.8539 -1.3964
 4865SOL    HW226232   0.972   0.224   7.207  0.5980 -0.0510 -0.3550
 4866SOL     OW26233   3.002   1.471  16.406  0.2293  0.0551  0.2080
 4866SOL    HW126234   2.961   1.480  16.320  1.2678 -1.0096 -0.3905
 4866SOL    HW226235   3.089   1.441  16.380 -0.9029 -0.3466 -3.1535
 4867SOL     OW26236   1.015   0.315  14.640  0.2838  0.0344 -0.2933
 4867SOL    HW126237   0.923   0.292  14.638 -0.6885  3.9373 -0.1364
 4867SOL    HW226238   1.051   0.242  14.692 -0.9538 -0.5433 -0.2445
 4868SOL     OW26239   4.018   3.553   3.613 -0.4284 -0.4238  0.2223
 4868SOL    HW126240   4.015   3.625   3.677  1.0739 -1.0418  0.9744
 4868SOL    HW226241   4.059   3.487   3.670  0.8366 -0.1429 -0.3772
 4869SOL     OW26242   1.482   0.554   8.225 -0.0236 -0.2566 -0.2660
 4869SOL    HW126243   1.553   0.491   8.217  0.2599  0.1198 -0.7212
 4869SOL    HW226244   1.473   0.589   8.137  1.8014 -1.9090 -1.0982
 4870SOL     OW26245   0.270   2.442  10.711 -0.0771  0.1257 -0.7227
 4870SOL    HW126246   0.289   2.417  10.801 -1.3768 -2.5192 -1.2012
 4870SOL    HW226247   0.297   2.534  10.710 -0.4619  0.2484 -0.0361
 4871SOL     OW26248   3.742   1.536   4.867 -0.1571 -0.1232  0.2645
 4871SOL    HW126249   3.752   1.483   4.946 -1.5404  0.1461  0.6334
 4871SOL    HW226250   3.785   1.619   4.890  0.0720 -1.0543  3.2241
 4872SOL     OW26251   3.731   3.797   8.275 -0.0027  0.3266 -0.1555
 4872SOL    HW126252   3.823   3.783   8.299  0.4650  0.7001 -1.7031
 4872SOL    HW226253   3.728   3.879   8.226  1.0806  0.9756  0.8918
 4873SOL     OW26254   1.509   0.099   5.696  0.8280  0.1000 -0.1395
 4873SOL    HW126255   1.503   0.125   5.604 -1.5134 -2.8736 -0.8451
 4873SOL    HW226256   1.445   0.028   5.691  0.6835  0.1875  0.4512
 4874SOL     OW26257   1.816   2.082  13.391 -0.7330 -0.2088 -0.4352
 4874SOL    HW126258   1.892   2.094  13.448  0.1376 -0.3829 -1.5586
 4874SOL    HW226259   1.794   2.172  13.367  0.7443  0.4993  0.8335
 4875SOL     OW26260   2.627   1.273   2.649 -0.3034 -0.2873 -0.7198
 4875SOL    HW126261   2.584   1.268   2.563 -0.3138 -3.2388 -0.5412
 4875SOL    HW226262   2.555   1.313   2.697 -0.3013 -1.7813  0.5237
 4876SOL     OW26263   4.035   2.975   1.243  0.8441 -0.0730  0.1652
 4876SOL    HW126264   3.951   2.938   1.214 -0.3756  0.6098  2.7884
 4876SOL    HW226265   4.043   2.945   1.334  3.5860  0.4811  0.1024
 4877SOL     OW26266   4.655   0.215   3.589  0.1280 -0.0406  0.5192
 4877SOL    HW126267   4.690   0.300   3.562  2.8433 -0.7827  1.6951
 4877SOL    HW226268   4.713   0.204   3.665  1.4492  0.9562 -0.3371
 4878SOL     OW26269   0.535   3.020   1.628  0.3425  0.2430 -0.7151
 4878SOL    HW126270   0.493   2.987   1.549 -2.4932  0.1562  0.8397
 4878SOL    HW226271   0.451   3.012   1.674 -0.4193  3.3626 -1.5676
 4879SOL     OW26272   1.138   1.763  12.930  0.1622 -0.6426 -0.4645
 4879SOL    HW126273   1.205   1.756  12.863  2.4829  1.6409  1.6295
 4879SOL    HW226274   1.192   1.750  13.008  0.3456 -0.1900 -0.5196
 4880SOL     OW26275   2.669   3.659   3.405  0.1652 -0.4303  0.0140
 4880SOL    HW126276   2.681   3.747   3.440 -0.1753  1.1587 -3.9242
 4880SOL    HW226277   2.574   3.655   3.402  0.1395  0.3674 -0.2054
 4881SOL     OW26278   3.186   1.146   4.608 -0.0997  0.2128 -0.0530
 4881SOL    HW126279   3.206   1.076   4.546 -1.3570 -0.9223  0.8044
 4881SOL    HW226280   3.256   1.205   4.581  0.2418 -0.2952 -0.2848
 4882SOL     OW26281   2.966   3.956   3.382 -0.4535  0.1534  0.6113
 4882SOL    HW126282   2.997   3.869   3.358 -2.8948 -0.8159  1.0010
 4882SOL    HW226283   2.887   3.935   3.431  0.7364 -0.2331  2.3603
 4883SOL     OW26284   1.724   3.984   5.136 -0.6751 -0.8419 -0.0179
 4883SOL    HW126285   1.732   4.074   5.102 -1.8235 -0.2136  1.3545
 4883SOL    HW226286   1.705   3.931   5.059 -2.1992  0.3764 -0.4823
 4884SOL     OW26287   2.901   4.721  13.380 -0.0596  0.4857  0.1779
 4884SOL    HW126288   2.886   0.062  13.331  0.5185 -0.9409 -2.3247
 4884SOL    HW226289   2.994   4.713  13.361 -0.0975  0.2759  0.0851
 4885SOL     OW26290   0.354   3.457   3.364 -0.3529 -0.6286  0.2799
 4885SOL    HW126291   0.322   3.433   3.277 -2.4978  1.3228  0.5168
 4885SOL    HW226292   0.423   3.518   3.339 -0.9097  1.2370  3.2369
 4886SOL     OW26293   4.273   1.869   9.385  0.0351 -0.7493  0.6153
 4886SOL    HW126294   4.342   1.893   9.323 -3.4583  2.4227 -2.0456
 4886SOL    HW226295   4.220   1.949   9.391  0.0092 -0.8609  1.8239
 4887SOL     OW26296   1.232   3.498   7.795  0.3221 -0.1335  0.0295
 4887SOL    HW126297   1.152   3.447   7.786  0.0712  0.3202 -0.3037
 4887SOL    HW226298   1.273   3.452   7.868 -0.7329 -1.2536 -0.1031
 4888SOL     OW26299   3.399   3.516   4.301  0.4883  0.8894 -1.0871
 4888SOL    HW126300   3.335   3.584   4.320  0.5801  0.0519  2.1678
 4888SOL    HW226301   3.399   3.447   4.367 -0.4604  0.5201 -1.4711
 4889SOL     OW26302   2.535   0.377  12.829  0.6053 -0.7998  0.3135
 4889SOL    HW126303   2.443   0.385  12.803  0.6226 -0.2062  0.4415
 4889SOL    HW226304   2.552   0.456  12.880  2.0649 -0.6303 -0.4424
 4890SOL     OW26305   3.009   1.472   1.855 -0.2662  0.4583  0.2681
 4890SOL    HW126306   3.021   1.485   1.761  2.6766  0.2082  0.6015
 4890SOL    HW226307   2.919   1.501   1.867  0.0317  2.1661 -1.4838
 4891SOL     OW26308   2.532   3.260   2.354 -0.0117 -0.2521  0.0139
 4891SOL    HW126309   2.585   3.340   2.360  1.8381 -1.4239 -0.4889
 4891SOL    HW226310   2.586   3.194   2.310  2.2024  1.5103  0.0538
 4892SOL     OW26311   0.349   2.443   7.594  0.0310  0.3082 -0.3486
 4892SOL    HW126312   0.283   2.375   7.607 -0.5173  0.6646 -1.2800
 4892SOL    HW226313   0.305   2.517   7.634  0.9067 -0.8636  2.7822
 4893SOL     OW26314   3.679   3.905   3.978  0.2127  0.9448 -0.3460
 4893SOL    HW126315   3.710   3.949   3.899  0.9574  0.9846 -0.0376
 4893SOL    HW226316   3.762   3.881   4.020  0.0434 -0.6275 -0.9311
 4894SOL     OW26317   2.948   2.847   8.390  0.2298  0.1659  0.3709
 4894SOL    HW126318   2.984   2.915   8.333 -1.8617  1.4270  0.5498
 4894SOL    HW226319   2.950   2.905   8.466 -0.2446 -0.1061  0.5854
 4895SOL     OW26320   3.594   0.805  13.043  0.0035 -0.0195  0.2912
 4895SOL    HW126321   3.641   0.872  13.093  0.8456 -0.3927  0.0125
 4895SOL    HW226322   3.543   0.777  13.119  1.5108 -0.9425  0.9739
 4896SOL     OW26323   3.401   0.357   7.478 -0.0601 -1.0880 -0.0809
 4896SOL    HW126324   3.487   0.399   7.482 -0.5823  0.0035 -0.5604
 4896SOL    HW226325   3.408   0.294   7.550 -0.6070 -0.0811  0.8458
 4897SOL     OW26326   2.668   4.175  11.521  0.1159 -0.2642 -0.0393
 4897SOL    HW126327   2.576   4.148  11.523  0.7065 -2.0980  2.3335
 4897SOL    HW226328   2.702   4.158  11.609  0.2659  0.3211  0.0190
 4898SOL     OW26329   0.467   1.898   2.165 -0.3082  0.1599  0.4459
 4898SOL    HW126330   0.385   1.906   2.116 -0.9129 -1.0489  1.2537
 4898SOL    HW226331   0.441   1.878   2.255 -1.6529 -2.9799 -0.6600
 4899SOL     OW26332   1.624   3.335   6.319 -0.0003  0.3950 -0.0601
 4899SOL    HW126333   1.549   3.337   6.258 -0.0076 -1.5597 -0.1247
 4899SOL    HW226334   1.608   3.413   6.372  0.2891  0.0917  0.4669
 4900SOL     OW26335   3.716   4.561   5.977  0.2359 -0.1605  0.5081
 4900SOL    HW126336   3.667   4.515   5.909 -0.0373  0.4061  0.3231
 4900SOL    HW226337   3.690   4.523   6.061 -1.2635 -0.9321 -0.2914
 4901SOL     OW26338   0.057   0.567   6.939 -0.9039 -0.4264  0.1776
 4901SOL    HW126339   0.054   0.628   6.866  0.4852  0.5444  0.9366
 4901SOL    HW226340   0.015   0.629   6.998  0.8111  1.8156 -0.9700
 4902SOL     OW26341   2.320   2.755   3.872 -0.0809 -0.0532  0.1741
 4902SOL    HW126342   2.358   2.740   3.959 -0.8481  1.4490  0.7742
 4902SOL    HW226343   2.362   2.840   3.853  0.7202 -0.7563 -1.1572
 4903SOL     OW26344   3.606   1.894   4.760  0.6061  0.1082  0.0501
 4903SOL    HW126345   3.512   1.877   4.757  0.5759  0.6131 -1.8114
 4903SOL    HW226346   3.626   1.888   4.666  1.7782 -0.8453  0.3621
 4904SOL     OW26347   4.492   0.786   3.450 -0.3478  0.2934 -0.3812
 4904SOL    HW126348   4.475   0.705   3.498  3.5568  0.1705  0.8042
 4904SOL    HW226349   4.475   0.851   3.518  1.2086  1.0244 -0.7012
 4905SOL     OW26350   2.101   1.539   3.163 -0.3146  0.3674  0.1576
 4905SOL    HW126351   2.074   1.468   3.104  1.6475 -0.3293  0.0969
 4905SOL    HW226352   2.033   1.601   3.140 -2.0098 -1.0971  1.2725
 4906SOL     OW26353   2.965   0.058   6.792  0.0638  0.3244  0.1724
 4906SOL    HW126354   2.980   0.049   6.698 -1.7698  0.5926 -0.1595
 4906SOL    HW226355   3.026   4.733   6.828  1.4673  1.3214 -0.4367
 4907SOL     OW26356   2.787   2.617   7.929  0.2714  0.1340 -0.3073
 4907SOL    HW126357   2.828   2.574   8.004  0.8580 -1.1374 -1.3529
 4907SOL    HW226358   2.708   2.567   7.907 -0.5487  0.7832  1.2395
 4908SOL     OW26359   3.338   0.283   6.088 -0.2577  0.3332 -0.1148
 4908SOL    HW126360   3.393   0.209   6.111 -1.4639 -0.3192  0.6827
 4908SOL    HW226361   3.399   0.357   6.088 -2.1304  1.9117 -0.2128
 4909SOL     OW26362   1.172   3.520  14.810  0.1603  0.3444  0.1115
 4909SOL    HW126363   1.260   3.538  14.778  0.0481  0.8728  0.1024
 4909SOL    HW226364   1.180   3.514  14.905 -3.1333 -1.3608  0.2870
 4910SOL     OW26365   2.772   1.743   8.812 -0.1267 -0.0800 -0.0988
 4910SOL    HW126366   2.832   1.680   8.852 -0.0504 -0.6970 -1.2100
 4910SOL    HW226367   2.689   1.731   8.858  0.5292  1.0618  1.3979
 4911SOL     OW26368   1.137   4.350   2.183 -0.9057 -0.2683  0.1616
 4911SOL    HW126369   1.212   4.292   2.186 -2.5811 -2.4573 -0.0764
 4911SOL    HW226370   1.082   4.311   2.251 -0.8253 -0.3662  0.1688
 4912SOL     OW26371   0.672   0.810   4.027  0.1855  0.1509  0.3205
 4912SOL    HW126372   0.749   0.753   4.036  2.0413  2.5314 -0.4313
 4912SOL    HW226373   0.614   0.762   4.086  0.4631 -1.0517 -0.3918
 4913SOL     OW26374   2.257   2.808  13.821 -0.0754  0.3327  0.3410
 4913SOL    HW126375   2.209   2.728  13.799 -1.4987  1.3079 -0.0808
 4913SOL    HW226376   2.255   2.852  13.736 -1.2307  0.3934  0.3948
 4914SOL     OW26377   4.299   0.284   7.175 -0.0971  0.2471 -0.2950
 4914SOL    HW126378   4.392   0.289   7.154  0.3376 -1.1000  1.2681
 4914SOL    HW226379   4.301   0.262   7.268 -1.4224  0.2325 -0.2754
 4915SOL     OW26380   1.773   1.046   7.725  0.8565  0.0886  0.1762
 4915SOL    HW126381   1.693   1.084   7.761  0.7365  0.3307 -0.3355
 4915SOL    HW226382   1.777   1.089   7.639  0.7534 -0.9255 -0.3295
 4916SOL     OW26383   1.577   0.701  17.404  0.1419  0.1306  0.1388
 4916SOL    HW126384   1.628   0.770  17.446 -1.0355  0.5401  0.8992
 4916SOL    HW226385   1.549   0.632  17.464  0.3392 -0.5296 -0.5238
 4917SOL     OW26386   3.813   0.975   4.692 -0.2469 -0.6464 -0.1135
 4917SOL    HW126387   3.738   0.976   4.751 -0.7439 -2.1627 -0.7343
 4917SOL    HW226388   3.783   1.018   4.612  1.4420  0.2615 -0.2613
 4918SOL     OW26389   3.398   2.618   7.731  0.1857  0.5954 -0.1351
 4918SOL    HW126390   3.412   2.584   7.819  2.0217  0.6007 -0.4411
 4918SOL    HW226391   3.485   2.636   7.696  1.5247 -2.9999  1.4324
 4919SOL     OW26392   1.640   3.329   2.475 -0.2291 -0.1345  0.3543
 4919SOL    HW126393   1.657   3.379   2.555  0.1180  0.4268 -0.0685
 4919SOL    HW226394   1.707   3.261   2.479  0.7213  0.8616  1.4698
 4920SOL     OW26395   3.346   2.201   4.582  0.3427  0.7673  0.1418
 4920SOL    HW126396   3.332   2.135   4.649 -1.3362 -0.7538 -1.7068
 4920SOL    HW226397   3.433   2.175   4.551  0.4742  0.4617  0.7764
 4921SOL     OW26398   4.393   4.268   6.603 -0.0292  0.0462  0.4277
 4921SOL    HW126399   4.317   4.224   6.642  1.2785  0.3015  3.2909
 4921SOL    HW226400   4.348   4.347   6.574  0.7883  0.1483 -0.5530
 4922SOL     OW26401   2.401   1.606   7.668  0.0816  0.4298 -0.4005
 4922SOL    HW126402   2.375   1.547   7.739  2.5418  0.0222  0.1405
 4922SOL    HW226403   2.375   1.683   7.720  1.8762 -0.4899  1.8568
 4923SOL     OW26404   3.956   2.487  17.562 -0.0779  0.1704  0.0303
 4923SOL    HW126405   3.866   2.503  17.592 -1.2610 -1.6558 -2.5958
 4923SOL    HW226406   3.956   2.394  17.586  1.0734  0.4104  0.9525
 4924SOL     OW26407   1.793   1.764   1.742  0.6965 -0.0465  0.3371
 4924SOL    HW126408   1.745   1.686   1.771 -0.5341  0.7681  0.5258
 4924SOL    HW226409   1.770   1.773   1.649 -1.2806 -3.8767  0.4609
 4925SOL     OW26410   3.000   1.526   6.566  0.4143  0.3776 -0.4276
 4925SOL    HW126411   3.037   1.529   6.477 -0.4812  1.9781 -0.7557
 4925SOL    HW226412   3.063   1.563   6.627  1.8159 -0.1421 -1.5540
 4926SOL     OW26413   3.076   3.029   8.233  0.0837  0.2627 -0.1988
 4926SOL    HW126414   3.012   3.090   8.271 -1.4624 -0.4142 -1.6757
 4926SOL    HW226415   3.110   3.073   8.155 -0.0351  2.1175  0.7989
 4927SOL     OW26416   0.373   1.971   5.987  0.2673 -0.3404 -0.2518
 4927SOL    HW126417   0.278   1.972   5.987  0.2729 -0.0752  0.6874
 4927SOL    HW226418   0.394   1.892   5.938  0.4099  1.1027 -2.5334
 4928SOL     OW26419   2.974   4.730   3.322 -0.1851 -0.3362 -0.1352
 4928SOL    HW126420   2.984   4.682   3.240  1.2015 -0.0200 -0.1480
 4928SOL    HW226421   3.043   0.053   3.303  0.3150 -0.4922  1.1798
 4929SOL     OW26422   2.339   4.033  10.665  0.2463 -0.3842 -0.0642
 4929SOL    HW126423   2.338   3.940  10.645 -1.7288 -0.9245  2.5438
 4929SOL    HW226424   2.326   4.036  10.760  1.4679 -0.4957  0.1059
 4930SOL     OW26425   0.251   2.053   9.143 -0.6004 -0.4567 -0.0128
 4930SOL    HW126426   0.298   1.999   9.080 -1.3620 -0.2986 -0.7225
 4930SOL    HW226427   0.319   2.105   9.186 -0.9396  0.9716 -1.2023
 4931SOL     OW26428   3.854   0.955   7.831  0.8276  0.2105 -0.0997
 4931SOL    HW126429   3.854   0.958   7.927 -1.6845 -0.2252 -0.0924
 4931SOL    HW226430   3.762   0.938   7.814  0.6632  1.7329 -0.7737
 4932SOL     OW26431   1.469   0.921   1.700  0.4496 -0.2133  0.2602
 4932SOL    HW126432   1.427   0.888   1.621  1.2034 -1.6446  0.4571
 4932SOL    HW226433   1.408   0.990   1.728  0.6910 -0.7893  2.2465
 4933SOL     OW26434   3.086   2.077  10.496  0.0643  0.4081 -0.1520
 4933SOL    HW126435   3.025   2.130  10.444  0.7079  1.7224  0.4598
 4933SOL    HW226436   3.029   2.038  10.562  0.3615  3.9338  2.1537
 4934SOL     OW26437   2.438   2.628   7.746  0.0089  0.5669 -0.4317
 4934SOL    HW126438   2.413   2.718   7.768  0.4693  1.1281 -2.1817
 4934SOL    HW226439   2.387   2.621   7.664  0.4993  0.8729 -0.7631
 4935SOL     OW26440   2.425   3.139   6.937  0.1388 -0.1192 -0.5823
 4935SOL    HW126441   2.440   3.201   6.865  4.7422 -0.0368  0.4841
 4935SOL    HW226442   2.511   3.097   6.939 -0.1016 -0.6692 -1.5276
 4936SOL     OW26443   1.858   3.627  14.939  0.7490  0.3154 -0.1381
 4936SOL    HW126444   1.879   3.603  15.030 -0.5656  1.0208  0.3524
 4936SOL    HW226445   1.819   3.547  14.905 -1.2102  1.6856 -1.0493
 4937SOL     OW26446   2.313   1.048   1.344 -0.0371  0.4673  0.2238
 4937SOL    HW126447   2.308   1.128   1.293 -0.7269 -0.2224 -0.8015
 4937SOL    HW226448   2.256   1.063   1.420  0.4276  1.1696  0.4248
 4938SOL     OW26449   3.507   4.052   2.193  0.0263  0.2950  0.9544
 4938SOL    HW126450   3.511   3.990   2.265 -1.8653  1.0214  1.6758
 4938SOL    HW226451   3.544   3.991   2.129  0.9041  1.7535  0.0702
 4939SOL     OW26452   0.497   4.017  11.629 -0.0387 -0.2634 -0.3072
 4939SOL    HW126453   0.496   3.942  11.570  0.8404 -0.0052 -0.6440
 4939SOL    HW226454   0.567   3.990  11.688 -0.3020 -0.7925 -0.2331
 4940SOL     OW26455   1.423   2.010  16.177 -0.3378  0.0061 -0.4609
 4940SOL    HW126456   1.449   1.933  16.228 -2.7392  1.8247  3.5475
 4940SOL    HW226457   1.376   2.068  16.238  0.9690  0.5131  0.0543
 4941SOL     OW26458   2.713   4.376   3.643  0.1547  0.1577  0.2044
 4941SOL    HW126459   2.663   4.300   3.615  2.0491 -1.6151  1.6712
 4941SOL    HW226460   2.718   4.380   3.739 -0.6309  2.2146  0.1549
 4942SOL     OW26461   1.388   4.295   3.838  0.3562 -0.5351  0.1184
 4942SOL    HW126462   1.387   4.300   3.742 -1.2610  0.9743  0.2169
 4942SOL    HW226463   1.480   4.271   3.852  0.0213 -1.7535  0.2146
 4943SOL     OW26464   4.492   4.614   7.944  0.3135  0.1093  0.3088
 4943SOL    HW126465   4.426   4.549   7.970  1.8506 -0.8744  1.7362
 4943SOL    HW226466   4.487   4.671   8.021  0.8012 -2.6146  2.3617
 4944SOL     OW26467   0.318   1.885  12.962  0.3400  0.0094 -0.7064
 4944SOL    HW126468   0.302   1.848  12.875 -1.1426 -1.9787  0.4049
 4944SOL    HW226469   0.323   1.978  12.941  0.4700  0.0248 -0.6041
 4945SOL     OW26470   4.704   2.869   3.451  0.4112  0.3789  0.3769
 4945SOL    HW126471   4.610   2.861   3.432  0.3738  0.3458  0.5778
 4945SOL    HW226472   4.710   2.946   3.508  1.2626  0.2955  0.3892
 4946SOL     OW26473   3.140   4.709  11.040 -0.3066  0.1604 -0.0001
 4946SOL    HW126474   3.168   4.656  11.115  0.9349 -0.3931 -0.8719
 4946SOL    HW226475   3.065   4.657  11.011 -0.3802 -0.7002  1.7403
 4947SOL     OW26476   2.266   0.227   5.186  0.3403 -0.0474  0.1456
 4947SOL    HW126477   2.314   0.226   5.103 -0.1845 -3.5876 -0.1446
 4947SOL    HW226478   2.333   0.255   5.248  1.3399  0.5000 -1.1830
 4948SOL     OW26479   4.330   2.430   5.592 -0.0275  0.1728 -0.6072
 4948SOL    HW126480   4.289   2.443   5.507  1.6303  4.3153 -0.7584
 4948SOL    HW226481   4.294   2.503   5.642  1.1448 -0.3590  1.0251
 4949SOL     OW26482   0.049   1.715  17.505  1.2178  0.2136  0.6678
 4949SOL    HW126483   4.720   1.763  17.552 -0.5917 -1.0390 -0.7135
 4949SOL    HW226484   0.050   1.767  17.425 -0.9209 -1.1954 -0.2779
 4950SOL     OW26485   4.656   0.167   4.540  0.3065 -0.0802 -0.3509
 4950SOL    HW126486   4.682   0.101   4.604 -1.1715 -1.4374 -1.1520
 4950SOL    HW226487   4.664   0.244   4.597 -3.2275  0.6156 -0.7529
 4951SOL     OW26488   0.899   0.127   8.568 -0.2343 -0.5320 -0.0599
 4951SOL    HW126489   0.924   0.070   8.641 -1.1006 -1.7507 -0.7225
 4951SOL    HW226490   0.960   0.111   8.495 -0.5742 -1.4224 -0.1450
 4952SOL     OW26491   1.342   2.764   1.189 -0.2766  0.4322  0.5571
 4952SOL    HW126492   1.382   2.851   1.186 -3.1589  1.7335 -0.4634
 4952SOL    HW226493   1.251   2.790   1.175 -0.9040 -0.8775  2.1189
 4953SOL     OW26494   1.097   2.091  14.987 -0.1431 -0.3485  0.3903
 4953SOL    HW126495   1.027   2.114  14.925  1.3010 -2.4112 -2.0277
 4953SOL    HW226496   1.046   2.103  15.067 -0.6219  1.6735 -0.1989
 4954SOL     OW26497   2.110   4.590   8.950  0.0056  0.1289 -0.0262
 4954SOL    HW126498   2.039   4.544   8.904  1.8365 -1.3022 -1.3886
 4954SOL    HW226499   2.183   4.558   8.898  0.0987 -0.3523  0.4060
 4955SOL     OW26500   2.522   3.989   9.631  0.8010  0.1627 -0.1051
 4955SOL    HW126501   2.593   3.925   9.629 -0.6152 -1.3743 -0.8795
 4955SOL    HW226502   2.566   4.057   9.581 -0.5216  0.4349 -0.8993
 4956SOL     OW26503   0.544   2.399   6.387  0.0276 -0.2079 -0.6026
 4956SOL    HW126504   0.568   2.488   6.363 -0.6961 -0.5198 -2.4611
 4956SOL    HW226505   0.506   2.370   6.304  0.6909  2.9663 -2.0216
 4957SOL     OW26506   2.373   0.066   2.146  0.4066 -0.1164  0.0627
 4957SOL    HW126507   2.465   0.046   2.164  0.8385  0.4979 -1.4609
 4957SOL    HW226508   2.336   4.734   2.094 -0.5847  2.5360 -2.8935
 4958SOL     OW26509   2.782   2.315   0.897  0.3054  0.2909  0.0035
 4958SOL    HW126510   2.711   2.274   0.946  0.9039 -1.2109 -0.3925
 4958SOL    HW226511   2.763   2.408   0.915  0.3715  0.1350  0.9021
 4959SOL     OW26512   4.698   2.117   7.800  0.3174 -0.3010 -0.3315
 4959SOL    HW126513   4.739   2.121   7.886 -0.1478 -1.4906 -0.0525
 4959SOL    HW226514   4.609   2.101   7.832 -0.2783  1.4327 -1.1301
 4960SOL     OW26515   2.335   3.386   8.377  0.4629 -0.1539 -0.3340
 4960SOL    HW126516   2.342   3.475   8.410 -0.0619 -0.6816  1.2231
 4960SOL    HW226517   2.398   3.338   8.431 -1.7498 -0.9022  1.5718
 4961SOL     OW26518   2.318   3.131   8.231 -0.2287 -0.1505  0.0549
 4961SOL    HW126519   2.376   3.115   8.156 -1.0175  1.8814 -0.9895
 4961SOL    HW226520   2.315   3.226   8.247  0.2300  0.3524 -2.7316
 4962SOL     OW26521   0.807   2.160   7.935  0.2424  0.4249  0.0519
 4962SOL    HW126522   0.745   2.113   7.990  1.3425 -0.7513  0.2860
 4962SOL    HW226523   0.782   2.251   7.951 -2.5576 -0.0110 -1.6735
 4963SOL     OW26524   0.844   3.747   5.173 -0.0211  0.2140 -0.8075
 4963SOL    HW126525   0.913   3.682   5.157 -1.5034 -1.4432 -0.4898
 4963SOL    HW226526   0.849   3.758   5.268 -3.4351 -1.4542 -0.4397
 4964SOL     OW26527   4.153   3.721   8.189  0.0476 -0.2325 -0.0777
 4964SOL    HW126528   4.212   3.735   8.115  0.9194 -1.0274  0.4708
 4964SOL    HW226529   4.148   3.809   8.228 -1.4310 -0.0112 -0.7707
 4965SOL     OW26530   1.492   0.465   1.974 -0.3302  0.2306  0.1269
 4965SOL    HW126531   1.580   0.497   1.955 -1.0432  1.3416 -1.2204
 4965SOL    HW226532   1.467   0.461   1.882 -0.3180  2.9386  0.0132
 4966SOL     OW26533   3.543   4.572  10.672  0.6454 -0.5188  0.3011
 4966SOL    HW126534   3.564   4.565  10.765  2.9629  0.6686 -0.1320
 4966SOL    HW226535   3.629   4.573  10.629  0.8670  0.4733  0.7708
 4967SOL     OW26536   3.601   3.883   1.688 -0.2608  0.4521 -0.2073
 4967SOL    HW126537   3.581   3.976   1.696 -1.0188  0.3808 -1.3788
 4967SOL    HW226538   3.613   3.871   1.594  2.0875 -1.3205  0.3108
 4968SOL     OW26539   3.867   0.361   4.167  0.4193  0.0783  0.6658
 4968SOL    HW126540   3.918   0.401   4.097 -0.7301  1.3430  0.5504
 4968SOL    HW226541   3.817   0.291   4.124  1.4709  0.9037 -1.9225
 4969SOL     OW26542   0.903   0.767  13.932 -0.3462 -0.3232 -0.9066
 4969SOL    HW126543   0.883   0.860  13.934 -2.1974 -0.7306 -0.4744
 4969SOL    HW226544   0.952   0.755  14.014  0.1812 -1.0231 -1.3198
 4970SOL     OW26545   1.093   1.898  10.531 -0.3241  0.4221 -0.2064
 4970SOL    HW126546   1.167   1.918  10.473  1.1154  0.1361  1.5436
 4970SOL    HW226547   1.029   1.891  10.460  0.1847  1.5612 -0.7901
 4971SOL     OW26548   0.619   4.686  13.804  0.0728 -0.4848 -0.3140
 4971SOL    HW126549   0.524   4.697  13.805  0.0987 -0.0246 -3.1396
 4971SOL    HW226550   0.633   4.642  13.888 -0.8395  0.4888  0.3531
 4972SOL     OW26551   1.868   1.042   6.594  0.3283 -0.2934  0.1370
 4972SOL    HW126552   1.840   1.129   6.621 -1.5526 -0.7815 -0.2185
 4972SOL    HW226553   1.939   1.063   6.534  2.9006 -1.9273  2.5934
 4973SOL     OW26554   3.925   3.020  17.210 -0.3513 -0.2500 -0.6873
 4973SOL    HW126555   3.863   3.093  17.207  0.1994  0.1649 -1.6840
 4973SOL    HW226556   3.881   2.970  17.142 -1.5808  0.2668 -0.2729
 4974SOL     OW26557   4.423   1.790   2.452 -0.2061  0.1099 -0.3561
 4974SOL    HW126558   4.407   1.703   2.489  0.4318 -0.1256 -0.6438
 4974SOL    HW226559   4.331   1.808   2.434 -0.7047 -0.8451  1.2704
 4975SOL     OW26560   1.568   3.567   6.452  0.2262  0.3596 -0.2692
 4975SOL    HW126561   1.644   3.624   6.463  0.5847  0.0276 -1.0454
 4975SOL    HW226562   1.504   3.636   6.432 -1.5869 -1.3498 -0.4073
 4976SOL     OW26563   1.617   3.298   8.318  0.1900  0.3204 -0.0954
 4976SOL    HW126564   1.620   3.390   8.294 -1.3310  0.0124 -1.5244
 4976SOL    HW226565   1.580   3.269   8.234 -1.1224  1.4471  0.0916
 4977SOL     OW26566   2.574   4.085  15.232 -0.0840 -0.3088 -0.9417
 4977SOL    HW126567   2.634   4.056  15.301  0.0878 -1.0946 -1.4264
 4977SOL    HW226568   2.585   4.015  15.168  0.1982 -1.7991  0.7128
 4978SOL     OW26569   0.614   1.356   6.095 -0.4830 -0.1621 -0.6096
 4978SOL    HW126570   0.637   1.446   6.120  0.3767 -0.9377  1.4218
 4978SOL    HW226571   0.688   1.327   6.042 -0.0087 -2.5163  1.3377
 4979SOL     OW26572   3.499   4.349  13.348  0.2503 -0.2761  0.5190
 4979SOL    HW126573   3.575   4.347  13.290  0.6700 -0.9275  1.0981
 4979SOL    HW226574   3.483   4.255  13.337  0.9927 -0.5126  1.5093
 4980SOL     OW26575   3.457   3.008   4.374 -0.3459  0.3053 -0.0366
 4980SOL    HW126576   3.493   3.096   4.382  1.6647 -0.6259  1.0374
 4980SOL    HW226577   3.379   3.009   4.430 -0.9569 -2.2053 -0.8550
 4981SOL     OW26578   4.151   0.676   9.122  0.5513 -0.1324 -0.0966
 4981SOL    HW126579   4.096   0.747   9.091  0.4204  0.5849  1.8024
 4981SOL    HW226580   4.224   0.718   9.167  1.4174 -0.6177 -1.0376
 4982SOL     OW26581   4.128   2.444   8.076 -0.6570  0.2109  0.0503
 4982SOL    HW126582   4.064   2.509   8.106  1.4482  3.0201 -1.5332
 4982SOL    HW226583   4.109   2.380   8.145  1.3233  0.2770  0.6491
 4983SOL     OW26584   4.159   1.320   4.559 -0.1240 -0.3494  0.0253
 4983SOL    HW126585   4.198   1.307   4.646 -1.5653 -1.1043  0.5680
 4983SOL    HW226586   4.083   1.374   4.582  2.0474  1.7578  2.3010
 4984SOL     OW26587   2.104   4.692  11.925 -0.2975  0.1139  0.4615
 4984SOL    HW126588   2.052   0.020  11.882  0.0232  0.8073  1.1725
 4984SOL    HW226589   2.083   4.607  11.886 -1.2545  0.7431 -0.3798
 4985SOL     OW26590   0.636   2.834  10.080  0.0830 -0.3477 -0.2846
 4985SOL    HW126591   0.706   2.773  10.058 -2.3263 -3.5687  1.0228
 4985SOL    HW226592   0.688   2.911  10.104 -0.9048 -0.0453  0.8677
 4986SOL     OW26593   0.936   0.101   2.333 -0.1477  0.1202  0.5149
 4986SOL    HW126594   0.842   0.087   2.329  0.5665 -5.0623  1.1448
 4986SOL    HW226595   0.969   0.035   2.272 -1.4207 -0.4560  0.4472
 4987SOL     OW26596   1.778   3.092   2.475 -0.2838  0.5507 -0.0423
 4987SOL    HW126597   1.830   3.018   2.508  0.2648  0.5393 -0.9243
 4987SOL    HW226598   1.856   3.138   2.444  0.5478 -0.0662  1.1343
 4988SOL     OW26599   2.847   4.004   1.028 -0.3109  0.7231  0.0254
 4988SOL    HW126600   2.888   3.953   1.098 -2.0515 -1.6373 -0.6900
 4988SOL    HW226601   2.926   4.051   1.000 -0.0507 -0.2500 -0.9012
 4989SOL     OW26602   4.198   1.882   2.984 -0.2351  0.0035 -0.2864
 4989SOL    HW126603   4.245   1.929   3.053  0.1824  1.2515 -1.4292
 4989SOL    HW226604   4.127   1.851   3.039  0.7154  2.0371  2.0725
 4990SOL     OW26605   3.936   2.615   8.094 -0.1604  0.1694 -0.1247
 4990SOL    HW126606   3.850   2.623   8.053 -0.5520  3.1980  1.3404
 4990SOL    HW226607   3.909   2.615   8.185 -0.7938  0.9131 -0.3142
 4991SOL     OW26608   1.552   3.835   3.257  0.0978 -0.2669 -0.2938
 4991SOL    HW126609   1.480   3.796   3.306 -0.2894 -1.1251 -1.5152
 4991SOL    HW226610   1.620   3.767   3.263 -1.1594 -1.2532  2.5407
 4992SOL     OW26611   0.787   2.944  13.564  0.8439  0.1505  0.4076
 4992SOL    HW126612   0.807   3.031  13.528 -1.1994  1.5844  2.7340
 4992SOL    HW226613   0.734   2.968  13.640 -1.2690 -0.6538 -0.8454
 4993SOL     OW26614   4.587   0.113  15.468 -0.0036  0.5065 -0.0930
 4993SOL    HW126615   4.645   0.160  15.527 -1.0548  0.6151  0.8534
 4993SOL    HW226616   4.524   0.177  15.435  0.0875 -0.0957 -1.4631
 4994SOL     OW26617   1.774   3.748   9.838  0.3335 -0.2201  0.6138
 4994SOL    HW126618   1.834   3.756   9.912 -0.4668  0.8775  1.1335
 4994SOL    HW226619   1.821   3.690   9.778 -2.3366 -2.3230  0.5718
 4995SOL     OW26620   0.862   2.204   3.306 -0.0669  0.5069 -0.3911
 4995SOL    HW126621   0.908   2.178   3.227 -2.1037 -2.8752 -0.4551
 4995SOL    HW226622   0.913   2.158   3.373 -2.2621 -0.0105  0.9228
 4996SOL     OW26623   0.666   2.748   5.737 -0.2653 -0.0186 -0.0390
 4996SOL    HW126624   0.601   2.779   5.801 -1.3359  0.4683 -1.3762
 4996SOL    HW226625   0.606   2.697   5.683 -3.9782  1.4335  2.6512
 4997SOL     OW26626   2.985   4.332   1.519 -0.1203  0.0186  0.1864
 4997SOL    HW126627   2.891   4.331   1.540  0.1621  1.2133  1.4561
 4997SOL    HW226628   2.988   4.310   1.426 -0.7114 -0.8235  0.3680
 4998SOL     OW26629   4.409   2.848   5.786 -0.3437 -1.0533 -0.2587
 4998SOL    HW126630   4.495   2.857   5.826 -0.2890 -1.9722 -0.1702
 4998SOL    HW226631   4.354   2.843   5.865 -0.0421 -2.9628 -0.1705
 4999SOL     OW26632   3.175   3.037   5.046  0.2902  0.2349  0.1394
 4999SOL    HW126633   3.194   2.945   5.029  0.6261  0.6375 -1.7109
 4999SOL    HW226634   3.245   3.055   5.109 -0.4992  1.6904  0.6092
 5000SOL     OW26635   0.319   0.416   9.024 -0.1925  0.0522  0.0317
 5000SOL    HW126636   0.406   0.409   9.064 -0.5503 -3.6386  0.1389
 5000SOL    HW226637   0.290   0.327   9.007  1.1015 -0.8533  2.5928
 5001SOL     OW26638   4.584   0.337   9.054  0.2057  0.4458 -0.5511
 5001SOL    HW126639   4.591   0.389   9.133 -2.5726 -0.9386  0.6276
 5001SOL    HW226640   4.554   0.412   9.002 -0.9563  0.0587 -0.4507
 5002SOL     OW26641   2.214   4.373  14.801 -0.2536  0.4071 -0.0887
 5002SOL    HW126642   2.189   4.335  14.717  2.8829 -0.2611 -0.7301
 5002SOL    HW226643   2.264   4.446  14.765 -0.7334  0.6261 -0.3142
 5003SOL     OW26644   2.039   3.488   5.266 -0.2847 -0.4109 -0.0369
 5003SOL    HW126645   2.106   3.555   5.253 -0.8705  0.3585  0.9291
 5003SOL    HW226646   1.985   3.506   5.342 -1.0771 -0.5612 -0.5589
 5004SOL     OW26647   0.013   0.322   3.297 -0.2685 -0.2501 -0.2023
 5004SOL    HW126648   0.064   0.314   3.216  1.1992 -0.4191  0.7522
 5004SOL    HW226649   0.047   0.240   3.334  2.3002  1.2437  0.7195
 5005SOL     OW26650   1.186   3.019  12.924  0.2562  0.4539  0.5882
 5005SOL    HW126651   1.222   2.931  12.937  1.3642  0.8447  0.1625
 5005SOL    HW226652   1.262   3.071  12.949 -0.2051 -0.4019  3.7865
 5006SOL     OW26653   2.839   2.210   2.614  0.3880  0.1001  0.0448
 5006SOL    HW126654   2.782   2.186   2.540  0.3458  0.4847 -0.0440
 5006SOL    HW226655   2.869   2.126   2.650 -0.3850 -0.5143 -0.7309
 5007SOL     OW26656   2.522   0.944   9.243  0.5702 -0.1865 -0.2138
 5007SOL    HW126657   2.607   0.988   9.236  1.3909 -1.9296 -1.3057
 5007SOL    HW226658   2.470   1.007   9.293  1.3885  1.2233 -1.1186
 5008SOL     OW26659   3.208   4.003   4.502 -0.3767  0.1176 -0.0891
 5008SOL    HW126660   3.191   3.938   4.434  2.4089 -0.4553 -0.2630
 5008SOL    HW226661   3.142   4.072   4.492 -1.1802 -0.8515 -1.4999
 5009SOL     OW26662   3.833   1.097  15.736  0.3636  0.0054 -0.2212
 5009SOL    HW126663   3.785   1.024  15.774 -2.9462  1.2584 -2.0487
 5009SOL    HW226664   3.830   1.083  15.641  2.2938 -0.3754 -0.2315
 5010SOL     OW26665   0.574   2.403  10.718 -0.0827 -0.1912  0.5806
 5010SOL    HW126666   0.483   2.410  10.689  1.4335 -1.9948 -4.7124
 5010SOL    HW226667   0.573   2.328  10.777  0.3294 -0.3867  0.3434
 5011SOL     OW26668   3.323   0.100   9.963 -0.7944  0.3778 -0.5947
 5011SOL    HW126669   3.265   0.025   9.965 -0.1912 -0.0742 -0.1080
 5011SOL    HW226670   3.316   0.123  10.056 -1.7687  1.6845 -0.9874
 5012SOL     OW26671   4.234   0.597   1.935 -0.1665 -0.5506 -0.0674
 5012SOL    HW126672   4.159   0.554   1.977 -0.1045  0.5615  1.1647
 5012SOL    HW226673   4.199   0.685   1.928  2.0057  0.5831  3.0725
 5013SOL     OW26674   1.300   0.445  11.422 -0.0667  0.2178 -0.1468
 5013SOL    HW126675   1.369   0.414  11.481 -0.4088 -2.1904 -1.0139
 5013SOL    HW226676   1.224   0.409  11.469 -0.5253  0.1831 -0.9264
 5014SOL     OW26677   2.664   2.634   5.787  0.0946 -0.4529  0.0174
 5014SOL    HW126678   2.725   2.651   5.715 -2.1764 -0.3661 -1.8847
 5014SOL    HW226679   2.608   2.711   5.781  2.3502  1.4371  3.2316
 5015SOL     OW26680   0.894   4.395  12.556  0.5645 -0.0803  0.3641
 5015SOL    HW126681   0.976   4.389  12.508  0.1111 -0.4103 -0.3594
 5015SOL    HW226682   0.903   4.479  12.601  0.2664  0.3583 -0.4058
 5016SOL     OW26683   1.697   2.210   1.423 -0.4289  0.2793 -0.1478
 5016SOL    HW126684   1.730   2.300   1.419 -0.3069  0.2255 -0.3129
 5016SOL    HW226685   1.631   2.219   1.355 -2.1032 -1.4050  1.2360
 5017SOL     OW26686   1.928   3.799   7.415  0.1306  0.5315  0.0333
 5017SOL    HW126687   1.869   3.753   7.355  0.5913  0.0956 -0.0811
 5017SOL    HW226688   1.950   3.876   7.362  0.1506 -0.6819 -1.7310
 5018SOL     OW26689   1.551   2.035  12.307 -0.0050 -0.4135 -0.2620
 5018SOL    HW126690   1.607   2.113  12.304  0.7279 -0.9075  0.4851
 5018SOL    HW226691   1.611   1.971  12.270 -0.0140 -1.0167  0.7685
 5019SOL     OW26692   0.393   1.918  12.481 -0.0260  0.4567 -0.0669
 5019SOL    HW126693   0.414   1.879  12.396 -0.1027 -0.2136  0.2151
 5019SOL    HW226694   0.316   1.971  12.463  0.6040  0.7515 -1.9366
 5020SOL     OW26695   3.439   3.569  17.202  0.5675  0.3368 -0.3645
 5020SOL    HW126696   3.415   3.635  17.266 -0.4799 -1.2954  0.9205
 5020SOL    HW226697   3.396   3.494  17.243  2.5581 -0.0509  1.0066
 5021SOL     OW26698   1.933   1.377  16.006 -0.4108 -0.6941  0.1888
 5021SOL    HW126699   1.841   1.399  15.988 -0.6286 -2.8233 -1.3354
 5021SOL    HW226700   1.929   1.346  16.096 -0.8302  1.5981  0.9575
 5022SOL     OW26701   0.985   4.381   1.484  0.4670  0.4755 -0.2148
 5022SOL    HW126702   1.079   4.397   1.486  0.2877  1.2085  1.6724
 5022SOL    HW226703   0.959   4.471   1.460  0.1150  0.8735  1.6493
 5023SOL     OW26704   2.330   0.598   4.784  0.5637 -0.3719 -0.3458
 5023SOL    HW126705   2.338   0.687   4.819 -1.2015 -0.5370  0.4955
 5023SOL    HW226706   2.286   0.608   4.699 -0.7350  1.1027  0.4838
 5024SOL     OW26707   0.669   4.343   3.686 -0.0307  0.9550 -0.0288
 5024SOL    HW126708   0.722   4.349   3.607  2.1248 -0.7492  1.2669
 5024SOL    HW226709   0.713   4.266   3.724 -0.0370  0.1810 -1.5763
 5025SOL     OW26710   2.578   4.012   1.066 -0.0995  0.1629  0.1943
 5025SOL    HW126711   2.673   4.024   1.067 -0.1729  0.7057  1.1473
 5025SOL    HW226712   2.562   3.959   1.144  0.6912 -2.4210 -1.3975
 5026SOL     OW26713   1.194   0.640   6.621  0.0776  0.3194  0.2638
 5026SOL    HW126714   1.258   0.660   6.553  0.2014 -1.3156 -0.0902
 5026SOL    HW226715   1.221   0.555   6.655  0.8087 -0.6628 -2.7685
 5027SOL     OW26716   1.262   0.277   7.629  0.6968  0.2641  0.3603
 5027SOL    HW126717   1.303   0.348   7.678 -0.0969  0.8014  0.2356
 5027SOL    HW226718   1.278   0.293   7.536  1.4105 -2.3341  0.0199
 5028SOL     OW26719   1.739   0.406  15.450 -0.1544  0.3740 -0.4309
 5028SOL    HW126720   1.748   0.379  15.541 -0.1956 -0.6017 -0.7247
 5028SOL    HW226721   1.681   0.481  15.465 -1.0205 -0.1510 -1.1685
 5029SOL     OW26722   2.895   1.881  12.169  0.7630 -0.6128 -0.0670
 5029SOL    HW126723   2.844   1.952  12.131 -0.5457 -2.3914 -1.5875
 5029SOL    HW226724   2.893   1.897  12.264  2.1997  2.2432 -0.5172
 5030SOL     OW26725   4.696   3.362   1.894 -0.1572 -0.1792 -0.0006
 5030SOL    HW126726   4.640   3.341   1.969 -2.0957  1.3635 -0.9946
 5030SOL    HW226727   0.035   3.312   1.913  0.2913 -0.3020 -2.1889
 5031SOL     OW26728   2.682   1.051   5.863  0.5927 -0.0926 -0.0041
 5031SOL    HW126729   2.669   1.140   5.831  0.5640 -0.6798 -1.6484
 5031SOL    HW226730   2.630   1.004   5.797 -1.0219  0.6906  0.7276
 5032SOL     OW26731   3.995   1.533   5.459  0.2894 -0.2415 -0.0864
 5032SOL    HW126732   3.940   1.491   5.393  0.7191  1.9953 -1.8887
 5032SOL    HW226733   3.936   1.605   5.480 -0.8473 -1.2901  0.3555
 5033SOL     OW26734   1.118   0.519   2.192  0.2956 -0.3748  0.0737
 5033SOL    HW126735   1.085   0.442   2.146 -1.2288 -0.5367  1.4552
 5033SOL    HW226736   1.212   0.507   2.179  0.1271  1.1235 -2.5041
 5034SOL     OW26737   4.469   4.630   3.328 -0.0675  0.4697  0.2152
 5034SOL    HW126738   4.501   4.705   3.377 -1.7320  1.1784  0.2025
 5034SOL    HW226739   4.548   4.575   3.326  0.1275  0.7214  1.3708
 5035SOL     OW26740   3.652   2.996   2.845 -0.4309  0.2890  0.0551
 5035SOL    HW126741   3.599   3.021   2.770  1.3269 -0.0068 -1.2923
 5035SOL    HW226742   3.586   2.965   2.907 -0.5176 -1.5078 -0.9282
 5036SOL     OW26743   2.221   3.887   6.832  0.0226 -0.1047  0.1959
 5036SOL    HW126744   2.299   3.854   6.788 -0.4857 -0.2016 -0.6300
 5036SOL    HW226745   2.249   3.867   6.922  0.5412  2.0928  0.5430
 5037SOL     OW26746   1.166   3.719   2.431 -0.1428  0.3272 -0.0239
 5037SOL    HW126747   1.227   3.793   2.436  0.1183  0.0256  1.3855
 5037SOL    HW226748   1.215   3.647   2.470 -0.8878 -0.3153 -0.2774
 5038SOL     OW26749   3.397   1.877   2.875  0.0358  0.0838  0.3549
 5038SOL    HW126750   3.321   1.931   2.854 -0.5451 -1.7451 -2.2821
 5038SOL    HW226751   3.462   1.914   2.816  0.1036  1.6634  1.4476
 5039SOL     OW26752   1.267   1.766   8.564  0.1945  0.2238  0.1958
 5039SOL    HW126753   1.272   1.708   8.640  0.3575  1.6197  1.2776
 5039SOL    HW226754   1.292   1.855   8.592 -2.1303  0.8965  0.0954
 5040SOL     OW26755   2.060   1.365  17.523  0.0630  0.2674  0.4540
 5040SOL    HW126756   2.081   1.275  17.501 -0.3049  0.6989 -1.6377
 5040SOL    HW226757   2.146   1.398  17.547 -0.2057  1.5946 -0.3815
 5041SOL     OW26758   4.574   3.894   3.144 -0.0788  0.3809  0.6344
 5041SOL    HW126759   4.510   3.957   3.176 -1.7348 -1.6572  1.2534
 5041SOL    HW226760   4.590   3.919   3.053 -2.9686  2.8465  0.8075
 5042SOL     OW26761   1.542   2.669   4.340 -0.1618 -0.4871 -0.6165
 5042SOL    HW126762   1.539   2.574   4.328 -0.1410 -0.7473  1.5285
 5042SOL    HW226763   1.590   2.687   4.260 -0.6267  0.4400 -0.6879
 5043SOL     OW26764   4.572   2.963   6.624  0.2802  0.1673 -0.4644
 5043SOL    HW126765   4.492   2.981   6.575 -0.1389 -0.8125 -0.1383
 5043SOL    HW226766   4.543   2.914   6.701  0.3481 -0.1516 -0.6402
 5044SOL     OW26767   0.993   0.262   3.930 -0.1233  0.1720  1.2293
 5044SOL    HW126768   0.998   0.211   3.849  0.1560  1.5845  0.3532
 5044SOL    HW226769   0.909   0.307   3.920 -0.4461 -0.6880  0.1466
 5045SOL     OW26770   3.100   2.074  12.940  0.2296  0.3570 -0.1318
 5045SOL    HW126771   3.014   2.057  12.979 -0.4520 -2.5195 -2.9121
 5045SOL    HW226772   3.149   2.011  12.994 -2.3079 -1.2297  0.3405
 5046SOL     OW26773   2.274   1.242   8.557  0.0345  0.6528 -0.3786
 5046SOL    HW126774   2.265   1.148   8.545  1.6745  0.6031 -1.2680
 5046SOL    HW226775   2.248   1.256   8.648  1.7379 -3.0922  0.6760
 5047SOL     OW26776   1.274   2.690   7.886  0.1892  0.8518 -0.1581
 5047SOL    HW126777   1.317   2.770   7.917  1.4038 -0.6934  2.1987
 5047SOL    HW226778   1.332   2.653   7.819  3.7695  1.0737  2.8289
 5048SOL     OW26779   2.892   4.349   6.055  0.6777 -0.1660  0.6956
 5048SOL    HW126780   2.887   4.442   6.030 -1.3739 -0.3080  0.5741
 5048SOL    HW226781   2.832   4.355   6.130  0.3717 -1.4904  0.5446
 5049SOL     OW26782   0.144   4.368  11.000 -0.3719 -0.5320 -0.0739
 5049SOL    HW126783   0.203   4.394  11.071 -0.3868  0.0676 -0.2762
 5049SOL    HW226784   0.177   4.433  10.937 -0.8239 -1.1557 -0.9490
 5050SOL     OW26785   4.187   3.617   5.431 -0.8813 -0.1239 -0.2277
 5050SOL    HW126786   4.267   3.669   5.427  0.1079 -1.7154 -0.8175
 5050SOL    HW226787   4.201   3.567   5.512  0.8566 -1.9377 -1.6518
 5051SOL     OW26788   1.133   2.810   6.628  0.2347 -0.4447 -0.2136
 5051SOL    HW126789   1.160   2.731   6.675  0.2446 -0.0984  0.3571
 5051SOL    HW226790   1.212   2.864   6.626  1.4713 -2.2389  0.2375
 5052SOL     OW26791   0.838   2.029   6.908 -0.4650  0.1622  0.2251
 5052SOL    HW126792   0.812   1.972   6.836 -2.1342  0.8378  0.3065
 5052SOL    HW226793   0.879   2.097   6.855  1.2070  0.5970  2.0751
 5053SOL     OW26794   0.039   4.116   6.473  0.4460 -0.5174  0.4573
 5053SOL    HW126795   0.011   4.150   6.558  0.8594  0.4311  0.2210
 5053SOL    HW226796   4.711   4.050   6.461  0.7422 -0.9945  1.3535
 5054SOL     OW26797   1.027   2.715   4.732 -0.6087  0.3527  0.0536
 5054SOL    HW126798   1.073   2.798   4.722  1.5589 -0.6502  1.5519
 5054SOL    HW226799   0.935   2.738   4.726 -0.3645  1.2648 -0.2238
 5055SOL     OW26800   3.259   0.331   0.649 -0.3498  0.3982  0.3056
 5055SOL    HW126801   3.178   0.366   0.611  0.0879  1.1605  0.0750
 5055SOL    HW226802   3.322   0.356   0.582 -1.0989  0.4169 -0.3966
 5056SOL     OW26803   3.110   1.330   2.274 -0.1574 -0.5564 -0.0198
 5056SOL    HW126804   3.142   1.245   2.304 -0.4183 -0.7817 -0.3876
 5056SOL    HW226805   3.144   1.335   2.185 -0.1792  0.3077  0.0208
 5057SOL     OW26806   1.252   2.872   5.060  0.3462  0.1693  0.2091
 5057SOL    HW126807   1.159   2.890   5.067  0.6621  2.1941 -0.6248
 5057SOL    HW226808   1.253   2.795   5.002 -0.6864 -1.2321  2.0579
 5058SOL     OW26809   4.493   2.471   9.399  0.4134  0.1855 -0.3141
 5058SOL    HW126810   4.546   2.547   9.425 -1.1175  0.7526  1.2332
 5058SOL    HW226811   4.469   2.495   9.310  1.5864  0.3310 -0.5816
 5059SOL     OW26812   4.635   3.265   3.363 -0.0610  0.2169 -0.8952
 5059SOL    HW126813   4.549   3.308   3.357 -0.7065 -1.0872 -1.0112
 5059SOL    HW226814   4.700   3.334   3.356  0.2533 -0.0287 -0.3516
 5060SOL     OW26815   1.821   1.973   8.504  0.1089  0.3549  0.7506
 5060SOL    HW126816   1.867   2.032   8.562 -0.2657  2.6014 -1.2301
 5060SOL    HW226817   1.889   1.957   8.438 -0.6749  1.2789 -0.2860
 5061SOL     OW26818   4.206   2.213   3.549  0.2665 -0.2502 -0.1964
 5061SOL    HW126819   4.150   2.270   3.601  0.5816 -0.8944  0.8433
 5061SOL    HW226820   4.164   2.220   3.463  2.1224 -0.2496 -1.1042
 5062SOL     OW26821   4.413   1.017  11.546 -0.0299 -0.5737 -0.4096
 5062SOL    HW126822   4.502   1.011  11.581  0.3609  1.7441 -1.0199
 5062SOL    HW226823   4.411   1.084  11.478  0.3876 -0.8757 -0.7251
 5063SOL     OW26824   1.716   2.341   3.283  0.3879 -0.0125 -0.2537
 5063SOL    HW126825   1.793   2.397   3.289  0.0384  0.4857 -0.4701
 5063SOL    HW226826   1.748   2.252   3.297 -0.4098 -0.5366 -1.8001
 5064SOL     OW26827   0.986   0.590  15.807 -0.0865  0.1048 -0.1467
 5064SOL    HW126828   0.961   0.540  15.728  0.2500  0.5574 -0.5401
 5064SOL    HW226829   1.038   0.530  15.860  0.7233  0.2541 -0.7775
 5065SOL     OW26830   0.182   0.188   3.778  0.0048 -0.2652  0.4990
 5065SOL    HW126831   0.205   0.254   3.844 -0.3204  1.3185 -0.9824
 5065SOL    HW226832   0.236   0.114   3.807  1.4010 -0.1833 -1.9613
 5066SOL     OW26833   4.214   0.176   2.555  0.8630 -0.1096  0.0639
 5066SOL    HW126834   4.190   0.267   2.577  1.5991  0.4611 -1.4761
 5066SOL    HW226835   4.207   0.134   2.640 -0.0042  1.1133  0.5972
 5067SOL     OW26836   1.154   0.334   9.503  0.2072 -0.1039  0.1919
 5067SOL    HW126837   1.154   0.270   9.431  0.9751 -2.2268  2.0742
 5067SOL    HW226838   1.168   0.275   9.577  0.2457 -0.0928  0.1933
 5068SOL     OW26839   1.140   4.508   9.543 -0.5038 -0.6601  0.5135
 5068SOL    HW126840   1.056   4.550   9.558 -1.7583 -2.5331 -1.3093
 5068SOL    HW226841   1.145   4.532   9.451 -0.4129  1.8962  1.2047
 5069SOL     OW26842   3.187   3.808   3.156  0.3806  0.8261  0.7829
 5069SOL    HW126843   3.203   3.714   3.143 -1.2594  0.2698  2.8158
 5069SOL    HW226844   3.099   3.826   3.124 -0.1723  0.3950  2.0815
 5070SOL     OW26845   3.021   2.210   5.146  0.6924  0.1040  0.5177
 5070SOL    HW126846   2.967   2.285   5.123  0.9373 -0.1803 -0.9431
 5070SOL    HW226847   3.010   2.193   5.240  1.4489 -0.6705  0.4663
 5071SOL     OW26848   1.663   1.983   2.507 -0.3537  0.3090  0.2510
 5071SOL    HW126849   1.726   1.925   2.465 -0.5290  1.2672 -1.3400
 5071SOL    HW226850   1.667   1.956   2.598  1.5858 -1.8571 -0.4807
 5072SOL     OW26851   4.498   0.256   2.124 -0.1734  0.1835 -0.2287
 5072SOL    HW126852   4.447   0.230   2.201 -0.9121 -0.0854 -0.8038
 5072SOL    HW226853   4.484   0.171   2.083 -2.0188  1.4255 -2.1298
 5073SOL     OW26854   0.043   3.732   8.993  0.2306 -0.8853 -0.3347
 5073SOL    HW126855   4.733   3.692   8.922  1.1316 -1.9398 -0.3758
 5073SOL    HW226856   4.738   3.816   8.997  1.1865 -0.4367  0.9753
 5074SOL     OW26857   3.055   2.665   3.030 -0.6305 -0.0773  0.4710
 5074SOL    HW126858   3.070   2.611   3.108 -1.0768  0.2412  0.7749
 5074SOL    HW226859   3.074   2.607   2.956  2.5766  0.8111  0.6065
 5075SOL     OW26860   1.450   2.767   0.891 -0.4118  0.1029 -0.2443
 5075SOL    HW126861   1.421   2.773   0.982 -1.1830 -0.5650 -0.4465
 5075SOL    HW226862   1.451   2.861   0.871  1.3648  0.1027 -0.1296
 5076SOL     OW26863   2.882   0.767   3.466  0.2605  0.0542  0.3227
 5076SOL    HW126864   2.850   0.858   3.469  0.2992  0.1034 -0.5228
 5076SOL    HW226865   2.812   0.716   3.507 -2.5869  2.5228 -1.4127
 5077SOL     OW26866   4.214   0.776   5.346 -0.1788 -0.2851 -0.4303
 5077SOL    HW126867   4.154   0.805   5.277  0.1968 -0.7117 -0.9369
 5077SOL    HW226868   4.187   0.834   5.417  0.1627 -1.4277  0.6334
 5078SOL     OW26869   0.351   1.470   8.106 -0.4620 -0.2028  0.4699
 5078SOL    HW126870   0.380   1.561   8.111 -1.7047  0.3787 -2.7013
 5078SOL    HW226871   0.434   1.425   8.093 -1.1528 -1.9713  2.0944
 5079SOL     OW26872   3.386   3.662   4.773  1.0755  0.2028  0.1102
 5079SOL    HW126873   3.464   3.630   4.727  0.1651 -2.7272  0.5560
 5079SOL    HW226874   3.398   3.618   4.857 -0.6836  0.5489  0.5331
 5080SOL     OW26875   3.217   1.774   5.318  0.1065 -0.1940 -0.0545
 5080SOL    HW126876   3.225   1.844   5.382  1.9973  0.4185 -0.9365
 5080SOL    HW226877   3.127   1.786   5.288  0.1038  1.7693  0.7550
 5081SOL     OW26878   4.018   3.947   9.392  0.2166 -0.2230 -0.0679
 5081SOL    HW126879   3.924   3.942   9.411  0.1567  1.4779  0.0993
 5081SOL    HW226880   4.043   3.855   9.382  0.3925 -0.2020  0.1729
 5082SOL     OW26881   0.186   1.538   6.320 -0.2292  0.2568  0.7634
 5082SOL    HW126882   0.097   1.517   6.292 -0.3857  0.0990  1.3881
 5082SOL    HW226883   0.237   1.483   6.261 -1.4802 -0.3732  0.2828
 5083SOL     OW26884   2.985   4.222   2.383  0.0396 -0.0749  0.4005
 5083SOL    HW126885   2.976   4.298   2.326 -2.3320 -1.7830 -1.4836
 5083SOL    HW226886   3.076   4.223   2.412 -0.9912  1.2945  3.6446
 5084SOL     OW26887   0.956   3.068   7.653 -0.4332 -0.0793 -0.2455
 5084SOL    HW126888   1.019   3.122   7.606 -1.2804  1.3440  0.2345
 5084SOL    HW226889   1.006   2.987   7.660  2.1560  1.5497 -0.0757
 5085SOL     OW26890   3.915   0.259   5.514  0.0185 -0.9523 -0.7270
 5085SOL    HW126891   3.888   0.178   5.469 -1.5541  0.2850 -2.0338
 5085SOL    HW226892   3.969   0.289   5.441  0.9723 -0.3392  0.2358
 5086SOL     OW26893   3.982   1.475  14.754  0.4371 -0.1311 -0.3569
 5086SOL    HW126894   3.996   1.527  14.675 -1.8803  0.5227 -0.3503
 5086SOL    HW226895   4.068   1.493  14.791  1.1996  0.0356 -2.2393
 5087SOL     OW26896   3.591   1.157   3.746 -0.1655  0.2860  0.6638
 5087SOL    HW126897   3.661   1.140   3.809 -1.2159 -0.7757  1.5545
 5087SOL    HW226898   3.522   1.187   3.806  0.3597 -1.9243  2.3467
 5088SOL     OW26899   1.806   2.004  17.159 -0.7575 -0.6198  0.1066
 5088SOL    HW126900   1.796   2.042  17.072 -0.9624 -0.2605  0.2847
 5088SOL    HW226901   1.774   2.079  17.209  0.9322  0.3141 -0.2256
 5089SOL     OW26902   1.613   2.751  12.321 -0.1183 -0.3202  0.1925
 5089SOL    HW126903   1.694   2.702  12.306  0.5106  1.5909 -2.6684
 5089SOL    HW226904   1.549   2.724  12.255  0.6735 -1.7486  0.0070
 5090SOL     OW26905   1.440   2.651  17.555  0.2297 -1.0941  0.4867
 5090SOL    HW126906   1.346   2.667  17.555  0.3845 -0.1196 -2.7848
 5090SOL    HW226907   1.442   2.557  17.571  0.5239 -1.7238 -3.1960
 5091SOL     OW26908   2.512   4.676   6.629 -0.2812 -0.0347  0.8060
 5091SOL    HW126909   2.489   0.027   6.608  1.1143  0.1777  0.2242
 5091SOL    HW226910   2.556   4.681   6.714 -0.5291 -0.3805  0.9508
 5092SOL     OW26911   2.420   2.960   1.671  0.1843  0.0187 -0.2318
 5092SOL    HW126912   2.356   2.898   1.706  1.0117 -1.2057 -0.8871
 5092SOL    HW226913   2.420   2.936   1.578 -1.6883  0.6732 -0.4204
 5093SOL     OW26914   1.481   1.693   3.641  0.1639  0.1456 -0.2101
 5093SOL    HW126915   1.496   1.733   3.555  1.5643  0.5331  0.2143
 5093SOL    HW226916   1.385   1.690   3.638  0.0457  2.5603  2.0965
 5094SOL     OW26917   3.773   4.436  17.284  0.7225 -0.4567 -0.0179
 5094SOL    HW126918   3.851   4.465  17.333  0.5439 -0.0787  0.0404
 5094SOL    HW226919   3.706   4.455  17.349  0.3544 -0.9097 -0.2752
 5095SOL     OW26920   4.253   3.643   7.091  0.1828  0.7261 -0.2606
 5095SOL    HW126921   4.280   3.623   7.180  0.8727  2.3071 -0.1211
 5095SOL    HW226922   4.323   3.707   7.076 -0.0690  0.6927 -1.6503
 5096SOL     OW26923   3.018   4.104   5.581 -0.1166 -0.1646 -0.0556
 5096SOL    HW126924   3.085   4.086   5.514 -0.1460 -0.2704 -0.0567
 5096SOL    HW226925   3.073   4.087   5.657  1.2649 -2.4574 -1.5602
 5097SOL     OW26926   2.021   0.684   1.878 -0.0704 -0.0404 -0.0534
 5097SOL    HW126927   2.073   0.639   1.812  0.1250  1.4681 -0.9132
 5097SOL    HW226928   2.067   0.655   1.957 -0.6637 -1.0505 -0.0802
 5098SOL     OW26929   3.558   3.869   5.191 -0.1296 -0.5833  0.3906
 5098SOL    HW126930   3.535   3.811   5.263 -1.3170 -0.5725  0.0337
 5098SOL    HW226931   3.652   3.880   5.199  0.1441 -1.2952 -1.7899
 5099SOL     OW26932   4.216   2.989   9.375  0.5113 -0.1555  0.0935
 5099SOL    HW126933   4.221   2.979   9.470 -0.2518  0.6425  0.2191
 5099SOL    HW226934   4.282   3.057   9.359 -2.1091  1.8994 -2.1121
 5100SOL     OW26935   0.506   0.779   9.022 -0.0366  0.1150  0.3219
 5100SOL    HW126936   0.591   0.748   9.053  0.8704  1.3349 -0.9240
 5100SOL    HW226937   0.505   0.756   8.929 -0.4796  0.3963  0.2543
 5101SOL     OW26938   3.927   3.678   7.288 -0.0256  0.3226 -0.2416
 5101SOL    HW126939   3.900   3.597   7.332 -0.0433  1.1754  1.2971
 5101SOL    HW226940   3.841   3.713   7.266  0.0902  1.4090  1.0842
 5102SOL     OW26941   4.124   4.017  14.911  0.4082  0.2673 -0.0392
 5102SOL    HW126942   4.201   4.029  14.855  0.0531 -0.0630 -0.5992
 5102SOL    HW226943   4.159   4.039  14.998 -0.4707 -3.3948  1.2578
 5103SOL     OW26944   1.276   0.118  14.230 -0.0202  0.1680 -0.0808
 5103SOL    HW126945   1.231   0.185  14.178 -0.1141 -1.2493 -1.8187
 5103SOL    HW226946   1.200   0.089  14.281  0.3734 -1.5014 -0.4547
 5104SOL     OW26947   0.143   1.940   3.129  0.0031 -0.4371  0.2287
 5104SOL    HW126948   0.122   2.033   3.131 -0.6144 -0.5933  1.2172
 5104SOL    HW226949   0.239   1.939   3.128  0.0143 -2.5425  1.8124
 5105SOL     OW26950   0.598   3.656   4.417 -0.0828  0.1647 -0.3694
 5105SOL    HW126951   0.551   3.588   4.464 -1.4229  1.6449  0.4282
 5105SOL    HW226952   0.683   3.612   4.415 -0.7975 -1.2346  0.7515
 5106SOL     OW26953   1.392   1.761  17.574  0.2807  0.3570  0.0504
 5106SOL    HW126954   1.378   1.808  17.491  1.4250 -0.4986 -0.6262
 5106SOL    HW226955   1.488   1.764  17.578  0.4083 -0.7685 -2.3521
 5107SOL     OW26956   1.993   3.896  11.905 -0.0828 -0.2242  0.2940
 5107SOL    HW126957   1.936   3.839  11.957 -1.9947  0.1746 -1.3700
 5107SOL    HW226958   1.976   3.866  11.816 -0.1838  1.0139 -0.1035
 5108SOL     OW26959   2.192   2.466   1.713 -0.5687  0.3868  0.1350
 5108SOL    HW126960   2.131   2.403   1.674 -0.7457 -0.7762  2.3343
 5108SOL    HW226961   2.150   2.511   1.786  0.6569 -2.0823  2.3339
 5109SOL     OW26962   1.242   4.174   5.073 -0.1884 -0.0108 -0.1980
 5109SOL    HW126963   1.297   4.103   5.108  1.5742  1.4482  0.0089
 5109SOL    HW226964   1.248   4.152   4.980 -0.7186  0.0182 -0.2346
 5110SOL     OW26965   4.338   3.927  12.800 -0.2070  0.1244  0.0142
 5110SOL    HW126966   4.311   3.855  12.742 -0.8636 -0.4074  0.9721
 5110SOL    HW226967   4.294   4.000  12.755 -0.5310  0.1098  0.3101
 5111SOL     OW26968   0.844   2.402   0.067  0.3229  0.1370  0.4241
 5111SOL    HW126969   0.864   2.488   0.027 -0.0283 -0.2463 -0.5786
 5111SOL    HW226970   0.868   2.350  17.747  0.0491  1.9416 -0.8887
 5112SOL     OW26971   4.198   2.273   0.861  0.1247  0.2898  0.0456
 5112SOL    HW126972   4.230   2.341   0.920  1.0205 -0.0943 -0.0002
 5112SOL    HW226973   4.116   2.312   0.829 -0.5745 -0.4231  0.9882
 5113SOL     OW26974   3.395   1.971   7.418  0.2758 -0.4905  0.2986
 5113SOL    HW126975   3.312   2.014   7.441  0.8961  0.8516 -0.0199
 5113SOL    HW226976   3.393   2.014   7.332 -1.8633 -1.2823 -0.0662
 5114SOL     OW26977   1.795   0.402  16.090  0.1159  0.0072  0.0343
 5114SOL    HW126978   1.881   0.403  16.132  0.5872  0.1941 -0.9349
 5114SOL    HW226979   1.780   0.491  16.057  1.3770  0.6372  1.1762
 5115SOL     OW26980   3.663   2.880   9.163  0.5638 -0.2668  0.1394
 5115SOL    HW126981   3.572   2.909   9.161  0.2307 -1.3769 -0.8484
 5115SOL    HW226982   3.658   2.797   9.211 -0.7311 -1.6647 -2.3586
 5116SOL     OW26983   0.246   2.750   4.891 -0.0636 -0.9216 -0.4136
 5116SOL    HW126984   0.230   2.839   4.861 -1.0050 -1.1810 -0.6808
 5116SOL    HW226985   0.159   2.715   4.909  0.0128 -2.0169 -2.1363
 5117SOL     OW26986   4.595   2.925   1.666  0.7666 -0.3660  0.2410
 5117SOL    HW126987   4.639   2.921   1.751 -0.3752  0.4160  0.8744
 5117SOL    HW226988   4.645   2.997   1.629 -0.5118 -0.3022 -1.3475
 5118SOL     OW26989   2.681   1.738   8.182  0.1240  0.1718  0.5289
 5118SOL    HW126990   2.743   1.718   8.252 -2.1015 -2.1671  1.8071
 5118SOL    HW226991   2.607   1.775   8.229 -0.1288  1.9570 -1.2459
 5119SOL     OW26992   2.720   1.361   4.625  0.1831  0.1286 -0.2922
 5119SOL    HW126993   2.737   1.446   4.584 -2.8454  0.9924  0.2338
 5119SOL    HW226994   2.744   1.299   4.557 -0.6148 -0.6185  0.1134
 5120SOL     OW26995   4.145   0.677   7.815  0.2861 -0.1673 -0.6287
 5120SOL    HW126996   4.070   0.659   7.872  0.2917  1.1345 -0.1979
 5120SOL    HW226997   4.100   0.696   7.732 -1.8372  1.7794  0.9609
 5121SOL     OW26998   2.744   1.830   6.951 -0.3270  0.2107 -0.1305
 5121SOL    HW126999   2.671   1.857   7.006 -1.3678 -2.1455 -0.3645
 5121SOL    HW227000   2.772   1.750   6.996  0.9722  0.3903 -0.6196
 5122SOL     OW27001   1.176   0.140  12.260 -0.2708 -0.8034  0.1040
 5122SOL    HW127002   1.106   0.183  12.210  0.7595  0.0804 -0.5628
 5122SOL    HW227003   1.248   0.165  12.202 -0.1282 -0.4733  0.4223
 5123SOL     OW27004   2.330   4.322   2.572 -0.2350  0.0268 -0.4094
 5123SOL    HW127005   2.420   4.311   2.541 -0.5428  0.7844 -1.5743
 5123SOL    HW227006   2.354   4.333   2.664 -1.4077  0.2366 -0.1270
 5124SOL     OW27007   2.717   2.562   8.574  0.3757  0.2024  0.0989
 5124SOL    HW127008   2.715   2.601   8.486  2.7343 -1.1814 -0.5752
 5124SOL    HW227009   2.798   2.593   8.614  1.0269  0.3301 -1.2962
 5125SOL     OW27010   1.150   3.250   2.761  0.3467  0.0737  0.0408
 5125SOL    HW127011   1.161   3.171   2.815 -3.6510  2.0056  3.6104
 5125SOL    HW227012   1.062   3.279   2.781 -0.6547 -1.4202 -2.2192
 5126SOL     OW27013   0.004   1.502   4.133  0.3616 -0.1822 -0.3221
 5126SOL    HW127014   0.064   1.562   4.178  0.7718 -1.8877  1.4094
 5126SOL    HW227015   4.659   1.535   4.162  1.1439  0.8049  0.8427
 5127SOL     OW27016   2.420   0.425   5.310 -0.5118 -0.1578 -0.2249
 5127SOL    HW127017   2.368   0.488   5.260 -1.5223 -0.2057  0.7615
 5127SOL    HW227018   2.479   0.479   5.363 -2.5961  2.3890 -0.5086
 5128SOL     OW27019   1.338   3.915   7.995 -0.0196 -0.0802  0.8136
 5128SOL    HW127020   1.282   3.868   7.933 -0.5267  2.0119 -0.3195
 5128SOL    HW227021   1.299   3.999   7.972 -0.3018 -0.5579 -0.4532
 5129SOL     OW27022   1.163   2.703   3.720 -0.0548 -0.5826 -0.2804
 5129SOL    HW127023   1.139   2.717   3.812 -0.8476 -0.8450 -0.4440
 5129SOL    HW227024   1.124   2.620   3.693 -0.3550 -0.0243 -1.5355
 5130SOL     OW27025   2.063   4.688  14.189  0.1630 -0.5255  0.2471
 5130SOL    HW127026   1.976   4.670  14.152 -0.0480  2.2462 -0.6150
 5130SOL    HW227027   2.125   4.694  14.117 -1.1681  0.5742 -0.8241
 5131SOL     OW27028   4.026   2.853   9.224  0.5123 -0.0604  0.8569
 5131SOL    HW127029   4.107   2.887   9.263  2.9725 -3.9829 -0.7359
 5131SOL    HW227030   4.008   2.924   9.163  1.0859 -0.9504 -0.3457
 5132SOL     OW27031   4.353   2.841  15.122  0.7541 -0.6957  0.1458
 5132SOL    HW127032   4.414   2.913  15.111 -1.2464  0.8602 -0.8144
 5132SOL    HW227033   4.395   2.762  15.087  2.9635  0.3296  0.5403
 5133SOL     OW27034   0.483   0.399   0.822 -0.4610 -0.6452  0.1570
 5133SOL    HW127035   0.517   0.433   0.739  1.3262 -0.3587  1.0135
 5133SOL    HW227036   0.397   0.436   0.839 -0.5668 -1.2782  0.9715
 5134SOL     OW27037   4.399   0.997   3.993  0.3852 -0.1687  0.6545
 5134SOL    HW127038   4.481   0.947   3.993 -0.5460 -1.6796 -0.1389
 5134SOL    HW227039   4.361   0.952   3.918  1.6369  1.0572 -0.7110
 5135SOL     OW27040   1.933   2.831   8.013  0.5588 -0.0721 -0.0169
 5135SOL    HW127041   2.011   2.781   7.988  0.9427 -0.1622  1.3341
 5135SOL    HW227042   1.968   2.895   8.075  0.4652 -0.2559  0.2245
 5136SOL     OW27043   2.241   0.383   4.915  0.2752 -0.0217 -0.3266
 5136SOL    HW127044   2.180   0.439   4.963  0.3490  0.6883 -1.0539
 5136SOL    HW227045   2.281   0.451   4.860  1.0073  1.1228  1.5837
 5137SOL     OW27046   0.256   0.675   4.028 -0.5451 -0.4008 -0.3090
 5137SOL    HW127047   0.217   0.677   4.115 -2.3103  2.0003 -1.1416
 5137SOL    HW227048   0.344   0.706   4.049 -1.0258 -0.2352  1.4321
 5138SOL     OW27049   0.132   2.768   8.513 -0.2867  0.2048  0.1208
 5138SOL    HW127050   0.180   2.813   8.582 -1.0944 -1.1658  1.5715
 5138SOL    HW227051   0.166   2.680   8.504  0.9402  0.4622  2.3108
 5139SOL     OW27052   3.406   0.256   9.018 -0.5018  0.1603 -0.3465
 5139SOL    HW127053   3.397   0.343   9.055 -0.3667 -0.4886  1.2157
 5139SOL    HW227054   3.351   0.210   9.082 -0.1964  0.4440  0.1130
 5140SOL     OW27055   0.924   2.810   4.385 -0.1008  0.4462  0.3440
 5140SOL    HW127056   0.904   2.875   4.318 -0.8158 -0.3359 -0.1931
 5140SOL    HW227057   0.838   2.801   4.425 -0.0625  1.2188  0.5874
 5141SOL     OW27058   0.030   3.061   6.019 -0.4004 -0.7774  0.9277
 5141SOL    HW127059   4.719   2.987   5.987  0.1191 -0.0619 -1.5699
 5141SOL    HW227060   0.003   3.085   6.108  1.5656 -0.6665  1.4822
 5142SOL     OW27061   1.213   2.022  16.812  0.0432 -0.2878  0.1534
 5142SOL    HW127062   1.137   2.080  16.807  0.5247  0.2809 -0.5108
 5142SOL    HW227063   1.242   2.055  16.897  0.9266 -1.2524  0.2222
 5143SOL     OW27064   1.009   3.739   6.042 -0.1362 -0.0501  0.0961
 5143SOL    HW127065   1.037   3.744   6.133 -3.0048  0.2944  0.9705
 5143SOL    HW227066   1.064   3.664   6.020 -1.3647 -0.7765 -0.4917
 5144SOL     OW27067   0.318   3.964  11.997  0.0541 -0.2460 -0.0757
 5144SOL    HW127068   0.329   4.045  11.946 -1.8934  1.1410  1.6660
 5144SOL    HW227069   0.229   3.979  12.029 -0.2203 -0.0095 -0.9319
 5145SOL     OW27070   3.061   3.136   6.780 -0.2814 -0.9858 -0.6242
 5145SOL    HW127071   2.991   3.070   6.783 -0.8131 -0.3994  0.0148
 5145SOL    HW227072   3.046   3.174   6.867 -0.1319  2.3515 -2.0811
 5146SOL     OW27073   1.791   3.894   2.238  0.0300  0.8245 -0.2001
 5146SOL    HW127074   1.757   3.840   2.167 -2.0658  0.8069  0.8100
 5146SOL    HW227075   1.791   3.979   2.195  1.2396  1.5229  1.1787
 5147SOL     OW27076   2.638   3.505  13.787 -0.2011  0.6863 -0.4432
 5147SOL    HW127077   2.586   3.581  13.758 -0.6095  0.5772  0.0115
 5147SOL    HW227078   2.575   3.436  13.807  2.1685 -2.0554 -2.5153
 5148SOL     OW27079   0.507   3.411   2.414 -0.1428 -1.1058 -0.2419
 5148SOL    HW127080   0.487   3.458   2.333  1.0831 -0.9694 -0.4554
 5148SOL    HW227081   0.599   3.406   2.391  0.4631  1.2511  1.6901
 5149SOL     OW27082   1.763   2.066   3.349 -0.7999  0.5822  0.4446
 5149SOL    HW127083   1.795   2.089   3.437  2.1640  2.1448 -1.0194
 5149SOL    HW227084   1.849   2.045   3.314 -1.7956 -1.7034 -0.5726
 5150SOL     OW27085   3.366   0.313   4.119 -0.1508  0.2940  0.2191
 5150SOL    HW127086   3.335   0.234   4.163  2.6421 -0.3467  1.0201
 5150SOL    HW227087   3.279   0.347   4.099 -0.5715 -0.6037  0.5081
 5151SOL     OW27088   0.593   4.323  11.378 -0.3308 -0.4244  0.0671
 5151SOL    HW127089   0.596   4.386  11.305  1.5990  0.0314  0.5517
 5151SOL    HW227090   0.687   4.315  11.394 -0.1263 -1.4383 -1.6765
 5152SOL     OW27091   3.754   3.126   8.189 -0.4707 -0.1145  0.3723
 5152SOL    HW127092   3.795   3.211   8.204 -1.5778  0.2261  1.4261
 5152SOL    HW227093   3.665   3.141   8.218 -0.3719  2.0210 -0.4520
 5153SOL     OW27094   0.946   3.553  10.056  0.2897  0.4014  0.0281
 5153SOL    HW127095   1.018   3.576   9.996  0.1360 -0.4953 -0.5026
 5153SOL    HW227096   0.902   3.638  10.062 -0.2323  0.1650 -0.4699
 5154SOL     OW27097   0.795   4.055  10.636  0.5498  0.3298 -0.6022
 5154SOL    HW127098   0.808   3.960  10.633  2.7194  0.7111 -2.6164
 5154SOL    HW227099   0.769   4.066  10.728  0.3034 -1.3053 -0.4645
 5155SOL     OW27100   2.141   1.866  17.412 -0.6127 -0.0025 -0.0253
 5155SOL    HW127101   2.103   1.839  17.329  1.5732 -0.9226 -0.7391
 5155SOL    HW227102   2.099   1.950  17.430 -0.3781 -0.0253  0.6263
 5156SOL     OW27103   1.322   1.381   7.827  0.4200 -0.4383  0.2276
 5156SOL    HW127104   1.286   1.440   7.760 -1.2279  0.2408  1.6999
 5156SOL    HW227105   1.287   1.296   7.801  1.6866 -1.3552  1.5501
 5157SOL     OW27106   0.647   0.545   6.571  0.3323  0.2581 -0.0155
 5157SOL    HW127107   0.741   0.563   6.578  0.5068 -0.6571 -0.0563
 5157SOL    HW227108   0.620   0.489   6.643  1.3100  0.8346  0.8020
 5158SOL     OW27109   4.212   3.050   4.646 -0.0492  0.4422 -0.4854
 5158SOL    HW127110   4.195   3.117   4.712 -2.0750  1.6889 -2.2713
 5158SOL    HW227111   4.134   3.077   4.597  0.2734  0.3097 -1.0741
 5159SOL     OW27112   1.086   3.936  11.327 -0.3740  0.4493 -0.4159
 5159SOL    HW127113   1.155   3.918  11.264 -0.9986  0.3650 -1.0770
 5159SOL    HW227114   1.040   4.010  11.288  1.7903  2.9536  1.7456
 5160SOL     OW27115   2.193   4.539   3.637  0.4231 -0.3952  0.1614
 5160SOL    HW127116   2.123   4.596   3.669  0.0334 -0.0328 -1.3545
 5160SOL    HW227117   2.240   4.533   3.720  0.6063  1.9493  0.2331
 5161SOL     OW27118   4.614   3.630   9.762  0.0350 -0.2852  0.0368
 5161SOL    HW127119   4.596   3.563   9.827 -1.2796 -0.8346 -0.8955
 5161SOL    HW227120   4.707   3.643   9.780  0.3336 -2.4529  0.0915
 5162SOL     OW27121   4.542   0.632  16.415  0.0327 -0.2662 -0.5128
 5162SOL    HW127122   4.601   0.671  16.350 -1.8821  3.6059  0.1231
 5162SOL    HW227123   4.514   0.713  16.456  3.4909 -0.8558  3.0306
 5163SOL     OW27124   3.369   1.849   4.504  0.1454 -0.0378 -0.0408
 5163SOL    HW127125   3.316   1.773   4.524  2.0290 -1.7990 -1.7774
 5163SOL    HW227126   3.367   1.895   4.588 -3.7471  2.9511 -1.7515
 5164SOL     OW27127   4.555   1.020   5.515  0.2210 -0.0102 -0.4653
 5164SOL    HW127128   4.566   0.989   5.605  1.3446  0.6981 -0.3625
 5164SOL    HW227129   4.538   1.112   5.534  0.2857  0.1919 -1.3904
 5165SOL     OW27130   0.913   1.043   5.377  0.0632  0.1423 -0.3809
 5165SOL    HW127131   1.005   1.066   5.360  0.1482  0.3823  0.4384
 5165SOL    HW227132   0.883   1.134   5.385  0.5724  0.2891 -0.0899
 5166SOL     OW27133   4.535   1.657   4.507  0.7722  0.5848  0.5324
 5166SOL    HW127134   4.443   1.652   4.533  0.9232 -1.0011  0.7544
 5166SOL    HW227135   4.554   1.734   4.454 -1.3175 -0.3139 -1.5289
 5167SOL     OW27136   2.980   1.387  12.459  0.3152 -0.3191  0.3258
 5167SOL    HW127137   3.012   1.460  12.512 -0.0162 -0.2611  0.4515
 5167SOL    HW227138   2.886   1.400  12.442  0.5683  1.3395  0.1696
 5168SOL     OW27139   2.746   1.208  16.790 -0.6120 -0.1157  0.1182
 5168SOL    HW127140   2.785   1.219  16.703  0.1961 -2.7114  0.1320
 5168SOL    HW227141   2.761   1.293  16.830 -2.6094  1.6249 -2.8602
 5169SOL     OW27142   2.810   3.772  16.008  0.4527 -0.2385 -0.0051
 5169SOL    HW127143   2.716   3.756  16.007  0.3840  0.2413 -0.9311
 5169SOL    HW227144   2.830   3.778  16.102  1.6310  1.7915 -0.3903
 5170SOL     OW27145   1.049   3.684   5.686  0.3415  0.0563  0.2410
 5170SOL    HW127146   1.081   3.609   5.737  0.0254  0.0753  0.4684
 5170SOL    HW227147   1.120   3.746   5.706 -0.4957  1.0679  0.0324
 5171SOL     OW27148   0.782   2.850  12.325  0.6189 -0.0458  0.3856
 5171SOL    HW127149   0.823   2.809  12.402  1.6601 -1.7319 -1.0485
 5171SOL    HW227150   0.827   2.934  12.322  0.6300 -0.0028  1.5396
 5172SOL     OW27151   2.896   1.746   2.322 -0.5380 -0.5863 -0.0125
 5172SOL    HW127152   2.969   1.762   2.262  0.5312  0.4111  1.5585
 5172SOL    HW227153   2.887   1.651   2.314  1.8026 -0.7609 -0.6713
 5173SOL     OW27154   3.606   1.972   8.184  0.0309 -0.1048  0.1244
 5173SOL    HW127155   3.561   2.029   8.122  3.4933  0.4278 -1.8805
 5173SOL    HW227156   3.564   1.990   8.269 -1.1737  1.2981 -0.7697
 5174SOL     OW27157   0.738   1.605   6.137  0.4891  0.8640 -0.0440
 5174SOL    HW127158   0.821   1.646   6.111  0.6288  0.5806 -0.0497
 5174SOL    HW227159   0.678   1.676   6.114 -1.7994 -0.2334  2.5258
 5175SOL     OW27160   0.273   0.795   5.680 -0.3906 -0.7427 -0.2309
 5175SOL    HW127161   0.294   0.794   5.587  0.7811  2.2121  0.0303
 5175SOL    HW227162   0.327   0.724   5.715  0.9961  0.3831 -0.1191
 5176SOL     OW27163   0.907   2.300   0.613  0.8338 -0.0875  0.3814
 5176SOL    HW127164   0.888   2.248   0.691 -0.4326  0.1755  0.2432
 5176SOL    HW227165   1.000   2.317   0.624  1.0023 -1.0031  0.4217
 5177SOL     OW27166   0.959   0.085   5.179 -0.2905 -0.5754 -0.4245
 5177SOL    HW127167   0.880   0.037   5.157 -2.2818  2.0974  0.9615
 5177SOL    HW227168   0.925   0.171   5.203 -2.0699 -0.8015 -2.2020
 5178SOL     OW27169   4.165   1.676   6.643  0.5321  0.3098  0.5763
 5178SOL    HW127170   4.203   1.693   6.557 -1.6971 -0.2024 -0.5079
 5178SOL    HW227171   4.199   1.587   6.650  3.1745  1.2107 -0.4762
 5179SOL     OW27172   4.571   2.219   9.447  0.2980  0.1568  0.4997
 5179SOL    HW127173   4.659   2.221   9.409 -1.1333 -1.0893 -2.9268
 5179SOL    HW227174   4.555   2.312   9.435 -0.7398  0.2345  2.5364
 5180SOL     OW27175   1.918   1.059   5.063 -0.4434 -0.5077  0.0246
 5180SOL    HW127176   1.912   1.120   4.989  0.0095 -1.2321 -0.6013
 5180SOL    HW227177   1.970   0.990   5.022  0.2299 -0.6818  1.1793
 5181SOL     OW27178   0.172   2.209  11.803  0.2108 -0.4714  0.2779
 5181SOL    HW127179   0.265   2.213  11.823  0.6496 -0.6820 -1.7359
 5181SOL    HW227180   0.170   2.138  11.740 -2.7070 -0.4472  0.3297
 5182SOL     OW27181   1.022   1.999   7.110  0.2617 -0.5930  0.6064
 5182SOL    HW127182   1.000   2.017   7.019 -0.3778 -2.2163  0.4359
 5182SOL    HW227183   0.985   2.071   7.161 -3.4098 -0.4651 -2.2731
 5183SOL     OW27184   1.617   0.624   6.000  0.0910 -0.1457 -0.4015
 5183SOL    HW127185   1.533   0.581   6.017  0.1198 -0.1622 -0.3007
 5183SOL    HW227186   1.598   0.654   5.912 -0.1871  0.9928  0.0436
 5184SOL     OW27187   3.250   0.079   3.074 -0.0664  0.4777  0.3084
 5184SOL    HW127188   3.203   0.002   3.043  1.7844 -0.4435 -0.2271
 5184SOL    HW227189   3.278   0.123   2.993  0.6962 -1.1344 -0.3241
 5185SOL     OW27190   2.874   2.504   1.774 -0.0445 -0.1412  0.3105
 5185SOL    HW127191   2.861   2.454   1.854  0.6946  0.5937  0.8905
 5185SOL    HW227192   2.866   2.431   1.712  0.7077 -1.1604  1.4147
 5186SOL     OW27193   3.720   0.105   2.413 -0.3216 -0.4843  0.3537
 5186SOL    HW127194   3.664   0.182   2.421 -1.1897 -0.8937 -1.9843
 5186SOL    HW227195   3.791   0.124   2.352 -3.0627 -0.0430 -2.6789
 5187SOL     OW27196   3.944   3.038  16.683 -0.2949 -0.3014  0.0233
 5187SOL    HW127197   3.942   2.945  16.705  0.9727 -0.3295  0.0433
 5187SOL    HW227198   3.944   3.039  16.587 -1.5735  1.6632  0.0446
 5188SOL     OW27199   0.564   2.733  16.178  0.8692  0.0625 -0.0386
 5188SOL    HW127200   0.610   2.711  16.097 -0.2412 -1.3693 -0.2803
 5188SOL    HW227201   0.616   2.686  16.243  2.1845 -1.7184 -2.3633
 5189SOL     OW27202   2.147   0.390   3.452  0.0810 -0.7227 -0.5279
 5189SOL    HW127203   2.133   0.461   3.389  0.9077 -1.6921 -1.8225
 5189SOL    HW227204   2.163   0.310   3.401 -0.1810 -1.0715 -0.0626
 5190SOL     OW27205   3.362   0.422   3.555  0.3891 -0.3162  0.0854
 5190SOL    HW127206   3.414   0.346   3.529  0.6306 -0.2030  0.2403
 5190SOL    HW227207   3.395   0.437   3.643 -2.1898 -0.1499  1.0387
 5191SOL     OW27208   3.232   2.722  12.927 -0.0413  0.0032 -0.3888
 5191SOL    HW127209   3.286   2.706  12.850  1.2142  2.1353  0.0403
 5191SOL    HW227210   3.244   2.817  12.928 -0.6511  0.0815 -0.3787
 5192SOL     OW27211   3.089   4.546  16.427 -0.8113  0.0954  0.2878
 5192SOL    HW127212   3.135   4.624  16.457  0.4522 -0.5248 -0.0627
 5192SOL    HW227213   3.134   4.476  16.475  0.2229 -0.1859 -1.0993
 5193SOL     OW27214   4.038   2.489   0.201  0.1748 -0.0716 -0.1043
 5193SOL    HW127215   3.968   2.467   0.140  0.3011 -0.8693  0.0471
 5193SOL    HW227216   4.105   2.444   0.150 -0.5546 -0.3759 -0.7863
 5194SOL     OW27217   3.077   3.913   9.443  0.0282 -0.0178 -0.2727
 5194SOL    HW127218   3.059   3.994   9.396  0.2540 -1.2224 -2.4045
 5194SOL    HW227219   3.058   3.940   9.533 -3.3126 -0.0593 -0.9419
 5195SOL     OW27220   0.651   4.512   1.276 -0.0124  0.1632  0.4500
 5195SOL    HW127221   0.640   4.564   1.356 -0.1670  0.8511 -0.0213
 5195SOL    HW227222   0.634   4.425   1.311  1.3203  0.2925  1.4343
 5196SOL     OW27223   0.012   3.248   4.342  0.3355 -0.1994  0.4086
 5196SOL    HW127224   0.003   3.334   4.384 -1.1355  0.5747 -1.4667
 5196SOL    HW227225   0.085   3.216   4.394  1.2056  0.1351 -0.6084
 5197SOL     OW27226   0.908   3.398   3.129 -0.1683  0.6135  0.5091
 5197SOL    HW127227   0.891   3.388   3.222 -1.4466  1.2021  0.3286
 5197SOL    HW227228   0.841   3.344   3.087  0.5428  0.4078 -0.3686
 5198SOL     OW27229   1.851   1.572  17.126 -0.7287 -0.6276 -0.2263
 5198SOL    HW127230   1.760   1.589  17.103 -0.9572  2.0998  2.6399
 5198SOL    HW227231   1.889   1.629  17.060 -1.7070  0.2839  0.0130
 5199SOL     OW27232   3.214   1.089   9.461  0.6287 -0.3124  0.1936
 5199SOL    HW127233   3.213   1.031   9.537 -0.7028  0.1726  0.5500
 5199SOL    HW227234   3.246   1.031   9.392  0.1169  0.0835 -0.3753
 5200SOL     OW27235   0.153   1.001   0.965  0.1096 -0.6088  0.5797
 5200SOL    HW127236   0.169   1.033   0.876 -0.8751  1.9203  1.3146
 5200SOL    HW227237   0.059   1.012   0.975  0.0197 -2.0484  1.2792
 5201SOL     OW27238   0.712   0.530   7.098 -0.5380  0.4804 -0.2867
 5201SOL    HW127239   0.777   0.515   7.168 -2.7358  0.2466  1.6950
 5201SOL    HW227240   0.633   0.524   7.152  0.6759  1.6299  1.6080
 5202SOL     OW27241   2.418   3.459   7.214  0.1117 -0.3186 -0.1012
 5202SOL    HW127242   2.492   3.400   7.207  0.0133 -0.4914  0.3771
 5202SOL    HW227243   2.370   3.445   7.132 -0.5449  1.9431 -0.1049
 5203SOL     OW27244   2.146   4.322  14.522 -0.2832  0.8489  0.0858
 5203SOL    HW127245   2.094   4.401  14.504 -0.6089  0.9151  1.3068
 5203SOL    HW227246   2.081   4.255  14.543  1.0177 -0.7180 -0.9671
 5204SOL     OW27247   0.530   4.117  14.842  0.9339 -0.4038  0.0044
 5204SOL    HW127248   0.543   4.026  14.813 -2.0130 -0.1961 -2.0309
 5204SOL    HW227249   0.611   4.160  14.816 -0.1088  1.6879  0.2552
 5205SOL     OW27250   2.310   1.392   6.943 -0.1735  0.1964 -0.5908
 5205SOL    HW127251   2.304   1.367   7.035  1.1229  1.8388 -0.0690
 5205SOL    HW227252   2.217   1.409   6.927  0.1235  2.4165 -0.0063
 5206SOL     OW27253   0.397   4.438   3.892  0.2503 -0.2815  0.2218
 5206SOL    HW127254   0.381   4.350   3.928 -1.6214  0.6648  1.6759
 5206SOL    HW227255   0.491   4.451   3.896  0.3171 -0.4832 -0.6718
 5207SOL     OW27256   1.600   1.211   7.084 -0.0853  0.3676 -0.5443
 5207SOL    HW127257   1.569   1.297   7.057  0.8037  0.7702 -0.2625
 5207SOL    HW227258   1.667   1.187   7.020  1.2697 -0.2658  1.1063
 5208SOL     OW27259   0.192   3.596   5.591 -0.4188 -0.5354 -0.2885
 5208SOL    HW127260   0.264   3.623   5.534  2.1534 -1.7505  2.4029
 5208SOL    HW227261   0.239   3.558   5.666 -1.5117  1.4506  1.4007
 5209SOL     OW27262   4.723   1.552   5.163  0.0240 -0.5655  0.3373
 5209SOL    HW127263   0.060   1.596   5.199 -0.2195  0.6526 -0.6047
 5209SOL    HW227264   4.651   1.609   5.189 -1.0848 -1.4899 -0.7306
 5210SOL     OW27265   0.282   3.015   1.720  0.2232 -0.3038 -0.1724
 5210SOL    HW127266   0.233   3.065   1.785  2.8053 -1.0039  2.3106
 5210SOL    HW227267   0.215   2.954   1.690  2.0098 -3.1991  1.6893
 5211SOL     OW27268   1.848   0.344  17.361 -0.1787 -0.1801 -0.1663
 5211SOL    HW127269   1.875   0.266  17.312 -1.2825 -1.3875  1.1351
 5211SOL    HW227270   1.768   0.369  17.315 -0.2854  1.1371  0.7467
 5212SOL     OW27271   3.367   1.895   2.353  0.0585  0.1026 -0.5122
 5212SOL    HW127272   3.319   1.968   2.392 -2.7861 -1.7867 -0.4348
 5212SOL    HW227273   3.374   1.838   2.430  0.8521  2.5507  1.2185
 5213SOL     OW27274   0.619   1.073  15.383  0.4566  0.4527 -0.6441
 5213SOL    HW127275   0.629   1.046  15.291 -2.0814 -0.2011 -0.7316
 5213SOL    HW227276   0.689   1.019  15.419  0.8933  1.3830 -0.1100
 5214SOL     OW27277   1.162   0.638   4.458  0.1331  0.6614 -0.1808
 5214SOL    HW127278   1.132   0.704   4.396  2.8160  3.2164  1.2183
 5214SOL    HW227279   1.215   0.576   4.407  0.5218  0.2768  0.6865
 5215SOL     OW27280   3.279   4.272   4.220  0.1321  0.0702  0.8034
 5215SOL    HW127281   3.209   4.269   4.286 -1.2697  0.0985 -0.7005
 5215SOL    HW227282   3.359   4.251   4.268 -1.2008 -1.6645  2.3162
 5216SOL     OW27283   1.013   1.894   8.132  0.3438  0.1222  0.3086
 5216SOL    HW127284   1.092   1.930   8.172  1.4858  1.4211 -3.0740
 5216SOL    HW227285   0.961   1.872   8.209 -1.9556  3.1010 -0.3755
 5217SOL     OW27286   2.128   1.893   6.058  0.5445 -0.0815  0.8549
 5217SOL    HW127287   2.122   1.936   6.143 -0.4320  0.2543  0.6196
 5217SOL    HW227288   2.222   1.885   6.042  0.6272  3.9039 -0.5369
 5218SOL     OW27289   4.025   0.551   9.346  0.0908 -0.0325  0.1889
 5218SOL    HW127290   4.072   0.469   9.336  0.5898  0.2533  0.2202
 5218SOL    HW227291   4.068   0.598   9.275  0.2173 -0.2209  0.1414
 5219SOL     OW27292   2.394   1.824   6.894  0.0786 -0.3494  0.1121
 5219SOL    HW127293   2.416   1.909   6.934 -2.3855  1.2076 -1.8523
 5219SOL    HW227294   2.362   1.774   6.968 -2.6691  1.6287  0.2356
 5220SOL     OW27295   3.362   1.697  16.772 -0.2342 -0.4845 -0.5907
 5220SOL    HW127296   3.413   1.762  16.723 -0.4507  1.5286  1.8160
 5220SOL    HW227297   3.369   1.619  16.717  0.1474 -0.6063 -0.3717
 5221SOL     OW27298   3.431   0.533  14.716  0.3414  0.1289  0.3407
 5221SOL    HW127299   3.405   0.625  14.704 -1.1022 -0.1740  1.1256
 5221SOL    HW227300   3.466   0.505  14.632 -1.5933  1.9143 -1.0824
 5222SOL     OW27301   0.593   3.853  14.725 -0.3199  0.6098  0.0395
 5222SOL    HW127302   0.620   3.813  14.807  2.5862 -1.7263 -2.0717
 5222SOL    HW227303   0.637   3.794  14.664  0.8982  1.0062  0.5342
 5223SOL     OW27304   0.734   1.074  13.403  0.2126 -0.3345 -0.0079
 5223SOL    HW127305   0.652   1.123  13.399  0.9579  1.0266  1.7230
 5223SOL    HW227306   0.731   1.022  13.322  2.2639  2.9132 -2.1547
 5224SOL     OW27307   0.323   1.619   9.441  0.4329  0.0611  0.2925
 5224SOL    HW127308   0.367   1.698   9.410  1.5958 -1.1481 -1.1456
 5224SOL    HW227309   0.397   1.559   9.441  0.8818  0.6083 -2.1566
 5225SOL     OW27310   4.450   3.949  13.718 -0.5880 -0.1764 -0.1882
 5225SOL    HW127311   4.356   3.944  13.737 -0.7044  1.9825 -0.2328
 5225SOL    HW227312   4.455   3.966  13.624 -0.5575 -0.6016 -0.2643
 5226SOL     OW27313   3.525   0.749   1.806 -0.1326 -0.0067  0.0816
 5226SOL    HW127314   3.547   0.657   1.792 -0.0387 -0.3320  2.3358
 5226SOL    HW227315   3.488   0.774   1.721 -0.9434  0.3970  0.5543
 5227SOL     OW27316   4.464   4.017  16.594 -0.3029 -0.0504 -0.0296
 5227SOL    HW127317   4.484   4.108  16.616 -1.2776  0.3106 -0.6343
 5227SOL    HW227318   4.400   3.989  16.660  0.4824  0.3970  0.9246
 5228SOL     OW27319   0.332   2.357  17.435  0.0634 -0.0294 -0.0316
 5228SOL    HW127320   0.426   2.350  17.416  0.0059 -0.3678 -0.1881
 5228SOL    HW227321   0.316   2.272  17.474  0.8320 -0.9451 -1.7027
 5229SOL     OW27322   3.432   3.336   2.404  0.2540  0.3272  0.4879
 5229SOL    HW127323   3.419   3.400   2.334  2.6031  1.0991  0.7467
 5229SOL    HW227324   3.347   3.292   2.402 -0.4097  1.6024  0.6768
 5230SOL     OW27325   4.368   0.826   6.881 -0.4649  0.2385  0.4720
 5230SOL    HW127326   4.387   0.843   6.789  2.4930 -1.1452  0.8363
 5230SOL    HW227327   4.321   0.744   6.865 -1.5777  0.7603  1.0666
 5231SOL     OW27328   1.754   3.537   0.821 -0.5357  0.3062 -0.4849
 5231SOL    HW127329   1.837   3.512   0.862 -0.6696  1.0116  0.2104
 5231SOL    HW227330   1.798   3.589   0.754 -1.9306  0.0389 -1.5899
 5232SOL     OW27331   3.344   1.828   1.170  0.2990  0.2699  0.3118
 5232SOL    HW127332   3.350   1.750   1.226 -0.1939 -0.1074 -0.1584
 5232SOL    HW227333   3.350   1.905   1.227 -1.9063  0.7072 -0.0347
 5233SOL     OW27334   3.795   0.535   5.596  0.0733 -0.2192  0.6002
 5233SOL    HW127335   3.823   0.491   5.516  1.1476  0.6069  0.5259
 5233SOL    HW227336   3.783   0.465   5.661 -0.8263 -0.9392 -0.3418
 5234SOL     OW27337   3.034   1.180   1.848  0.3377 -0.6456  0.0731
 5234SOL    HW127338   3.043   1.152   1.757 -1.5695 -1.8651  0.2492
 5234SOL    HW227339   3.057   1.271   1.832 -1.4626 -0.3879 -1.1056
 5235SOL     OW27340   3.414   2.538   8.769 -0.3116 -0.0441 -0.8902
 5235SOL    HW127341   3.452   2.626   8.774  0.6302 -0.5373  0.4892
 5235SOL    HW227342   3.428   2.495   8.853 -0.3380  0.1896 -0.7647
 5236SOL     OW27343   2.709   2.763   2.035  0.4974  0.2820  0.2494
 5236SOL    HW127344   2.654   2.816   1.978  0.3489  0.4350  0.5324
 5236SOL    HW227345   2.639   2.727   2.089 -0.3217 -0.8687 -1.5946
 5237SOL     OW27346   0.391   1.922  13.823 -0.2631 -0.5126  0.2909
 5237SOL    HW127347   0.369   2.006  13.864  0.4985 -0.1847  0.0128
 5237SOL    HW227348   0.306   1.878  13.832 -0.2048 -0.4123  1.4221
 5238SOL     OW27349   1.581   1.645   8.917 -0.7635  0.2992 -0.4242
 5238SOL    HW127350   1.559   1.738   8.920  0.1375  0.4974 -0.0572
 5238SOL    HW227351   1.544   1.622   8.831  0.8660 -0.1486 -1.0124
 5239SOL     OW27352   3.053   0.844   1.842  0.1248  0.0726  0.4040
 5239SOL    HW127353   3.126   0.897   1.810 -1.8013  1.2009 -2.0758
 5239SOL    HW227354   3.026   0.878   1.928 -0.0775 -1.1449  0.8226
 5240SOL     OW27355   2.606   0.274  12.562 -0.7051  0.2311  0.4411
 5240SOL    HW127356   2.606   0.319  12.477  2.0616  1.7992  1.2697
 5240SOL    HW227357   2.618   0.349  12.621 -1.2038  1.6255 -1.2440
 5241SOL     OW27358   2.428   3.512  13.505  0.2414 -0.7059 -0.4254
 5241SOL    HW127359   2.479   3.588  13.479 -2.2069  1.1899  0.3619
 5241SOL    HW227360   2.341   3.530  13.471  0.6428  1.9128 -0.0487
 5242SOL     OW27361   0.296   3.934   6.223 -0.0050 -0.1271  0.2427
 5242SOL    HW127362   0.296   4.026   6.249 -0.8590  0.1875 -0.8792
 5242SOL    HW227363   0.386   3.902   6.231  0.2336  0.5602  0.3057
 5243SOL     OW27364   0.019   4.049   7.370 -0.1405  0.3498  0.1624
 5243SOL    HW127365   0.091   3.985   7.368 -1.1182 -0.8075  3.0388
 5243SOL    HW227366   0.057   4.115   7.428 -0.0955 -0.6316  1.2576
 5244SOL     OW27367   4.695   3.460   5.455  0.5661  0.1067 -0.1807
 5244SOL    HW127368   0.022   3.478   5.521 -0.2329 -2.5705  1.3468
 5244SOL    HW227369   4.627   3.522   5.482 -0.1624 -1.0258  0.5764
 5245SOL     OW27370   0.107   3.042   4.512  0.4593 -0.5734  0.4982
 5245SOL    HW127371   0.029   3.024   4.565 -0.4014 -1.5678 -1.0968
 5245SOL    HW227372   0.164   3.084   4.575  1.4086 -3.3129  1.4728
 5246SOL     OW27373   2.604   4.416   2.526 -0.4212  0.6950 -0.2953
 5246SOL    HW127374   2.624   4.455   2.441  0.5433 -0.7416 -0.7206
 5246SOL    HW227375   2.649   4.476   2.585  1.2776 -0.3542 -0.5334
 5247SOL     OW27376   1.381   3.147   6.405 -0.3497  0.1572 -0.2893
 5247SOL    HW127377   1.433   3.207   6.459  1.3738 -1.0985 -0.5556
 5247SOL    HW227378   1.371   3.195   6.323 -0.9488 -0.3767 -0.5256
 5248SOL     OW27379   1.538   2.176   3.863  0.6386  0.3971  0.2949
 5248SOL    HW127380   1.511   2.231   3.789  1.4762 -0.4151 -0.6063
 5248SOL    HW227381   1.579   2.100   3.822  1.4105 -0.1998  2.1688
 5249SOL     OW27382   0.861   4.654   1.158 -0.5582 -0.5170 -0.1838
 5249SOL    HW127383   0.791   4.597   1.191 -1.1629 -1.1167 -2.5104
 5249SOL    HW227384   0.819   0.001   1.159  0.5635 -0.0039  1.3460
 5250SOL     OW27385   1.760   2.667   2.399  0.3668  0.1845  0.3700
 5250SOL    HW127386   1.783   2.744   2.453  0.6576  0.6297 -0.3803
 5250SOL    HW227387   1.670   2.649   2.425  1.2893 -2.6634  1.6053
 5251SOL     OW27388   4.094   0.582   4.850 -0.8169 -0.2524 -0.2731
 5251SOL    HW127389   4.039   0.563   4.773 -1.4164 -2.1258  0.6185
 5251SOL    HW227390   4.029   0.586   4.920  1.5686  0.9392  1.8228
 5252SOL     OW27391   0.066   2.995  10.038  1.0794 -0.3283  0.3261
 5252SOL    HW127392   0.100   2.918   9.993  1.8788  1.5008 -2.2274
 5252SOL    HW227393   4.728   3.018   9.988  0.5485 -0.7063  0.9957
 5253SOL     OW27394   1.351   0.360   1.475 -0.0300 -0.1220  0.2954
 5253SOL    HW127395   1.403   0.427   1.430  1.3912  0.2381  2.4833
 5253SOL    HW227396   1.317   0.306   1.403  0.7834  1.0182 -0.9418
 5254SOL     OW27397   3.798   2.717   9.773 -0.4842 -0.1387 -0.8959
 5254SOL    HW127398   3.808   2.675   9.858  0.0799  0.8747 -0.4589
 5254SOL    HW227399   3.743   2.652   9.730 -0.7594 -1.9400  2.1821
 5255SOL     OW27400   4.706   1.177   8.121  0.1941 -0.1732  0.5825
 5255SOL    HW127401   4.680   1.203   8.210  2.0399 -0.8840  1.3395
 5255SOL    HW227402   4.711   1.081   8.125 -0.6206 -0.2581 -0.5349
 5256SOL     OW27403   3.284   4.175   3.625 -0.4826  0.1286 -0.5620
 5256SOL    HW127404   3.229   4.226   3.683 -3.0563 -0.8772 -2.1319
 5256SOL    HW227405   3.213   4.136   3.574  0.8803 -1.7203 -1.0434
 5257SOL     OW27406   2.782   4.593  14.801 -0.3831 -0.7819 -0.6146
 5257SOL    HW127407   2.799   4.660  14.735 -1.5159  2.7659  2.7135
 5257SOL    HW227408   2.838   4.521  14.775 -0.2332 -0.2368 -1.7905
 5258SOL     OW27409   0.679   4.599   5.852  0.4200  0.0301  0.1882
 5258SOL    HW127410   0.591   4.588   5.888 -0.1767 -1.2905 -1.6826
 5258SOL    HW227411   0.694   4.509   5.821 -2.1776  0.4688 -2.3210
 5259SOL     OW27412   3.195   2.041   0.738 -0.7470  0.2959 -0.3167
 5259SOL    HW127413   3.203   1.990   0.818 -1.4710  2.6854  1.2637
 5259SOL    HW227414   3.165   1.968   0.683 -0.1529  2.0332 -2.9208
 5260SOL     OW27415   2.991   1.561  10.218 -0.6336 -0.7167  0.6512
 5260SOL    HW127416   2.999   1.645  10.265 -0.5966 -1.2869  1.6724
 5260SOL    HW227417   2.900   1.552  10.190 -0.2717 -0.2193 -0.7027
 5261SOL     OW27418   3.904   3.132  11.260  0.0727 -0.0376  1.1586
 5261SOL    HW127419   3.855   3.125  11.178  1.0493 -0.2026  0.5895
 5261SOL    HW227420   3.947   3.049  11.278 -0.1849 -0.5392 -0.4891
 5262SOL     OW27421   1.138   4.024  13.403  0.4898 -0.2259  0.4876
 5262SOL    HW127422   1.150   4.032  13.308 -1.0057  1.5604  0.4511
 5262SOL    HW227423   1.148   3.931  13.420  2.0038 -0.0485  0.5273
 5263SOL     OW27424   0.311   1.013   8.885 -0.0557  0.4829 -0.1155
 5263SOL    HW127425   0.241   1.029   8.948  0.6568  0.4034  0.6999
 5263SOL    HW227426   0.382   1.074   8.905  0.0371  0.4413 -0.3122
 5264SOL     OW27427   4.718   0.565   3.765 -0.1342  0.0368  0.3292
 5264SOL    HW127428   0.011   0.544   3.677  0.0655 -3.5052  1.2371
 5264SOL    HW227429   0.029   0.643   3.786 -0.1024  0.2334 -0.4660
 5265SOL     OW27430   0.114   3.753  11.234 -0.3699 -0.6747  0.0087
 5265SOL    HW127431   0.136   3.750  11.140 -1.1444 -1.6537 -0.1426
 5265SOL    HW227432   0.198   3.721  11.269  0.1015 -0.1346 -0.6325
 5266SOL     OW27433   3.451   1.229  14.433  0.5020  0.1071 -0.6378
 5266SOL    HW127434   3.439   1.143  14.473 -0.5331 -0.7522 -2.8047
 5266SOL    HW227435   3.498   1.205  14.353 -0.4089 -1.8895 -0.5805
 5267SOL     OW27436   0.431   0.775  12.994  0.0041 -0.1714  0.0437
 5267SOL    HW127437   0.359   0.837  13.001 -0.0523 -0.1440 -0.7797
 5267SOL    HW227438   0.428   0.735  13.081  1.2879 -2.5726 -1.0280
 5268SOL     OW27439   4.241   2.827   7.794 -0.4969  0.4249 -0.2074
 5268SOL    HW127440   4.206   2.758   7.849 -0.7912 -0.1751 -1.1534
 5268SOL    HW227441   4.188   2.904   7.814 -0.4445  0.4007  0.0219
 5269SOL     OW27442   0.640   2.047  11.356  0.0759  0.4068 -0.4724
 5269SOL    HW127443   0.693   1.979  11.316  2.1079  1.4479  0.4385
 5269SOL    HW227444   0.673   2.128  11.318 -0.5440  0.5412 -0.7209
 5270SOL     OW27445   1.799   0.388   3.756  0.2973 -0.2062 -0.0875
 5270SOL    HW127446   1.716   0.407   3.713 -1.1232 -2.4358  1.6264
 5270SOL    HW227447   1.844   0.458   3.708  0.6575 -0.2863  0.1327
 5271SOL     OW27448   1.276   4.738   8.568  0.4743 -0.8419 -0.1629
 5271SOL    HW127449   1.315   4.699   8.645  2.3688  1.5905  0.0981
 5271SOL    HW227450   1.334   4.709   8.498  0.7346  0.3499 -0.4417
 5272SOL     OW27451   2.869   3.537   7.711  0.0515  0.6413 -0.4030
 5272SOL    HW127452   2.843   3.454   7.671  0.3998  0.0597  0.5764
 5272SOL    HW227453   2.835   3.590   7.639 -0.5481 -3.1498 -2.8961
 5273SOL     OW27454   0.964   2.477  11.018 -0.3573  0.2066  0.0906
 5273SOL    HW127455   0.977   2.528  11.098  1.4892 -1.6185  0.9419
 5273SOL    HW227456   1.046   2.486  10.970 -0.7621 -0.2469 -0.7046
 5274SOL     OW27457   4.283   1.344   1.549  0.0358 -0.6025 -0.7254
 5274SOL    HW127458   4.321   1.359   1.635 -1.9940 -3.2047  0.6253
 5274SOL    HW227459   4.350   1.292   1.506 -0.4147 -2.0422  0.3461
 5275SOL     OW27460   0.469   4.306   2.970 -0.1765 -0.3038 -0.2017
 5275SOL    HW127461   0.498   4.397   2.971 -0.0046 -0.3873  1.4479
 5275SOL    HW227462   0.542   4.266   3.016 -0.2179  1.0082  0.9876
 5276SOL     OW27463   0.821   2.617  16.926 -0.3460  0.1212 -0.0149
 5276SOL    HW127464   0.768   2.575  16.858 -0.1449  2.3340 -1.5356
 5276SOL    HW227465   0.772   2.695  16.951  0.6840  0.5985  0.5147
 5277SOL     OW27466   4.041   2.406   5.681  0.4700  0.0749  0.0751
 5277SOL    HW127467   3.967   2.439   5.631  0.4025 -0.6885 -0.3231
 5277SOL    HW227468   4.020   2.441   5.768  0.0382  0.9851 -0.3978
 5278SOL     OW27469   4.308   3.218   1.029  0.4114  1.4037 -0.1002
 5278SOL    HW127470   4.399   3.247   1.016  0.5538  0.1555 -1.9639
 5278SOL    HW227471   4.262   3.283   0.977  0.3405  2.4088  1.2297
 5279SOL     OW27472   0.452   2.688  12.433 -0.2519  0.0598 -0.0862
 5279SOL    HW127473   0.405   2.757  12.480 -0.3305 -0.9385  1.3154
 5279SOL    HW227474   0.521   2.668  12.496  0.6474  0.9478 -0.7920
 5280SOL     OW27475   3.339   3.819   9.385  0.6136  0.1933  0.1188
 5280SOL    HW127476   3.289   3.896   9.411  0.1089  0.1805 -0.8343
 5280SOL    HW227477   3.353   3.780   9.472 -0.8343 -1.9627 -0.6268
 5281SOL     OW27478   4.582   3.748   9.311 -0.5495 -0.3147  0.7789
 5281SOL    HW127479   4.558   3.804   9.384  1.2066 -2.3972  2.9526
 5281SOL    HW227480   4.549   3.666   9.348 -0.2539 -0.2797  1.1121
 5282SOL     OW27481   2.389   3.789   2.015  0.4877 -0.1308  0.8651
 5282SOL    HW127482   2.324   3.735   2.060 -2.2943 -0.0838 -3.0644
 5282SOL    HW227483   2.455   3.786   2.084  2.0911  3.3389 -0.5533
 5283SOL     OW27484   4.258   1.992   7.060 -0.4419 -0.8119 -0.5881
 5283SOL    HW127485   4.187   2.021   7.002  0.5022 -0.2533 -1.4932
 5283SOL    HW227486   4.227   1.989   7.150  0.1785  2.6168 -0.2439
 5284SOL     OW27487   1.921   4.702   9.160 -0.4043 -0.5105  0.1165
 5284SOL    HW127488   1.969   4.692   9.078 -1.4227 -0.7757 -0.4456
 5284SOL    HW227489   1.855   4.632   9.162 -1.8555  0.9207  2.9747
 5285SOL     OW27490   1.180   3.399   2.150 -0.2540 -0.0771  0.3685
 5285SOL    HW127491   1.154   3.490   2.167  0.6642  0.2238  0.1500
 5285SOL    HW227492   1.275   3.410   2.139 -0.1613  0.6682  2.0263
 5286SOL     OW27493   2.148   2.000   4.765 -0.0501  0.6684  0.2061
 5286SOL    HW127494   2.163   2.082   4.717  0.4140 -0.0146 -0.8359
 5286SOL    HW227495   2.107   1.946   4.697  0.9007  0.5223 -0.2624
 5287SOL     OW27496   1.680   0.392  12.090 -0.2257 -0.6241 -0.2527
 5287SOL    HW127497   1.768   0.356  12.090  0.1502  0.2724  2.6195
 5287SOL    HW227498   1.666   0.405  11.996 -0.9069  1.7497  0.1528
 5288SOL     OW27499   4.516   1.918  15.934  0.0165 -0.2959  0.0827
 5288SOL    HW127500   4.532   1.996  15.881 -0.6195  0.0721  0.4272
 5288SOL    HW227501   4.598   1.927  15.982 -1.7074  2.3830  2.5145
 5289SOL     OW27502   4.291   1.706   5.613 -0.2459  0.4452 -0.0181
 5289SOL    HW127503   4.252   1.772   5.555  1.7015 -1.2375 -3.2584
 5289SOL    HW227504   4.233   1.711   5.689  0.7525 -3.0693  0.9891
 5290SOL     OW27505   4.396   4.282  15.010  0.0438  0.5125  0.0101
 5290SOL    HW127506   4.345   4.266  14.931  0.6429 -0.3517 -0.1966
 5290SOL    HW227507   4.345   4.225  15.067 -1.1567 -0.4757 -2.0706
 5291SOL     OW27508   4.389   1.973   4.570 -0.5332 -0.0866  0.0094
 5291SOL    HW127509   4.410   2.004   4.482 -0.8104 -0.6800 -0.2631
 5291SOL    HW227510   4.474   1.990   4.611 -1.0355  1.6901  0.3100
 5292SOL     OW27511   3.721   1.119  16.589  0.1127  0.2954 -0.4368
 5292SOL    HW127512   3.779   1.045  16.569 -1.6485 -1.1030 -0.3951
 5292SOL    HW227513   3.698   1.104  16.681  1.6307  2.1701  0.2498
 5293SOL     OW27514   2.112   0.123   6.660  0.3110  0.9580 -0.1869
 5293SOL    HW127515   2.107   0.219   6.662 -1.1246  0.8542  1.5659
 5293SOL    HW227516   2.178   0.108   6.592 -0.6151  0.2106 -0.9179
 5294SOL     OW27517   0.674   4.712   7.694  0.0481  0.1919  0.2882
 5294SOL    HW127518   0.628   0.030   7.755  1.1657 -0.1481  1.4526
 5294SOL    HW227519   0.706   0.042   7.637 -0.7501  0.9985  0.8249
 5295SOL     OW27520   3.300   3.937   6.821 -0.3948  0.2755 -0.2109
 5295SOL    HW127521   3.239   3.865   6.837 -0.1444  0.2454  0.5893
 5295SOL    HW227522   3.300   3.979   6.907  4.4261  1.3415 -0.7428
 5296SOL     OW27523   3.063   0.020  17.605 -0.4176  0.0799 -0.5881
 5296SOL    HW127524   3.010   4.731  17.679  0.3395  0.0756 -0.0485
 5296SOL    HW227525   3.133   4.694  17.602  0.7482  1.3089 -0.1643
 5297SOL     OW27526   3.451   4.038   7.885  0.5286 -0.4087 -0.3221
 5297SOL    HW127527   3.494   4.095   7.948 -0.9451  0.5176 -0.1515
 5297SOL    HW227528   3.442   4.096   7.809 -1.6092  0.7637  0.8124
 5298SOL     OW27529   2.031   2.293   8.681  0.7143 -0.1783  0.3107
 5298SOL    HW127530   2.049   2.222   8.742 -2.0572 -1.6355 -0.5877
 5298SOL    HW227531   2.118   2.307   8.643 -0.1994 -1.4362 -2.2445
 5299SOL     OW27532   1.194   0.754   7.599 -0.6163 -0.2318  0.5443
 5299SOL    HW127533   1.201   0.722   7.690 -0.2254  1.8979  1.2568
 5299SOL    HW227534   1.106   0.791   7.611 -1.4729 -1.5817 -1.6642
 5300SOL     OW27535   4.704   0.107   5.756  0.0624  0.3668 -0.5619
 5300SOL    HW127536   4.611   0.090   5.745  0.2314 -0.5145 -0.6531
 5300SOL    HW227537   4.725   0.160   5.679  0.3112 -0.0491 -0.7779
 5301SOL     OW27538   1.637   2.697   3.237 -0.1231  0.0922  0.1910
 5301SOL    HW127539   1.649   2.724   3.328 -1.3531 -2.4435  1.0928
 5301SOL    HW227540   1.649   2.602   3.244  1.4225  0.1666 -1.5999
 5302SOL     OW27541   0.803   2.275   6.107  0.4567  0.3941  0.1192
 5302SOL    HW127542   0.812   2.181   6.090  2.1633  0.3963  0.9403
 5302SOL    HW227543   0.710   2.296   6.111  0.6883  0.9807  2.6753
 5303SOL     OW27544   0.323   0.316  12.648  0.6250  0.1184 -0.2695
 5303SOL    HW127545   0.347   0.299  12.557 -2.2598  2.6760 -1.5118
 5303SOL    HW227546   0.314   0.230  12.689 -1.0154 -1.7136 -4.4380
 5304SOL     OW27547   1.749   2.627   6.685  0.2911 -0.4947 -0.2321
 5304SOL    HW127548   1.752   2.718   6.714 -2.2042 -0.2939 -0.6804
 5304SOL    HW227549   1.687   2.583   6.743 -0.8357  1.4021 -0.0118
 5305SOL     OW27550   0.484   4.077  12.213  0.3255 -0.0947 -0.5305
 5305SOL    HW127551   0.418   4.048  12.150  0.4500 -0.0571 -0.6780
 5305SOL    HW227552   0.560   4.026  12.184 -0.1145  0.6185 -2.9109
 5306SOL     OW27553   1.527   2.241   4.685  0.3755 -0.2590 -0.1620
 5306SOL    HW127554   1.453   2.180   4.688 -0.6468  0.9509 -0.7017
 5306SOL    HW227555   1.514   2.282   4.770  0.2668 -0.2481 -0.1832
 5307SOL     OW27556   4.092   1.401   4.227  1.0553  0.6545  0.3518
 5307SOL    HW127557   4.009   1.449   4.221 -0.7383 -2.0886  2.8765
 5307SOL    HW227558   4.112   1.422   4.318 -0.7621  1.5605  0.5379
 5308SOL     OW27559   1.753   0.420   4.029 -0.8303 -0.0754 -0.5825
 5308SOL    HW127560   1.685   0.352   4.033 -0.8581 -0.0483 -0.5964
 5308SOL    HW227561   1.766   0.417   3.934 -0.4664  0.5399 -0.5471
 5309SOL     OW27562   1.655   1.068  15.383  0.6034 -0.3774  0.2344
 5309SOL    HW127563   1.641   1.052  15.476 -0.1592  0.7039  0.3083
 5309SOL    HW227564   1.631   1.161  15.380 -0.5352 -0.6768  0.1177
 5310SOL     OW27565   3.425   4.424  13.611  0.4530  0.3067 -0.3821
 5310SOL    HW127566   3.346   4.468  13.579  0.6949 -0.0217 -1.4453
 5310SOL    HW227567   3.468   4.404  13.528 -3.2068 -1.2354 -1.9098
 5311SOL     OW27568   0.240   4.134   8.160  0.4427  0.1970  1.0710
 5311SOL    HW127569   0.176   4.151   8.090  0.0394 -1.8692  0.9366
 5311SOL    HW227570   0.186   4.152   8.237  1.2698 -1.8704  2.1248
 5312SOL     OW27571   1.008   4.110   7.712  0.1732  0.0344  0.0006
 5312SOL    HW127572   0.948   4.090   7.639  0.4691  1.0976 -0.5211
 5312SOL    HW227573   0.966   4.188   7.747  0.1632  0.0620 -0.0726
 5313SOL     OW27574   0.449   0.937   3.969 -0.2049  0.5848 -0.1613
 5313SOL    HW127575   0.533   0.899   3.993 -0.6888 -0.1171  0.4485
 5313SOL    HW227576   0.473   1.024   3.939  2.6108 -1.2010 -3.0244
 5314SOL     OW27577   2.736   1.522  10.131  0.5237  0.1775  0.3208
 5314SOL    HW127578   2.693   1.559  10.208 -2.2558 -1.1518 -0.6136
 5314SOL    HW227579   2.664   1.499  10.073  1.0811  0.3353 -0.4380
 5315SOL     OW27580   1.674   1.456  16.101 -0.0934  0.2039  0.6825
 5315SOL    HW127581   1.634   1.467  16.015 -1.1382  0.4780  1.1915
 5315SOL    HW227582   1.594   1.431  16.148  0.7387 -1.9032  0.9823
 5316SOL     OW27583   0.227   0.691   0.216  0.5013 -0.5696 -0.1785
 5316SOL    HW127584   0.155   0.754   0.209  0.6855 -0.1777  1.3131
 5316SOL    HW227585   0.232   0.655   0.128 -0.4100  0.7194 -0.7611
 5317SOL     OW27586   4.175   2.442  12.898 -0.2627  0.1906 -0.1901
 5317SOL    HW127587   4.151   2.532  12.917 -2.2048 -0.3311 -0.1368
 5317SOL    HW227588   4.183   2.445  12.803  1.2365  0.2233 -0.0696
 5318SOL     OW27589   3.751   3.116  17.746  0.5773 -0.6430 -0.1976
 5318SOL    HW127590   3.686   3.061   0.031 -0.2092 -0.5830 -1.3161
 5318SOL    HW227591   3.834   3.090   0.029  0.9235 -1.5221 -1.4628
 5319SOL     OW27592   3.459   4.435  10.451 -0.2457 -0.5094 -0.0001
 5319SOL    HW127593   3.500   4.359  10.493 -0.0112  0.4656  1.5378
 5319SOL    HW227594   3.472   4.509  10.510 -1.6903  0.2052 -0.5747
 5320SOL     OW27595   1.594   1.578   1.913 -0.1502 -0.7004 -0.5008
 5320SOL    HW127596   1.554   1.500   1.952 -0.2818 -0.8407 -0.9204
 5320SOL    HW227597   1.516   1.631   1.898 -0.8195 -1.4264  0.4311
 5321SOL     OW27598   3.249   2.189   4.931  0.4349  0.0436 -0.1587
 5321SOL    HW127599   3.183   2.174   4.999  1.1456 -0.1497  0.5023
 5321SOL    HW227600   3.208   2.139   4.860  1.0358 -1.1727  0.3389
 5322SOL     OW27601   3.620   2.221  10.291  0.5929 -0.6405  0.6377
 5322SOL    HW127602   3.532   2.199  10.323  0.2572  0.0545  0.1983
 5322SOL    HW227603   3.677   2.192  10.362 -2.5406  0.7148  3.7367
 5323SOL     OW27604   4.580   4.291   5.666 -0.1958 -0.5140 -0.5670
 5323SOL    HW127605   4.629   4.211   5.652  0.5868 -0.3339  1.1658
 5323SOL    HW227606   4.606   4.330   5.749 -0.2231 -0.1537 -0.7258
 5324SOL     OW27607   1.402   1.854   7.047  0.0585 -0.0404 -0.0219
 5324SOL    HW127608   1.456   1.909   7.104  0.2223 -2.4750  2.1606
 5324SOL    HW227609   1.470   1.821   6.988  0.9472 -1.4359  1.7958
 5325SOL     OW27610   0.436   0.578  11.262 -0.2555 -0.4475 -0.1479
 5325SOL    HW127611   0.430   0.632  11.183  1.1027 -0.0239  0.0318
 5325SOL    HW227612   0.423   0.639  11.334 -1.1415  0.0011 -0.6911
 5326SOL     OW27613   4.219   4.605   1.873  0.0311  0.3275 -0.3593
 5326SOL    HW127614   4.169   4.662   1.814 -0.7833  1.1595  1.1542
 5326SOL    HW227615   4.288   4.571   1.816  1.5302  4.1967 -0.8638
 5327SOL     OW27616   0.584   2.244   0.407  0.1021  0.2272  0.0496
 5327SOL    HW127617   0.643   2.202   0.470  2.7755  2.9783 -0.6096
 5327SOL    HW227618   0.628   2.329   0.406  1.0225 -0.2598 -0.4826
 5328SOL     OW27619   0.342   1.927   0.095  0.3539 -0.3021  0.6909
 5328SOL    HW127620   0.427   1.966   0.115 -0.5237  1.5604  0.8173
 5328SOL    HW227621   0.349   1.898   0.004 -1.6826  0.6288  0.2203
 5329SOL     OW27622   4.734   3.972   6.061  0.5500 -0.4083 -0.1992
 5329SOL    HW127623   0.031   3.908   6.000 -0.7910  0.6976 -2.1856
 5329SOL    HW227624   0.075   4.017   6.088 -0.0292  0.7382 -0.3494
 5330SOL     OW27625   3.439   1.074   6.730  0.0885  0.7004  0.5650
 5330SOL    HW127626   3.412   1.012   6.797  2.2167  0.9040  1.6062
 5330SOL    HW227627   3.387   1.152   6.748 -0.1739  0.6421  0.0659
 5331SOL     OW27628   2.918   0.344   2.931  0.2876  0.2308  0.0421
 5331SOL    HW127629   2.929   0.306   2.843  0.6749 -0.2899  0.3152
 5331SOL    HW227630   3.006   0.373   2.955  0.4900 -1.9203  1.8872
 5332SOL     OW27631   3.999   2.579   1.498  0.1038 -0.7202 -0.4733
 5332SOL    HW127632   4.085   2.555   1.462  1.8989  1.2785  2.4730
 5332SOL    HW227633   3.956   2.494   1.491  2.7283 -2.2061  1.0888
 5333SOL     OW27634   2.453   4.320   5.225 -0.0909 -0.0985 -0.3251
 5333SOL    HW127635   2.358   4.315   5.216 -0.0889 -0.5257 -0.0956
 5333SOL    HW227636   2.468   4.391   5.286 -0.4461  1.0093 -1.5340
 5334SOL     OW27637   2.510   2.385   4.131 -0.1960 -0.3280 -0.1557
 5334SOL    HW127638   2.469   2.407   4.048 -0.7453 -1.3129 -0.1367
 5334SOL    HW227639   2.435   2.351   4.181  0.5019 -1.8141 -0.1535
 5335SOL     OW27640   0.958   4.057   2.852 -0.2769 -0.0275  0.0997
 5335SOL    HW127641   1.029   4.100   2.899  0.5330 -0.3746 -0.8201
 5335SOL    HW227642   1.009   4.025   2.777  0.0557 -0.1926  0.3965
 5336SOL     OW27643   3.061   2.609  15.233  0.0129  0.2296  0.0346
 5336SOL    HW127644   3.081   2.702  15.224  1.0507 -0.0625 -0.5705
 5336SOL    HW227645   3.040   2.607  15.327 -1.6146  0.5133 -0.3199
 5337SOL     OW27646   1.684   1.838   4.133 -0.0982 -0.1371  0.7079
 5337SOL    HW127647   1.662   1.746   4.119 -1.1098 -0.1041  2.1030
 5337SOL    HW227648   1.668   1.871   4.044  1.2502 -1.5878 -0.0887
 5338SOL     OW27649   2.707   0.284   1.757 -0.1606 -1.1406 -0.4552
 5338SOL    HW127650   2.668   0.271   1.671 -0.6591 -0.8242 -0.2744
 5338SOL    HW227651   2.796   0.251   1.744  0.2540 -0.3739  0.4278
 5339SOL     OW27652   4.353   4.044   4.054 -0.2700 -0.3848 -0.0816
 5339SOL    HW127653   4.434   4.060   4.103 -0.0693 -1.2620 -0.1293
 5339SOL    HW227654   4.376   3.970   3.998  0.5487  0.3303 -0.7028
 5340SOL     OW27655   1.234   4.355   7.718  0.1206 -0.1377 -0.1995
 5340SOL    HW127656   1.199   4.417   7.654 -0.9826 -2.1769 -1.5467
 5340SOL    HW227657   1.281   4.415   7.777 -1.6146 -1.0538  2.1377
 5341SOL     OW27658   1.258   2.236   3.363  0.4781  0.2536 -0.6507
 5341SOL    HW127659   1.191   2.170   3.348  0.5922  0.3216 -1.4633
 5341SOL    HW227660   1.335   2.187   3.335 -0.3307 -0.1922 -2.0923
 5342SOL     OW27661   4.389   2.733   5.373  0.3083  0.3979 -0.2099
 5342SOL    HW127662   4.413   2.824   5.391  1.0535  0.5814 -2.1752
 5342SOL    HW227663   4.464   2.708   5.320 -0.8559  0.5855 -1.9418
 5343SOL     OW27664   2.825   3.839   1.709 -0.6520  0.3661 -0.5552
 5343SOL    HW127665   2.886   3.769   1.733 -0.4717  0.1322 -1.6674
 5343SOL    HW227666   2.738   3.809   1.736  0.3069 -1.8555  0.1094
 5344SOL     OW27667   1.785   1.600   2.841 -0.7529 -0.2118  0.0675
 5344SOL    HW127668   1.735   1.656   2.781  1.2369  2.6873  1.1160
 5344SOL    HW227669   1.856   1.566   2.787  0.9326  2.2527  0.7149
 5345SOL     OW27670   4.661   3.068  16.132  0.3033  0.0772 -0.9776
 5345SOL    HW127671   4.617   3.111  16.059  0.4974 -0.3453 -1.3431
 5345SOL    HW227672   4.707   2.996  16.088 -0.8690 -2.7734  2.4307
 5346SOL     OW27673   0.708   0.934  10.989  0.2408 -0.5297 -0.2850
 5346SOL    HW127674   0.684   0.943  11.081 -0.7780  3.0154 -0.8843
 5346SOL    HW227675   0.726   0.840  10.988 -0.7638 -0.7189 -0.6426
 5347SOL     OW27676   0.987   2.570   2.638  0.3601 -0.5751 -0.4965
 5347SOL    HW127677   1.048   2.500   2.658  1.1666 -0.2694 -1.8663
 5347SOL    HW227678   0.939   2.569   2.721 -1.1869 -0.8112 -1.3992
 5348SOL     OW27679   1.714   3.394   2.114 -0.3925 -0.2373  0.0474
 5348SOL    HW127680   1.703   3.456   2.041 -0.9499 -0.4030 -0.0133
 5348SOL    HW227681   1.625   3.386   2.148 -1.4404  1.3135 -2.3375
 5349SOL     OW27682   0.127   4.540   5.406 -0.2614  0.1555 -0.6205
 5349SOL    HW127683   0.179   4.549   5.486 -0.1542  2.0364 -0.9008
 5349SOL    HW227684   0.057   4.595   5.441 -0.7451 -1.0557  0.3449
 5350SOL     OW27685   1.198   2.145   0.593  0.0658 -0.3990 -0.2124
 5350SOL    HW127686   1.191   2.240   0.590 -1.0431 -0.3921  2.9399
 5350SOL    HW227687   1.252   2.121   0.669  0.9813  1.6224 -0.2248
 5351SOL     OW27688   1.124   2.161   7.589  0.2644 -0.0701  0.6563
 5351SOL    HW127689   1.033   2.145   7.568 -0.5197  1.5077  2.8058
 5351SOL    HW227690   1.117   2.254   7.609  1.4537  0.0946  0.3320
 5352SOL     OW27691   4.380   4.364   7.734  0.2713  0.0675 -0.5811
 5352SOL    HW127692   4.352   4.383   7.824 -0.6728  0.9014 -1.0416
 5352SOL    HW227693   4.295   4.347   7.694 -0.5110  0.3190  0.9686
 5353SOL     OW27694   1.678   0.502   1.529  0.5315 -0.2322 -0.4923
 5353SOL    HW127695   1.754   0.458   1.568  0.3838 -0.6316 -0.6507
 5353SOL    HW227696   1.640   0.441   1.465 -0.6000  0.2694 -0.3062
 5354SOL     OW27697   1.632   3.055  11.034  0.0601  0.3146  0.2022
 5354SOL    HW127698   1.558   3.052  11.095  0.3214  1.9267  0.5904
 5354SOL    HW227699   1.697   3.100  11.088 -0.3498  2.6123 -1.2269
 5355SOL     OW27700   3.483   0.739  12.074 -0.3281 -0.6260  0.0655
 5355SOL    HW127701   3.578   0.733  12.082 -0.4560 -1.0372  1.3930
 5355SOL    HW227702   3.447   0.666  12.124 -1.5117 -0.0540  0.0357
 5356SOL     OW27703   3.822   1.385   9.838 -0.1312  0.1370 -0.0909
 5356SOL    HW127704   3.810   1.312   9.898  0.2353  0.3935  0.2946
 5356SOL    HW227705   3.771   1.453   9.882 -0.1141  0.9583 -1.3447
 5357SOL     OW27706   0.441   4.076   0.364 -0.1769 -0.0386  0.0516
 5357SOL    HW127707   0.458   4.109   0.275  2.3342 -1.8124 -0.1137
 5357SOL    HW227708   0.529   4.057   0.396  0.7279 -0.7116 -2.8182
 5358SOL     OW27709   3.316   0.238  11.674  0.4591  0.3122  0.0200
 5358SOL    HW127710   3.358   0.165  11.720  0.2697 -1.0220 -1.9093
 5358SOL    HW227711   3.231   0.226  11.716  0.6100  0.6051  0.4022
 5359SOL     OW27712   4.024   1.397  17.180 -0.0016  0.4638 -0.6518
 5359SOL    HW127713   4.086   1.429  17.114 -1.9905  1.3001 -2.1085
 5359SOL    HW227714   4.078   1.409  17.258 -1.2063 -0.1466  0.2648
 5360SOL     OW27715   4.352   2.227  10.028 -0.3835  0.0752  0.3772
 5360SOL    HW127716   4.313   2.185   9.951  1.7646 -0.4862 -0.4127
 5360SOL    HW227717   4.311   2.185  10.103  1.9215  0.5801  1.8957
 5361SOL     OW27718   1.461   1.447   4.046 -0.2404  0.8710 -0.1794
 5361SOL    HW127719   1.457   1.352   4.038  0.9171  0.8546 -0.4947
 5361SOL    HW227720   1.433   1.461   4.136 -1.1882  0.4074 -0.3951
 5362SOL     OW27721   1.140   1.442   8.013  1.0117 -0.2025  0.0737
 5362SOL    HW127722   1.177   1.528   8.035  1.7555 -0.3418 -0.6359
 5362SOL    HW227723   1.210   1.411   7.956 -1.6158 -3.3760 -1.4717
 5363SOL     OW27724   4.728   0.804  17.627 -0.0885 -1.1736 -0.1922
 5363SOL    HW127725   0.073   0.760  17.622  0.7407  0.3856  0.1114
 5363SOL    HW227726   4.681   0.775  17.549  1.3331 -0.5525 -1.2722
 5364SOL     OW27727   0.771   2.911  10.353 -0.8157  0.3317  0.2566
 5364SOL    HW127728   0.690   2.864  10.372 -0.7053 -0.6077 -1.5584
 5364SOL    HW227729   0.758   3.004  10.371  1.8871  1.2391 -2.4650
 5365SOL     OW27730   0.376   1.109   5.393 -0.0030 -0.1735 -0.1736
 5365SOL    HW127731   0.283   1.133   5.398  0.1949  0.6372 -0.2551
 5365SOL    HW227732   0.408   1.173   5.329 -0.4896 -1.7073 -1.9263
 5366SOL     OW27733   0.537   1.692   4.751 -0.3185  0.3918 -0.5631
 5366SOL    HW127734   0.496   1.732   4.828 -3.6460 -0.1255 -2.0477
 5366SOL    HW227735   0.457   1.671   4.702 -0.9240 -0.8758  0.9758
 5367SOL     OW27736   0.677   3.711   6.420  0.3802  1.0124 -0.1956
 5367SOL    HW127737   0.619   3.697   6.495 -1.5486  0.7437 -1.7336
 5367SOL    HW227738   0.725   3.628   6.424  0.0161  0.7495 -1.3487
 5368SOL     OW27739   1.104   1.440   6.980  0.2217 -0.1032  0.5469
 5368SOL    HW127740   1.141   1.528   6.971  0.9583 -0.4166  0.5501
 5368SOL    HW227741   1.092   1.445   7.075 -1.0812 -0.0399  0.3840
 5369SOL     OW27742   2.868   4.542   6.649  0.1636 -0.6185  0.3570
 5369SOL    HW127743   2.810   4.594   6.705  1.0733  1.4955 -0.6737
 5369SOL    HW227744   2.856   4.454   6.684 -0.3027 -0.5062  0.4879
 5370SOL     OW27745   2.937   3.614   8.738 -0.7141  0.0860  0.1468
 5370SOL    HW127746   3.006   3.680   8.740  0.8030 -1.4595 -0.8621
 5370SOL    HW227747   2.897   3.617   8.651  0.4902 -0.8932 -0.4360
 5371SOL     OW27748   0.687   1.377   4.439 -0.6971 -0.3311 -0.3831
 5371SOL    HW127749   0.701   1.311   4.371 -0.7112 -0.7610  0.0283
 5371SOL    HW227750   0.615   1.428   4.401 -0.5266  0.6160  0.5576
 5372SOL     OW27751   3.081   4.684   7.979  0.1844 -0.2623  0.4080
 5372SOL    HW127752   3.042   0.012   7.925  2.7044  1.7040  1.0355
 5372SOL    HW227753   3.174   4.695   7.957  0.1748 -0.6957  0.1548
 5373SOL     OW27754   2.271   0.238   7.504  0.3665 -0.4766 -0.2227
 5373SOL    HW127755   2.184   0.212   7.473 -0.0776 -2.2708  2.4647
 5373SOL    HW227756   2.317   0.155   7.514  0.1789 -0.4238  1.1056
 5374SOL     OW27757   4.483   1.945   7.450  0.0091  0.9053  0.2456
 5374SOL    HW127758   4.466   2.030   7.409  1.2695  1.0731  0.0819
 5374SOL    HW227759   4.428   1.947   7.528  0.8673  3.1585  0.7883
 5375SOL     OW27760   1.124   1.757   2.824  0.6004  0.2216  0.5565
 5375SOL    HW127761   1.202   1.797   2.787  0.5850  1.2364  1.6413
 5375SOL    HW227762   1.064   1.758   2.749 -0.8583 -0.0189  1.7121
 5376SOL     OW27763   3.031   0.239   4.686  0.3395  0.1936 -0.5622
 5376SOL    HW127764   3.033   0.327   4.723  2.2650 -0.8486  1.8259
 5376SOL    HW227765   3.070   0.255   4.600  0.8231 -1.0900 -0.5843
 5377SOL     OW27766   4.472   1.398   1.810  0.3543  0.2210  0.1192
 5377SOL    HW127767   4.467   1.441   1.895  2.6968  0.7393 -0.0178
 5377SOL    HW227768   4.507   1.473   1.761  0.2108 -1.3085 -2.3223
 5378SOL     OW27769   4.039   3.083   8.589  0.3334 -0.1480  0.1279
 5378SOL    HW127770   3.962   3.139   8.597  0.1013 -0.3391 -0.8094
 5378SOL    HW227771   4.027   3.044   8.503 -1.9942  0.8030  0.0181
 5379SOL     OW27772   4.179   2.930  14.894  0.4782  0.1791  0.1217
 5379SOL    HW127773   4.235   2.902  14.966 -1.5230  2.0764  2.3956
 5379SOL    HW227774   4.176   2.855  14.835 -0.3041  0.3758 -0.0913
 5380SOL     OW27775   1.894   0.011   2.813 -0.3235 -0.0756 -0.2088
 5380SOL    HW127776   1.912   0.092   2.766 -2.3097  0.3455 -0.2527
 5380SOL    HW227777   1.839   4.702   2.752  1.8118 -0.4423 -1.8602
 5381SOL     OW27778   2.586   4.132  16.864  0.0036  0.3716 -0.3016
 5381SOL    HW127779   2.505   4.081  16.856  0.2680  0.0022 -0.6588
 5381SOL    HW227780   2.642   4.077  16.809  1.4250  0.3538  1.1868
 5382SOL     OW27781   2.177   1.374  16.276  0.3780  0.0431 -0.4304
 5382SOL    HW127782   2.182   1.469  16.285  0.2100  0.3315 -3.6146
 5382SOL    HW227783   2.082   1.367  16.270  0.5729 -1.4365 -1.7899
 5383SOL     OW27784   3.248   4.176   8.824 -0.1380 -0.0011  0.0050
 5383SOL    HW127785   3.282   4.206   8.908  1.2934 -0.6484 -0.3344
 5383SOL    HW227786   3.301   4.100   8.798  1.6593  1.2670 -0.0562
 5384SOL     OW27787   3.691   0.855   6.922  0.3989  0.2871  0.9332
 5384SOL    HW127788   3.661   0.905   6.997 -1.1022  3.2704 -1.6576
 5384SOL    HW227789   3.652   0.770   6.946  1.2087 -0.3643 -0.0367
 5385SOL     OW27790   4.583   3.894   9.068  0.1002  0.2876 -0.0596
 5385SOL    HW127791   4.597   3.846   9.149 -2.7106 -0.2695  0.1102
 5385SOL    HW227792   4.488   3.882   9.059  0.0672 -0.2506  1.0103
 5386SOL     OW27793   3.358   4.446   8.626  0.0364  0.1123 -0.0290
 5386SOL    HW127794   3.362   4.487   8.713 -0.4744 -1.7591  0.8771
 5386SOL    HW227795   3.268   4.416   8.619  0.4918 -0.9141 -1.5469
 5387SOL     OW27796   4.649   1.043   8.887  0.3460 -0.1066  0.3023
 5387SOL    HW127797   4.730   1.077   8.924  0.8263 -2.4568  1.4397
 5387SOL    HW227798   4.608   0.984   8.950 -2.5536  2.0537  0.4283
 5388SOL     OW27799   2.350   2.778   6.010 -0.0389  0.0681  0.0356
 5388SOL    HW127800   2.421   2.793   5.947 -0.7996 -0.6504 -0.9862
 5388SOL    HW227801   2.334   2.685   5.995  0.3694 -0.0649  0.4163
 5389SOL     OW27802   1.020   0.615   5.285 -0.9291 -0.2324  0.7388
 5389SOL    HW127803   1.105   0.660   5.285 -1.6569  1.1418  1.8449
 5389SOL    HW227804   0.996   0.635   5.194  2.7493 -2.8803 -0.8243
 5390SOL     OW27805   4.122   2.913   6.852 -0.7684 -0.4191 -0.3973
 5390SOL    HW127806   4.134   2.898   6.946  0.9273 -0.3986 -0.6092
 5390SOL    HW227807   4.053   2.847   6.842 -3.0585  2.2152 -1.7275
 5391SOL     OW27808   0.566   3.673   8.818  0.0159  0.4152  0.2901
 5391SOL    HW127809   0.654   3.637   8.826 -1.0933 -1.8453  2.2001
 5391SOL    HW227810   0.533   3.648   8.731 -2.0329  0.2261  1.1264
 5392SOL     OW27811   0.362   2.541   5.964  0.3917  0.2260 -0.5137
 5392SOL    HW127812   0.306   2.506   5.895  1.4364 -2.5587  0.0667
 5392SOL    HW227813   0.412   2.461   5.980 -1.1610 -0.7923 -0.7332
 5393SOL     OW27814   3.257   1.403  16.338  0.5165 -0.2736  0.1564
 5393SOL    HW127815   3.241   1.406  16.243  1.8440  0.4237 -0.0467
 5393SOL    HW227816   3.316   1.478  16.346  1.8622 -1.1458 -1.4624
 5394SOL     OW27817   4.517   1.693   9.298  0.3043  0.1593  0.4185
 5394SOL    HW127818   4.612   1.694   9.299  0.2983 -1.7036  2.0290
 5394SOL    HW227819   4.512   1.682   9.393 -0.0768 -1.2101  0.2332
 5395SOL     OW27820   0.728   3.373   6.864 -0.0573 -0.5408 -0.1606
 5395SOL    HW127821   0.687   3.458   6.882 -0.3972 -0.7157 -0.1098
 5395SOL    HW227822   0.655   3.336   6.813 -1.0649  1.2431 -0.0122
 5396SOL     OW27823   1.697   4.637  12.494 -0.4829  0.7144 -0.5395
 5396SOL    HW127824   1.748   4.557  12.488  0.5871  1.3317  0.1544
 5396SOL    HW227825   1.629   4.609  12.433 -0.3609  0.1447 -0.4068
 5397SOL     OW27826   2.063   2.604   4.450 -0.0552  0.4383 -0.0292
 5397SOL    HW127827   2.009   2.679   4.475 -0.1177  1.3120 -2.7679
 5397SOL    HW227828   2.022   2.577   4.368  1.2959 -2.3770  0.2299
 5398SOL     OW27829   0.663   3.096   5.782  0.1605  0.2473 -0.1044
 5398SOL    HW127830   0.683   3.141   5.864 -0.6487 -2.0232  1.3392
 5398SOL    HW227831   0.626   3.165   5.726 -1.2761 -0.5847 -0.1766
 5399SOL     OW27832   1.355   2.195   8.183  0.7300  0.5894  0.5129
 5399SOL    HW127833   1.314   2.254   8.120 -2.1114 -3.0937 -1.0904
 5399SOL    HW227834   1.446   2.209   8.156  0.0207  2.0585 -1.1524
 5400SOL     OW27835   2.996   4.468   8.628  0.6894 -0.0152  0.2343
 5400SOL    HW127836   2.905   4.444   8.645  0.3906  0.2564 -1.0150
 5400SOL    HW227837   3.001   4.550   8.677 -0.0792 -0.2627  0.7149
 5401SOL     OW27838   3.127   3.671   7.856  0.0896  0.1317  0.0959
 5401SOL    HW127839   3.166   3.719   7.783  0.6678 -0.8195 -0.2192
 5401SOL    HW227840   3.164   3.724   7.927  0.0598  0.3946 -0.0885
 5402SOL     OW27841   0.012   4.403   2.787 -0.0081  0.7262 -0.4869
 5402SOL    HW127842   4.673   4.447   2.756 -0.9982 -1.7252 -1.4033
 5402SOL    HW227843   0.075   4.472   2.765 -1.5929  2.4064  0.2364
 5403SOL     OW27844   0.237   3.155   8.043 -0.7044 -0.3549  0.5247
 5403SOL    HW127845   0.315   3.118   8.085  0.0911 -1.4892 -1.9576
 5403SOL    HW227846   0.198   3.086   7.990 -0.0249  0.3265 -0.8679
 5404SOL     OW27847   0.687   2.220   2.263  0.1628  0.0935 -0.3028
 5404SOL    HW127848   0.628   2.177   2.325 -0.1285 -0.7864 -1.1870
 5404SOL    HW227849   0.725   2.287   2.319 -0.2512 -0.0921  0.1921
 5405SOL     OW27850   4.290   1.187   7.388 -0.1955  0.0910 -0.0793
 5405SOL    HW127851   4.377   1.163   7.422 -1.3704 -0.9142  2.2403
 5405SOL    HW227852   4.312   1.250   7.320 -1.5914  1.2574  0.5618
 5406SOL     OW27853   0.705   1.218   0.555 -0.2583  0.3778  0.3251
 5406SOL    HW127854   0.722   1.293   0.612  0.2856  0.4224  0.0974
 5406SOL    HW227855   0.715   1.256   0.467  0.3036 -2.8091 -0.9798
 5407SOL     OW27856   3.181   1.878   5.706 -0.1846 -0.0627 -0.2210
 5407SOL    HW127857   3.207   1.786   5.713  1.7354  0.3476 -2.0329
 5407SOL    HW227858   3.260   1.919   5.671  0.2015  1.3759  2.2877
 5408SOL     OW27859   1.827   0.235   3.308  0.4178 -0.1740  0.0249
 5408SOL    HW127860   1.810   0.314   3.256  1.9275 -0.3559 -0.7381
 5408SOL    HW227861   1.741   0.232   3.348  0.8087  1.8971  0.9899
 5409SOL     OW27862   2.266   0.774  10.637  0.5416  0.2192 -0.1438
 5409SOL    HW127863   2.313   0.850  10.671  0.2620 -1.0302  3.0845
 5409SOL    HW227864   2.232   0.738  10.719  1.3346 -0.1283  0.0233
 5410SOL     OW27865   0.953   2.920  10.150 -0.0310 -0.9836 -0.5646
 5410SOL    HW127866   0.888   2.903  10.218 -0.8342  2.6224 -0.4076
 5410SOL    HW227867   0.904   2.979  10.092 -0.2760 -1.3002 -0.6782
 5411SOL     OW27868   3.115   3.760   6.879 -0.5837  0.3939  0.6148
 5411SOL    HW127869   3.090   3.667   6.881 -3.7330  1.2222 -0.0295
 5411SOL    HW227870   3.063   3.783   6.803  0.1457 -3.8458 -1.2024
 5412SOL     OW27871   3.718   0.442  13.535 -0.4566 -0.5623 -0.2744
 5412SOL    HW127872   3.807   0.474  13.517 -0.5205 -1.3252 -1.9676
 5412SOL    HW227873   3.696   0.508  13.600 -4.1193  0.0296 -2.1255
 5413SOL     OW27874   3.633   2.277   5.836 -0.2025  0.3662 -0.1783
 5413SOL    HW127875   3.682   2.267   5.918 -0.0449 -2.8991 -0.6772
 5413SOL    HW227876   3.675   2.205   5.789 -2.1167  0.2276 -1.6852
 5414SOL     OW27877   1.280   3.435   7.495  0.2689 -0.2997  0.5808
 5414SOL    HW127878   1.302   3.460   7.585  1.9636  0.5176 -0.0621
 5414SOL    HW227879   1.189   3.456   7.480  0.1459 -2.0510 -1.1000
 5415SOL     OW27880   3.234   1.696   9.263 -0.0238  0.7287  0.1578
 5415SOL    HW127881   3.155   1.736   9.298 -0.6303  0.6534 -1.1110
 5415SOL    HW227882   3.286   1.770   9.231  1.1828  0.0510  0.5409
 5416SOL     OW27883   2.524   3.684   8.821  0.5053  0.9473  0.2774
 5416SOL    HW127884   2.482   3.613   8.772 -1.7801  2.8336 -0.5033
 5416SOL    HW227885   2.500   3.659   8.910  0.7270  1.1654  0.4005
 5417SOL     OW27886   1.002   4.619   4.907 -0.3278  0.2516  0.5435
 5417SOL    HW127887   0.958   4.692   4.864 -0.5497  1.0876  2.1781
 5417SOL    HW227888   1.002   4.551   4.840  2.3914  1.3459 -0.5772
 5418SOL     OW27889   4.347   4.518   2.098 -0.2141 -0.3235 -0.2804
 5418SOL    HW127890   4.302   4.500   2.015  0.0244  0.3855 -0.5659
 5418SOL    HW227891   4.403   4.591   2.071  0.1632  0.3858  2.4103
 5419SOL     OW27892   3.752   4.491   2.276 -0.1955 -0.1284 -0.0652
 5419SOL    HW127893   3.811   4.485   2.201  1.0590  4.4181  0.6035
 5419SOL    HW227894   3.808   4.485   2.353 -0.9409 -0.5632  0.4459
 5420SOL     OW27895   4.649   3.954  14.166  0.4128  0.4367  0.3854
 5420SOL    HW127896   4.717   3.904  14.121  0.2565 -0.0477  0.6793
 5420SOL    HW227897   4.695   4.030  14.202  0.2137  0.5227  0.4614
 5421SOL     OW27898   2.172   2.122   3.806  0.1288  0.0035 -0.1372
 5421SOL    HW127899   2.080   2.134   3.780  0.4914  2.6308 -0.2304
 5421SOL    HW227900   2.172   2.044   3.861 -1.1066  0.9023  1.1350
 5422SOL     OW27901   1.586   1.408   2.249 -0.3722  0.5872  0.1988
 5422SOL    HW127902   1.521   1.375   2.187 -1.1726  2.1949  0.1828
 5422SOL    HW227903   1.568   1.502   2.245  0.2767  0.6728 -0.7159
 5423SOL     OW27904   0.007   2.189   4.306  0.1548  0.3634  0.0210
 5423SOL    HW127905   0.025   2.282   4.316  1.5737  0.1249 -0.3391
 5423SOL    HW227906   0.094   2.150   4.315 -0.4823 -1.4612 -1.6140
 5424SOL     OW27907   1.949   3.630   5.952 -0.1028  0.2902 -0.2786
 5424SOL    HW127908   1.886   3.677   6.007  0.6526  0.2790  0.6136
 5424SOL    HW227909   1.991   3.702   5.905  1.2659 -0.7527 -0.6531
 5425SOL     OW27910   0.803   3.013   3.856 -0.0110  0.8846  0.0179
 5425SOL    HW127911   0.856   3.044   3.930  0.4288 -2.2675  1.0291
 5425SOL    HW227912   0.836   3.063   3.781 -0.3728  0.8281 -0.1797
 5426SOL     OW27913   0.143   4.131   1.906 -0.1617  0.3477 -0.6087
 5426SOL    HW127914   0.097   4.048   1.895  2.1174 -0.6296 -2.8773
 5426SOL    HW227915   0.125   4.166   1.819  1.9624  1.2031 -0.7031
 5427SOL     OW27916   0.304   2.140   7.533 -0.2463 -0.3531  0.0583
 5427SOL    HW127917   0.397   2.147   7.511 -0.7901 -2.0212 -2.6830
 5427SOL    HW227918   0.267   2.117   7.448 -0.4188  1.0026 -0.2170
 5428SOL     OW27919   3.302   1.651   3.507 -0.4687  0.5311 -0.0881
 5428SOL    HW127920   3.304   1.642   3.602 -2.7424  0.5861 -0.0452
 5428SOL    HW227921   3.252   1.574   3.478  0.0352 -1.0094  3.1388
 5429SOL     OW27922   0.581   1.408  17.501 -0.0275  0.9754 -0.2097
 5429SOL    HW127923   0.627   1.358  17.569  0.2704 -0.4692 -1.4768
 5429SOL    HW227924   0.500   1.361  17.483  1.2064 -1.2588  0.0697
 5430SOL     OW27925   2.220   3.020   5.965 -0.3395  0.1566 -0.3023
 5430SOL    HW127926   2.138   3.021   5.915  0.4260  1.3271 -1.5239
 5430SOL    HW227927   2.241   2.927   5.957  1.8031  0.7695 -1.8460
 5431SOL     OW27928   3.964   4.730   4.671 -0.3562  0.9846 -0.6148
 5431SOL    HW127929   3.921   4.652   4.706  0.4919 -0.3747 -2.5813
 5431SOL    HW227930   4.005   0.011   4.755  1.3769 -0.1829 -1.1615
 5432SOL     OW27931   0.125   2.577   9.753 -0.0715  0.3078 -0.6070
 5432SOL    HW127932   0.158   2.587   9.843  0.1973 -1.7159 -0.4751
 5432SOL    HW227933   0.113   2.670   9.735 -1.9482 -0.0033 -0.9364
 5433SOL     OW27934   1.767   1.062  16.268 -0.0854 -0.0480 -0.2133
 5433SOL    HW127935   1.694   1.048  16.208 -1.2042  0.0378  1.1037
 5433SOL    HW227936   1.812   0.977  16.268  1.1007  0.5795 -0.2945
 5434SOL     OW27937   0.860   0.403   9.186 -0.2215 -0.6810  0.1469
 5434SOL    HW127938   0.864   0.318   9.230  1.9601 -1.0343 -0.7306
 5434SOL    HW227939   0.904   0.379   9.105 -0.2054  0.8897 -0.2927
 5435SOL     OW27940   3.135   4.492   4.690  0.5454  0.0012  0.1666
 5435SOL    HW127941   3.219   4.482   4.645  1.2338  0.1142  1.4029
 5435SOL    HW227942   3.127   4.405   4.729 -2.7195 -0.5266 -1.7366
 5436SOL     OW27943   2.881   4.213  10.579 -0.2843  0.0869 -0.1678
 5436SOL    HW127944   2.840   4.133  10.613  1.9355 -0.4922  1.1914
 5436SOL    HW227945   2.902   4.261  10.659  2.1277 -0.0927 -0.6981
 5437SOL     OW27946   1.358   4.257   8.131  0.1925 -0.0923  0.4970
 5437SOL    HW127947   1.376   4.233   8.040  1.2100  0.7235  0.4805
 5437SOL    HW227948   1.355   4.353   8.127  0.3541 -0.1517 -1.2382
 5438SOL     OW27949   2.215   1.858   3.874 -0.3163  0.3026 -0.0938
 5438SOL    HW127950   2.309   1.862   3.861 -0.2655  0.7504  0.4341
 5438SOL    HW227951   2.203   1.785   3.813 -0.9820  1.7535 -1.7163
 5439SOL     OW27952   3.170   4.524   8.979  0.1123 -0.2510 -0.4958
 5439SOL    HW127953   3.096   4.554   8.926  0.6750 -2.8337 -2.7304
 5439SOL    HW227954   3.241   4.568   8.932 -0.2462 -0.1809 -0.9679
 5440SOL     OW27955   4.197   2.581   9.106 -0.2955  0.1818 -0.2572
 5440SOL    HW127956   4.140   2.640   9.155 -0.8717  0.5352 -1.3634
 5440SOL    HW227957   4.241   2.528   9.173 -3.9108 -0.5696  1.4764
 5441SOL     OW27958   1.676   4.237   8.802 -0.4103  0.1223 -0.0585
 5441SOL    HW127959   1.582   4.244   8.813 -0.4949  0.7250 -1.1070
 5441SOL    HW227960   1.697   4.173   8.869  1.4310  1.3641  0.5435
 5442SOL     OW27961   2.857   3.565   8.470  0.5133  0.5432  0.2796
 5442SOL    HW127962   2.762   3.557   8.465  0.3591  2.0509  0.8399
 5442SOL    HW227963   2.876   3.631   8.403 -0.9708  2.7518  2.0283
 5443SOL     OW27964   1.546   1.293   6.430  0.3413 -0.5680  0.7097
 5443SOL    HW127965   1.464   1.244   6.437  0.2931 -0.5030  0.6041
 5443SOL    HW227966   1.561   1.303   6.336 -2.2138  1.8728  0.5628
 5444SOL     OW27967   1.795   1.070  17.693  0.2251 -0.4450 -0.3238
 5444SOL    HW127968   1.728   1.093   0.000  0.4366 -0.9725  0.0830
 5444SOL    HW227969   1.793   1.153  17.645  0.6888  0.6479  1.5424
 5445SOL     OW27970   0.853   0.921  17.012 -0.1836 -0.4599 -0.4084
 5445SOL    HW127971   0.946   0.921  17.034 -0.6635  0.8717  1.6944
 5445SOL    HW227972   0.838   0.827  17.000 -0.6361 -0.3609 -0.6305
 5446SOL     OW27973   4.306   3.926   4.960 -0.2568 -0.6589 -0.0501
 5446SOL    HW127974   4.344   3.917   4.873  0.4218  0.5116  0.1317
 5446SOL    HW227975   4.239   3.857   4.953  0.1654 -1.3340  2.4350
 5447SOL     OW27976   3.379   3.072   5.246 -0.3477  0.2145  0.4154
 5447SOL    HW127977   3.472   3.050   5.242 -0.4782 -0.7901  2.3851
 5447SOL    HW227978   3.395   3.160   5.279 -0.7393  0.9692 -1.4162
 5448SOL     OW27979   2.814   1.735   6.262  0.5266 -0.1361 -0.3752
 5448SOL    HW127980   2.820   1.640   6.269  1.8804  0.0934  1.6832
 5448SOL    HW227981   2.883   1.765   6.322 -0.2482  1.1555 -0.1144
 5449SOL     OW27982   4.378   0.358   0.905  0.7831  0.2305  0.0865
 5449SOL    HW127983   4.306   0.350   0.842 -1.2902 -0.8287  2.5911
 5449SOL    HW227984   4.397   0.451   0.895 -4.1442  1.2824  0.5718
 5450SOL     OW27985   3.627   3.712   5.419  0.0352  0.0726 -0.7425
 5450SOL    HW127986   3.716   3.716   5.453 -0.0487 -3.1310 -0.1404
 5450SOL    HW227987   3.610   3.619   5.400  1.7214  0.1781 -2.7903
 5451SOL     OW27988   0.298   4.695   3.860 -0.0813 -0.2586  0.6120
 5451SOL    HW127989   0.326   4.603   3.854 -0.0337 -0.2270  0.3380
 5451SOL    HW227990   0.375   4.725   3.908  1.3595 -2.1458 -0.4685
 5452SOL     OW27991   0.387   1.274  17.696 -0.2855 -0.3381  0.2422
 5452SOL    HW127992   0.329   1.202  17.670  0.8420 -2.0285  2.3928
 5452SOL    HW227993   0.469   1.227  17.711 -0.2882 -0.5665 -0.4587
 5453SOL     OW27994   4.346   0.173   3.761  0.5575  0.0809 -0.3399
 5453SOL    HW127995   4.422   0.192   3.816  0.5253  1.9656 -0.9620
 5453SOL    HW227996   4.382   0.148   3.676 -0.3560  2.0176 -1.2929
 5454SOL     OW27997   0.503   0.919   3.444  0.0858  0.1025 -0.1267
 5454SOL    HW127998   0.572   0.888   3.385  0.1806 -3.0376  1.6295
 5454SOL    HW227999   0.429   0.907   3.385 -0.0203  2.6901 -0.5509
 5455SOL     OW28000   3.299   2.685  14.016 -0.1001 -0.1506 -0.1518
 5455SOL    HW128001   3.256   2.636  14.086 -2.0998  1.6433 -0.1080
 5455SOL    HW228002   3.242   2.674  13.940 -1.2507 -0.0681  0.6935
 5456SOL     OW28003   3.275   3.360   5.293 -0.0416 -0.0462 -0.2095
 5456SOL    HW128004   3.211   3.357   5.365 -0.1787  2.1601 -0.2448
 5456SOL    HW228005   3.217   3.345   5.219 -0.1721 -1.4691  0.1821
 5457SOL     OW28006   0.920   0.417   4.221  0.2408 -0.3387  0.5540
 5457SOL    HW128007   0.848   0.373   4.265  0.7011 -0.9738  0.6784
 5457SOL    HW228008   0.991   0.353   4.233 -0.6740 -1.5485 -0.5646
 5458SOL     OW28009   0.956   1.792   2.171 -0.3126  0.1130 -0.5762
 5458SOL    HW128010   0.907   1.715   2.142 -0.0946 -0.3619  0.3299
 5458SOL    HW228011   0.901   1.863   2.137  0.0654  0.5733 -0.2327
 5459SOL     OW28012   2.751   2.291   6.474 -0.3163 -0.0661 -0.0035
 5459SOL    HW128013   2.753   2.242   6.391 -0.7452 -0.3535  0.1560
 5459SOL    HW228014   2.671   2.343   6.466  1.1004  2.4005  1.9523
 5460SOL     OW28015   3.915   0.069   5.304  0.1704  0.1063  0.6847
 5460SOL    HW128016   3.948   4.722   5.284  0.4705  0.3077  0.3142
 5460SOL    HW228017   3.875   0.090   5.220  0.1073 -2.0502  0.1841
 5461SOL     OW28018   2.655   1.969   7.525 -0.2241  0.5611 -0.4701
 5461SOL    HW128019   2.564   1.940   7.529 -0.5027  1.4683 -0.0980
 5461SOL    HW228020   2.665   1.983   7.619  0.0844 -1.3152 -0.2194
 5462SOL     OW28021   1.994   1.312   5.905  0.1171  0.3171 -0.0333
 5462SOL    HW128022   2.047   1.344   5.978 -0.5789 -0.8947  0.9935
 5462SOL    HW228023   1.931   1.384   5.911  0.5849  0.7448 -0.2471
 5463SOL     OW28024   1.796   0.524  15.706 -0.4702 -0.1923  0.0325
 5463SOL    HW128025   1.881   0.506  15.745 -1.1729  0.4825  1.9128
 5463SOL    HW228026   1.775   0.604  15.754  0.1529  0.8556 -1.4480
 5464SOL     OW28027   0.054   4.152  17.088 -0.1925 -0.3725  0.3086
 5464SOL    HW128028   0.065   4.057  17.096 -0.8055 -0.4253  0.5056
 5464SOL    HW228029   4.713   4.163  17.039  0.7083  0.0799 -1.0798
 5465SOL     OW28030   3.172   1.326  12.053 -0.3117  0.2146  0.2001
 5465SOL    HW128031   3.179   1.292  12.142  0.1297 -0.0056  0.0812
 5465SOL    HW228032   3.117   1.258  12.014 -1.2713  0.9808  0.2083
 5466SOL     OW28033   4.118   1.424   2.065  0.2531  0.0118 -0.0503
 5466SOL    HW128034   4.199   1.395   2.107  0.3776 -1.0925 -1.0333
 5466SOL    HW228035   4.130   1.518   2.076  1.7802 -0.0118 -1.5582
 5467SOL     OW28036   2.867   4.401   4.276  0.2510  0.2564 -0.1957
 5467SOL    HW128037   2.883   4.451   4.356  2.7418  1.8666 -1.6949
 5467SOL    HW228038   2.906   4.317   4.298 -1.1249 -0.4954 -0.6296
 5468SOL     OW28039   2.806   4.433   3.400 -0.1305 -0.2172 -0.4122
 5468SOL    HW128040   2.891   4.453   3.440 -0.1477 -2.1812  0.6450
 5468SOL    HW228041   2.756   4.413   3.479  0.1399  1.0309  0.0779
 5469SOL     OW28042   3.961   3.810  12.392  0.1180  0.0483  0.7652
 5469SOL    HW128043   3.941   3.719  12.370 -0.8541 -0.2578  2.9286
 5469SOL    HW228044   3.982   3.853  12.309 -0.5353 -0.2460  0.4426
 5470SOL     OW28045   1.182   1.043   2.905 -0.0560 -0.0018 -0.2827
 5470SOL    HW128046   1.174   0.952   2.874 -1.3276 -0.4321  1.3084
 5470SOL    HW228047   1.276   1.055   2.901  0.0582 -0.4167  1.3776
 5471SOL     OW28048   4.327   3.481   4.488  0.6460  0.3064 -0.5749
 5471SOL    HW128049   4.360   3.393   4.504  1.3364  0.4393 -1.2702
 5471SOL    HW228050   4.398   3.545   4.492  0.8979 -0.1603  2.2683
 5472SOL     OW28051   4.173   1.919   5.454  0.5736  0.5074 -0.5449
 5472SOL    HW128052   4.092   1.906   5.404 -0.2631  1.1078  0.6745
 5472SOL    HW228053   4.166   2.006   5.495  0.7432  0.3217 -0.1247
 5473SOL     OW28054   2.991   0.709  13.173  0.1270  0.2813 -0.0655
 5473SOL    HW128055   2.928   0.780  13.178 -0.4443 -0.2699  0.4661
 5473SOL    HW228056   3.049   0.744  13.106  0.6724 -0.9865 -0.2659
 5474SOL     OW28057   1.466   3.647  15.914  0.3490 -0.1395 -0.2246
 5474SOL    HW128058   1.520   3.573  15.940  0.1465 -0.6788 -1.3494
 5474SOL    HW228059   1.401   3.605  15.858  1.3847 -1.1550 -0.6539
 5475SOL     OW28060   3.392   0.267   2.912  0.4763  0.8322  0.6526
 5475SOL    HW128061   3.469   0.221   2.881 -0.2805  0.2087 -0.3303
 5475SOL    HW228062   3.402   0.334   2.845 -0.8640 -0.6361 -1.0189
 5476SOL     OW28063   1.483   0.273  15.369 -0.1435 -0.4453 -0.0739
 5476SOL    HW128064   1.484   0.209  15.298 -1.9004 -2.0193  1.3131
 5476SOL    HW228065   1.578   0.284  15.373 -0.2369 -0.3611  2.0327
 5477SOL     OW28066   3.128   3.137   1.683 -0.2059 -0.2616  0.1689
 5477SOL    HW128067   3.033   3.136   1.691 -0.2548 -0.2174 -0.4317
 5477SOL    HW228068   3.145   3.207   1.621 -0.6283 -0.8532 -0.6181
 5478SOL     OW28069   2.907   1.217   3.822 -0.3620  0.8070  0.1722
 5478SOL    HW128070   2.870   1.131   3.798 -0.7127  1.4918 -1.7687
 5478SOL    HW228071   2.860   1.276   3.763  1.1192  2.3079  0.5062
 5479SOL     OW28072   4.231   0.476   2.445  0.0066  0.1249  0.4747
 5479SOL    HW128073   4.252   0.541   2.378 -0.4929  0.6063  0.7816
 5479SOL    HW228074   4.163   0.428   2.397  0.1078  1.0433 -0.5815
 5480SOL     OW28075   1.918   4.683   6.737 -0.3537 -0.2869  0.0064
 5480SOL    HW128076   1.864   0.020   6.757  2.8790  1.6914  1.2294
 5480SOL    HW228077   2.000   4.730   6.721  0.1659 -0.9625  0.6686
 5481SOL     OW28078   0.445   1.120   4.253  0.2942 -0.8144 -0.5383
 5481SOL    HW128079   0.403   1.195   4.295 -0.0915 -0.6548 -1.1988
 5481SOL    HW228080   0.372   1.104   4.193 -0.3501 -0.7221  0.2202
 5482SOL     OW28081   0.389   1.308   9.294 -0.4657 -0.2361 -0.2749
 5482SOL    HW128082   0.379   1.292   9.388 -0.0312 -6.0622 -1.2084
 5482SOL    HW228083   0.443   1.235   9.264 -0.0915 -0.0509 -0.0501
 5483SOL     OW28084   3.753   0.678   0.960 -0.2435 -0.8294  0.4007
 5483SOL    HW128085   3.803   0.699   1.039 -1.3789 -1.0704  1.1691
 5483SOL    HW228086   3.684   0.744   0.960 -1.1116 -1.7191 -1.0898
 5484SOL     OW28087   0.881   1.340   6.361 -0.3598 -0.0258  0.9386
 5484SOL    HW128088   0.957   1.377   6.405 -0.1212  0.6447 -0.0396
 5484SOL    HW228089   0.873   1.387   6.278 -0.1758 -0.4768  0.6705
 5485SOL     OW28090   4.285   3.958   7.536 -0.1135 -0.0360 -0.5535
 5485SOL    HW128091   4.249   3.869   7.534  1.4552 -0.6751 -0.2169
 5485SOL    HW228092   4.345   3.960   7.461 -0.0169  0.3380 -0.4651
 5486SOL     OW28093   4.141   4.560  10.649 -0.0227  0.8493 -0.1784
 5486SOL    HW128094   4.230   4.592  10.656  0.1473  0.3887 -0.2624
 5486SOL    HW228095   4.089   4.596  10.720  0.4382  0.0771  0.5495
 5487SOL     OW28096   3.086   0.029  15.742 -0.3721 -0.1748  0.3671
 5487SOL    HW128097   3.022   0.092  15.710 -0.3261  0.4213  1.4607
 5487SOL    HW228098   3.147   0.022  15.669  2.4217  2.4934  2.3983
 5488SOL     OW28099   1.810   1.900  16.851 -0.5468 -0.2065 -0.2701
 5488SOL    HW128100   1.730   1.952  16.844 -0.6961 -0.3843  0.1486
 5488SOL    HW228101   1.822   1.867  16.762 -0.9107  2.6255 -1.3774
 5489SOL     OW28102   3.186   1.736   2.622  0.0687 -0.1665  0.0917
 5489SOL    HW128103   3.282   1.729   2.617 -0.0810  0.2556 -3.0620
 5489SOL    HW228104   3.164   1.698   2.537 -0.8038 -0.8794  0.6425
 5490SOL     OW28105   4.600   2.709   8.139 -0.3667  0.1747  0.3320
 5490SOL    HW128106   4.576   2.727   8.048 -0.0137 -1.6474 -0.1134
 5490SOL    HW228107   4.613   2.794   8.183 -1.5490  1.1197 -1.1400
 5491SOL     OW28108   3.920   0.347   7.866  0.1420 -0.0346  0.1775
 5491SOL    HW128109   3.932   0.441   7.851  0.0141  0.0574  0.6481
 5491SOL    HW228110   4.005   0.320   7.831 -0.7174  0.3203 -2.1631
 5492SOL     OW28111   0.284   4.351   4.794 -0.0665 -0.1578 -0.5473
 5492SOL    HW128112   0.316   4.320   4.709 -0.6756 -1.2219 -0.3888
 5492SOL    HW228113   0.190   4.363   4.779 -0.2289 -1.8610 -0.8373
 5493SOL     OW28114   1.964   4.557   5.159  0.6739  0.2958  0.0866
 5493SOL    HW128115   2.032   4.616   5.191 -1.1897  1.8365  1.1955
 5493SOL    HW228116   1.901   4.622   5.129 -0.4251  0.4758  2.7287
 5494SOL     OW28117   2.314   0.501   1.337 -0.3443  0.3464  0.1829
 5494SOL    HW128118   2.227   0.538   1.323 -0.3708  0.3085  0.2481
 5494SOL    HW228119   2.305   0.409   1.362 -0.2944  0.3196  0.1026
 5495SOL     OW28120   4.094   1.294   7.904  0.5912  0.3421 -0.5179
 5495SOL    HW128121   4.125   1.206   7.882 -0.0337 -0.1176  0.4535
 5495SOL    HW228122   4.161   1.344   7.857  1.6628 -0.0125  0.6359
 5496SOL     OW28123   1.328   3.432   2.830 -0.6703 -0.1311  0.0903
 5496SOL    HW128124   1.417   3.402   2.852 -0.7185 -0.9156 -0.7549
 5496SOL    HW228125   1.289   3.348   2.806 -1.6828  0.3590  0.0160
 5497SOL     OW28126   3.523   0.914  12.469  0.1850  0.7974  0.3148
 5497SOL    HW128127   3.567   0.972  12.407  0.2015 -1.7281 -2.0345
 5497SOL    HW228128   3.537   0.960  12.553 -0.1663  2.2714 -0.4294
 5498SOL     OW28129   2.882   2.969   5.947  0.2738  0.1653  0.3916
 5498SOL    HW128130   2.867   2.973   5.853  3.4690  1.0123 -0.0726
 5498SOL    HW228131   2.976   2.951   5.944  0.3372  0.1535  2.0648
 5499SOL     OW28132   3.405   4.083   4.645 -0.1022  0.1857 -0.4313
 5499SOL    HW128133   3.371   4.031   4.717  3.6761 -1.7693 -0.0254
 5499SOL    HW228134   3.334   4.064   4.584  0.5212 -3.4998  0.0252
 5500SOL     OW28135   0.174   1.027   3.460 -0.5728  0.4157  0.5259
 5500SOL    HW128136   0.112   1.089   3.499 -2.0451  0.4298 -1.8121
 5500SOL    HW228137   0.114   0.956   3.435 -1.1104  0.4365  1.7487
 5501SOL     OW28138   2.580   1.653   3.163  0.3123 -0.0616 -0.0226
 5501SOL    HW128139   2.608   1.652   3.254  2.5812 -1.3941 -0.7318
 5501SOL    HW228140   2.487   1.672   3.175  0.3592  0.1395  0.0240
 5502SOL     OW28141   3.474   0.942  14.216  0.7931  0.1429  0.7478
 5502SOL    HW128142   3.533   0.876  14.253  2.0600  0.8754  0.0395
 5502SOL    HW228143   3.538   0.999  14.173  0.4532 -1.2741 -1.6213
 5503SOL     OW28144   0.935   0.485   2.523  0.2215  0.2176  0.2819
 5503SOL    HW128145   0.934   0.392   2.548  1.6869  0.4907  1.3704
 5503SOL    HW228146   1.010   0.515   2.573 -0.6802  1.0929  1.1211
 5504SOL     OW28147   0.909   1.466   6.760 -0.2237 -0.7067 -0.5007
 5504SOL    HW128148   0.925   1.514   6.841 -0.3864  0.6069 -1.2487
 5504SOL    HW228149   0.989   1.413   6.753  0.3506  0.0457  0.4465
 5505SOL     OW28150   3.374   3.737   3.503 -0.7191  0.1694  0.0127
 5505SOL    HW128151   3.379   3.747   3.598  2.6969 -0.2596 -0.1424
 5505SOL    HW228152   3.355   3.827   3.478 -0.6558  0.0796 -0.3697
 5506SOL     OW28153   3.832   4.110   6.303  0.5839  0.0168  0.2466
 5506SOL    HW128154   3.851   4.139   6.214 -0.9879 -2.3836 -0.8686
 5506SOL    HW228155   3.845   4.015   6.301 -0.2935 -0.0909 -0.1875
 5507SOL     OW28156   1.324   1.204  16.673 -0.0626  0.3851 -0.2039
 5507SOL    HW128157   1.238   1.196  16.715 -0.4502 -0.2927 -1.1414
 5507SOL    HW228158   1.382   1.195  16.749  0.5422  0.3656 -0.6659
 5508SOL     OW28159   3.960   3.590   3.921 -0.1738 -0.1068  0.5080
 5508SOL    HW128160   3.927   3.533   3.991 -1.5298  0.6934  0.5122
 5508SOL    HW228161   3.879   3.612   3.876  0.7333  1.2529 -0.4509
 5509SOL     OW28162   3.048   0.711  13.471  0.2144  0.1591 -0.2168
 5509SOL    HW128163   3.097   0.789  13.446  2.3600 -0.6248  1.6171
 5509SOL    HW228164   3.055   0.653  13.395 -0.4448  1.0967 -0.9944
 5510SOL     OW28165   1.069   4.594   9.285 -0.3658  0.1135 -0.0048
 5510SOL    HW128166   1.029   4.584   9.199  1.2650  1.9291 -0.9951
 5510SOL    HW228167   1.135   4.660   9.261  1.6586 -1.1789  2.0609
 5511SOL     OW28168   1.088   3.473   8.353  0.2790 -0.3443  0.0107
 5511SOL    HW128169   1.061   3.401   8.295 -1.2625  0.3977 -0.1935
 5511SOL    HW228170   1.015   3.484   8.414  0.5652  1.1133  0.0774
 5512SOL     OW28171   2.738   1.995  12.876 -0.0994  0.0815 -0.1816
 5512SOL    HW128172   2.764   2.087  12.884  0.0164  0.1375 -1.1523
 5512SOL    HW228173   2.707   1.999  12.786 -0.1768  2.5652 -0.0647
 5513SOL     OW28174   1.033   0.155   1.706 -0.7593  0.2242  0.0223
 5513SOL    HW128175   1.042   0.130   1.798 -0.6156  1.6171  0.3888
 5513SOL    HW228176   1.001   0.243   1.724  2.1195  1.7670 -2.2358
 5514SOL     OW28177   3.436   3.842   5.536 -0.2288 -0.1236  0.2917
 5514SOL    HW128178   3.436   3.841   5.631 -0.5115  0.8625  0.3030
 5514SOL    HW228179   3.522   3.810   5.508  0.7055  2.5091  0.1720
 5515SOL     OW28180   2.264   0.131   4.053  0.1414 -0.3223  0.1173
 5515SOL    HW128181   2.252   0.225   4.038 -0.7848 -0.1118  2.0973
 5515SOL    HW228182   2.190   0.086   4.012  0.4510 -0.0746 -0.7006
 5516SOL     OW28183   2.275   2.758   2.349  0.6924 -0.1468 -0.0125
 5516SOL    HW128184   2.305   2.833   2.400  1.0889 -1.1900  1.2599
 5516SOL    HW228185   2.199   2.738   2.403 -0.1057  1.4798 -0.5205
 5517SOL     OW28186   1.912   2.018   7.653  0.0368  0.1401 -0.2298
 5517SOL    HW128187   1.962   1.949   7.610  1.0889  0.2993  0.7542
 5517SOL    HW228188   1.838   1.965   7.683 -0.2294  0.7594  0.2074
 5518SOL     OW28189   1.673   1.598   6.797 -0.2978 -0.3004  0.3900
 5518SOL    HW128190   1.610   1.558   6.737  0.4869 -1.0070  0.0244
 5518SOL    HW228191   1.657   1.550   6.878 -1.3276 -0.0328  0.3361
 5519SOL     OW28192   3.255   0.651   1.152 -0.2473  0.4179 -0.1831
 5519SOL    HW128193   3.300   0.657   1.068  0.3454 -0.3156  0.0841
 5519SOL    HW228194   3.231   0.559   1.149 -0.9416  0.5807  0.5189
 5520SOL     OW28195   1.580   4.223   5.494  0.4489 -0.2671 -0.0161
 5520SOL    HW128196   1.500   4.271   5.514  1.3417  3.6114 -5.7479
 5520SOL    HW228197   1.564   4.138   5.536 -0.2163  0.0109  0.2928
 5521SOL     OW28198   0.035   3.125   6.582 -0.3636  0.1064 -0.1218
 5521SOL    HW128199   0.041   3.182   6.659  2.2417 -0.6718  0.2484
 5521SOL    HW228200   4.690   3.082   6.590 -0.7624  0.8707 -0.2738
 5522SOL     OW28201   0.213   0.911   3.016 -0.0584  1.1632 -0.4889
 5522SOL    HW128202   0.221   0.816   3.002 -0.6903  0.8142  1.6472
 5522SOL    HW228203   0.245   0.922   3.105 -0.5061 -1.7704  0.0403
 5523SOL     OW28204   1.919   4.463   5.475  0.3871  0.2607  0.2211
 5523SOL    HW128205   1.963   4.436   5.556 -1.9139 -0.5929  1.2004
 5523SOL    HW228206   1.843   4.510   5.508  0.5571  2.2056 -2.1864
 5524SOL     OW28207   2.894   0.217   7.964 -0.2294  0.1095  0.2003
 5524SOL    HW128208   2.832   0.176   8.024  0.1160 -1.2801 -0.3973
 5524SOL    HW228209   2.861   0.190   7.878  0.3245  0.1421 -0.0181
 5525SOL     OW28210   3.331   1.759  14.322 -0.1618 -0.2191  0.3153
 5525SOL    HW128211   3.333   1.755  14.418  0.2946  1.1163  0.3638
 5525SOL    HW228212   3.325   1.853  14.302 -0.5898 -0.3958 -0.3984
 5526SOL     OW28213   4.215   1.470  17.005 -0.2131 -0.7165 -0.0844
 5526SOL    HW128214   4.194   1.495  16.915  0.4299  1.9138  0.4898
 5526SOL    HW228215   4.304   1.437  16.991  0.6615  1.2329  0.8574
 5527SOL     OW28216   2.636   4.153  11.259  0.5162  0.1726 -0.1397
 5527SOL    HW128217   2.583   4.212  11.205  0.5403  1.6880  1.4847
 5527SOL    HW228218   2.647   4.187  11.348 -1.2327  4.0113 -1.3876
 5528SOL     OW28219   0.579   0.744   9.386  0.7449  0.0806 -0.1928
 5528SOL    HW128220   0.584   0.653   9.357 -1.9650 -0.3527  0.6973
 5528SOL    HW228221   0.670   0.770   9.398  1.1427 -2.5277  2.2411
 5529SOL     OW28222   1.995   2.251   7.533 -0.9194 -0.8224  0.4016
 5529SOL    HW128223   2.028   2.272   7.620 -0.7923 -2.1583  0.6751
 5529SOL    HW228224   2.006   2.157   7.525  0.2892 -0.9197  3.2881
 5530SOL     OW28225   1.122   3.059  17.330  0.5578  0.5748 -0.1441
 5530SOL    HW128226   1.036   3.102  17.332 -0.2896 -1.1658  1.4160
 5530SOL    HW228227   1.155   3.105  17.253 -0.7166 -0.2788 -1.2223
 5531SOL     OW28228   4.427   3.422   3.286 -0.0812 -0.4320  0.2665
 5531SOL    HW128229   4.412   3.335   3.249  3.9586 -1.2230  0.4388
 5531SOL    HW228230   4.344   3.447   3.326  0.5986  1.4345  0.5378
 5532SOL     OW28231   2.130   3.831   8.518  0.0723 -0.0448 -0.5057
 5532SOL    HW128232   2.095   3.742   8.520 -1.6418  0.6054 -1.5437
 5532SOL    HW228233   2.045   3.872   8.531  0.3675  0.4266 -0.0603
 5533SOL     OW28234   2.353   0.797  15.957 -0.4705 -0.6991 -0.1378
 5533SOL    HW128235   2.370   0.811  16.050 -2.8330 -1.4007  0.4008
 5533SOL    HW228236   2.274   0.851  15.951  0.6996  0.8770 -1.3011
 5534SOL     OW28237   1.613   1.330  15.413  0.2914  0.7476  0.2867
 5534SOL    HW128238   1.649   1.381  15.485 -2.1022  1.4815  0.9614
 5534SOL    HW228239   1.523   1.364  15.407 -0.2543 -0.7364  0.0575
 5535SOL     OW28240   2.450   0.837   0.562 -0.2666  0.1873 -0.0386
 5535SOL    HW128241   2.509   0.912   0.576  0.5548 -0.7966  1.6550
 5535SOL    HW228242   2.515   0.769   0.544  0.4781  0.5763  1.2256
 5536SOL     OW28243   1.207   3.547  15.085 -0.3840  0.1269 -0.6097
 5536SOL    HW128244   1.140   3.489  15.120  1.2378 -0.3158  1.7855
 5536SOL    HW228245   1.201   3.614  15.153  0.0816 -1.6639  1.1967
 5537SOL     OW28246   2.421   3.428   1.607 -0.0487  0.7388  0.5674
 5537SOL    HW128247   2.350   3.416   1.670  0.2187 -0.0948  0.7238
 5537SOL    HW228248   2.478   3.354   1.629  1.2804  1.4535 -0.4878
 5538SOL     OW28249   3.545   1.667   7.232 -0.0645  0.2845  0.3621
 5538SOL    HW128250   3.509   1.626   7.310 -0.7353  0.8796  0.3654
 5538SOL    HW228251   3.600   1.725   7.284 -0.7070  1.5393 -0.3448
 5539SOL     OW28252   4.274   2.969   2.289 -0.1399 -0.2005 -1.0959
 5539SOL    HW128253   4.346   2.960   2.228  2.2644 -2.1692  2.0541
 5539SOL    HW228254   4.208   2.967   2.219 -1.6718 -0.8787  0.3450
 5540SOL     OW28255   4.118   2.106   4.458  0.1554 -0.3809 -0.0814
 5540SOL    HW128256   4.165   2.057   4.392  1.7519 -0.2192  0.9485
 5540SOL    HW228257   4.125   2.201   4.445  0.8459 -0.0418  2.7641
 5541SOL     OW28258   1.675   4.095  11.926  0.5755 -0.5596 -0.0147
 5541SOL    HW128259   1.627   4.018  11.897 -0.6797 -0.2997  1.3798
 5541SOL    HW228260   1.698   4.138  11.843  0.1448  2.8449  1.6427
 5542SOL     OW28261   0.363   1.085   3.646  0.5935 -0.3202  0.2149
 5542SOL    HW128262   0.311   1.049   3.574  2.1124 -1.0216 -0.5094
 5542SOL    HW228263   0.306   1.148   3.690 -1.2226 -0.2369 -2.2330
 5543SOL     OW28264   2.207   4.619  12.175  0.2879  0.2565  0.0991
 5543SOL    HW128265   2.140   4.668  12.221 -2.1535 -2.6111 -0.3976
 5543SOL    HW228266   2.174   4.637  12.087 -0.3869  0.5171  0.4141
 5544SOL     OW28267   0.078   1.866  17.276  0.2735 -0.0987  0.1106
 5544SOL    HW128268   4.739   1.912  17.247  0.5428  0.7006  0.6320
 5544SOL    HW228269   0.061   1.779  17.240  0.5673  0.3759 -1.1753
 5545SOL     OW28270   1.496   0.511  17.576 -0.0683 -0.1212 -0.0560
 5545SOL    HW128271   1.454   0.428  17.552  0.5232 -0.2538 -0.6237
 5545SOL    HW228272   1.574   0.491  17.628  0.0452  1.2697  0.3056
 5546SOL     OW28273   3.633   3.332   8.379 -0.1450  0.3729 -0.3019
 5546SOL    HW128274   3.539   3.312   8.386 -0.2360  0.3094 -1.6936
 5546SOL    HW228275   3.636   3.419   8.419  0.4436  0.2875 -0.1611
 5547SOL     OW28276   1.429   4.269  13.537  0.1344 -0.3230  0.3963
 5547SOL    HW128277   1.334   4.262  13.551  0.1646  0.2542  0.8915
 5547SOL    HW228278   1.461   4.179  13.537 -1.8262 -1.0244  1.7287
 5548SOL     OW28279   4.493   3.085  13.094  0.3533  0.0956 -0.1043
 5548SOL    HW128280   4.455   3.170  13.073  1.4266  0.4415 -0.6395
 5548SOL    HW228281   4.532   3.061  13.010  2.4780  0.0662  0.8793
 5549SOL     OW28282   0.713   1.811  11.858 -0.2036 -0.0789  0.2202
 5549SOL    HW128283   0.668   1.729  11.874 -2.1020  0.1325 -4.1294
 5549SOL    HW228284   0.640   1.870  11.839 -0.7467 -0.9897 -0.5379
 5550SOL     OW28285   2.827   2.614   5.567 -0.8632 -0.2162 -0.1573
 5550SOL    HW128286   2.919   2.643   5.568 -2.4286  4.7066 -0.0478
 5550SOL    HW228287   2.787   2.690   5.524 -2.8159 -2.2598 -1.9209
 5551SOL     OW28288   3.513   2.850  10.602  0.6593 -0.5170 -0.0677
 5551SOL    HW128289   3.574   2.798  10.550  2.2697  1.2513  0.0061
 5551SOL    HW228290   3.477   2.776  10.650  0.3900 -0.2232  0.1842
 5552SOL     OW28291   3.454   1.726   2.553  0.9854 -0.1689  0.2521
 5552SOL    HW128292   3.499   1.713   2.637  0.5651 -1.6320  0.2609
 5552SOL    HW228293   3.483   1.648   2.505  0.5150 -0.9015  1.1406
 5553SOL     OW28294   4.078   4.086  12.896  0.9927 -0.4070  0.4061
 5553SOL    HW128295   3.998   4.138  12.900  1.6308  0.6075 -0.3375
 5553SOL    HW228296   4.041   3.998  12.882 -1.7913  0.5616  1.5820
 5554SOL     OW28297   2.797   3.407   6.349  0.9264 -0.0795  0.1814
 5554SOL    HW128298   2.792   3.340   6.417  1.2668  0.0038  0.2896
 5554SOL    HW228299   2.750   3.378   6.271  0.9720  0.5869 -0.0959
 5555SOL     OW28300   1.264   4.428   8.685  0.1137  0.0609  0.1082
 5555SOL    HW128301   1.296   4.514   8.713 -0.7034  1.2759 -2.5776
 5555SOL    HW228302   1.328   4.365   8.718  0.7859  1.5534  1.6301
 5556SOL     OW28303   0.586   3.718   7.550  1.1006 -0.4149 -0.4167
 5556SOL    HW128304   0.607   3.797   7.601 -1.6516 -0.9100  1.4317
 5556SOL    HW228305   0.576   3.746   7.459 -0.2781 -2.9544 -1.0347
 5557SOL     OW28306   0.181   4.524   6.653  0.2216  0.0854 -0.4100
 5557SOL    HW128307   0.212   4.615   6.654  0.0061  0.1780 -1.4574
 5557SOL    HW228308   0.253   4.488   6.600 -1.1695 -2.6245 -0.4605
 5558SOL     OW28309   1.351   4.063   2.002  0.2167  0.4414  0.6851
 5558SOL    HW128310   1.350   4.094   1.912  3.0339 -0.3376  0.3647
 5558SOL    HW228311   1.275   4.005   1.999 -1.2740  2.4999 -0.4163
 5559SOL     OW28312   3.311   4.504   1.606  0.1429 -0.1389  0.7348
 5559SOL    HW128313   3.313   4.548   1.521 -0.4171  1.1115  1.3835
 5559SOL    HW228314   3.391   4.452   1.597 -0.2829 -0.8941  1.2880
 5560SOL     OW28315   0.154   3.971   9.831  0.0650  0.2757  0.1400
 5560SOL    HW128316   0.092   3.958   9.903  0.6946 -1.8039  0.3212
 5560SOL    HW228317   0.166   3.882   9.798 -1.7406  0.0659  0.0459
 5561SOL     OW28318   0.789   3.592   4.181 -0.0645 -0.4361 -0.7451
 5561SOL    HW128319   0.790   3.544   4.263 -0.8649  1.4837  0.3956
 5561SOL    HW228320   0.875   3.561   4.152  0.6946  1.9076 -1.0468
 5562SOL     OW28321   0.505   2.825   6.666 -0.0682 -0.7958  0.0492
 5562SOL    HW128322   0.516   2.772   6.745  1.1178  1.2411  1.2531
 5562SOL    HW228323   0.412   2.820   6.646 -0.1926  1.1270  0.1138
 5563SOL     OW28324   3.811   3.852   8.630  0.4490 -0.0889  0.7242
 5563SOL    HW128325   3.758   3.931   8.638  1.3008  0.4472  1.0268
 5563SOL    HW228326   3.814   3.870   8.536  0.6836 -0.6273  0.6305
 5564SOL     OW28327   4.116   4.707   2.105 -0.3134 -0.8526 -0.4616
 5564SOL    HW128328   4.171   4.671   2.035  0.3577  1.4553 -1.1095
 5564SOL    HW228329   4.173   4.706   2.182  0.7029 -0.2074 -1.2033
 5565SOL     OW28330   0.182   0.425   0.695  0.1307  0.5603 -0.3571
 5565SOL    HW128331   0.094   0.405   0.728  0.4582 -0.2681  0.0033
 5565SOL    HW228332   0.214   0.497   0.749  1.7767 -0.6577  0.2834
 5566SOL     OW28333   1.126   0.329   6.354 -0.1532 -0.6869 -0.2465
 5566SOL    HW128334   1.048   0.275   6.370 -0.3223  0.4313  2.6827
 5566SOL    HW228335   1.157   0.350   6.442  2.3991  0.0222 -1.3073
 5567SOL     OW28336   0.437   2.857  13.187 -0.4468 -0.4144  0.6678
 5567SOL    HW128337   0.491   2.852  13.266  2.3551 -1.4851 -1.3028
 5567SOL    HW228338   0.450   2.944  13.148  1.4035 -1.3165 -0.7390
 5568SOL     OW28339   1.531   4.568   7.477  0.4632  0.0136 -0.2123
 5568SOL    HW128340   1.475   4.643   7.457  1.3222  0.1738 -1.9608
 5568SOL    HW228341   1.613   4.612   7.497 -0.4518  0.6217  2.2508
 5569SOL     OW28342   4.085   2.361  10.709  0.7161 -0.4177  0.1980
 5569SOL    HW128343   4.147   2.395  10.645  1.1256  1.3910  1.5443
 5569SOL    HW228344   4.009   2.405  10.672  3.3410  1.5493 -2.7969
 5570SOL     OW28345   3.161   1.922   0.304 -0.2926  0.3399  0.4069
 5570SOL    HW128346   3.219   1.993   0.277  1.2460 -0.9387  0.4061
 5570SOL    HW228347   3.079   1.971   0.296  0.4612  1.9738  2.6116
 5571SOL     OW28348   3.153   4.276  14.567 -0.2534 -0.6499  0.2035
 5571SOL    HW128349   3.142   4.301  14.475 -1.8644  2.7418  1.3193
 5571SOL    HW228350   3.238   4.318  14.576 -0.2695 -1.3984  3.8997
 5572SOL     OW28351   2.693   0.567   1.731 -0.1655  0.7270 -0.4582
 5572SOL    HW128352   2.720   0.477   1.711  3.1180  1.5270  0.4817
 5572SOL    HW228353   2.776   0.593   1.771 -1.0587  1.2324  1.0640
 5573SOL     OW28354   0.888   1.478   7.854 -0.5347  0.1984 -0.9749
 5573SOL    HW128355   0.949   1.434   7.912 -1.1573 -0.5977 -0.9278
 5573SOL    HW228356   0.915   1.450   7.766  1.3121  0.9569 -0.6605
 5574SOL     OW28357   2.232   4.735  13.976  0.0556  0.4856 -0.1747
 5574SOL    HW128358   2.257   0.079  13.938  0.3989 -0.2150 -1.5048
 5574SOL    HW228359   2.310   4.680  13.965  0.6552  1.3374 -0.1473
 5575SOL     OW28360   0.640   0.500  15.932 -0.2976 -0.4070  0.0773
 5575SOL    HW128361   0.652   0.520  16.025 -2.3662 -0.5990  0.3882
 5575SOL    HW228362   0.713   0.540  15.884  0.1463 -0.0847  1.0330
 5576SOL     OW28363   3.064   3.390   1.086  0.3140 -0.6129 -0.7309
 5576SOL    HW128364   3.058   3.395   0.990 -2.1527 -1.1620 -0.6179
 5576SOL    HW228365   3.097   3.302   1.104 -0.6616 -0.9884 -0.7454
 5577SOL     OW28366   1.784   4.194   3.965 -0.0992 -0.1889  0.2187
 5577SOL    HW128367   1.866   4.241   3.979  0.9364 -1.2249 -2.3133
 5577SOL    HW228368   1.809   4.149   3.884  0.0191  1.3669 -0.6012
 5578SOL     OW28369   1.217   2.215  17.717  0.2324  0.1631  0.3097
 5578SOL    HW128370   1.237   2.137   0.012 -1.0125 -1.2015 -1.2596
 5578SOL    HW228371   1.125   2.196  17.701  0.8915 -3.0445  0.3505
 5579SOL     OW28372   0.888   1.658   1.300 -0.1042 -0.4608  0.5792
 5579SOL    HW128373   0.846   1.575   1.319 -2.1568 -0.0142 -1.9939
 5579SOL    HW228374   0.857   1.721   1.365 -2.5328  0.2557 -1.2892
 5580SOL     OW28375   1.571   3.348   3.384 -0.4494 -0.1439  0.0153
 5580SOL    HW128376   1.611   3.367   3.299 -2.1945  1.5424 -0.4147
 5580SOL    HW228377   1.572   3.429   3.434 -0.3052 -1.1228  1.6199
 5581SOL     OW28378   4.016   2.322   5.201 -0.2570 -0.3041 -0.2809
 5581SOL    HW128379   3.969   2.267   5.262  1.2370 -1.8521 -0.5360
 5581SOL    HW228380   4.054   2.393   5.253  0.4007 -0.6771 -0.2560
 5582SOL     OW28381   1.572   3.061  10.502  0.0668 -0.0214  0.2703
 5582SOL    HW128382   1.573   3.157  10.507  0.8842  0.0961 -2.1757
 5582SOL    HW228383   1.563   3.039  10.594 -2.5343  1.2798  0.3434
 5583SOL     OW28384   0.952   4.158  11.242 -0.0454 -0.0824 -0.5279
 5583SOL    HW128385   0.907   4.195  11.166  1.7441  0.3758 -1.3785
 5583SOL    HW228386   0.903   4.204  11.311  1.1963 -0.4404  0.6086
 5584SOL     OW28387   2.792   0.633  12.435 -0.1897  0.0938 -0.1604
 5584SOL    HW128388   2.747   0.568  12.381 -0.0912  0.2275 -0.4089
 5584SOL    HW228389   2.866   0.652  12.376 -0.1718 -0.5012 -0.3329
 5585SOL     OW28390   3.227   3.284  13.445 -0.3940  0.3422  0.6959
 5585SOL    HW128391   3.263   3.296  13.533 -0.3634 -1.7743  0.9696
 5585SOL    HW228392   3.139   3.323  13.453 -1.2576 -1.8806  1.9604
 5586SOL     OW28393   2.860   0.012   2.863 -0.5762  0.0838  0.3518
 5586SOL    HW128394   2.919   0.062   2.806  1.0026 -0.6451  1.3498
 5586SOL    HW228395   2.928   4.730   2.927 -0.3038  0.9765  0.3620
 5587SOL     OW28396   3.394   0.039   6.492 -0.4659 -0.2753 -0.9180
 5587SOL    HW128397   3.479   0.066   6.527 -0.6543  1.3251 -1.6677
 5587SOL    HW228398   3.363   0.130   6.488 -0.8894 -0.3533  0.7689
 5588SOL     OW28399   3.013   4.107   3.876 -0.0610 -0.3519  0.6009
 5588SOL    HW128400   3.024   4.175   3.943  0.4088  0.1848 -0.0184
 5588SOL    HW228401   2.957   4.043   3.919 -0.5062 -1.9805 -2.3779
 5589SOL     OW28402   2.527   2.113  15.131  0.0415 -0.2043  0.1164
 5589SOL    HW128403   2.491   2.111  15.219  0.3917 -1.4769  0.2173
 5589SOL    HW228404   2.500   2.026  15.102 -0.3474 -0.0256 -0.0630
 5590SOL     OW28405   4.536   2.863   1.120  0.6024 -0.2045  0.5533
 5590SOL    HW128406   4.516   2.852   1.027  0.8243 -0.0140  0.4834
 5590SOL    HW228407   4.457   2.906   1.153  0.4098  0.4299 -0.7440
 5591SOL     OW28408   0.160   1.888   1.463 -0.2285 -0.0489  0.7314
 5591SOL    HW128409   0.225   1.817   1.464  0.2623  0.4011  0.0468
 5591SOL    HW228410   0.199   1.953   1.404 -1.0366  0.7774  1.1144
 5592SOL     OW28411   1.735   0.221   5.853  0.0450  0.1837 -0.3224
 5592SOL    HW128412   1.699   0.222   5.764 -0.4494 -1.9517 -0.1380
 5592SOL    HW228413   1.734   0.310   5.890 -1.1530  0.2038 -0.4039
 5593SOL     OW28414   4.271   2.351   3.930  0.1708  0.0002 -0.5455
 5593SOL    HW128415   4.312   2.436   3.912 -0.4969  0.5747  0.6171
 5593SOL    HW228416   4.227   2.373   4.012  1.5951 -1.2261  0.5648
 5594SOL     OW28417   4.579   1.904  13.216 -0.2106  0.2534  0.2230
 5594SOL    HW128418   4.549   1.958  13.144  0.7727 -1.4779 -1.4907
 5594SOL    HW228419   4.509   1.898  13.282  0.5589 -0.7067  0.9698
 5595SOL     OW28420   1.347   4.121   5.764  0.0832 -0.0598 -0.3743
 5595SOL    HW128421   1.353   4.203   5.716 -1.3235  0.4311  0.2996
 5595SOL    HW228422   1.306   4.129   5.850 -0.9655  0.0151 -0.8810
 5596SOL     OW28423   4.653   0.173   5.149 -0.0794 -0.2578  0.3228
 5596SOL    HW128424   4.636   0.248   5.091 -0.2588 -1.5038 -1.2353
 5596SOL    HW228425   4.563   0.142   5.158 -0.8052  1.6678 -0.1830
 5597SOL     OW28426   4.319   1.668  14.410 -0.0941 -0.3230 -0.2092
 5597SOL    HW128427   4.303   1.742  14.468  2.9355  1.7149 -1.9954
 5597SOL    HW228428   4.265   1.596  14.442  2.7796 -2.0754  0.6234
 5598SOL     OW28429   0.772   4.688  10.293  0.0999 -0.2839  0.0281
 5598SOL    HW128430   0.833   4.675  10.221  0.0260  1.7082 -0.3869
 5598SOL    HW228431   0.781   4.611  10.350  0.7547 -0.1857  0.0551
 5599SOL     OW28432   3.159   0.229   3.657 -0.2338  0.3450 -0.5359
 5599SOL    HW128433   3.230   0.185   3.704 -1.3965  0.4625  1.3122
 5599SOL    HW228434   3.099   0.164   3.623 -1.1719  1.4934 -1.0754
 5600SOL     OW28435   4.016   1.748   8.647 -0.0822 -0.3537 -0.1326
 5600SOL    HW128436   3.947   1.792   8.598 -0.5797  0.7055  1.5034
 5600SOL    HW228437   4.053   1.815   8.704 -1.7090 -0.3857  0.9689
 5601SOL     OW28438   2.060   0.068   6.989 -0.0447 -0.6487  0.5161
 5601SOL    HW128439   2.057   0.073   6.894 -1.8501 -0.3691  0.5840
 5601SOL    HW228440   2.146   0.102   7.016 -0.4549  0.6947  0.1153
 5602SOL     OW28441   3.830   4.189   7.025  0.0576  0.4013  0.4255
 5602SOL    HW128442   3.920   4.163   7.047 -0.1335 -1.2885 -0.7422
 5602SOL    HW228443   3.851   4.281   7.009  0.2521  0.2049 -0.4804
 5603SOL     OW28444   0.506   3.083   7.788  0.5739  0.3556 -0.2884
 5603SOL    HW128445   0.577   3.056   7.847 -1.4641 -0.4597  1.7775
 5603SOL    HW228446   0.553   3.045   7.714 -0.1351 -0.2479 -0.4248
 5604SOL     OW28447   1.922   2.557   8.653 -0.3453 -0.9345 -0.5379
 5604SOL    HW128448   2.015   2.567   8.633 -0.3461  0.9590  0.4644
 5604SOL    HW228449   1.924   2.462   8.667  1.1983 -1.3348 -3.2660
 5605SOL     OW28450   4.364   4.127   6.238  0.5749 -0.2693  0.4559
 5605SOL    HW128451   4.312   4.204   6.264 -0.6829 -0.5464 -1.2869
 5605SOL    HW228452   4.305   4.079   6.180  1.1859 -3.9182  2.8253
 5606SOL     OW28453   1.498   3.718   5.240 -0.4200  0.2840  0.1664
 5606SOL    HW128454   1.475   3.767   5.320  0.2602 -1.1947  1.2752
 5606SOL    HW228455   1.591   3.704   5.255 -0.2806 -0.1501 -1.1817
 5607SOL     OW28456   2.000   0.524   6.331  0.1534 -0.5752  0.1680
 5607SOL    HW128457   1.939   0.464   6.289  0.3952 -0.8377  0.1972
 5607SOL    HW228458   1.987   0.609   6.288  0.5914 -0.5484  0.0922
 5608SOL     OW28459   0.499   0.978   2.107 -0.3241  0.1624 -0.0549
 5608SOL    HW128460   0.404   0.991   2.097 -0.7585 -2.3033  0.8901
 5608SOL    HW228461   0.500   0.920   2.183  0.6562  0.5437  0.2216
 5609SOL     OW28462   3.661   2.061   1.422  0.1975  0.4436  0.1930
 5609SOL    HW128463   3.659   1.965   1.430 -0.1095  0.1935 -2.9952
 5609SOL    HW228464   3.573   2.076   1.388  0.8217 -1.5969 -2.4031
 5610SOL     OW28465   1.430   3.141   2.144 -0.1350  0.7013  0.3219
 5610SOL    HW128466   1.407   3.188   2.224 -0.7445  1.7977 -0.4994
 5610SOL    HW228467   1.427   3.048   2.169 -1.4688  0.2395 -1.4995
 5611SOL     OW28468   2.989   4.211   8.134  0.5417  0.3281 -0.0827
 5611SOL    HW128469   2.986   4.305   8.148 -1.3637  0.2619 -0.0150
 5611SOL    HW228470   2.968   4.199   8.041  1.3937 -1.7797 -0.0034
 5612SOL     OW28471   4.569   0.696   4.661  0.3288  0.4692  0.0283
 5612SOL    HW128472   4.589   0.670   4.571 -0.7515  0.7290 -0.2852
 5612SOL    HW228473   4.490   0.750   4.663 -1.0853 -1.5977 -0.3489
 5613SOL     OW28474   3.755   0.386   3.203  0.7824 -0.0047  0.0674
 5613SOL    HW128475   3.721   0.301   3.176  0.0388  0.5171 -0.6568
 5613SOL    HW228476   3.838   0.357   3.240  0.8568  0.7582  0.5124
 5614SOL     OW28477   3.646   3.525   4.149  0.1967  0.0802  0.9661
 5614SOL    HW128478   3.700   3.482   4.216  0.6873 -1.3145 -0.3328
 5614SOL    HW228479   3.559   3.509   4.187 -1.6635 -2.5362 -4.4430
 5615SOL     OW28480   1.382   2.635   3.017  0.3391 -0.2342 -0.1230
 5615SOL    HW128481   1.416   2.546   3.022 -0.8848 -0.7296 -0.6523
 5615SOL    HW228482   1.321   2.623   2.945  1.8883  1.2734 -1.7005
 5616SOL     OW28483   1.789   0.927  15.914 -0.2579 -0.2257  0.0057
 5616SOL    HW128484   1.874   0.961  15.940  0.1479 -2.0332  1.0120
 5616SOL    HW228485   1.732   0.987  15.963  0.1042  0.6029 -0.5907
 5617SOL     OW28486   0.822   0.334  16.534 -0.1841  0.5683  0.1974
 5617SOL    HW128487   0.819   0.275  16.609 -0.2345 -2.2502 -2.0074
 5617SOL    HW228488   0.872   0.276  16.477 -0.3912  1.3080 -0.7410
 5618SOL     OW28489   3.239   3.228  13.167  0.2311 -0.5397 -0.3012
 5618SOL    HW128490   3.154   3.255  13.133  0.4798 -2.0816 -2.1706
 5618SOL    HW228491   3.232   3.248  13.260  0.9176  1.4585 -0.6847
 5619SOL     OW28492   4.493   0.215   4.837  0.6708  0.4006 -0.0356
 5619SOL    HW128493   4.538   0.278   4.892 -0.5983  0.9641  0.3463
 5619SOL    HW228494   4.422   0.277   4.819 -0.4700 -1.1364 -0.9377
 5620SOL     OW28495   3.551   4.503   7.551 -0.3177  0.1301 -0.4151
 5620SOL    HW128496   3.593   4.470   7.630  2.4118  1.0118 -1.4816
 5620SOL    HW228497   3.620   4.508   7.484  2.8494 -1.6685  2.7462
 5621SOL     OW28498   4.502   0.840   5.307 -0.3029 -0.3887 -0.0964
 5621SOL    HW128499   4.551   0.911   5.346  0.3106 -1.8480  1.7880
 5621SOL    HW228500   4.413   0.848   5.341 -0.3698  1.3800 -0.6953
 5622SOL     OW28501   3.447   1.377   8.265 -0.2529  0.3747 -0.0502
 5622SOL    HW128502   3.383   1.346   8.200 -0.7210  1.4950 -0.1336
 5622SOL    HW228503   3.453   1.304   8.327  2.0653  1.1074  0.5989
 5623SOL     OW28504   2.282   2.974  13.582 -0.6162 -0.1667 -0.0145
 5623SOL    HW128505   2.326   3.034  13.523 -1.4973 -0.0074 -0.5064
 5623SOL    HW228506   2.214   3.028  13.623 -0.3968 -0.4060  0.6715
 5624SOL     OW28507   0.522   2.681   6.906  0.6405  0.2561 -0.1871
 5624SOL    HW128508   0.455   2.725   6.957  0.6433  0.9373 -0.7723
 5624SOL    HW228509   0.501   2.590   6.928  1.5831 -0.3461 -1.7349
 5625SOL     OW28510   2.791   3.593   7.165 -0.0970  0.2671 -0.2245
 5625SOL    HW128511   2.766   3.580   7.257 -1.4341  1.6520 -0.3861
 5625SOL    HW228512   2.823   3.682   7.173  0.4922  0.2164 -2.0556
 5626SOL     OW28513   0.528   3.672   6.652  0.0484  0.8721 -0.5743
 5626SOL    HW128514   0.478   3.590   6.647 -0.6270  1.2589 -0.2303
 5626SOL    HW228515   0.456   3.733   6.635 -0.6897  0.0746 -0.3258
 5627SOL     OW28516   1.374   2.863   2.250 -0.4500 -0.1887  0.1154
 5627SOL    HW128517   1.441   2.846   2.317  2.0902 -1.2657 -2.6944
 5627SOL    HW228518   1.326   2.785   2.278  0.6647 -1.7109 -2.2596
 5628SOL     OW28519   3.125   3.603   5.851 -0.3058 -0.1162  0.1956
 5628SOL    HW128520   3.030   3.604   5.842 -0.2540  2.2266  0.0262
 5628SOL    HW228521   3.151   3.640   5.935 -0.8691 -0.1128  0.3653
 5629SOL     OW28522   2.996   0.104   8.446  0.0795 -0.1521 -0.1629
 5629SOL    HW128523   3.019   0.170   8.512 -1.9004 -0.2570  0.6103
 5629SOL    HW228524   2.973   0.163   8.374  1.2578 -0.5609 -0.8852
 5630SOL     OW28525   4.259   4.130   4.628 -0.1200 -0.3125 -0.5757
 5630SOL    HW128526   4.173   4.136   4.670 -0.3999 -1.4657 -0.9949
 5630SOL    HW228527   4.315   4.134   4.705  0.4008 -0.5045 -0.9451
 5631SOL     OW28528   4.089   0.715   2.273 -0.0151  0.0386 -0.1136
 5631SOL    HW128529   4.146   0.780   2.315  1.9870 -1.8719  0.1323
 5631SOL    HW228530   4.098   0.726   2.178 -2.5771 -0.8864 -0.4684
 5632SOL     OW28531   0.259   3.792   3.506 -0.5106 -0.1580  0.4059
 5632SOL    HW128532   0.175   3.745   3.507 -0.2261 -0.6600  0.3917
 5632SOL    HW228533   0.262   3.815   3.599  3.3469  1.1982 -0.0778
 5633SOL     OW28534   1.761   0.506   3.154  0.2556  0.4985  0.3471
 5633SOL    HW128535   1.795   0.583   3.109 -0.2205  0.6527  0.2547
 5633SOL    HW228536   1.735   0.459   3.075  0.6162  1.2032 -0.1966
 5634SOL     OW28537   1.288   2.064   7.773 -0.2973  0.1224 -0.3629
 5634SOL    HW128538   1.225   2.094   7.707  0.5251  1.4797 -0.5252
 5634SOL    HW228539   1.239   2.103   7.846 -0.1876 -0.4379  0.0096
 5635SOL     OW28540   1.832   4.734   0.375  0.4012  0.3141 -0.1738
 5635SOL    HW128541   1.857   0.018   0.286  0.4352  0.0757 -0.2283
 5635SOL    HW228542   1.736   4.739   0.375  0.4222  0.7334  0.8627
 5636SOL     OW28543   4.475   2.652  14.015 -0.1510 -0.5445  0.5184
 5636SOL    HW128544   4.398   2.623  14.062  0.8292 -1.5404  1.5035
 5636SOL    HW228545   4.439   2.699  13.940 -0.5071 -1.2679  0.2384
 5637SOL     OW28546   4.249   0.355  14.517 -0.0449 -0.8170 -0.1727
 5637SOL    HW128547   4.297   0.279  14.551 -0.4337 -2.2008 -2.6929
 5637SOL    HW228548   4.272   0.359  14.424 -0.9149 -0.2478 -0.3591
 5638SOL     OW28549   2.591   4.245   6.271  1.1409 -0.7621  0.3147
 5638SOL    HW128550   2.631   4.331   6.279  0.6643 -0.4052 -1.1145
 5638SOL    HW228551   2.573   4.213   6.360 -1.7158  0.3713  0.1485
 5639SOL     OW28552   3.855   1.404  13.102  1.0343 -0.2412 -0.2429
 5639SOL    HW128553   3.776   1.392  13.049 -0.1802  1.2327  1.2286
 5639SOL    HW228554   3.898   1.319  13.110  0.3304 -0.7022 -1.3318
 5640SOL     OW28555   2.201   4.151   5.379  0.2906  1.0053  0.1717
 5640SOL    HW128556   2.120   4.200   5.362  0.5009  0.8460 -1.3367
 5640SOL    HW228557   2.189   4.102   5.460 -3.3571 -0.2214 -1.0903
 5641SOL     OW28558   2.679   1.297   5.003 -0.3242 -0.0075 -0.6954
 5641SOL    HW128559   2.710   1.222   4.952 -1.1193 -1.5812  1.1102
 5641SOL    HW228560   2.743   1.362   4.974 -0.4924  1.1694  1.5307
 5642SOL     OW28561   2.160   1.231   4.499  0.0050 -0.2619 -0.0237
 5642SOL    HW128562   2.209   1.286   4.437 -0.2023 -0.8876 -0.7397
 5642SOL    HW228563   2.178   1.268   4.585 -0.2029  0.4284 -0.2698
 5643SOL     OW28564   1.866   3.427   5.063  0.2005  0.2721  0.3295
 5643SOL    HW128565   1.913   3.460   5.140  2.4152 -0.7885 -0.5696
 5643SOL    HW228566   1.777   3.428   5.097  0.4266  1.8057  0.8889
 5644SOL     OW28567   4.169   1.547   1.380  0.1483 -0.2643  0.1121
 5644SOL    HW128568   4.188   1.468   1.430 -0.3077 -2.5374 -3.3404
 5644SOL    HW228569   4.254   1.588   1.363  0.2998 -0.2336  0.9407
 5645SOL     OW28570   2.374   3.041   8.810 -0.2169  0.7031 -0.6933
 5645SOL    HW128571   2.428   3.010   8.737  1.4565  2.4535 -0.1989
 5645SOL    HW228572   2.423   3.121   8.828  0.0998 -0.0265  1.6584
 5646SOL     OW28573   3.784   2.124   3.712  0.0762  0.4101 -0.7328
 5646SOL    HW128574   3.730   2.129   3.791  0.1718 -1.2054 -0.5739
 5646SOL    HW228575   3.820   2.212   3.696  1.6604  0.0137  0.5583
 5647SOL     OW28576   3.332   1.728   8.974  0.2926  0.2014  0.3837
 5647SOL    HW128577   3.421   1.746   9.004  0.7044  1.2345 -1.4314
 5647SOL    HW228578   3.308   1.794   8.909 -1.1254 -1.5274 -0.8614
 5648SOL     OW28579   0.975   0.690  14.516  0.5128 -0.0992 -0.5063
 5648SOL    HW128580   0.880   0.677  14.525  0.0527  2.2521 -1.7980
 5648SOL    HW228581   0.973   0.785  14.528 -0.4805  0.1418 -2.5529
 5649SOL     OW28582   0.514   1.047   9.154 -0.1503  0.4178  0.1876
 5649SOL    HW128583   0.511   0.956   9.126 -0.6535  0.3611  0.4397
 5649SOL    HW228584   0.570   1.078   9.083 -1.5634 -0.7460 -1.4264
 5650SOL     OW28585   1.929   3.301  10.103  0.0802 -0.0978 -0.8069
 5650SOL    HW128586   2.000   3.303  10.167  0.4497 -0.3462 -1.2075
 5650SOL    HW228587   1.867   3.351  10.155  0.5022  0.4393 -0.8222
 5651SOL     OW28588   1.690   0.022  17.584  0.8728  0.0329  0.0235
 5651SOL    HW128589   1.712   0.104  17.628 -0.7129  0.6679 -0.3375
 5651SOL    HW228590   1.715   0.052  17.496  1.8545 -0.5369  0.1142
 5652SOL     OW28591   0.551   3.274   3.858  0.0113 -0.3602 -0.5850
 5652SOL    HW128592   0.496   3.242   3.930 -0.2052  0.2234 -0.4931
 5652SOL    HW228593   0.569   3.194   3.809 -1.9823 -0.6992 -0.7896
 5653SOL     OW28594   0.033   3.672   3.585 -0.1185 -0.8125 -0.4640
 5653SOL    HW128595   4.703   3.634   3.532  1.4731 -1.3546 -2.2045
 5653SOL    HW228596   0.002   3.648   3.672  0.1352 -0.2251 -0.2154
 5654SOL     OW28597   1.903   3.537   5.490  0.3713 -0.1199  0.0842
 5654SOL    HW128598   1.960   3.607   5.522  1.2058 -1.4522  1.5209
 5654SOL    HW228599   1.833   3.546   5.556  0.1917  1.9145 -0.3972
 5655SOL     OW28600   1.752   2.358   7.473 -0.0119  0.3710 -0.0325
 5655SOL    HW128601   1.777   2.331   7.385 -2.0125 -3.0924  0.4746
 5655SOL    HW228602   1.832   2.323   7.512 -0.5399 -0.5592  0.1983
 5656SOL     OW28603   2.257   0.259  14.569 -0.7889  0.4693  0.2175
 5656SOL    HW128604   2.247   0.211  14.486  0.4318  0.5890 -0.0067
 5656SOL    HW228605   2.232   0.191  14.631  1.0387  0.7734  1.3026
 5657SOL     OW28606   3.162   2.526   7.545  0.5291 -0.3321  0.1997
 5657SOL    HW128607   3.095   2.577   7.589 -0.0191  0.1880 -1.2338
 5657SOL    HW228608   3.247   2.557   7.576  0.1711  0.4021  0.4500
 5658SOL     OW28609   4.628   3.729  16.849 -0.5029 -0.3487  0.3812
 5658SOL    HW128610   4.646   3.787  16.774 -0.0520 -2.1687 -0.9008
 5658SOL    HW228611   4.547   3.683  16.825 -0.3962  0.4708 -1.6314
 5659SOL     OW28612   3.635   2.316   1.584  0.2988  0.9135  0.2137
 5659SOL    HW128613   3.623   2.264   1.504  1.7005 -0.0665  0.6390
 5659SOL    HW228614   3.550   2.291   1.621 -0.6138  2.6571 -0.7441
 5660SOL     OW28615   3.626   3.806   8.948 -0.1583  0.3209  0.3390
 5660SOL    HW128616   3.659   3.889   8.983 -0.0057  0.3574  0.1110
 5660SOL    HW228617   3.707   3.758   8.928  1.4488  2.7112  1.0696
 5661SOL     OW28618   3.987   3.610   3.214 -0.1068 -0.2834 -0.2356
 5661SOL    HW128619   3.954   3.548   3.149 -1.6862  0.7073 -0.3847
 5661SOL    HW228620   3.906   3.645   3.252  1.8022  0.6902  2.8331
 5662SOL     OW28621   4.405   0.316   8.125  0.4203 -0.0211 -0.3867
 5662SOL    HW128622   4.347   0.383   8.087  0.7192  0.8289  0.6507
 5662SOL    HW228623   4.488   0.364   8.117  0.4645 -0.2615 -1.3455
 5663SOL     OW28624   2.230   0.702   5.851  0.3566  0.1408 -0.0446
 5663SOL    HW128625   2.181   0.734   5.927 -0.4522  1.0540 -0.9413
 5663SOL    HW228626   2.313   0.747   5.866  0.1999  0.8409 -1.2612
 5664SOL     OW28627   0.418   3.076  17.193 -0.4788 -0.2934  0.3298
 5664SOL    HW128628   0.477   3.002  17.209  0.3189  0.8811  2.7024
 5664SOL    HW228629   0.462   3.155  17.224  2.0640 -1.3386 -0.5337
 5665SOL     OW28630   4.554   0.276   2.574  0.1473 -0.2283 -0.2032
 5665SOL    HW128631   4.648   0.293   2.580  0.3488 -1.0131 -1.1684
 5665SOL    HW228632   4.543   0.216   2.647 -0.8975 -0.8430 -0.8682
 5666SOL     OW28633   2.264   3.092   4.067  0.1385  0.2458  0.2401
 5666SOL    HW128634   2.210   3.020   4.037 -2.2585  1.0987  2.5372
 5666SOL    HW228635   2.354   3.063   4.049 -0.5866 -0.6183 -1.8712
 5667SOL     OW28636   1.786   2.470   2.911 -0.4457  0.4739 -0.2415
 5667SOL    HW128637   1.712   2.424   2.951 -0.4132  0.8922  0.2977
 5667SOL    HW228638   1.842   2.494   2.984  0.8824 -0.2000 -1.0465
 5668SOL     OW28639   3.007   1.908   1.904 -0.1237 -0.0166 -0.0862
 5668SOL    HW128640   2.915   1.897   1.881 -0.3924 -0.3000  1.1458
 5668SOL    HW228641   3.043   1.935   1.820 -1.5411 -0.4265 -0.8209
 5669SOL     OW28642   3.364   4.562   6.653 -0.2709  0.0298 -0.2915
 5669SOL    HW128643   3.368   4.623   6.580  1.2605  0.1426 -0.1152
 5669SOL    HW228644   3.279   4.523   6.637 -0.8125  0.8820  0.5361
 5670SOL     OW28645   3.618   0.561   4.400  0.1449 -0.2600  0.0496
 5670SOL    HW128646   3.584   0.555   4.310  1.9027 -1.2996 -0.5532
 5670SOL    HW228647   3.566   0.631   4.438  0.2265 -0.3278  0.2809
 5671SOL     OW28648   4.672   3.163   0.418 -0.3285  0.0262  0.2164
 5671SOL    HW128649   4.636   3.187   0.504 -0.3703  1.7289 -0.2761
 5671SOL    HW228650   4.598   3.130   0.367 -0.8870  1.0167  0.3891
 5672SOL     OW28651   0.781   3.714   5.905 -0.0141 -0.7259 -0.3345
 5672SOL    HW128652   0.871   3.724   5.938 -0.9948 -2.0958  2.7550
 5672SOL    HW228653   0.737   3.662   5.972  0.4211  0.7615  1.0953
 5673SOL     OW28654   3.989   4.300   9.022  1.0246 -0.0770  0.1783
 5673SOL    HW128655   3.911   4.266   8.979  1.0403  0.3775 -0.2021
 5673SOL    HW228656   3.973   4.285   9.116  0.4749  2.0786  0.4303
 5674SOL     OW28657   3.298   0.850   8.332 -0.1612  0.5528 -0.0593
 5674SOL    HW128658   3.335   0.770   8.295 -3.5063 -1.5810  1.2488
 5674SOL    HW228659   3.216   0.817   8.369 -0.1615  1.6722  0.9563
 5675SOL     OW28660   1.736   3.741   4.588 -0.1934  0.5539  0.1522
 5675SOL    HW128661   1.801   3.811   4.587 -1.2748  1.5415 -0.4024
 5675SOL    HW228662   1.738   3.704   4.500 -2.3953  0.0120  0.3160
 5676SOL     OW28663   2.759   2.142   3.459  0.2449  0.0442 -0.0380
 5676SOL    HW128664   2.742   2.147   3.553 -3.2139  1.1154 -0.7422
 5676SOL    HW228665   2.685   2.095   3.422 -1.4167  2.3406  0.3354
 5677SOL     OW28666   3.077   4.739   6.213  0.0301 -0.1275  0.0688
 5677SOL    HW128667   3.008   0.065   6.199  0.0177 -0.3023 -0.6899
 5677SOL    HW228668   3.083   4.710   6.122  0.7683 -0.8505  0.3503
 5678SOL     OW28669   2.737   3.295   2.820 -0.0525 -0.1727  0.3519
 5678SOL    HW128670   2.653   3.251   2.809 -0.2387  0.7994 -2.2417
 5678SOL    HW228671   2.759   3.333   2.735 -1.3061 -1.0062 -0.3399
 5679SOL     OW28672   1.771   4.204   7.627 -0.2747  0.3503  0.5509
 5679SOL    HW128673   1.684   4.245   7.628  0.0532  1.0370  0.4661
 5679SOL    HW228674   1.743   4.119   7.661 -0.7081 -0.1388 -1.0477
 5680SOL     OW28675   2.823   4.686   9.667 -0.4253 -0.1283 -0.2479
 5680SOL    HW128676   2.745   4.631   9.656 -1.3279  0.8496  1.3566
 5680SOL    HW228677   2.838   4.678   9.761  0.1187  0.8910 -0.2423
 5681SOL     OW28678   3.911   3.311   5.162  0.2835 -0.9088 -0.0732
 5681SOL    HW128679   3.938   3.219   5.170  0.7793 -0.8141 -0.6482
 5681SOL    HW228680   3.816   3.316   5.170  0.1935 -0.8956 -1.0443
 5682SOL     OW28681   3.507   2.682   2.533 -0.2220 -0.3121 -0.1353
 5682SOL    HW128682   3.454   2.747   2.486  1.5652  3.1887  2.7933
 5682SOL    HW228683   3.465   2.680   2.619 -0.0194 -3.7435 -0.1114
 5683SOL     OW28684   0.345   3.582   7.667 -0.0032  0.0590 -0.7886
 5683SOL    HW128685   0.398   3.539   7.734 -2.5531 -0.2288  1.0731
 5683SOL    HW228686   0.407   3.651   7.643 -0.2951  0.4993 -0.2836
 5684SOL     OW28687   2.929   0.213  11.477  0.3346 -0.0082 -0.1629
 5684SOL    HW128688   2.986   0.230  11.553  0.2491  2.2681 -0.6218
 5684SOL    HW228689   2.965   0.286  11.427 -0.6453 -0.4847 -1.5521
 5685SOL     OW28690   0.996   2.623   3.240 -0.4128  0.2115 -0.2939
 5685SOL    HW128691   1.057   2.592   3.307 -1.1942 -0.5795  0.0513
 5685SOL    HW228692   1.022   2.558   3.175  0.6048 -1.4492  1.7303
 5686SOL     OW28693   4.349   1.502  16.232 -0.0024 -0.2066  0.0390
 5686SOL    HW128694   4.433   1.455  16.233 -0.5430 -1.1410  1.6372
 5686SOL    HW228695   4.355   1.552  16.151 -0.4313  2.1109  1.4452
 5687SOL     OW28696   2.652   1.700   8.509  0.1494 -0.2031  0.2670
 5687SOL    HW128697   2.743   1.724   8.494  0.3786  0.0024  1.9828
 5687SOL    HW228698   2.673   1.612   8.540 -1.5288 -0.0651  1.8114
 5688SOL     OW28699   0.737   2.393   4.412 -0.2418  0.5794  0.2001
 5688SOL    HW128700   0.757   2.300   4.423 -0.8145  0.2789 -1.3598
 5688SOL    HW228701   0.823   2.428   4.437 -0.9974  0.8499  2.4737
 5689SOL     OW28702   0.629   1.903   8.002 -0.1847  0.3181  0.1098
 5689SOL    HW128703   0.699   1.840   7.984 -1.2385 -0.6412 -0.6136
 5689SOL    HW228704   0.570   1.884   7.929  1.6255  0.3348 -1.3587
 5690SOL     OW28705   0.456   1.618  12.053 -0.1711  0.2470  0.6059
 5690SOL    HW128706   0.377   1.579  12.016 -1.0786  1.0288  1.7158
 5690SOL    HW228707   0.531   1.595  11.997 -1.0715  1.0309 -0.9185
 5691SOL     OW28708   3.539   0.884   6.064  0.2843 -0.4270 -0.0508
 5691SOL    HW128709   3.485   0.927   6.131  1.4145  1.7047 -0.5223
 5691SOL    HW228710   3.615   0.853   6.112  1.3170  1.3974 -0.5256
 5692SOL     OW28711   2.827   2.007   9.438 -0.2820 -0.1031 -0.3320
 5692SOL    HW128712   2.747   2.022   9.388  0.8249 -1.1469 -2.4451
 5692SOL    HW228713   2.800   2.011   9.530 -1.4115  0.4184 -0.6875
 5693SOL     OW28714   1.075   1.559   4.359 -0.4786 -0.2565  0.5105
 5693SOL    HW128715   1.009   1.572   4.428 -0.9679  0.6448 -0.1202
 5693SOL    HW228716   1.039   1.606   4.284 -0.7736  1.0505  1.4667
 5694SOL     OW28717   2.402   0.585  12.085  0.5702 -0.5585  0.1086
 5694SOL    HW128718   2.471   0.646  12.112  0.3699 -1.0708  1.8021
 5694SOL    HW228719   2.374   0.558  12.173 -0.5078 -0.3706 -0.1744
 5695SOL     OW28720   4.479   0.884   9.083 -0.9240  0.2229  0.1155
 5695SOL    HW128721   4.485   0.960   9.141  1.5577  1.7470 -2.1457
 5695SOL    HW228722   4.419   0.901   9.011 -0.4934 -0.8351 -0.4807
 5696SOL     OW28723   2.893   0.003   5.608  0.2781 -0.2106 -0.2503
 5696SOL    HW128724   2.861   0.091   5.628 -1.0207 -0.6072 -0.5921
 5696SOL    HW228725   2.887   4.736   5.512  5.0614  1.2455 -0.6468
 5697SOL     OW28726   4.700   2.315   9.774 -0.3232  0.7323 -0.0487
 5697SOL    HW128727   4.635   2.385   9.768 -0.2131  0.8471  0.1215
 5697SOL    HW228728   0.033   2.375   9.786 -0.0090  0.3918 -0.2703
 5698SOL     OW28729   1.832   1.296  10.577  0.6475 -0.0881  0.5607
 5698SOL    HW128730   1.891   1.362  10.613  2.4538 -1.3989  0.0161
 5698SOL    HW228731   1.853   1.308  10.484 -0.3369 -2.4953  0.0329
 5699SOL     OW28732   3.702   3.528   1.187  0.4722  0.7444  0.6159
 5699SOL    HW128733   3.703   3.487   1.274  1.1646  0.0254  0.2758
 5699SOL    HW228734   3.794   3.525   1.159  0.3412 -0.2436  0.2926
 5700SOL     OW28735   0.573   0.682   5.568  0.0723 -0.1703  0.3407
 5700SOL    HW128736   0.493   0.714   5.525 -0.2260 -0.3094  0.7914
 5700SOL    HW228737   0.584   0.608   5.509  0.8498  0.3083 -0.1077
 5701SOL     OW28738   2.819   1.881   3.890  0.7628  0.4358  0.1282
 5701SOL    HW128739   2.910   1.910   3.897  1.4424 -1.6001 -0.2618
 5701SOL    HW228740   2.831   1.825   3.813 -0.7586 -0.7705  0.7822
 5702SOL     OW28741   2.505   1.447   4.728 -0.4119  0.5624 -0.0043
 5702SOL    HW128742   2.575   1.409   4.674 -2.1507  1.0158 -2.6175
 5702SOL    HW228743   2.486   1.531   4.685 -0.4913  0.3568 -0.3773
 5703SOL     OW28744   3.218   1.891   8.795  0.4592  0.3109 -0.1145
 5703SOL    HW128745   3.261   1.967   8.835  2.1633 -0.9463  0.4362
 5703SOL    HW228746   3.159   1.938   8.736 -0.2118 -0.3086  0.0686
 5704SOL     OW28747   0.951   0.855   7.586  0.2621 -0.2612  0.1417
 5704SOL    HW128748   0.888   0.887   7.522  2.4410  1.7070 -1.0264
 5704SOL    HW228749   0.884   0.825   7.647  1.7877 -2.8674  0.5187
 5705SOL     OW28750   1.753   2.507   0.711 -0.1329 -0.5883 -0.1528
 5705SOL    HW128751   1.687   2.575   0.696  1.3318  0.7198 -0.7210
 5705SOL    HW228752   1.713   2.471   0.790  2.1453 -1.2885  0.6765
 5706SOL     OW28753   0.088   0.635   1.668  0.0905  0.2153 -0.3219
 5706SOL    HW128754   0.107   0.725   1.694  0.9795 -0.4139  1.1627
 5706SOL    HW228755   0.093   0.584   1.748 -0.1614  1.1078  0.2622
 5707SOL     OW28756   1.662   0.279   5.544 -0.4779  0.2092  0.1887
 5707SOL    HW128757   1.725   0.208   5.557  0.1904  0.5540 -1.1868
 5707SOL    HW228758   1.622   0.249   5.462 -0.8347 -2.8523  1.4516
 5708SOL     OW28759   1.701   3.121  15.820 -0.1636 -0.4301  1.1045
 5708SOL    HW128760   1.639   3.193  15.810 -1.6320 -1.4619  2.7845
 5708SOL    HW228761   1.781   3.153  15.778 -1.2503 -0.8266 -1.3022
 5709SOL     OW28762   4.301   2.106   3.172 -0.4306  0.5439  0.0449
 5709SOL    HW128763   4.386   2.116   3.129  0.2989 -0.6698  1.2157
 5709SOL    HW228764   4.320   2.041   3.239  1.3243  0.0612 -0.9192
 5710SOL     OW28765   1.944   0.416   7.245 -0.4623  0.3358 -0.0259
 5710SOL    HW128766   2.009   0.479   7.276 -1.4440  3.0978 -3.6454
 5710SOL    HW228767   1.960   0.407   7.151  1.7197 -0.4596  0.4073
 5711SOL     OW28768   4.531   2.549   4.104  0.3424 -0.0815 -0.6859
 5711SOL    HW128769   4.474   2.557   4.028 -1.6562 -1.2993  0.6763
 5711SOL    HW228770   4.617   2.573   4.068 -0.5413 -0.3796 -2.9953
 5712SOL     OW28771   4.196   0.931   7.534  0.5943  0.5236  0.1321
 5712SOL    HW128772   4.153   0.846   7.528  0.2822  0.7019 -0.1566
 5712SOL    HW228773   4.207   0.955   7.442  1.4311  1.8216  0.5657
 5713SOL     OW28774   1.387   3.230  12.868 -0.0493  0.2038 -0.3565
 5713SOL    HW128775   1.466   3.234  12.923 -1.0375 -0.8019  1.1369
 5713SOL    HW228776   1.410   3.147  12.825  0.4713 -0.1654  0.6180
 5714SOL     OW28777   2.374   0.355   3.796  0.3983 -0.2778  0.2536
 5714SOL    HW128778   2.461   0.323   3.773  0.2847 -0.9561  0.7678
 5714SOL    HW228779   2.389   0.447   3.776  3.0587 -1.2088 -1.9750
 5715SOL     OW28780   1.189   0.501   1.250  0.0664 -0.2009  0.1246
 5715SOL    HW128781   1.157   0.506   1.340 -2.9183 -1.4323 -0.8984
 5715SOL    HW228782   1.114   0.540   1.205 -0.6913 -1.6739  0.1089
 5716SOL     OW28783   4.003   4.574   6.015 -0.2254 -0.0385  0.1162
 5716SOL    HW128784   3.993   4.562   5.921 -1.3345 -0.7418  0.3260
 5716SOL    HW228785   3.911   4.578   6.041 -0.0928 -1.0395  0.7593
 5717SOL     OW28786   2.524   1.100  16.727  0.0689  0.1444 -0.1082
 5717SOL    HW128787   2.601   1.139  16.771  0.8666 -0.2548 -1.1549
 5717SOL    HW228788   2.544   1.119  16.635  3.7638 -0.6592  0.5008
 5718SOL     OW28789   4.595   4.124  17.727  0.2955 -0.4727 -0.1256
 5718SOL    HW128790   4.551   4.060   0.025  0.8255 -1.2215 -0.5767
 5718SOL    HW228791   4.518   4.145  17.673  1.7174  0.2544 -1.8579
 5719SOL     OW28792   1.684   0.151   8.733  0.1011 -0.7591 -0.4329
 5719SOL    HW128793   1.774   0.168   8.759  0.3119 -1.6795 -0.5441
 5719SOL    HW228794   1.697   0.056   8.737  0.2761 -0.6682  1.0481
 5720SOL     OW28795   3.748   4.412   5.149  0.1310  0.3158 -0.3858
 5720SOL    HW128796   3.743   4.336   5.090  1.6087 -0.4483  0.4676
 5720SOL    HW228797   3.778   4.477   5.086 -0.5057 -0.5178 -1.5589
 5721SOL     OW28798   1.084   3.094   3.831 -0.3036 -0.1589  0.6172
 5721SOL    HW128799   1.070   3.188   3.839 -1.8010 -0.4917  1.7701
 5721SOL    HW228800   1.180   3.093   3.832 -0.3554 -3.7218  2.0561
 5722SOL     OW28801   1.601   1.029   1.920 -0.1603  0.2116 -0.0121
 5722SOL    HW128802   1.550   0.968   1.866 -0.6186  1.8810 -1.4565
 5722SOL    HW228803   1.664   0.972   1.964  0.2775 -0.6561 -1.7800
 5723SOL     OW28804   2.063   4.348   5.009  0.0773 -0.3597 -0.0864
 5723SOL    HW128805   2.029   4.385   4.927 -0.5324 -0.2582  0.2080
 5723SOL    HW228806   2.031   4.420   5.064 -2.1431 -0.2459 -1.5193
 5724SOL     OW28807   4.547   1.769   7.750  0.1927  0.3313  0.2777
 5724SOL    HW128808   4.605   1.800   7.820 -2.1696  0.2468  2.2638
 5724SOL    HW228809   4.495   1.850   7.746 -1.2827 -0.6116  0.6635
 5725SOL     OW28810   3.685   0.247   9.523  0.1206  0.3273  0.4365
 5725SOL    HW128811   3.714   0.156   9.522 -4.0866 -0.9557 -1.4192
 5725SOL    HW228812   3.633   0.253   9.603 -0.7091  0.7282 -0.1442
 5726SOL     OW28813   2.833   3.310   7.533  0.4609  0.4226 -0.1973
 5726SOL    HW128814   2.750   3.338   7.495  0.6680  1.5179  0.1327
 5726SOL    HW228815   2.805   3.219   7.533 -2.3452  1.2748 -0.2088
 5727SOL     OW28816   2.038   0.434  16.297 -0.9918  0.4809  0.7026
 5727SOL    HW128817   2.081   0.349  16.295 -0.6714  0.6459  0.5472
 5727SOL    HW228818   2.110   0.488  16.266  0.2970 -1.2585  0.6790
 5728SOL     OW28819   1.591   4.537   6.951 -0.1522  0.3442 -0.4388
 5728SOL    HW128820   1.562   4.552   6.861  0.8576  0.3314 -0.7665
 5728SOL    HW228821   1.518   4.480   6.977  0.0988 -1.7315 -4.4280
 5729SOL     OW28822   2.140   0.731  15.325  0.3313 -0.2323  0.3562
 5729SOL    HW128823   2.090   0.692  15.397 -0.8589 -1.4408 -1.1169
 5729SOL    HW228824   2.073   0.759  15.262  1.5080  1.2391 -0.2374
 5730SOL     OW28825   2.127   2.433   3.712  0.1569 -0.3691 -0.0591
 5730SOL    HW128826   2.088   2.518   3.690  0.8098 -0.9296 -3.4855
 5730SOL    HW228827   2.101   2.420   3.803 -1.9297  0.2634 -0.5691
 5731SOL     OW28828   0.485   4.304  11.074 -0.4534 -0.3301 -0.9725
 5731SOL    HW128829   0.430   4.249  11.130  2.3875 -0.7967  1.3856
 5731SOL    HW228830   0.427   4.369  11.034 -0.0331  0.9935  0.5535
 5732SOL     OW28831   0.318   2.094   4.100 -0.0508 -0.6364 -0.0579
 5732SOL    HW128832   0.300   2.051   4.016  0.3406 -0.8434 -0.0368
 5732SOL    HW228833   0.318   2.185   4.071  2.1060 -0.2952  1.0293
 5733SOL     OW28834   0.710   3.361   8.870 -0.0729 -0.0145  0.0291
 5733SOL    HW128835   0.790   3.318   8.842  0.2109 -0.2169  1.1621
 5733SOL    HW228836   0.736   3.453   8.859  0.3290 -0.2314 -0.8328
 5734SOL     OW28837   1.626   2.452   9.749 -0.5269 -0.7028  0.2275
 5734SOL    HW128838   1.677   2.404   9.813 -0.9320 -2.0219 -0.4290
 5734SOL    HW228839   1.653   2.543   9.761 -0.2285 -1.0538  2.2008
 5735SOL     OW28840   0.186   2.930   7.632  0.1363  0.0851 -0.2746
 5735SOL    HW128841   0.258   2.904   7.575  2.5002  2.3462  1.7109
 5735SOL    HW228842   0.158   3.010   7.588 -1.0478  0.2079  0.6946
 5736SOL     OW28843   0.869   3.065  17.045 -0.4506  0.7598 -0.2437
 5736SOL    HW128844   0.908   2.994  17.096 -0.1124  0.8635 -0.3601
 5736SOL    HW228845   0.880   3.137  17.107 -0.9944  2.0996 -1.7288
 5737SOL     OW28846   4.307   4.108   1.851 -0.3600  0.1069 -0.0940
 5737SOL    HW128847   4.265   4.166   1.788 -0.2421 -1.7208 -1.8689
 5737SOL    HW228848   4.396   4.096   1.818 -0.2586  0.2722  0.1159
 5738SOL     OW28849   0.136   0.793   5.305 -0.4501 -0.1211  0.0024
 5738SOL    HW128850   0.070   0.738   5.347 -2.6471  0.7933 -2.2273
 5738SOL    HW228851   0.102   0.882   5.294 -0.4006 -0.2505 -1.2602
 5739SOL     OW28852   0.138   3.503  15.685  0.0942  0.0692  0.4702
 5739SOL    HW128853   0.135   3.595  15.660 -1.0998  0.2032  1.1142
 5739SOL    HW228854   0.212   3.512  15.745  2.1808 -2.1424 -1.7846
 5740SOL     OW28855   1.341   0.261  17.215 -0.6576 -0.2555 -0.0177
 5740SOL    HW128856   1.344   0.218  17.129 -3.1806  0.7038 -0.5874
 5740SOL    HW228857   1.323   0.351  17.188  1.2900  0.0936 -0.1634
 5741SOL     OW28858   1.096   0.928  17.074  0.6422  0.8357 -0.2106
 5741SOL    HW128859   1.112   0.849  17.125  1.5381  2.1881  1.6099
 5741SOL    HW228860   1.141   0.994  17.127  0.6044  0.8618 -0.2110
 5742SOL     OW28861   1.963   0.086   7.758  0.2216 -0.1937 -0.1825
 5742SOL    HW128862   1.886   0.029   7.756 -0.1948  0.3853 -0.7089
 5742SOL    HW228863   1.918   0.161   7.796  1.2647  0.7546 -0.8179
 5743SOL     OW28864   1.910   1.879  10.302 -0.8829 -0.0161 -0.1085
 5743SOL    HW128865   1.897   1.796  10.256  1.0328 -1.2802  1.5928
 5743SOL    HW228866   2.001   1.900  10.282 -1.0633  0.1602 -0.7490
 5744SOL     OW28867   0.336   4.279   7.058 -0.0874 -0.3934  0.3253
 5744SOL    HW128868   0.315   4.368   7.084 -0.0044 -0.1049 -0.6010
 5744SOL    HW228869   0.272   4.287   6.988 -0.7717  0.6156  1.0685
 5745SOL     OW28870   1.197   0.784   7.922 -0.6898  0.5531  0.0371
 5745SOL    HW128871   1.182   0.816   8.011  1.5121  3.5161 -0.6547
 5745SOL    HW228872   1.118   0.742   7.889 -0.3658  0.6647 -0.8989
 5746SOL     OW28873   3.483   1.550   3.968 -0.2304 -0.2449  0.0041
 5746SOL    HW128874   3.462   1.470   4.016 -1.0559 -0.1921 -0.2747
 5746SOL    HW228875   3.510   1.607   4.040 -0.9202  0.7137 -0.4982
 5747SOL     OW28876   3.789   2.914   0.186  0.4270  0.0035  0.4499
 5747SOL    HW128877   3.808   2.951   0.272  0.3571  0.2623  0.3550
 5747SOL    HW228878   3.874   2.875   0.168 -0.9144 -1.9019 -1.6669
 5748SOL     OW28879   1.050   1.773  14.017  0.2587  0.0341  0.4829
 5748SOL    HW128880   1.115   1.777  13.947  0.3064  0.8524  0.5692
 5748SOL    HW228881   0.975   1.732  13.974 -0.1744  0.1824  1.1015
 5749SOL     OW28882   2.948   4.542  10.917 -0.0484 -0.3958  0.2361
 5749SOL    HW128883   2.891   4.574  10.847  1.5863 -1.0232 -1.3832
 5749SOL    HW228884   2.993   4.464  10.884 -0.7477 -0.2511 -1.0796
 5750SOL     OW28885   0.598   1.389   8.086  0.1412  0.2461 -0.7519
 5750SOL    HW128886   0.648   1.412   8.165  1.6347 -0.8128 -1.3785
 5750SOL    HW228887   0.611   1.294   8.076  0.1676  0.3342 -1.5625
 5751SOL     OW28888   4.633   2.089   5.957 -0.4123  0.3085 -0.1067
 5751SOL    HW128889   4.573   2.019   5.931  0.1284 -0.4845  0.7923
 5751SOL    HW228890   4.619   2.138   5.876  2.4498 -0.5158 -1.0693
 5752SOL     OW28891   4.730   3.652  16.407 -0.4211  0.3602  0.0227
 5752SOL    HW128892   0.005   3.699  16.489 -0.7329 -1.1187  0.9113
 5752SOL    HW228893   4.690   3.717  16.348 -0.4971  1.6054  1.4476
 5753SOL     OW28894   1.614   4.299  13.344  0.0849  0.6532 -0.2617
 5753SOL    HW128895   1.672   4.315  13.418 -0.0857 -1.9260  0.4385
 5753SOL    HW228896   1.529   4.318  13.385 -0.3794 -2.7424  0.3491
 5754SOL     OW28897   0.570   2.686   7.342  0.2260 -0.6040 -0.3216
 5754SOL    HW128898   0.645   2.723   7.298 -0.6934  0.6048 -0.8712
 5754SOL    HW228899   0.600   2.599   7.370 -0.2169 -0.5163  0.4305
 5755SOL     OW28900   0.162   3.815   7.487 -0.3742 -0.0872  0.0303
 5755SOL    HW128901   0.128   3.822   7.576  0.0280 -1.3774  0.2904
 5755SOL    HW228902   0.118   3.737   7.454  0.0140 -0.9886  1.6175
 5756SOL     OW28903   4.734   0.910   4.664 -0.1869  0.3356  0.2414
 5756SOL    HW128904   4.705   0.827   4.703  0.4789 -0.5779 -1.1792
 5756SOL    HW228905   4.724   0.889   4.571 -1.9491  0.7279  0.3377
 5757SOL     OW28906   2.615   4.326   8.402  0.4852 -0.2936 -0.1322
 5757SOL    HW128907   2.628   4.409   8.357 -0.0738  0.2847  0.7608
 5757SOL    HW228908   2.672   4.267   8.353  1.4132 -0.1004  0.7391
 5758SOL     OW28909   2.678   0.144   9.328 -0.3589  0.2748 -0.7874
 5758SOL    HW128910   2.657   0.235   9.307 -1.6193  0.0833 -0.3611
 5758SOL    HW228911   2.600   0.093   9.307 -1.5265  1.5846  0.3879
 5759SOL     OW28912   1.284   4.650   4.708 -0.2344 -0.0289 -0.4253
 5759SOL    HW128913   1.253   4.634   4.618 -1.7085 -0.2944  0.1267
 5759SOL    HW228914   1.248   4.576   4.758  1.6519  0.4972  1.6663
 5760SOL     OW28915   2.332   1.273   5.503 -0.3807 -0.0656  0.2438
 5760SOL    HW128916   2.307   1.181   5.494 -0.0716 -0.2735  1.4928
 5760SOL    HW228917   2.269   1.295   5.571 -2.2344 -1.9660 -0.8977
 5761SOL     OW28918   4.360   2.028  10.202  0.4358 -0.3591 -0.5153
 5761SOL    HW128919   4.432   1.966  10.192 -0.5259 -1.8003  1.4314
 5761SOL    HW228920   4.294   1.976  10.156  1.0655 -0.3437 -1.4303
 5762SOL     OW28921   4.350   0.695  17.542  0.2312  0.1707 -0.2008
 5762SOL    HW128922   4.440   0.697  17.508  0.6739  0.0551  0.9455
 5762SOL    HW228923   4.299   0.684  17.462  2.3637 -1.2513 -1.3896
 5763SOL     OW28924   4.144   1.935   2.705  0.4991  0.4632  0.4568
 5763SOL    HW128925   4.138   1.894   2.792 -2.2171  1.7595  0.8952
 5763SOL    HW228926   4.060   1.978   2.691  0.5962  0.2410 -0.7718
 5764SOL     OW28927   3.384   2.839   9.150  0.9756  0.4375  0.3683
 5764SOL    HW128928   3.388   2.843   9.055 -0.2997 -0.4616  0.2718
 5764SOL    HW228929   3.352   2.926   9.173 -1.3958 -0.1299 -0.7560
 5765SOL     OW28930   1.096   0.205   4.424  0.0970 -0.1626  0.1785
 5765SOL    HW128931   1.001   0.214   4.425  0.3843  2.9012  2.3253
 5765SOL    HW228932   1.109   0.210   4.519 -0.8122 -0.9283  0.3344
 5766SOL     OW28933   1.577   1.291   9.759 -0.3881 -0.4079 -0.7172
 5766SOL    HW128934   1.651   1.233   9.776 -0.0806  0.3508  0.4689
 5766SOL    HW228935   1.597   1.316   9.669 -0.1959 -0.8498 -0.7986
 5767SOL     OW28936   0.483   4.667   1.104 -0.4801 -0.5372 -0.1367
 5767SOL    HW128937   0.542   4.640   1.174 -0.1016  1.8676  0.4578
 5767SOL    HW228938   0.461   0.017   1.130 -1.3147 -0.6423 -0.4568
 5768SOL     OW28939   0.641   3.066   6.700 -0.4593  0.2988 -0.1648
 5768SOL    HW128940   0.617   2.980   6.665  0.5889  0.5906 -1.6190
 5768SOL    HW228941   0.729   3.050   6.736 -0.4712  0.3735 -0.1027
 5769SOL     OW28942   0.364   2.644   4.012 -0.0723 -0.0165  0.0794
 5769SOL    HW128943   0.318   2.726   4.000  1.1107  0.7165  0.5541
 5769SOL    HW228944   0.370   2.643   4.108 -0.3519  2.7515  0.1104
 5770SOL     OW28945   2.319   1.703   7.142  0.0036 -0.1240 -0.0421
 5770SOL    HW128946   2.320   1.637   7.212  0.2430 -2.2120 -2.0361
 5770SOL    HW228947   2.239   1.748   7.169  0.3245  0.7931 -0.6398
 5771SOL     OW28948   1.657   4.735   8.235 -0.2598 -0.3092 -0.9278
 5771SOL    HW128949   1.593   4.698   8.296 -2.4912 -0.3906 -3.3260
 5771SOL    HW228950   1.699   0.072   8.273 -0.7513 -1.3147  1.6359
 5772SOL     OW28951   4.304   4.635   7.665  0.0841  0.2496  0.0276
 5772SOL    HW128952   4.350   4.555   7.689  0.0839  0.0183 -0.7385
 5772SOL    HW228953   4.217   4.603   7.692 -0.6232  2.0477 -0.1061
 5773SOL     OW28954   1.560   3.363  10.487 -0.1508 -0.8174 -0.1917
 5773SOL    HW128955   1.576   3.413  10.567 -1.9577 -1.5781  0.6433
 5773SOL    HW228956   1.641   3.379  10.440 -1.2362  4.2725 -0.3058
 5774SOL     OW28957   2.796   4.068   2.282 -0.5416 -0.2871  0.5501
 5774SOL    HW128958   2.857   4.124   2.330 -0.2468 -0.3043  0.1958
 5774SOL    HW228959   2.743   4.140   2.246  1.0337  0.4030 -0.4101
 5775SOL     OW28960   3.112   0.133   5.303 -0.2395  0.5985  0.3229
 5775SOL    HW128961   3.036   0.074   5.299 -0.7250  1.1922  0.6957
 5775SOL    HW228962   3.178   0.074   5.266  1.4077  0.5355  3.3757
 5776SOL     OW28963   1.776   2.969   8.898  0.5055  0.1920 -0.1240
 5776SOL    HW128964   1.788   2.919   8.817  1.9648  1.0511 -0.4316
 5776SOL    HW228965   1.854   3.021   8.916  1.6043 -1.1393 -1.0107
 5777SOL     OW28966   1.534   1.330   3.474  0.0067 -0.2018  0.0791
 5777SOL    HW128967   1.568   1.399   3.417 -0.9202  1.4059  1.4753
 5777SOL    HW228968   1.458   1.305   3.422  0.0639 -0.4194  0.1014
 5778SOL     OW28969   1.668   0.057  14.939 -0.6280 -0.1472  0.1986
 5778SOL    HW128970   1.731   4.734  14.975  0.4619  0.4244 -0.7297
 5778SOL    HW228971   1.724   0.128  14.910 -1.1312 -0.1636 -0.8104
 5779SOL     OW28972   1.363   0.974   8.385  0.0031 -0.1447 -0.0151
 5779SOL    HW128973   1.386   1.063   8.412  0.9508 -1.6282  4.2182
 5779SOL    HW228974   1.434   0.946   8.328 -1.2393 -3.1803 -0.0659
 5780SOL     OW28975   1.543   2.930   8.432 -0.5702  0.3066  0.0195
 5780SOL    HW128976   1.490   3.001   8.466 -1.8323  0.7552 -2.8720
 5780SOL    HW228977   1.520   2.934   8.339 -0.4494  2.2548  0.0819
 5781SOL     OW28978   1.830   1.734   9.228  0.0897  0.1107  0.6584
 5781SOL    HW128979   1.805   1.729   9.320  0.7952 -0.5421  0.8165
 5781SOL    HW228980   1.816   1.827   9.207  0.2767  0.3761  1.6966
 5782SOL     OW28981   3.298   3.364   4.656  0.1608 -0.0959 -0.1945
 5782SOL    HW128982   3.263   3.341   4.742  1.9225  0.1757  0.5844
 5782SOL    HW228983   3.366   3.298   4.642 -1.5486 -2.4211  2.4896
 5783SOL     OW28984   3.560   4.419  11.872  0.0347 -0.5999 -0.2658
 5783SOL    HW128985   3.628   4.386  11.930 -2.0849  0.2071  2.6684
 5783SOL    HW228986   3.592   4.380  11.791 -1.0245 -3.0183  0.4938
 5784SOL     OW28987   2.608   2.030   1.680 -0.6442 -0.3098  0.0816
 5784SOL    HW128988   2.528   2.083   1.676 -1.6687 -1.7806  0.8118
 5784SOL    HW228989   2.590   1.978   1.601  1.6492  1.8947 -1.8780
 5785SOL     OW28990   0.659   4.505   3.902  0.7194 -0.4867 -0.1446
 5785SOL    HW128991   0.680   4.589   3.861 -2.5089 -0.4395 -1.6379
 5785SOL    HW228992   0.677   4.443   3.832  0.1035  0.6613 -1.3261
 5786SOL     OW28993   2.622   3.132   7.882 -0.6126  0.0295 -0.0432
 5786SOL    HW128994   2.697   3.183   7.914  1.6977 -1.9340 -2.2929
 5786SOL    HW228995   2.654   3.042   7.893 -2.1518 -0.5069 -0.0232
 5787SOL     OW28996   2.417   3.612   4.661  0.5121  0.0338  0.1012
 5787SOL    HW128997   2.423   3.707   4.649  1.3275  0.0346  0.5294
 5787SOL    HW228998   2.489   3.601   4.723  0.0538 -1.0307  0.4472
 5788SOL     OW28999   0.254   1.815  11.905 -0.4754  0.2907 -0.1269
 5788SOL    HW129000   0.233   1.723  11.891  2.5740 -0.6001  0.9661
 5788SOL    HW229001   0.252   1.811  12.001  0.3400  1.0528 -0.0803
 5789SOL     OW29002   0.701   3.815   3.706 -0.1760  0.6526 -0.0001
 5789SOL    HW129003   0.766   3.767   3.757 -0.3696 -2.4996 -2.7190
 5789SOL    HW229004   0.691   3.769   3.622  1.1882 -1.4271  0.9890
 5790SOL     OW29005   1.922   3.123   2.772 -0.4775  0.3792  0.0306
 5790SOL    HW129006   1.989   3.150   2.709  0.2050  1.1172  1.0854
 5790SOL    HW229007   1.854   3.190   2.760 -0.4556  0.8817  2.8695
 5791SOL     OW29008   0.687   2.939   8.558  0.1785 -0.2927  0.3451
 5791SOL    HW129009   0.744   2.893   8.496  0.7272  0.9023 -0.0277
 5791SOL    HW229010   0.741   2.942   8.637 -2.0625  3.2703  1.7176
 5792SOL     OW29011   3.835   0.818   5.357 -0.4120  0.5233 -0.3441
 5792SOL    HW129012   3.827   0.727   5.386  1.7480  0.6029  0.4533
 5792SOL    HW229013   3.808   0.862   5.437  1.5493 -1.1384  1.2181
 5793SOL     OW29014   3.179   2.673  11.964  0.2372 -0.7251  0.3320
 5793SOL    HW129015   3.239   2.628  11.905 -0.3349  0.0297 -0.8363
 5793SOL    HW229016   3.181   2.609  12.035 -2.5158  1.6450  2.5278
 5794SOL     OW29017   3.668   2.990   2.405 -0.4934 -0.5380  0.3364
 5794SOL    HW129018   3.592   2.995   2.463  1.3272  2.3255  2.4972
 5794SOL    HW229019   3.729   2.930   2.449  0.5003 -1.5657 -2.4355
 5795SOL     OW29020   3.641   4.201   2.377  0.0567  0.1321  0.5182
 5795SOL    HW129021   3.589   4.164   2.305 -0.8299 -0.1309  1.3074
 5795SOL    HW229022   3.626   4.290   2.348  1.6215 -0.6908 -2.8713
 5796SOL     OW29023   3.757   0.009   7.088 -0.2036 -0.2519  0.2064
 5796SOL    HW129024   3.806   0.077   7.136 -1.6556  0.4077  0.7363
 5796SOL    HW229025   3.739   0.054   7.006  1.1861 -0.4429 -0.2067
 5797SOL     OW29026   0.155   1.023   0.118  0.4967  0.1831 -0.0008
 5797SOL    HW129027   0.094   0.952   0.097 -1.0652  1.9042 -1.2789
 5797SOL    HW229028   0.096   1.092   0.149 -1.2975 -2.3140  2.1278
 5798SOL     OW29029   0.942   2.269  17.612  0.3328  0.0442 -0.2545
 5798SOL    HW129030   0.966   2.316  17.532 -0.4927  0.3156 -0.3405
 5798SOL    HW229031   0.908   2.188  17.574 -1.9450  0.7769  0.2270
 5799SOL     OW29032   3.720   1.810   1.473 -0.5173  0.5820  0.7453
 5799SOL    HW129033   3.737   1.793   1.565 -0.0466 -0.2115  0.5111
 5799SOL    HW229034   3.648   1.747   1.466  0.1461  0.0510 -1.5012
 5800SOL     OW29035   1.551   4.316   3.572  0.2650  0.4074 -0.3993
 5800SOL    HW129036   1.545   4.222   3.592  0.4883  0.3382 -0.6542
 5800SOL    HW229037   1.523   4.315   3.481 -0.4765  1.2140 -0.1815
 5801SOL     OW29038   2.906   3.821   7.259 -0.1825 -0.4782  0.1144
 5801SOL    HW129039   2.972   3.846   7.324  0.4428  0.4124 -0.8545
 5801SOL    HW229040   2.905   3.896   7.199 -0.5027 -0.2864  0.3568
 5802SOL     OW29041   1.895   2.753  15.798 -0.0705  0.0561  0.4144
 5802SOL    HW129042   1.937   2.776  15.881  1.0535  0.8301 -0.3787
 5802SOL    HW229043   1.960   2.795  15.741  1.0122 -1.1887  0.7359
 5803SOL     OW29044   0.055   4.046   2.149 -0.8544 -1.0511 -0.4155
 5803SOL    HW129045   0.111   4.096   2.090 -1.2090 -0.1919 -0.0272
 5803SOL    HW229046   4.701   4.057   2.132 -1.0733 -2.5485 -0.1927
 5804SOL     OW29047   2.466   2.142   9.890 -0.6949  0.1042  0.0260
 5804SOL    HW129048   2.502   2.161   9.803  0.6561  2.0827  1.0365
 5804SOL    HW229049   2.527   2.083   9.933 -1.5841  0.6524  2.0365
 5805SOL     OW29050   4.378   3.521   2.267 -0.5078  0.3134  0.5129
 5805SOL    HW129051   4.287   3.542   2.289 -0.8953  0.5477 -1.3255
 5805SOL    HW229052   4.404   3.496   2.356 -1.8278  1.0199  1.1132
 5806SOL     OW29053   2.191   1.838   8.860 -0.3247  0.0756  0.1192
 5806SOL    HW129054   2.124   1.906   8.852  1.3257  1.4271 -2.1727
 5806SOL    HW229055   2.157   1.780   8.792 -1.3984 -0.0015  0.7306
 5807SOL     OW29056   2.354   0.118   7.053  0.0966 -0.1835  0.2945
 5807SOL    HW129057   2.450   0.117   7.054  0.1799  4.9348 -1.9646
 5807SOL    HW229058   2.334   0.039   7.102  0.9616  0.1276  1.1630
 5808SOL     OW29059   2.619   3.314  17.506 -0.2854  0.3571 -0.0787
 5808SOL    HW129060   2.568   3.395  17.510  0.0410  0.5703 -0.2509
 5808SOL    HW229061   2.707   3.347  17.519 -0.1851  0.6445 -1.4916
 5809SOL     OW29062   3.037   2.065   8.636  0.1627  0.1562  0.2926
 5809SOL    HW129063   3.032   2.125   8.710  0.7337  0.1021  0.3778
 5809SOL    HW229064   2.949   2.027   8.644  0.6549 -1.0018  0.3241
 5810SOL     OW29065   4.560   2.563   9.722  0.1950 -0.2391 -0.2977
 5810SOL    HW129066   4.630   2.550   9.657 -1.4431 -1.8868 -1.7562
 5810SOL    HW229067   4.557   2.655   9.747 -1.0594 -0.4060  0.1227
 5811SOL     OW29068   1.116   2.854   8.844  0.1192 -0.7249 -0.4857
 5811SOL    HW129069   1.197   2.892   8.877 -1.0009  1.2892 -0.0488
 5811SOL    HW229070   1.049   2.900   8.894  1.1602  0.2373  0.0191
 5812SOL     OW29071   4.233   2.165   5.107 -0.3275  0.3436 -0.2560
 5812SOL    HW129072   4.183   2.093   5.069  1.4629 -0.3154 -1.3581
 5812SOL    HW229073   4.160   2.226   5.119 -1.2345 -0.8801  0.4130
 5813SOL     OW29074   4.672   3.938   4.387  0.2865 -0.4496 -0.0245
 5813SOL    HW129075   4.642   3.914   4.299  0.7701  0.9696 -0.5838
 5813SOL    HW229076   4.626   4.021   4.399 -2.3400 -2.0815  1.0105
 5814SOL     OW29077   2.039   4.001  15.067  0.5299 -0.3054  0.4510
 5814SOL    HW129078   2.062   4.021  15.158 -0.7951  1.2390  0.4403
 5814SOL    HW229079   2.084   3.917  15.055 -0.4490 -0.6851 -0.6513
 5815SOL     OW29080   2.688   4.546   5.181 -0.0804  0.5847  0.5489
 5815SOL    HW129081   2.669   4.602   5.106 -0.5632  1.4995  1.3632
 5815SOL    HW229082   2.605   4.538   5.228 -1.2792  0.8584 -1.5315
 5816SOL     OW29083   2.523   2.203  16.074 -0.2796  0.2719  0.1815
 5816SOL    HW129084   2.587   2.195  16.002 -2.9407 -0.8912 -2.0750
 5816SOL    HW229085   2.527   2.297  16.093  0.8870  0.0988  0.7602
 5817SOL     OW29086   4.026   1.360  12.828  0.3294  0.3156 -0.5625
 5817SOL    HW129087   3.984   1.347  12.913 -0.0104  1.0069 -0.6245
 5817SOL    HW229088   4.106   1.307  12.831  1.1382  1.4046 -2.9894
 5818SOL     OW29089   4.710   0.076  12.789  0.1871  0.1629  0.3047
 5818SOL    HW129090   4.623   0.066  12.749 -0.3628  1.4268  1.1519
 5818SOL    HW229091   4.684   0.141  12.855  0.6801 -1.5478  2.2076
 5819SOL     OW29092   0.194   3.005   5.170  1.5445 -0.3038 -0.2070
 5819SOL    HW129093   0.111   2.971   5.204  0.3384  2.0453 -0.7753
 5819SOL    HW229094   0.165   3.031   5.082  1.4104 -1.6520 -0.5630
 5820SOL     OW29095   4.512   4.303   4.132  0.4815  0.2360  0.1135
 5820SOL    HW129096   4.570   4.311   4.056 -0.4218  0.2285 -0.5708
 5820SOL    HW229097   4.517   4.394   4.160  1.3078  0.3969 -0.5381
 5821SOL     OW29098   1.528   2.129   9.863 -0.0848  0.2036 -0.1971
 5821SOL    HW129099   1.597   2.072   9.896  0.6207  0.4535 -1.2581
 5821SOL    HW229100   1.496   2.085   9.785 -0.1200 -0.9342  0.4626
 5822SOL     OW29101   3.622   1.648   8.457 -0.2503 -0.1418  0.4380
 5822SOL    HW129102   3.673   1.577   8.419  0.4556 -0.5005  2.0620
 5822SOL    HW229103   3.535   1.621   8.487 -0.5315  0.0374 -0.2111
 5823SOL     OW29104   1.431   1.816   2.781  0.0101  0.7804 -0.6768
 5823SOL    HW129105   1.507   1.779   2.736 -0.8958 -1.5495 -0.2634
 5823SOL    HW229106   1.374   1.801   2.705  1.0000 -0.7210 -1.1292
 5824SOL     OW29107   4.692   1.859   6.992  0.1430  0.4505 -0.1611
 5824SOL    HW129108   0.031   1.879   6.941  0.4503 -1.3199 -0.3739
 5824SOL    HW229109   4.731   1.780   7.030 -0.0475  0.6054  0.3535
 5825SOL     OW29110   3.649   1.318  12.928  0.2380 -0.1560 -0.3319
 5825SOL    HW129111   3.656   1.388  12.863 -2.0974 -0.5384 -0.9854
 5825SOL    HW229112   3.557   1.335  12.946  0.2299  0.1001 -0.6182
 5826SOL     OW29113   0.370   1.444   7.788  0.0813  0.2747 -0.5444
 5826SOL    HW129114   0.465   1.457   7.785  0.1178  0.0263 -0.4682
 5826SOL    HW229115   0.335   1.528   7.819 -1.3727 -1.1182  1.6078
 5827SOL     OW29116   1.008   3.914   4.083 -0.5339  0.3928 -0.0524
 5827SOL    HW129117   0.945   3.933   4.153  1.5988  0.7088  1.7855
 5827SOL    HW229118   1.078   3.865   4.127 -0.6335  1.4340  1.2890
 5828SOL     OW29119   3.367   2.764  16.915  0.2650  0.5254 -0.6177
 5828SOL    HW129120   3.433   2.812  16.865 -0.3674  0.2148 -1.7756
 5828SOL    HW229121   3.291   2.821  16.927  2.8606  3.8733 -0.3795
 5829SOL     OW29122   2.868   1.598   4.066 -0.1733  0.0501 -0.1816
 5829SOL    HW129123   2.824   1.517   4.041  0.0886 -0.5337  1.2535
 5829SOL    HW229124   2.839   1.661   4.001 -0.2212 -0.4280 -0.6226
 5830SOL     OW29125   1.332   0.093   4.361 -0.6733 -0.5031  0.1271
 5830SOL    HW129126   1.315   0.083   4.454  2.8011 -0.2169  0.7836
 5830SOL    HW229127   1.265   0.153   4.328 -0.2330  0.7806  1.5974
 5831SOL     OW29128   4.272   4.578   5.680  0.7104  0.8684  0.0220
 5831SOL    HW129129   4.325   4.548   5.754  1.0751  0.5002 -0.3902
 5831SOL    HW229130   4.196   4.519   5.683  0.3188  1.2898 -1.4914
 5832SOL     OW29131   2.092   1.664  13.833 -0.0320  0.4572  0.0814
 5832SOL    HW129132   2.054   1.696  13.751  0.3112 -0.7746 -0.5663
 5832SOL    HW229133   2.048   1.580  13.851 -1.2622  1.4067  1.5575
 5833SOL     OW29134   1.770   2.870   3.072  0.2522 -0.0224 -0.5940
 5833SOL    HW129135   1.705   2.806   3.101  2.0081  0.2995  4.0009
 5833SOL    HW229136   1.815   2.893   3.153  1.8028  1.4930 -1.8709
 5834SOL     OW29137   0.540   0.999  12.922  0.0509  0.3339  0.0782
 5834SOL    HW129138   0.525   0.913  12.961 -1.7452  0.8401  0.4807
 5834SOL    HW229139   0.452   1.030  12.903  0.5336  1.6492 -0.0357
 5835SOL     OW29140   0.141   3.686   9.893  0.2807 -0.5648 -0.0020
 5835SOL    HW129141   0.233   3.690   9.868  0.4873  2.3088  1.2590
 5835SOL    HW229142   0.143   3.634   9.974 -0.4633 -1.9280 -0.8595
 5836SOL     OW29143   4.106   3.582   2.278  0.6691  0.0290 -0.2441
 5836SOL    HW129144   4.115   3.559   2.185 -1.4059 -0.3853 -0.3572
 5836SOL    HW229145   4.020   3.546   2.301 -0.3367  2.0430 -0.8431
 5837SOL     OW29146   0.645   0.247   1.464 -0.5270  0.0001  0.1262
 5837SOL    HW129147   0.641   0.151   1.455  0.1928  0.0310 -0.5125
 5837SOL    HW229148   0.554   0.266   1.440 -0.1057  1.3624 -0.3633
 5838SOL     OW29149   2.575   0.111   6.223 -0.4141  0.2692  0.1151
 5838SOL    HW129150   2.532   0.092   6.307  1.9144 -1.8098  0.8425
 5838SOL    HW229151   2.541   0.199   6.210 -0.5000  0.3793  1.0367
 5839SOL     OW29152   0.595   1.635   8.613  0.3630  0.6685  0.5897
 5839SOL    HW129153   0.608   1.639   8.519  1.4878  0.2944  0.7260
 5839SOL    HW229154   0.571   1.725   8.635 -0.8270  1.0266 -2.2647
 5840SOL     OW29155   3.260   4.728   7.586 -0.5759  0.0690  0.0877
 5840SOL    HW129156   3.281   4.647   7.633 -0.2268  0.9104  1.3656
 5840SOL    HW229157   3.336   0.026   7.543 -0.4580 -0.9095 -0.5758
 5841SOL     OW29158   1.532   1.905   8.834 -0.6569  0.1031  0.1145
 5841SOL    HW129159   1.448   1.942   8.806  0.2186  0.9351 -1.4171
 5841SOL    HW229160   1.570   1.892   8.747 -0.1572 -0.7225  0.4604
 5842SOL     OW29161   1.310   2.783  13.017 -0.3735 -0.7039  0.0601
 5842SOL    HW129162   1.227   2.751  12.983  0.0983 -0.1137 -1.6581
 5842SOL    HW229163   1.340   2.705  13.063  1.3164  0.7072  1.3632
 5843SOL     OW29164   3.189   0.853  12.443 -0.4475  0.2738 -0.1070
 5843SOL    HW129165   3.165   0.843  12.534 -2.2145 -2.4180 -0.8883
 5843SOL    HW229166   3.284   0.865  12.451 -0.3918  0.5582 -1.1632
 5844SOL     OW29167   3.791   3.118   7.683  0.1973 -0.3503 -0.5622
 5844SOL    HW129168   3.743   3.115   7.766  1.2458 -0.5331  0.0537
 5844SOL    HW229169   3.825   3.205   7.702 -2.4502  1.0912 -2.5034
 5845SOL     OW29170   2.093   3.202   2.553  0.5086  0.4231  0.9099
 5845SOL    HW129171   2.183   3.176   2.570  0.7751  1.7167  1.5533
 5845SOL    HW229172   2.084   3.176   2.462  0.3508  0.5570  0.8880
 5846SOL     OW29173   4.593   0.414   4.979  0.1309 -0.0103  0.4549
 5846SOL    HW129174   4.508   0.447   5.009 -0.4767  1.2325 -2.6234
 5846SOL    HW229175   4.642   0.496   4.985  1.2340 -0.8744  2.9160
 5847SOL     OW29176   0.858   1.739   5.345  0.2072 -0.0580 -0.3561
 5847SOL    HW129177   0.897   1.667   5.295 -1.2349 -1.6946  0.8478
 5847SOL    HW229178   0.937   1.787   5.371 -0.0351 -1.2474  2.6433
 5848SOL     OW29179   4.064   0.802   1.960  0.0218 -0.0107 -0.3379
 5848SOL    HW129180   3.972   0.801   1.934 -0.9302  1.6658  2.8834
 5848SOL    HW229181   4.061   0.878   2.018  1.1994 -0.8240  0.7910
 5849SOL     OW29182   3.986   2.445   9.293  0.2927  0.3768  0.4072
 5849SOL    HW129183   4.021   2.503   9.361  0.9738  2.1371 -1.4339
 5849SOL    HW229184   4.071   2.402   9.288  0.0643 -0.2093  1.5060
 5850SOL     OW29185   3.758   1.019  15.271 -0.5287  0.5027  0.1499
 5850SOL    HW129186   3.748   0.991  15.180  1.2503 -0.1059  0.1296
 5850SOL    HW229187   3.789   1.108  15.252 -0.6679  0.5881  0.3269
 5851SOL     OW29188   0.050   3.723   3.187  0.2465  0.5338  0.2124
 5851SOL    HW129189   0.101   3.803   3.176  1.9823 -0.8313 -1.4994
 5851SOL    HW229190   4.707   3.766   3.168 -0.1482 -1.4781 -2.5650
 5852SOL     OW29191   3.622   2.263   4.823  0.0771  0.9466  0.4831
 5852SOL    HW129192   3.579   2.242   4.906  2.0411 -2.7442  0.5324
 5852SOL    HW229193   3.570   2.339   4.795 -0.0558  0.7935  0.3133
 5853SOL     OW29194   3.189   2.528   6.562  0.0402 -0.7403 -0.6363
 5853SOL    HW129195   3.201   2.623   6.561  0.7757 -0.7761  2.8630
 5853SOL    HW229196   3.190   2.503   6.655  1.7030 -0.7390 -0.6585
 5854SOL     OW29197   2.912   4.247   1.265  0.1314 -0.0200  0.1785
 5854SOL    HW129198   2.828   4.207   1.288 -0.1103  0.5513  0.3087
 5854SOL    HW229199   2.927   4.196   1.185  1.0318  0.2771  0.1575
 5855SOL     OW29200   3.393   1.519   7.634  0.0732 -0.7167  0.0766
 5855SOL    HW129201   3.372   1.541   7.725  0.4218 -1.3962  0.3277
 5855SOL    HW229202   3.402   1.603   7.591 -1.1059  0.7392  2.6755
 5856SOL     OW29203   4.630   3.777   6.734  0.5542  0.2436  0.7207
 5856SOL    HW129204   4.620   3.843   6.666  3.3113 -1.6161 -1.4988
 5856SOL    HW229205   4.725   3.778   6.743  0.7213  0.1333 -1.0734
 5857SOL     OW29206   0.323   3.577   2.276 -0.1569  0.1071 -0.2445
 5857SOL    HW129207   0.243   3.539   2.311 -0.8568 -0.3370 -2.3446
 5857SOL    HW229208   0.297   3.614   2.191  1.6224  4.5083  1.1049
 5858SOL     OW29209   4.354   3.103   0.511  0.0587  0.4232  0.0664
 5858SOL    HW129210   4.337   3.072   0.600 -1.8623  0.8557 -0.1414
 5858SOL    HW229211   4.392   3.185   0.542 -1.3211  0.9894  0.2562
 5859SOL     OW29212   0.845   3.010   2.149  0.3916  0.5223 -0.1804
 5859SOL    HW129213   0.829   3.046   2.236  2.8398  2.3768 -0.4890
 5859SOL    HW229214   0.937   3.034   2.133  0.9033 -0.2520  1.5768
 5860SOL     OW29215   4.149   1.300   2.448 -0.3521  0.1765  0.8723
 5860SOL    HW129216   4.195   1.245   2.512  0.5980  0.0120  0.0459
 5860SOL    HW229217   4.216   1.323   2.384  0.3221 -0.5845  1.2916
 5861SOL     OW29218   4.558   4.169   3.765  0.2988  0.4279 -0.7037
 5861SOL    HW129219   4.603   4.226   3.826  1.3188  0.4272 -1.4602
 5861SOL    HW229220   4.546   4.221   3.686 -0.8140 -1.3531 -1.7201
 5862SOL     OW29221   0.265   3.224  15.480 -0.2358  0.1724 -0.4997
 5862SOL    HW129222   0.223   3.235  15.565  1.7014 -2.0479  0.7472
 5862SOL    HW229223   0.307   3.308  15.459  0.4220 -0.5153 -1.9875
 5863SOL     OW29224   1.042   4.560   6.360 -0.1396 -0.1609 -0.3716
 5863SOL    HW129225   0.960   4.527   6.398 -1.3842  1.9421 -1.1926
 5863SOL    HW229226   1.027   4.554   6.266  1.4228  0.0372 -0.6310
 5864SOL     OW29227   2.453   2.515   2.692  0.2803 -0.0937 -0.3277
 5864SOL    HW129228   2.486   2.585   2.636  1.0753  0.1468  0.4490
 5864SOL    HW229229   2.523   2.474   2.742 -0.9923  0.6378  2.0766
 5865SOL     OW29230   1.359   0.478   1.728  0.1298  0.0284  0.2036
 5865SOL    HW129231   1.306   0.556   1.746 -1.0596 -0.4735 -1.1471
 5865SOL    HW229232   1.338   0.444   1.641 -3.5684  0.1170  1.0521
 5866SOL     OW29233   4.081   0.817  11.326 -0.4477  0.0934  0.0363
 5866SOL    HW129234   4.145   0.849  11.262  0.6384 -1.7866  0.2037
 5866SOL    HW229235   4.108   0.855  11.409  0.4060 -0.7264  0.1248
 5867SOL     OW29236   4.029   2.764  16.746  0.0089 -0.2116 -0.3284
 5867SOL    HW129237   4.077   2.801  16.820  1.3259 -0.7752 -0.8952
 5867SOL    HW229238   4.016   2.674  16.773  1.5466  0.0221  1.1879
 5868SOL     OW29239   3.608   2.169   4.563  0.4517  0.3623  0.6658
 5868SOL    HW129240   3.680   2.119   4.525 -0.6721 -0.6060 -0.1934
 5868SOL    HW229241   3.636   2.185   4.653 -0.7080  0.2651  1.0480
 5869SOL     OW29242   4.592   3.995   7.996  0.1923  0.8955  0.3057
 5869SOL    HW129243   4.539   3.956   7.926  1.4687  1.4365 -0.9642
 5869SOL    HW229244   4.631   3.916   8.033  0.8772  2.1388  2.2275
 5870SOL     OW29245   0.469   3.702  10.151 -0.0108 -0.5512 -0.3040
 5870SOL    HW129246   0.488   3.775  10.208  0.3979 -0.5384 -0.4530
 5870SOL    HW229247   0.423   3.635  10.202  1.0857  0.6630  2.2382
 5871SOL     OW29248   4.114   1.587  17.408  0.4418 -0.5470 -0.6134
 5871SOL    HW129249   4.195   1.580  17.459 -1.1184  0.1001  1.9909
 5871SOL    HW229250   4.094   1.679  17.428 -2.0947 -1.1842 -0.1706
 5872SOL     OW29251   1.309   3.674   9.708 -0.2577 -0.3516  0.2198
 5872SOL    HW129252   1.396   3.713   9.702  0.2835 -1.4586  0.7862
 5872SOL    HW229253   1.246   3.742   9.685 -2.3374 -1.6820  2.0533
 5873SOL     OW29254   0.128   4.223  15.930  0.3252 -0.3186 -0.0926
 5873SOL    HW129255   0.168   4.301  15.893  3.1189 -1.7890 -0.1800
 5873SOL    HW229256   0.100   4.172  15.854 -0.6696  1.4727 -0.9304
 5874SOL     OW29257   4.327   3.988   0.055  0.0577 -0.0450 -0.4440
 5874SOL    HW129258   4.364   3.985   0.143  1.0563 -0.5881 -0.8877
 5874SOL    HW229259   4.236   4.017   0.066 -0.3460 -1.6811  0.5300
 5875SOL     OW29260   0.166   0.767   3.792  0.1016  0.0824  0.1415
 5875SOL    HW129261   0.116   0.846   3.814  0.3786 -0.6844  3.5179
 5875SOL    HW229262   0.202   0.741   3.877  1.7067 -0.0212 -0.5587
 5876SOL     OW29263   1.405   4.004   9.570 -0.3870 -0.3736 -0.0883
 5876SOL    HW129264   1.459   3.925   9.566  0.1333  0.1610 -4.1237
 5876SOL    HW229265   1.463   4.071   9.533 -0.1973 -0.3989  0.1627
 5877SOL     OW29266   4.379   4.463   5.906  0.2748  0.1413 -0.1067
 5877SOL    HW129267   4.337   4.380   5.928  3.4719 -1.7498 -1.1647
 5877SOL    HW229268   4.474   4.452   5.908  0.1739 -0.6770  0.5701
 5878SOL     OW29269   3.427   2.436  13.272  0.3822  0.0887 -0.0371
 5878SOL    HW129270   3.383   2.512  13.234  1.1862 -0.0184 -1.1922
 5878SOL    HW229271   3.358   2.379  13.305  1.0351 -0.4402  0.4183
 5879SOL     OW29272   3.781   4.510   2.670 -0.4066  0.4751 -0.2165
 5879SOL    HW129273   3.821   4.499   2.756 -1.5103 -1.3519  0.0572
 5879SOL    HW229274   3.822   4.434   2.628 -2.7247 -0.7976 -0.1259
 5880SOL     OW29275   3.894   3.830   3.786 -0.4074  0.1290 -0.0343
 5880SOL    HW129276   3.986   3.841   3.765 -0.8370  1.6082 -1.1651
 5880SOL    HW229277   3.857   3.785   3.710  1.2040 -0.5109 -0.4197
 5881SOL     OW29278   3.707   1.683  10.774  0.1302 -0.1746  0.0716
 5881SOL    HW129279   3.778   1.713  10.831 -2.1799  2.8500  1.4180
 5881SOL    HW229280   3.658   1.765  10.766 -0.3057 -0.4094  0.2917
 5882SOL     OW29281   3.736   3.159   6.071  0.1574  0.1321 -0.1906
 5882SOL    HW129282   3.760   3.072   6.102  1.3269  0.6841  0.4471
 5882SOL    HW229283   3.745   3.205   6.154 -3.5697 -0.6454  0.6175
 5883SOL     OW29284   0.002   1.226  12.552  0.6382  0.6011 -0.0007
 5883SOL    HW129285   4.665   1.283  12.556 -1.7015 -2.6814  2.1358
 5883SOL    HW229286   4.710   1.155  12.497 -0.8014  0.8424  0.5131
 5884SOL     OW29287   0.296   0.749  11.436 -0.6186  0.4771 -0.3695
 5884SOL    HW129288   0.310   0.707  11.521  1.4590 -1.0649 -1.4873
 5884SOL    HW229289   0.203   0.733  11.421 -0.4306  0.4526 -1.5193
 5885SOL     OW29290   4.157   0.212   6.151  0.0321 -0.6181 -0.7098
 5885SOL    HW129291   4.155   0.157   6.072 -3.3482 -2.1178  0.4490
 5885SOL    HW229292   4.208   0.289   6.127  1.9760 -1.2191  1.5056
 5886SOL     OW29293   3.241   4.400  11.810  0.2450 -0.1954  0.4862
 5886SOL    HW129294   3.274   4.352  11.886 -1.4962  2.2764  2.7684
 5886SOL    HW229295   3.322   4.408  11.760  1.2437  0.2927  2.1878
 5887SOL     OW29296   1.291   0.076   4.000 -0.3014 -0.5607 -0.6107
 5887SOL    HW129297   1.345   4.738   4.015 -0.5922 -0.6628 -0.0990
 5887SOL    HW229298   1.233   0.047   3.930 -2.8841  2.6448  0.2004
 5888SOL     OW29299   2.082   3.978   5.169 -0.1614  0.5699 -0.3793
 5888SOL    HW129300   2.151   4.029   5.126  2.3196  1.1196  4.1944
 5888SOL    HW229301   2.077   4.031   5.248  0.8949 -0.0445  0.0946
 5889SOL     OW29302   3.746   0.835   1.929  0.5729  0.1129 -0.2857
 5889SOL    HW129303   3.667   0.802   1.886  1.1642  0.2040 -1.4300
 5889SOL    HW229304   3.770   0.757   1.979  1.3830  0.8026  0.4056
 5890SOL     OW29305   3.031   0.108   2.146  0.4991 -0.3471 -0.3083
 5890SOL    HW129306   2.956   0.117   2.088  1.8522 -1.0215 -2.1854
 5890SOL    HW229307   3.031   0.197   2.181  0.9135 -1.1706  1.7894
 5891SOL     OW29308   4.703   2.399   6.180  0.3774 -0.2838  0.3941
 5891SOL    HW129309   0.021   2.461   6.225  0.4198 -1.0295  1.3515
 5891SOL    HW229310   4.701   2.440   6.093  0.3657 -1.7454 -0.2877
 5892SOL     OW29311   3.654   2.906   7.971  0.0785 -0.4666 -0.7501
 5892SOL    HW129312   3.662   2.998   7.945 -2.1926 -0.3230 -1.0033
 5892SOL    HW229313   3.737   2.898   8.018  0.6236  0.5074 -1.5511
 5893SOL     OW29314   3.958   1.638   7.334 -0.1364 -0.6144 -0.3956
 5893SOL    HW129315   4.051   1.654   7.346 -1.1316  3.1473  2.1685
 5893SOL    HW229316   3.952   1.548   7.302  2.4192 -0.9582  0.0668
 5894SOL     OW29317   0.679   2.950   4.602  0.0565  0.5292 -0.4564
 5894SOL    HW129318   0.719   2.880   4.653 -0.9845  0.7704  0.6737
 5894SOL    HW229319   0.686   3.030   4.655  2.1538 -1.0476  1.6436
 5895SOL     OW29320   2.134   2.164  15.036 -0.0862  0.0338 -0.0778
 5895SOL    HW129321   2.084   2.127  14.964  1.4147 -0.0229 -1.0975
 5895SOL    HW229322   2.211   2.106  15.031 -0.2488 -0.2346  0.5306
 5896SOL     OW29323   4.288   1.991   4.253  0.8566 -0.0932 -0.0392
 5896SOL    HW129324   4.313   1.937   4.178 -1.3335  0.0869 -0.8762
 5896SOL    HW229325   4.356   2.057   4.240 -0.4701  1.1357 -0.6194
 5897SOL     OW29326   3.617   4.262   4.740 -0.0557  0.0217 -0.0739
 5897SOL    HW129327   3.663   4.252   4.657 -0.4097 -0.6391 -0.1873
 5897SOL    HW229328   3.559   4.186   4.746 -0.2692 -0.0412 -2.9315
 5898SOL     OW29329   2.250   0.599   1.045 -0.1189  0.0928  0.1695
 5898SOL    HW129330   2.165   0.564   1.071  0.7748 -1.4004  1.0734
 5898SOL    HW229331   2.244   0.685   1.086 -3.1616 -0.4613  0.8684
 5899SOL     OW29332   2.753   0.498   2.188 -0.5924 -0.4059 -0.5324
 5899SOL    HW129333   2.720   0.472   2.102 -0.4567 -0.5858 -0.5306
 5899SOL    HW229334   2.790   0.585   2.178 -0.6250 -0.7415 -3.6089
 5900SOL     OW29335   2.334   3.922   5.776  0.4249 -0.5268 -0.1694
 5900SOL    HW129336   2.250   3.921   5.729  1.1203 -2.6109 -1.3394
 5900SOL    HW229337   2.388   3.892   5.703  0.3540 -1.2546  0.0787
 5901SOL     OW29338   3.532   0.379   5.714 -0.3062 -0.4110 -0.0135
 5901SOL    HW129339   3.579   0.316   5.768 -0.2502 -1.8189 -1.7081
 5901SOL    HW229340   3.510   0.328   5.636 -0.3317 -1.8598  0.9481
 5902SOL     OW29341   3.261   0.048   9.175  0.3661  0.0150 -0.3727
 5902SOL    HW129342   3.297   0.087   9.255  0.3708  1.0522 -0.8810
 5902SOL    HW229343   3.176   0.011   9.198 -0.4173  1.8001 -0.3763
 5903SOL     OW29344   2.036   1.381  11.455  0.5227  0.2532  0.4266
 5903SOL    HW129345   1.974   1.354  11.387  1.4405  0.1157 -0.3539
 5903SOL    HW229346   2.024   1.476  11.445 -1.0875 -0.0621 -0.6661
 5904SOL     OW29347   3.459   4.617   3.697  0.5881  0.1241  0.0080
 5904SOL    HW129348   3.444   4.568   3.616 -0.7909  0.3076  0.1565
 5904SOL    HW229349   3.375   4.661   3.710  0.4345 -0.1601  0.0032
 5905SOL     OW29350   4.554   2.533   8.368 -0.5968  0.5661 -1.0103
 5905SOL    HW129351   4.614   2.460   8.351 -0.0075  1.2225 -1.7760
 5905SOL    HW229352   4.572   2.603   8.304  0.4306  2.1372  1.0022
 5906SOL     OW29353   4.209   2.956   0.733 -0.3067 -0.2272  0.1720
 5906SOL    HW129354   4.209   2.891   0.662  3.0329 -0.7383  0.6478
 5906SOL    HW229355   4.277   2.920   0.791  0.1753  0.2846 -0.0719
 5907SOL     OW29356   4.537   4.249   2.074 -0.2447  0.2205  0.2659
 5907SOL    HW129357   4.463   4.230   2.133 -0.9675  2.0126 -0.0611
 5907SOL    HW229358   4.550   4.165   2.031 -1.5754  0.7392 -1.1634
 5908SOL     OW29359   3.260   3.717   8.294 -0.0122  0.4458  0.6329
 5908SOL    HW129360   3.313   3.750   8.366 -0.7966  2.7804  0.1269
 5908SOL    HW229361   3.292   3.770   8.222  2.9376  2.0394  3.1171
 5909SOL     OW29362   4.061   3.227  10.968  0.0360 -0.1594  0.0844
 5909SOL    HW129363   4.145   3.212  10.924  1.1619 -0.4766  2.2862
 5909SOL    HW229364   3.995   3.181  10.918 -0.4948  1.2026 -0.4592
 5910SOL     OW29365   0.011   1.357   3.906  0.2991  0.1113 -0.2366
 5910SOL    HW129366   0.006   1.387   3.997 -0.4214  0.9710 -0.5582
 5910SOL    HW229367   4.665   1.390   3.879 -0.3758 -1.7153 -0.3448
 5911SOL     OW29368   4.049   1.285   4.915  0.5282 -0.1450 -0.9491
 5911SOL    HW129369   4.103   1.291   4.837 -1.3010 -1.3751 -2.3279
 5911SOL    HW229370   4.080   1.202   4.953  1.5929  0.7443  0.1265
 5912SOL     OW29371   1.322   3.627   5.056 -0.3498  0.4340 -0.2798
 5912SOL    HW129372   1.387   3.688   5.091 -0.5702  0.7710 -0.4654
 5912SOL    HW229373   1.378   3.578   4.995 -1.8206 -1.5149 -0.0937
 5913SOL     OW29374   0.432   3.549   8.594  0.0263 -0.1154 -0.5203
 5913SOL    HW129375   0.466   3.460   8.604 -2.0016 -0.8178  0.3006
 5913SOL    HW229376   0.344   3.548   8.633  0.9998 -1.2643  1.6142
 5914SOL     OW29377   1.207   1.357   5.720  0.4428 -0.0945  0.3037
 5914SOL    HW129378   1.199   1.262   5.722  0.0034 -0.0936 -1.3674
 5914SOL    HW229379   1.302   1.361   5.703 -0.3846 -0.3979 -4.3049
 5915SOL     OW29380   4.675   1.227   1.210 -0.0721 -0.1109 -0.3560
 5915SOL    HW129381   4.737   1.293   1.180  0.1240 -0.5804 -0.9819
 5915SOL    HW229382   4.594   1.246   1.163 -0.6355  3.4107  2.0628
 5916SOL     OW29383   2.240   2.564   8.856  0.1565 -0.3504 -0.5173
 5916SOL    HW129384   2.311   2.548   8.793  1.1124  2.6607 -0.1920
 5916SOL    HW229385   2.270   2.648   8.890  0.4459 -1.2193  1.3403
 5917SOL     OW29386   0.269   1.295   8.336 -0.2943 -0.6332  0.4767
 5917SOL    HW129387   0.279   1.357   8.264  0.4597 -1.2454  0.0560
 5917SOL    HW229388   0.267   1.217   8.281  4.7481  1.2604 -2.3942
 5918SOL     OW29389   1.680   3.180   4.072 -0.6635  0.4119 -0.1835
 5918SOL    HW129390   1.761   3.230   4.087  0.4967 -1.8801  1.1808
 5918SOL    HW229391   1.616   3.237   4.114  0.3933  1.7361 -0.3693
 5919SOL     OW29392   2.113   2.733   6.552 -0.0317  0.3461 -0.0107
 5919SOL    HW129393   2.156   2.651   6.529  0.1116  0.2626  0.5415
 5919SOL    HW229394   2.116   2.785   6.472 -1.9450  2.4028  1.2423
 5920SOL     OW29395   0.241   2.896   6.507  0.6973 -0.5165  0.0679
 5920SOL    HW129396   0.181   2.915   6.579 -0.6597  0.9605 -1.4464
 5920SOL    HW229397   0.261   2.981   6.467  2.6684  0.0962  2.3825
 5921SOL     OW29398   4.204   4.500   2.322  0.6809 -0.3118 -0.1825
 5921SOL    HW129399   4.223   4.504   2.228 -0.6935 -3.1194 -0.5807
 5921SOL    HW229400   4.253   4.420   2.342 -0.0658 -0.8522 -0.5262
 5922SOL     OW29401   3.231   0.130   5.563 -0.4422 -0.0350  0.2110
 5922SOL    HW129402   3.177   0.168   5.494 -1.4112  1.1648  1.6343
 5922SOL    HW229403   3.179   0.130   5.643  1.7069  0.4418  1.6052
 5923SOL     OW29404   2.014   1.331  11.728 -0.0294  0.2966 -0.5889
 5923SOL    HW129405   1.922   1.307  11.738  0.4295  0.1112  3.4476
 5923SOL    HW229406   2.015   1.357  11.636  0.3103 -0.5737 -0.8287
 5924SOL     OW29407   1.237   4.711  16.494 -0.8077  0.1194  0.0142
 5924SOL    HW129408   1.225   0.065  16.486  1.4952  0.5289  1.3938
 5924SOL    HW229409   1.231   4.699  16.589  1.8135  1.2150  0.2972
 5925SOL     OW29410   3.841   0.990  12.778  0.7373 -0.4183  0.5099
 5925SOL    HW129411   3.836   0.895  12.765  1.0301 -0.2997 -0.4415
 5925SOL    HW229412   3.856   0.999  12.872 -0.7650 -1.4701  0.8559
 5926SOL     OW29413   2.863   0.776   2.099  0.3033  0.1428 -0.0487
 5926SOL    HW129414   2.791   0.801   2.041 -0.9078  0.7834  1.7290
 5926SOL    HW229415   2.911   0.859   2.103  0.1601  0.2440 -0.4169
 5927SOL     OW29416   0.555   1.334   7.225 -0.4117 -0.3219 -0.2662
 5927SOL    HW129417   0.536   1.301   7.313  1.2599  0.4308  0.3722
 5927SOL    HW229418   0.538   1.427   7.233 -0.5641 -0.2802 -1.0556
 5928SOL     OW29419   3.154   3.833   6.467 -0.3369  0.1042  0.2495
 5928SOL    HW129420   3.085   3.797   6.522 -1.2051  0.2950 -0.7234
 5928SOL    HW229421   3.094   3.852   6.396  1.1836 -1.3949 -1.4304
 5929SOL     OW29422   4.298   0.975   8.890 -0.3783  0.9714  0.4142
 5929SOL    HW129423   4.231   0.923   8.846  1.2522 -1.4751  0.8648
 5929SOL    HW229424   4.266   1.064   8.875 -0.4602  0.8676 -0.0225
 5930SOL     OW29425   1.262   2.091   3.917 -0.1317 -0.1655 -0.2745
 5930SOL    HW129426   1.356   2.104   3.900  0.5474 -1.7927  2.2355
 5930SOL    HW229427   1.239   2.184   3.914 -1.7570 -0.5813 -0.4502
 5931SOL     OW29428   0.053   0.737   8.838 -0.4446 -0.0545  0.2322
 5931SOL    HW129429   0.054   0.724   8.933 -1.2772 -1.6026  0.0321
 5931SOL    HW229430   0.128   0.681   8.819 -1.7180 -1.1014 -1.7211
 5932SOL     OW29431   4.659   1.431   4.460 -0.0736 -0.2045 -0.2461
 5932SOL    HW129432   4.735   1.432   4.518  0.2395 -0.1041 -0.6542
 5932SOL    HW229433   4.626   1.520   4.449  0.6356  0.1051  0.1163
 5933SOL     OW29434   4.145   0.926  11.580  0.1972 -0.3198  0.0159
 5933SOL    HW129435   4.107   0.972  11.654  1.9496  0.3999  0.4869
 5933SOL    HW229436   4.236   0.954  11.594  0.0070 -0.1617  0.8708
 5934SOL     OW29437   3.653   3.564   3.872  0.5902  0.4026  0.1850
 5934SOL    HW129438   3.592   3.633   3.898  0.9021  0.5239  0.5969
 5934SOL    HW229439   3.651   3.511   3.952  0.3822 -0.8313 -0.6462
 5935SOL     OW29440   1.717   0.552   7.170  0.0070  0.4069  0.1303
 5935SOL    HW129441   1.783   0.496   7.211  0.5229  1.2789  0.4882
 5935SOL    HW229442   1.757   0.637   7.187  1.8436 -0.6782  1.2924
 5936SOL     OW29443   0.218   1.107   7.102 -0.2038  0.3951 -0.2227
 5936SOL    HW129444   0.290   1.156   7.062  2.3297 -2.6438  0.6021
 5936SOL    HW229445   0.266   1.025   7.113  0.0634  0.5139 -0.5109
 5937SOL     OW29446   2.165   4.290   9.252  0.1320  0.0792  0.2719
 5937SOL    HW129447   2.200   4.247   9.330  0.8157  2.5347  1.3211
 5937SOL    HW229448   2.243   4.340   9.228 -1.3313  1.2616 -1.9564
 5938SOL     OW29449   3.667   3.135  13.506  0.3509 -0.0858 -0.2458
 5938SOL    HW129450   3.666   3.071  13.434 -0.9120  1.7466 -1.8458
 5938SOL    HW229451   3.762   3.125  13.518  0.2576 -0.1258  0.4777
 5939SOL     OW29452   1.232   1.948   6.162 -0.4097  0.2613 -0.1897
 5939SOL    HW129453   1.319   1.985   6.146  0.0749 -0.6669  0.2979
 5939SOL    HW229454   1.183   2.007   6.105  0.4288  0.0309 -1.1338
 5940SOL     OW29455   3.024   1.106  12.001 -0.1051  0.1303 -0.5702
 5940SOL    HW129456   2.957   1.059  12.050  2.3395 -0.3994  2.2515
 5940SOL    HW229457   3.103   1.054  12.016 -1.1541 -1.4837 -0.7028
 5941SOL     OW29458   2.695   3.867  17.267  0.0408  0.2495 -0.1926
 5941SOL    HW129459   2.705   3.952  17.224  1.0314  0.6141  0.7685
 5941SOL    HW229460   2.633   3.817  17.214 -0.1868 -1.2160  1.4712
 5942SOL     OW29461   2.882   2.952   6.661 -0.1825  0.1558 -0.3387
 5942SOL    HW129462   2.816   2.888   6.688 -0.4304 -0.5744 -2.7238
 5942SOL    HW229463   2.934   2.903   6.598 -0.4005  1.2475 -1.3669
 5943SOL     OW29464   1.709   4.482   4.648  0.1678  0.6069 -0.2069
 5943SOL    HW129465   1.686   4.391   4.628 -0.9800  1.1582 -1.4137
 5943SOL    HW229466   1.642   4.504   4.713 -1.4535  0.7127 -1.8964
 5944SOL     OW29467   2.904   0.016   0.710 -0.5902  0.6690 -0.2091
 5944SOL    HW129468   2.999   0.015   0.698 -0.4827 -0.0580  0.7348
 5944SOL    HW229469   2.900   0.100   0.755 -0.6836 -0.3091  1.5746
 5945SOL     OW29470   3.606   4.247  10.590 -0.0783  0.0678  0.2529
 5945SOL    HW129471   3.664   4.275  10.661 -0.0739 -2.7904  1.3803
 5945SOL    HW229472   3.527   4.237  10.643  0.7068 -2.3091  0.9432
 5946SOL     OW29473   3.789   2.762   8.950  0.2601  0.4181  0.8278
 5946SOL    HW129474   3.845   2.819   8.897  0.3246 -0.7736 -0.3863
 5946SOL    HW229475   3.758   2.824   9.016 -3.6192  0.4206 -0.9670
 5947SOL     OW29476   1.264   2.320   6.969 -0.0703  0.4736  0.0248
 5947SOL    HW129477   1.191   2.329   6.907 -0.1777 -2.7003 -0.2930
 5947SOL    HW229478   1.327   2.280   6.909 -2.6452 -3.4833 -0.0594
 5948SOL     OW29479   1.488   3.595   9.154  0.5814  0.0672 -0.2635
 5948SOL    HW129480   1.416   3.597   9.218  0.1546 -0.6872 -0.7131
 5948SOL    HW229481   1.561   3.598   9.215  0.6081  1.9678 -0.3981
 5949SOL     OW29482   4.673   3.367  10.172 -0.1244 -0.0850 -0.1571
 5949SOL    HW129483   4.728   3.298  10.209  0.8862  0.4972 -0.5560
 5949SOL    HW229484   4.628   3.382  10.255  2.5348  0.4217  1.1928
 5950SOL     OW29485   2.964   1.635  17.621  0.7643  0.3861 -0.6870
 5950SOL    HW129486   3.012   1.669  17.696 -1.6699  0.8757  0.6647
 5950SOL    HW229487   2.877   1.628  17.660  1.0257  0.8810 -0.0178
 5951SOL     OW29488   1.042   2.614   7.007  0.0038  0.0718  0.2945
 5951SOL    HW129489   1.114   2.675   7.025 -0.4262  0.2510  1.4208
 5951SOL    HW229490   0.972   2.674   6.983 -1.2106 -1.8253 -0.8726
 5952SOL     OW29491   3.048   4.089   9.657 -0.5092 -0.3939  0.3415
 5952SOL    HW129492   2.991   4.165   9.648 -0.5951 -0.6554 -1.4195
 5952SOL    HW229493   3.119   4.116   9.598 -0.8920 -0.0474  0.0430
 5953SOL     OW29494   1.186   1.678  17.136 -0.3953  0.5433 -0.6621
 5953SOL    HW129495   1.241   1.614  17.091 -1.8073 -0.1758 -1.3492
 5953SOL    HW229496   1.137   1.714  17.061 -0.4451 -0.7805 -1.2623
 5954SOL     OW29497   0.475   0.874   1.849  0.5568  0.1913 -0.0582
 5954SOL    HW129498   0.382   0.886   1.869  0.4656 -0.3624 -0.1674
 5954SOL    HW229499   0.519   0.932   1.912  0.0212 -3.2543  3.4252
 5955SOL     OW29500   0.315   0.000   6.904 -0.1007  0.0774  0.1294
 5955SOL    HW129501   0.307   4.739   6.808 -0.8688 -1.4384  0.2250
 5955SOL    HW229502   0.392   4.684   6.902  0.2953  0.5858  1.2785
 5956SOL     OW29503   3.280   3.010  12.988 -0.3632 -0.2870 -0.6563
 5956SOL    HW129504   3.187   2.994  12.969 -0.1472  0.9436 -2.7459
 5956SOL    HW229505   3.281   3.106  12.992 -2.8803 -0.2773  0.1308
 5957SOL     OW29506   1.948   4.262   6.762  0.5248  0.3239 -0.7335
 5957SOL    HW129507   1.893   4.325   6.808 -2.8000 -2.5870 -0.7376
 5957SOL    HW229508   1.883   4.231   6.698  0.5130 -1.0867 -0.0381
 5958SOL     OW29509   3.789   1.731   4.007  0.2531  0.0421  0.0661
 5958SOL    HW129510   3.763   1.733   3.915 -0.4992  0.6112  0.2925
 5958SOL    HW229511   3.754   1.647   4.035  1.1669 -0.7390 -1.1538
 5959SOL     OW29512   4.063   0.175  10.307  1.2290  0.1093  0.1052
 5959SOL    HW129513   4.042   0.187  10.215  0.8884  3.1499  0.5598
 5959SOL    HW229514   4.140   0.232  10.314 -1.3095  3.5032  0.5369
 5960SOL     OW29515   4.370   4.689   7.409 -0.1146  0.6540 -0.5925
 5960SOL    HW129516   4.371   4.661   7.501 -3.7611 -1.8784 -1.3279
 5960SOL    HW229517   4.418   4.618   7.366 -1.8387 -0.8522 -0.0451
 5961SOL     OW29518   0.831   4.383   6.471 -0.0489  0.5100 -0.0733
 5961SOL    HW129519   0.840   4.421   6.558  0.4496 -0.2310  0.2028
 5961SOL    HW229520   0.736   4.376   6.469 -0.0360  0.3498 -0.1094
 5962SOL     OW29521   4.276   4.450  13.038 -0.6470  0.4990 -0.4949
 5962SOL    HW129522   4.259   4.376  13.097  0.2921 -1.3724 -2.5947
 5962SOL    HW229523   4.203   4.439  12.977 -0.5953 -0.3972 -0.3900
 5963SOL     OW29524   1.434   0.369   1.191  0.2630  0.0458  0.0424
 5963SOL    HW129525   1.429   0.330   1.104 -1.3327 -2.9334  1.4606
 5963SOL    HW229526   1.356   0.424   1.189 -1.2728 -2.1060  0.4821
 5964SOL     OW29527   1.792   0.205   8.430 -0.5735  0.0006 -0.2234
 5964SOL    HW129528   1.879   0.225   8.465 -1.5036 -0.4872  2.3595
 5964SOL    HW229529   1.750   0.168   8.507  0.6371 -1.8076 -0.4273
 5965SOL     OW29530   0.270   1.756  10.095 -0.0954 -0.7437  0.2054
 5965SOL    HW129531   0.216   1.830  10.067  0.9340  0.8234  2.4510
 5965SOL    HW229532   0.249   1.761  10.188 -1.1745  1.7657 -0.1781
 5966SOL     OW29533   4.232   4.274   5.361 -0.5781 -0.7134 -0.4103
 5966SOL    HW129534   4.256   4.242   5.274 -0.9103 -1.4842 -0.2138
 5966SOL    HW229535   4.255   4.367   5.353 -0.9909 -0.4695  1.1343
 5967SOL     OW29536   4.263   2.585  13.657 -0.2875  0.2728  0.0069
 5967SOL    HW129537   4.325   2.588  13.731 -0.4507 -0.3658  0.1698
 5967SOL    HW229538   4.312   2.642  13.598 -0.4108 -0.1609 -0.5085
 5968SOL     OW29539   4.686   4.571   4.542 -0.4874  0.2916 -0.1470
 5968SOL    HW129540   0.038   4.587   4.525 -0.1456 -2.1344 -0.5799
 5968SOL    HW229541   4.680   4.617   4.626  1.4459  0.0691  0.1085
 5969SOL     OW29542   1.705   4.087   8.010  0.0512  0.1471 -0.1310
 5969SOL    HW129543   1.619   4.050   7.988  0.0391 -1.2765  2.1908
 5969SOL    HW229544   1.727   4.098   7.918  2.7363 -0.9118  0.3885
 5970SOL     OW29545   3.883   3.411   2.325 -0.0101  0.0517  0.2220
 5970SOL    HW129546   3.815   3.345   2.310 -0.8411  1.7270 -3.4340
 5970SOL    HW229547   3.947   3.355   2.369 -0.4769 -1.8709 -1.4936
 5971SOL     OW29548   1.229   3.852   9.102 -0.1688  0.1040 -0.3037
 5971SOL    HW129549   1.282   3.901   9.166 -0.1613  0.5033 -0.6102
 5971SOL    HW229550   1.230   3.765   9.141  0.7369 -0.2786 -1.1895
 5972SOL     OW29551   0.005   0.986   9.539 -0.4004  0.6212  0.1129
 5972SOL    HW129552   4.682   0.935   9.591 -3.3032  0.1665 -3.8170
 5972SOL    HW229553   4.677   1.037   9.495 -0.0497 -0.1962 -1.3721
 5973SOL     OW29554   1.400   0.715  12.129  0.0055 -0.0178  0.6778
 5973SOL    HW129555   1.492   0.736  12.113 -0.2673  2.3901  2.2237
 5973SOL    HW229556   1.406   0.646  12.195 -0.4647 -0.6291  0.0800
 5974SOL     OW29557   1.465   0.708  15.237  0.2207 -0.2980  0.5146
 5974SOL    HW129558   1.509   0.705  15.322  0.3655 -0.1267  0.4445
 5974SOL    HW229559   1.438   0.800  15.233 -0.5265 -0.5754 -0.9441
 5975SOL     OW29560   1.925   0.753   3.829 -0.0977 -0.3182 -0.7436
 5975SOL    HW129561   1.947   0.673   3.783  0.7491  1.4091 -3.3341
 5975SOL    HW229562   1.991   0.762   3.898  1.6510 -0.4493 -2.4053
 5976SOL     OW29563   2.453   4.279  10.595 -0.1539  0.0693  0.8239
 5976SOL    HW129564   2.472   4.222  10.520  1.1126  1.0835  0.3715
 5976SOL    HW229565   2.392   4.223  10.644 -2.4088 -0.2703 -2.3340
 5977SOL     OW29566   3.951   1.062   7.167  0.4659  0.1801  0.2167
 5977SOL    HW129567   3.931   0.969   7.174  1.2208 -0.1142 -1.6263
 5977SOL    HW229568   3.866   1.095   7.196  0.5305  1.3289 -0.9027
 5978SOL     OW29569   1.358   2.844   8.945  0.9934  0.0779  0.0317
 5978SOL    HW129570   1.432   2.889   8.905  0.9311  0.2065  0.0599
 5978SOL    HW229571   1.396   2.760   8.969 -0.1353 -1.2744 -2.8627
 5979SOL     OW29572   4.218   4.015  17.517  0.1278  0.2215  0.9226
 5979SOL    HW129573   4.260   4.065  17.586 -1.5032  0.3066  1.8379
 5979SOL    HW229574   4.132   4.057  17.512  0.5104  0.4877 -3.5800
 5980SOL     OW29575   2.445   0.952   7.825  0.1825 -0.1736 -0.1196
 5980SOL    HW129576   2.372   0.931   7.768 -0.4741 -0.4179  0.8203
 5980SOL    HW229577   2.467   0.864   7.855  2.5446  1.5096  3.1027
 5981SOL     OW29578   4.480   4.478   9.066 -0.1443  0.3100  0.4236
 5981SOL    HW129579   4.537   4.538   9.114 -2.5980  0.6146  2.9582
 5981SOL    HW229580   4.542   4.423   9.018  0.8201  0.6370  1.2823
 5982SOL     OW29581   2.276   2.018   8.208  0.5518  0.5709 -0.2252
 5982SOL    HW129582   2.239   1.991   8.123 -2.4773  1.2284  0.8871
 5982SOL    HW229583   2.234   2.104   8.213 -0.4851 -0.0593  1.6373
 5983SOL     OW29584   3.992   4.615   4.167  0.2490 -0.3385  0.1840
 5983SOL    HW129585   3.973   4.544   4.106  1.0353  0.4363 -0.9394
 5983SOL    HW229586   4.060   4.660   4.118  2.0804 -2.0589  1.1524
 5984SOL     OW29587   4.159   2.751  15.298 -0.3362  0.3187 -0.7629
 5984SOL    HW129588   4.079   2.791  15.261 -0.7558  0.1228 -0.0630
 5984SOL    HW229589   4.223   2.798  15.245  2.2033 -0.8128  1.2975
 5985SOL     OW29590   3.919   0.641   7.971  0.2046  0.0006  0.0133
 5985SOL    HW129591   3.966   0.710   8.017 -1.2440  0.6684  0.5003
 5985SOL    HW229592   3.858   0.614   8.040  1.5975 -0.3323  1.0972
 5986SOL     OW29593   4.271   1.133   2.212 -0.1447 -0.2075 -0.0510
 5986SOL    HW129594   4.322   1.201   2.254 -0.3455 -0.2927  0.3250
 5986SOL    HW229595   4.303   1.138   2.122  1.8663 -0.5721  0.6533
 5987SOL     OW29596   0.926   4.640  10.081  0.8449 -0.0846  0.6734
 5987SOL    HW129597   0.947   4.709  10.018  1.7017 -0.7212  0.2537
 5987SOL    HW229598   0.974   4.568  10.039 -3.9868 -2.2254 -1.2414
 5988SOL     OW29599   2.808   4.459  11.145  0.3555  0.4170  0.3607
 5988SOL    HW129600   2.845   4.500  11.224  3.2990 -0.0927 -0.7735
 5988SOL    HW229601   2.858   4.501  11.075 -0.3276 -0.8534 -0.8706
 5989SOL     OW29602   4.693   0.066   7.569 -0.5140  0.6993  0.4108
 5989SOL    HW129603   4.730   0.065   7.657 -0.1766  1.9098  0.2824
 5989SOL    HW229604   4.683   4.712   7.557 -0.0494  0.5129  1.4598
 5990SOL     OW29605   0.025   1.305   4.909 -0.3247  0.2691 -0.2165
 5990SOL    HW129606   4.725   1.274   4.990  0.2898 -0.9191 -0.3610
 5990SOL    HW229607   0.115   1.277   4.926 -1.2182 -0.1318  3.9189
 5991SOL     OW29608   1.932   1.750   6.769 -0.1682 -0.2421 -0.5195
 5991SOL    HW129609   1.843   1.719   6.788 -0.9605  3.4695  1.7425
 5991SOL    HW229610   1.971   1.678   6.719  2.7022  1.2979 -0.4894
 5992SOL     OW29611   4.680   3.990   0.719 -0.1516  0.4382 -0.6985
 5992SOL    HW129612   4.667   4.082   0.695 -0.0064  0.8125  0.6516
 5992SOL    HW229613   4.586   3.969   0.718 -0.0569  0.0581 -1.4016
 5993SOL     OW29614   2.981   2.866  15.688 -0.2850 -0.0666  0.3318
 5993SOL    HW129615   2.975   2.922  15.766  0.8049 -0.4571  0.7042
 5993SOL    HW229616   3.074   2.846  15.701  0.2565  1.8344 -0.5232
 5994SOL     OW29617   0.242   2.475   6.563 -0.1351  0.3457  0.2821
 5994SOL    HW129618   0.265   2.415   6.492  0.5478  0.0358  0.7673
 5994SOL    HW229619   0.262   2.559   6.523  1.0016 -0.3085 -0.5171
 5995SOL     OW29620   1.685   0.527   7.656 -0.5814  0.4878 -0.0819
 5995SOL    HW129621   1.614   0.571   7.610 -1.0985 -0.1762  0.0864
 5995SOL    HW229622   1.689   0.555   7.748 -2.2994 -0.2482  0.2249
 5996SOL     OW29623   3.642   2.167   7.355 -0.3088  0.1712 -0.2400
 5996SOL    HW129624   3.735   2.189   7.360 -0.5576  0.8743  1.3613
 5996SOL    HW229625   3.632   2.093   7.414 -2.1848  0.5835 -0.0322
 5997SOL     OW29626   4.364   4.560  16.110  0.1671 -0.7605  0.5537
 5997SOL    HW129627   4.401   4.588  16.027  0.2915 -1.0647  0.5035
 5997SOL    HW229628   4.375   4.641  16.160 -0.7912 -0.1738 -0.2113
 5998SOL     OW29629   3.615   1.369   6.774  0.2142  1.0379  0.1638
 5998SOL    HW129630   3.679   1.398   6.709  0.6328  1.0112  0.5675
 5998SOL    HW229631   3.544   1.429   6.751  1.5821  3.0942  1.4118
 5999SOL     OW29632   3.051   0.181  11.231 -0.1793  0.1019  0.6513
 5999SOL    HW129633   2.968   0.175  11.277 -0.4778  1.9009  0.3266
 5999SOL    HW229634   3.060   0.098  11.184  1.2095 -0.5709  2.0723
 6000SOL     OW29635   2.306   3.556   9.342 -0.0201  0.4052 -0.4677
 6000SOL    HW129636   2.263   3.640   9.326 -1.0305  0.0360  0.3815
 6000SOL    HW229637   2.387   3.595   9.376  0.8498 -2.1874  0.4516
 6001SOL     OW29638   0.941   2.406   4.798  0.0129 -0.2556 -0.2532
 6001SOL    HW129639   0.997   2.443   4.730 -0.6738  2.3553  0.5881
 6001SOL    HW229640   0.990   2.428   4.877  1.1230 -0.3277 -0.9247
 6002SOL     OW29641   3.104   0.786   4.627  0.1779  0.1670  0.0768
 6002SOL    HW129642   3.053   0.831   4.695  0.2933 -1.1870  1.0680
 6002SOL    HW229643   3.045   0.784   4.552  0.5588 -0.8389 -0.2013
 6003SOL     OW29644   1.301   3.379   9.810 -0.1720  0.1503  0.4771
 6003SOL    HW129645   1.293   3.473   9.795  1.9463  0.5890  2.1809
 6003SOL    HW229646   1.360   3.360   9.737 -0.3364  1.8308 -0.0824
 6004SOL     OW29647   1.315   2.062   4.729  0.1244  0.4145  0.4062
 6004SOL    HW129648   1.222   2.046   4.713  0.7382 -1.6550 -1.1603
 6004SOL    HW229649   1.351   1.978   4.699  1.3711  0.1881  2.5516
 6005SOL     OW29650   4.394   4.670   6.761 -0.0054  0.5297 -0.4664
 6005SOL    HW129651   4.426   4.602   6.701 -1.2056  0.6914 -1.2827
 6005SOL    HW229652   4.419   4.636   6.846 -0.3963 -0.8878 -0.9308
 6006SOL     OW29653   4.002   1.511   2.533 -0.2241  0.5168 -0.0929
 6006SOL    HW129654   4.045   1.519   2.618 -1.9787  1.9352  0.6568
 6006SOL    HW229655   4.066   1.456   2.489 -0.2754  1.0616 -0.8665
 6007SOL     OW29656   3.045   1.007   2.744 -0.3390 -0.3366  1.0054
 6007SOL    HW129657   3.031   0.914   2.726  0.2809 -0.4229  0.9574
 6007SOL    HW229658   3.008   1.005   2.832  1.9129 -3.8304  1.8788
 6008SOL     OW29659   2.140   0.545  10.270  0.2888 -0.0796  0.6236
 6008SOL    HW129660   2.204   0.486  10.309  0.0777 -0.6580  0.0944
 6008SOL    HW229661   2.121   0.508  10.183 -2.7399  3.3444 -0.1625
 6009SOL     OW29662   4.145   0.410   1.729  0.5436 -0.3639 -0.3155
 6009SOL    HW129663   4.227   0.363   1.745 -2.1225 -4.9873 -0.0619
 6009SOL    HW229664   4.155   0.470   1.803 -1.0208 -1.6082  0.9011
 6010SOL     OW29665   1.875   3.999   5.406 -0.2441  0.2227  0.2570
 6010SOL    HW129666   1.847   3.949   5.329  2.6686 -0.2417 -0.5047
 6010SOL    HW229667   1.863   4.081   5.358 -0.5217  0.2074  0.2996
 6011SOL     OW29668   2.280   0.852  16.255 -0.2111 -0.4070  0.4253
 6011SOL    HW129669   2.247   0.922  16.312  2.1087  0.0501  1.2116
 6011SOL    HW229670   2.292   0.786  16.323 -0.6145 -0.2312  0.6707
 6012SOL     OW29671   2.038   1.091   1.944 -0.8297 -0.0676 -0.0741
 6012SOL    HW129672   1.991   1.023   1.896  3.1226 -2.9327  0.1881
 6012SOL    HW229673   1.997   1.171   1.910  0.3508  0.3400 -0.5438
 6013SOL     OW29674   1.995   0.228   5.462  0.2711  0.1473  0.0027
 6013SOL    HW129675   2.007   0.304   5.405 -1.0658 -0.8779 -1.6537
 6013SOL    HW229676   2.002   0.279   5.543 -0.3183  0.0922  0.0852
 6014SOL     OW29677   3.562   1.245   8.895 -0.0571 -0.2176 -0.0401
 6014SOL    HW129678   3.476   1.261   8.855  0.7337 -0.0074 -1.6283
 6014SOL    HW229679   3.618   1.290   8.832  0.2544  2.0064  1.8074
 6015SOL     OW29680   4.667   2.928   9.529 -0.2453  0.1915 -0.5896
 6015SOL    HW129681   4.727   2.882   9.470  0.5609  2.1473 -1.2926
 6015SOL    HW229682   4.588   2.875   9.517 -0.7741 -0.1290  4.2552
 6016SOL     OW29683   3.523   1.111   8.386  0.3503  0.3549 -0.3405
 6016SOL    HW129684   3.468   1.048   8.340 -0.1849  0.5420  0.0489
 6016SOL    HW229685   3.551   1.061   8.462 -0.6555 -1.4603 -1.1543
 6017SOL     OW29686   2.527   3.414   3.586 -0.0347 -0.2774 -0.2481
 6017SOL    HW129687   2.452   3.464   3.616 -0.7555 -0.9104 -0.9637
 6017SOL    HW229688   2.494   3.345   3.528 -3.0778  0.4871  0.6186
 6018SOL     OW29689   2.540   2.244   1.008  0.4617 -0.2260  0.3900
 6018SOL    HW129690   2.457   2.205   0.982  1.7515 -2.3828 -0.5488
 6018SOL    HW229691   2.513   2.297   1.083  0.2880 -0.3831  0.4373
 6019SOL     OW29692   1.311   1.215   7.284 -0.1625 -0.2980  0.3306
 6019SOL    HW129693   1.298   1.182   7.195 -0.0067  0.9547 -0.1546
 6019SOL    HW229694   1.395   1.178   7.309 -0.3065 -0.9834 -0.2077
 6020SOL     OW29695   1.652   0.406  13.274  0.1115 -0.0956  0.2284
 6020SOL    HW129696   1.671   0.328  13.325 -1.8223 -0.2090  0.7700
 6020SOL    HW229697   1.557   0.398  13.272  0.0917 -0.2207  1.9120
 6021SOL     OW29698   1.059   1.000   3.377 -0.3609 -0.5143 -0.3098
 6021SOL    HW129699   1.148   0.965   3.385 -0.0491  0.1728 -0.7822
 6021SOL    HW229700   1.073   1.068   3.311 -0.7434  1.5668  1.7080
 6022SOL     OW29701   2.174   1.227  13.265 -0.1445 -0.0437  0.1612
 6022SOL    HW129702   2.108   1.159  13.258  0.4726 -0.6588  0.2996
 6022SOL    HW229703   2.164   1.251  13.357  0.1523  0.6944  0.0103
 6023SOL     OW29704   0.650   4.576  17.741  0.2641  0.0446  0.3813
 6023SOL    HW129705   0.681   4.532   0.063 -3.9326 -2.3716  0.6674
 6023SOL    HW229706   0.576   4.518  17.723  0.1539  0.8409 -1.6681
 6024SOL     OW29707   2.684   3.792  17.539 -0.3569 -0.2549  0.2367
 6024SOL    HW129708   2.675   3.831  17.452 -0.3477 -0.0322  0.3367
 6024SOL    HW229709   2.699   3.868  17.594 -2.6902 -1.7649  2.9779
 6025SOL     OW29710   2.792   3.165  11.230 -0.0427  0.2857  0.3262
 6025SOL    HW129711   2.720   3.132  11.176  0.2287  0.3986 -0.0997
 6025SOL    HW229712   2.867   3.123  11.190 -1.4272 -2.9159  1.1044
 6026SOL     OW29713   2.221   0.385   8.804  0.4409  0.0092 -0.3000
 6026SOL    HW129714   2.176   0.305   8.829  0.0311  0.2988 -0.1290
 6026SOL    HW229715   2.268   0.412   8.882  0.7915  0.9690 -0.8514
 6027SOL     OW29716   0.824   3.837   9.682 -0.0469  0.5413 -0.0464
 6027SOL    HW129717   0.827   3.838   9.586  0.1440  1.0064 -0.0374
 6027SOL    HW229718   0.898   3.891   9.711  2.5538 -2.4295 -1.1738
 6028SOL     OW29719   2.296   2.794   3.360 -0.1791  0.8811 -0.4726
 6028SOL    HW129720   2.337   2.746   3.431  0.2371  1.3761 -0.3827
 6028SOL    HW229721   2.259   2.731   3.298  1.6140  1.8172 -2.4974
 6029SOL     OW29722   0.334   3.136  14.578 -0.2617 -0.3458 -0.2604
 6029SOL    HW129723   0.247   3.171  14.598  0.3523  0.9458  0.0845
 6029SOL    HW229724   0.349   3.178  14.493 -0.3979 -1.2246 -0.7243
 6030SOL     OW29725   0.466   3.878   3.119  0.3672 -0.3449  0.3623
 6030SOL    HW129726   0.495   3.788   3.130 -1.3792 -1.0783 -1.2287
 6030SOL    HW229727   0.451   3.875   3.025 -0.8282 -0.7744  0.5677
 6031SOL     OW29728   4.597   4.649  15.281 -0.3721 -0.4457  0.2800
 6031SOL    HW129729   4.594   4.724  15.340  1.1878  0.5944 -0.9532
 6031SOL    HW229730   4.691   4.636  15.271  0.1835  1.7831  2.7357
 6032SOL     OW29731   4.591   3.634   8.758 -0.1293 -0.3205  0.0251
 6032SOL    HW129732   4.499   3.607   8.761 -0.3947  0.9852  3.2989
 6032SOL    HW229733   4.624   3.547   8.736  0.9527 -0.4455  2.1302
 6033SOL     OW29734   0.260   0.178   2.482 -0.6249 -0.4050 -0.2743
 6033SOL    HW129735   0.230   0.116   2.415  0.2686 -0.3628 -0.7148
 6033SOL    HW229736   0.304   0.248   2.434  0.7963 -1.4816 -0.5547
 6034SOL     OW29737   1.900   0.017  11.550  0.3870 -0.0036 -0.0194
 6034SOL    HW129738   1.921   0.046  11.639  0.7907  0.3467 -0.2259
 6034SOL    HW229739   1.964   4.686  11.543 -0.5652 -0.7956 -0.6829
 6035SOL     OW29740   3.450   3.821  13.075  0.0382  0.6969  0.0310
 6035SOL    HW129741   3.499   3.902  13.087  2.3509 -0.7807  0.4467
 6035SOL    HW229742   3.374   3.840  13.019 -1.1693  0.4922  1.5989
 6036SOL     OW29743   2.919   1.538   3.076  0.0107 -0.3288 -0.6821
 6036SOL    HW129744   2.990   1.533   3.011 -0.1765  2.6146 -1.1210
 6036SOL    HW229745   2.921   1.632   3.096  0.7177 -0.7672  1.3468
 6037SOL     OW29746   0.533   1.942   8.559 -0.0469  0.3603 -0.4555
 6037SOL    HW129747   0.457   1.911   8.511 -0.2564 -1.5637  1.1422
 6037SOL    HW229748   0.586   1.979   8.488  0.1352 -0.4417 -0.7294
 6038SOL     OW29749   4.698   3.304   6.767  0.3119 -0.4266 -0.4259
 6038SOL    HW129750   4.668   3.273   6.852  1.3740  1.6943  0.7460
 6038SOL    HW229751   0.011   3.377   6.798 -0.6648 -0.6468  1.7491
 6039SOL     OW29752   0.123   4.328   6.887 -0.1007 -0.1806 -0.0691
 6039SOL    HW129753   0.160   4.365   6.807  0.7852  1.6037  1.1347
 6039SOL    HW229754   0.061   4.395   6.916  2.2087  1.5710  0.8277
 6040SOL     OW29755   0.835   2.033  15.144  0.0193  0.3144 -0.2426
 6040SOL    HW129756   0.807   2.046  15.054 -0.7445 -2.4791 -0.4242
 6040SOL    HW229757   0.787   1.952  15.161  0.3988  0.3541  1.0378
 6041SOL     OW29758   1.277   3.542  15.771  0.1040  0.1879  0.1795
 6041SOL    HW129759   1.258   3.479  15.701 -2.0710 -1.7202  2.4965
 6041SOL    HW229760   1.273   3.477  15.841 -0.5438 -0.1622 -0.1834
 6042SOL     OW29761   0.857   3.602   1.705 -0.1764  0.3233  0.0410
 6042SOL    HW129762   0.938   3.593   1.756 -0.9726 -1.2802  1.0289
 6042SOL    HW229763   0.812   3.657   1.769 -1.5192 -0.9717  0.2026
 6043SOL     OW29764   3.403   0.628   7.005  0.4715  0.2095  0.3939
 6043SOL    HW129765   3.338   0.618   7.073 -0.9506  0.1847 -0.9679
 6043SOL    HW229766   3.481   0.638   7.059  0.3777 -0.5052  0.6545
 6044SOL     OW29767   1.891   4.172   7.142  0.0273 -0.2745 -0.0192
 6044SOL    HW129768   1.797   4.182   7.125 -0.1498 -1.4080  0.2581
 6044SOL    HW229769   1.873   4.202   7.231 -2.0422  1.9473 -1.1607
 6045SOL     OW29770   0.496   2.146   7.114 -0.0857 -0.2559 -0.1482
 6045SOL    HW129771   0.429   2.149   7.182  0.7996  0.7238  0.6718
 6045SOL    HW229772   0.542   2.064   7.131  0.2995  0.3498  1.6601
 6046SOL     OW29773   0.536   4.072   7.049 -0.7986  0.1385 -0.3074
 6046SOL    HW129774   0.628   4.088   7.027 -0.2573 -2.0247  0.3550
 6046SOL    HW229775   0.503   4.161   7.057  0.2156  0.5091 -0.2721
 6047SOL     OW29776   4.314   3.199   2.722 -0.4712  0.0417 -0.2128
 6047SOL    HW129777   4.399   3.239   2.743 -0.3132  0.4999 -1.7303
 6047SOL    HW229778   4.306   3.194   2.627  0.4962  1.1782 -0.3631
 6048SOL     OW29779   1.565   3.310  13.741 -0.0069 -0.3066  0.5546
 6048SOL    HW129780   1.485   3.310  13.688  0.5360 -1.2513 -0.2591
 6048SOL    HW229781   1.605   3.233  13.701  0.7834  0.6552 -0.4957
 6049SOL     OW29782   4.450   2.179   4.923  0.0049 -0.4270 -0.0934
 6049SOL    HW129783   4.384   2.168   4.992  0.0307 -0.7955 -0.1253
 6049SOL    HW229784   4.472   2.087   4.910  0.9695 -0.3179  0.7529
 6050SOL     OW29785   2.745   1.275   8.474  0.0220  0.0469 -0.2809
 6050SOL    HW129786   2.719   1.331   8.546 -0.6485 -0.1662 -0.3593
 6050SOL    HW229787   2.659   1.236   8.458  0.0537  0.0540 -0.4698
 6051SOL     OW29788   4.261   3.091   6.714  0.5341 -0.7180 -0.1535
 6051SOL    HW129789   4.211   3.034   6.773  0.7822 -0.2399  0.5144
 6051SOL    HW229790   4.298   3.164   6.763  2.2792 -1.7724  0.1099
 6052SOL     OW29791   0.787   4.434   8.197 -0.2920  0.7065 -0.0587
 6052SOL    HW129792   0.824   4.348   8.178  2.6576  1.5181  2.1103
 6052SOL    HW229793   0.845   4.485   8.141 -0.3755  1.5470  0.6341
 6053SOL     OW29794   1.493   3.176  15.599  0.6366 -0.0002  0.2199
 6053SOL    HW129795   1.399   3.160  15.611  0.9044 -1.1949  0.6917
 6053SOL    HW229796   1.489   3.130  15.515  1.1776 -2.0114  1.2939
 6054SOL     OW29797   0.948   1.276   2.745 -0.1875  0.4999  0.0402
 6054SOL    HW129798   1.018   1.211   2.752  0.2444  1.0863  1.1471
 6054SOL    HW229799   0.868   1.230   2.718 -0.3669  0.1731  1.1042
 6055SOL     OW29800   3.329   4.615   6.278 -0.2777 -0.2156 -0.2799
 6055SOL    HW129801   3.264   4.664   6.227  1.1998 -1.5565 -3.4405
 6055SOL    HW229802   3.360   4.684   6.337 -0.4348 -1.2145  0.9902
 6056SOL     OW29803   1.888   1.322   9.633  0.2426  0.5962 -0.1431
 6056SOL    HW129804   1.915   1.364   9.715 -2.0207  1.3693  0.1961
 6056SOL    HW229805   1.852   1.242   9.671  0.5121  0.5073 -0.0674
 6057SOL     OW29806   2.709   1.874   6.055  0.6745 -0.0190  0.4656
 6057SOL    HW129807   2.742   1.813   6.120 -3.6741 -1.6980  1.1243
 6057SOL    HW229808   2.619   1.842   6.046  0.4869  0.3074  1.1908
 6058SOL     OW29809   2.642   1.207  10.230  0.4399  0.1289 -0.3395
 6058SOL    HW129810   2.724   1.258  10.230  0.9509 -0.6914  0.0475
 6058SOL    HW229811   2.677   1.124  10.262  0.0270 -0.0384 -0.3334
 6059SOL     OW29812   1.050   4.440   1.116  0.5879 -0.2511  0.2426
 6059SOL    HW129813   0.987   4.380   1.077  1.2044 -0.3488 -0.6143
 6059SOL    HW229814   0.994   4.516   1.130  2.3071  1.0568  0.1001
 6060SOL     OW29815   1.707   4.697   3.130 -0.6901 -0.4500 -0.0289
 6060SOL    HW129816   1.728   0.026   3.067  0.4934 -0.1615  0.6961
 6060SOL    HW229817   1.779   4.691   3.192 -1.7847  0.8138  1.3454
 6061SOL     OW29818   0.192   4.190   0.722  0.4586  0.2379  0.6352
 6061SOL    HW129819   0.143   4.244   0.783 -2.3105  0.3292 -1.6976
 6061SOL    HW229820   0.135   4.200   0.646  1.6291 -1.5251 -0.5007
 6062SOL     OW29821   1.743   1.117   3.097  0.3394 -0.3856  0.7921
 6062SOL    HW129822   1.735   1.203   3.137 -1.8168  0.2165 -0.9040
 6062SOL    HW229823   1.708   1.129   3.008 -0.6037 -1.8491  0.9611
 6063SOL     OW29824   4.457   1.587  10.319  0.1744 -0.3100 -0.0562
 6063SOL    HW129825   4.520   1.656  10.338 -0.9249  0.9388 -0.9181
 6063SOL    HW229826   4.486   1.560  10.232 -1.5421 -0.6217 -0.5397
 6064SOL     OW29827   3.569   0.040   2.869 -0.7594 -0.2699 -0.0006
 6064SOL    HW129828   3.486   0.039   2.821 -0.0514 -2.0952 -1.2025
 6064SOL    HW229829   3.625   0.091   2.810 -0.4713 -0.7351 -0.1345
 6065SOL     OW29830   0.198   1.051   5.720 -0.1639  0.0519 -0.2192
 6065SOL    HW129831   0.166   1.051   5.810  1.8175  0.0060  0.4826
 6065SOL    HW229832   0.240   0.965   5.714 -2.2886 -1.1159  1.8706
 6066SOL     OW29833   0.166   4.034   1.009  0.2247 -0.2271  0.1290
 6066SOL    HW129834   0.133   4.099   1.070  1.0741  1.0562 -0.7804
 6066SOL    HW229835   0.261   4.044   1.013  0.3240 -1.3871  0.6006
 6067SOL     OW29836   4.182   4.508   4.424  0.4002  0.0953 -0.3702
 6067SOL    HW129837   4.238   4.511   4.502  0.3829 -3.2374 -0.2010
 6067SOL    HW229838   4.230   4.561   4.362  0.0547 -0.5220 -1.1649
 6068SOL     OW29839   3.084   4.197   3.335  0.4298 -0.0620 -0.2196
 6068SOL    HW129840   3.045   4.112   3.354  1.8684 -0.6228  0.1734
 6068SOL    HW229841   3.054   4.232   3.419  1.5625 -1.4765  0.7616
 6069SOL     OW29842   1.576   2.894   2.500 -0.4719 -0.0248 -0.4501
 6069SOL    HW129843   1.548   2.941   2.578  2.5532  0.2453  0.4886
 6069SOL    HW229844   1.642   2.960   2.476 -2.1113  0.7737 -2.7405
 6070SOL     OW29845   0.378   0.639   3.052 -0.4169  0.1872  0.0513
 6070SOL    HW129846   0.332   0.562   3.085 -0.7157  0.5272  0.4236
 6070SOL    HW229847   0.438   0.599   2.989 -1.1586  1.3541 -1.4070
 6071SOL     OW29848   3.570   2.840   6.283 -0.1060  0.0927  0.2285
 6071SOL    HW129849   3.525   2.924   6.287 -0.3960  0.0167 -1.3549
 6071SOL    HW229850   3.533   2.800   6.362 -0.3423 -0.0190  0.0619
 6072SOL     OW29851   2.058   2.397   6.929 -0.3884  0.1210 -0.6377
 6072SOL    HW129852   1.995   2.364   6.992 -0.5904  1.5184 -0.1153
 6072SOL    HW229853   2.068   2.324   6.867  1.1119 -0.5336  0.3758
 6073SOL     OW29854   2.983   0.706  12.283 -0.1412  0.4424 -0.3182
 6073SOL    HW129855   3.040   0.655  12.226  0.7399  1.8754 -0.7058
 6073SOL    HW229856   3.051   0.751  12.334 -1.6042  3.4911 -1.0993
 6074SOL     OW29857   2.381   3.699   7.671 -0.1140 -0.1356 -0.1844
 6074SOL    HW129858   2.295   3.740   7.680 -0.0482  0.3646 -1.8916
 6074SOL    HW229859   2.361   3.631   7.606  1.3475 -1.3825  0.6670
 6075SOL     OW29860   1.746   0.796   7.535  0.0051 -0.2247 -0.3164
 6075SOL    HW129861   1.654   0.819   7.551  0.4674  0.0113  2.0380
 6075SOL    HW229862   1.774   0.783   7.625 -0.0783  0.7045 -0.1576
 6076SOL     OW29863   2.358   1.092   3.283 -0.5044 -0.2263  0.4500
 6076SOL    HW129864   2.306   1.173   3.288  0.3234  0.3836 -1.0380
 6076SOL    HW229865   2.302   1.042   3.224  0.5782 -0.7816 -0.0994
 6077SOL     OW29866   2.760   3.629   8.952  0.1579  0.2207  0.2898
 6077SOL    HW129867   2.832   3.581   8.912  0.3048  0.3915  0.3491
 6077SOL    HW229868   2.694   3.644   8.883 -1.2501  2.7352  2.1586
 6078SOL     OW29869   3.909   0.147  16.720 -0.4024  0.1701 -0.4777
 6078SOL    HW129870   3.982   0.191  16.676  1.6459 -1.1736  1.5675
 6078SOL    HW229871   3.967   0.119  16.791 -2.5061 -0.9733  0.7837
 6079SOL     OW29872   1.487   3.888   8.241  0.1914 -0.3906  0.1061
 6079SOL    HW129873   1.448   3.925   8.161 -2.4199  1.9639  2.5003
 6079SOL    HW229874   1.431   3.815   8.264 -2.4270  1.4807 -0.3487
 6080SOL     OW29875   4.233   2.327   2.769 -0.1310 -0.3406 -0.6068
 6080SOL    HW129876   4.190   2.264   2.711  0.1746 -1.4322  0.3571
 6080SOL    HW229877   4.256   2.402   2.714 -0.4560  0.7206  0.7314
 6081SOL     OW29878   2.058   2.172   9.110 -0.6265  0.8058  1.0233
 6081SOL    HW129879   2.132   2.207   9.060 -1.1429  0.4732  0.0223
 6081SOL    HW229880   2.001   2.250   9.113 -0.4366  1.0398 -1.0443
 6082SOL     OW29881   0.634   2.664  17.463 -0.0652  0.6618 -0.5048
 6082SOL    HW129882   0.627   2.570  17.446  3.2202  0.4977 -0.9665
 6082SOL    HW229883   0.542   2.687  17.469 -0.4859 -1.4035  0.8732
 6083SOL     OW29884   1.449   3.576  14.824  0.6115 -0.3709  0.1537
 6083SOL    HW129885   1.526   3.599  14.877  0.9531 -1.6518  0.2241
 6083SOL    HW229886   1.443   3.655  14.771 -0.6082 -0.9099 -0.4907
 6084SOL     OW29887   4.431   0.555   2.221 -0.4911 -0.4957  0.5835
 6084SOL    HW129888   4.500   0.495   2.251 -1.3780 -1.5610  0.5217
 6084SOL    HW229889   4.406   0.520   2.136 -0.0901 -0.3313  0.3997
 6085SOL     OW29890   0.929   3.430  10.291  0.1373 -0.0849  0.3530
 6085SOL    HW129891   0.915   3.502  10.352  0.7510 -1.9047  2.6411
 6085SOL    HW229892   0.916   3.471  10.205 -1.8671  0.5557  0.9789
 6086SOL     OW29893   0.627   1.659   8.342  0.0834  0.2044  0.8109
 6086SOL    HW129894   0.644   1.585   8.283 -1.8873  2.1992 -2.2680
 6086SOL    HW229895   0.544   1.690   8.306 -1.0155 -1.0224  2.2615
 6087SOL     OW29896   1.902   4.645   7.134 -0.1144  0.2425 -0.1262
 6087SOL    HW129897   1.927   4.730   7.097  1.5693  0.6117  1.8986
 6087SOL    HW229898   1.908   4.591   7.055 -1.0045  1.7539 -1.2355
 6088SOL     OW29899   3.594   3.319   6.553  0.0274 -0.3736  0.0653
 6088SOL    HW129900   3.588   3.367   6.470 -2.9409  0.8142  0.9771
 6088SOL    HW229901   3.666   3.362   6.600  0.7973  0.6594 -2.0523
 6089SOL     OW29902   0.389   1.530   5.222  0.1794  0.5008 -0.0421
 6089SOL    HW129903   0.425   1.445   5.199  0.4777  0.7130 -0.3735
 6089SOL    HW229904   0.458   1.591   5.196  0.8953 -0.9303 -1.5240
 6090SOL     OW29905   2.718   1.971   5.798 -0.1310 -0.4979 -0.1957
 6090SOL    HW129906   2.695   1.902   5.861 -1.3715  0.7773  0.7456
 6090SOL    HW229907   2.801   1.932   5.771  0.9232  0.5423  1.4997
 6091SOL     OW29908   2.878   1.470   2.285 -0.2247 -0.6962 -0.3903
 6091SOL    HW129909   2.945   1.410   2.318 -0.6738 -0.2024  1.4083
 6091SOL    HW229910   2.836   1.409   2.226 -0.1141  1.9045 -3.1750
 6092SOL     OW29911   1.019   4.559  10.418  0.2589 -0.1007 -0.0772
 6092SOL    HW129912   0.950   4.509  10.462  0.1048  0.3311  0.1724
 6092SOL    HW229913   1.007   4.642  10.463  0.1884 -0.2962  0.2647
 6093SOL     OW29914   3.898   1.524   4.593 -0.4899  0.2277 -0.0583
 6093SOL    HW129915   3.914   1.618   4.602  0.3770 -0.0538  1.3039
 6093SOL    HW229916   3.813   1.513   4.638 -0.5845  1.1279 -0.0130
 6094SOL     OW29917   4.356   1.925  10.887 -0.4345  0.1977  0.0370
 6094SOL    HW129918   4.430   1.866  10.876  0.4088  1.1380  0.6599
 6094SOL    HW229919   4.275   1.875  10.878  0.9029 -2.0435  0.4335
 6095SOL     OW29920   3.898   2.743  16.509  0.2062  0.3421 -0.3554
 6095SOL    HW129921   3.934   2.747  16.597 -2.4141  0.7405  0.6904
 6095SOL    HW229922   3.914   2.825  16.462 -1.1168  0.4458 -0.6253
 6096SOL     OW29923   1.186   3.909   7.594 -0.5334 -0.0353  0.5317
 6096SOL    HW129924   1.146   3.841   7.649 -1.6098 -2.0928 -2.7711
 6096SOL    HW229925   1.124   3.982   7.598 -0.4829  0.1786 -2.6742
 6097SOL     OW29926   1.227   2.657   4.932  0.1783 -0.2338 -0.0475
 6097SOL    HW129927   1.183   2.579   4.967  0.7436 -0.4862  0.1090
 6097SOL    HW229928   1.180   2.661   4.849 -0.8097 -0.1717  0.5188
 6098SOL     OW29929   0.502   1.582   6.860  0.1259 -0.0135  0.4729
 6098SOL    HW129930   0.534   1.670   6.841 -2.3368  0.5732 -0.9943
 6098SOL    HW229931   0.579   1.531   6.835 -0.9130 -1.3614 -0.0088
 6099SOL     OW29932   0.747   0.433   8.440 -0.4428  0.8592 -0.2045
 6099SOL    HW129933   0.771   0.389   8.522 -2.0687  2.9778  1.4206
 6099SOL    HW229934   0.815   0.501   8.431 -1.0510  1.3148 -1.3027
 6100SOL     OW29935   3.209   0.758  16.341  0.3147  0.5590  0.2710
 6100SOL    HW129936   3.151   0.759  16.417  0.0481  3.4575  0.0136
 6100SOL    HW229937   3.163   0.711  16.271 -0.8098  2.9089 -0.5699
 6101SOL     OW29938   2.252   2.938   9.561  0.3249  0.3307 -0.1580
 6101SOL    HW129939   2.242   2.860   9.615  2.1336  1.2724  1.5317
 6101SOL    HW229940   2.224   2.910   9.474 -0.3074 -1.4126  0.6049
 6102SOL     OW29941   0.856   3.651   0.568 -0.6915  0.1390 -0.0718
 6102SOL    HW129942   0.873   3.701   0.488  0.3168  0.2373  0.2034
 6102SOL    HW229943   0.772   3.690   0.593 -0.6784  0.1774 -0.0879
 6103SOL     OW29944   1.001   3.770   1.532 -0.1467 -0.2084 -0.5513
 6103SOL    HW129945   0.947   3.708   1.582  2.6963 -2.6604 -0.5221
 6103SOL    HW229946   1.061   3.704   1.497  1.7541  1.2920 -0.1284
 6104SOL     OW29947   3.307   1.862   7.788  0.6320  0.5095 -0.2272
 6104SOL    HW129948   3.262   1.836   7.868 -1.9979  1.3436 -1.4392
 6104SOL    HW229949   3.396   1.870   7.821  0.1742  0.0713  1.0936
 6105SOL     OW29950   4.013   3.167   2.995  0.4702 -0.4027 -0.0579
 6105SOL    HW129951   3.991   3.254   3.027  2.0641  0.0245 -0.1237
 6105SOL    HW229952   3.970   3.110   3.058  1.8918  0.8414  2.0374
 6106SOL     OW29953   2.508   2.272   1.394  0.3807 -0.4928  0.3069
 6106SOL    HW129954   2.417   2.289   1.368 -0.2796 -0.8289  2.3768
 6106SOL    HW229955   2.549   2.254   1.310  0.3679 -1.5505  0.5333
 6107SOL     OW29956   1.321   2.583   8.855 -0.0423  0.1533  0.0053
 6107SOL    HW129957   1.262   2.658   8.843  0.7635  1.1039  1.8971
 6107SOL    HW229958   1.260   2.515   8.881 -0.5612  0.9285  0.8478
 6108SOL     OW29959   2.308   1.268   1.207  0.0472  0.0058  0.2484
 6108SOL    HW129960   2.363   1.244   1.132 -2.5429 -2.1589 -0.9585
 6108SOL    HW229961   2.300   1.362   1.193 -0.3028  0.1984  1.6918
 6109SOL     OW29962   3.524   3.478   6.335 -0.8167  0.7559 -0.0565
 6109SOL    HW129963   3.568   3.549   6.381 -1.2822  0.3738  0.9873
 6109SOL    HW229964   3.436   3.511   6.353  0.0527  2.8620  0.2731
 6110SOL     OW29965   2.259   3.051  16.856 -0.4496 -0.4700  0.5805
 6110SOL    HW129966   2.276   2.993  16.782 -1.2479  1.0758 -0.8350
 6110SOL    HW229967   2.269   3.143  16.832 -5.6475  0.2862  1.2201
 6111SOL     OW29968   0.083   0.077   3.359  0.1553  0.1890 -0.0501
 6111SOL    HW129969   0.041   0.014   3.417 -0.4134  0.1549 -0.4971
 6111SOL    HW229970   0.093   0.026   3.278  5.1110 -0.3060  0.8806
 6112SOL     OW29971   1.487   0.051   7.707 -0.0537 -0.4071 -0.0040
 6112SOL    HW129972   1.448   0.053   7.795 -0.4498  1.2401 -0.2236
 6112SOL    HW229973   1.413   0.092   7.661  0.7738 -0.3461 -1.2524
 6113SOL     OW29974   2.921   1.367   9.288  0.1328 -0.1816 -0.3929
 6113SOL    HW129975   3.005   1.365   9.333 -0.1845 -2.2507  0.1313
 6113SOL    HW229976   2.897   1.460   9.289 -0.2025 -0.2674 -0.3067
 6114SOL     OW29977   1.459   0.570   7.257 -0.2104 -0.1611  0.4745
 6114SOL    HW129978   1.458   0.653   7.210  0.8495  0.9416  2.4015
 6114SOL    HW229979   1.528   0.524   7.210  1.0970  1.5357  0.7563
 6115SOL     OW29980   1.242   4.703   6.471  0.6198 -0.3169  0.1038
 6115SOL    HW129981   1.176   4.661   6.416  1.2164 -3.6278  1.9161
 6115SOL    HW229982   1.312   4.715   6.408 -2.1034  2.0086 -2.5047
 6116SOL     OW29983   0.454   0.789  10.606  0.4519  0.0557  0.3990
 6116SOL    HW129984   0.465   0.738  10.686  0.5274 -0.9322 -0.2438
 6116SOL    HW229985   0.540   0.783  10.564  1.0279 -0.2018  1.6082
 6117SOL     OW29986   4.491   2.406   4.317  0.3336  0.0219  0.2014
 6117SOL    HW129987   4.552   2.401   4.391 -0.8911 -0.0789  1.2051
 6117SOL    HW229988   4.530   2.465   4.252  3.0663 -1.4348  0.5166
 6118SOL     OW29989   2.486   3.697  12.895  0.0498  0.3398 -0.5372
 6118SOL    HW129990   2.433   3.679  12.972 -0.7174  0.3576 -1.0671
 6118SOL    HW229991   2.419   3.701  12.827 -1.6102  0.9974  1.1590
 6119SOL     OW29992   0.616   3.577   8.383  0.6367  0.1688 -0.0884
 6119SOL    HW129993   0.689   3.612   8.435 -0.3215 -1.0306  2.0611
 6119SOL    HW229994   0.541   3.590   8.441  0.9554  3.2571 -0.3407
 6120SOL     OW29995   4.225   0.402  10.265  0.5871 -0.1429  0.1924
 6120SOL    HW129996   4.165   0.474  10.286  1.3632  1.2604 -2.4041
 6120SOL    HW229997   4.248   0.427  10.176  1.0508  3.7032  1.4121
 6121SOL     OW29998   2.041   0.440   5.670 -0.5343  0.4862 -0.2411
 6121SOL    HW129999   2.117   0.422   5.725  0.0364 -1.6583 -1.7587
 6121SOL    HW230000   2.077   0.508   5.613 -3.6447  1.6435 -0.8263
 6122SOL     OW30001   0.422   1.905  14.759  0.4765  0.2336 -0.8419
 6122SOL    HW130002   0.449   1.882  14.848 -0.5047 -0.3408 -0.6892
 6122SOL    HW230003   0.496   1.860  14.717 -0.5064 -0.0920 -2.2195
 6123SOL     OW30004   2.753   3.216   5.334  0.0505  0.2978  1.1685
 6123SOL    HW130005   2.713   3.136   5.299  2.2767  0.1548 -1.0371
 6123SOL    HW230006   2.684   3.282   5.334  1.3433  1.6572 -0.2668
 6124SOL     OW30007   0.168   0.416  10.961 -0.4334  0.5376 -0.0899
 6124SOL    HW130008   0.140   0.508  10.955  1.9890  1.5237  3.2726
 6124SOL    HW230009   0.253   0.425  10.919  0.0518 -0.5410  0.6564
 6125SOL     OW30010   2.687   1.445   3.600 -0.2775  0.0015 -0.3762
 6125SOL    HW130011   2.760   1.469   3.543  0.1369  0.4587  0.3557
 6125SOL    HW230012   2.612   1.451   3.540 -0.0284 -0.1290 -0.7024
 6126SOL     OW30013   2.285   4.631   7.214 -0.8312  0.1714  0.0574
 6126SOL    HW130014   2.375   4.623   7.244 -0.3604  1.2585 -1.0651
 6126SOL    HW230015   2.274   4.568   7.143  1.5877 -1.4638  1.1164
 6127SOL     OW30016   1.333   0.607   6.358 -0.2259 -0.5923  0.4826
 6127SOL    HW130017   1.406   0.653   6.317  0.4579 -2.1816 -0.0548
 6127SOL    HW230018   1.378   0.547   6.416 -0.2005  0.0061  1.0878
 6128SOL     OW30019   0.068   2.874  14.742  0.1340 -0.1699  0.3461
 6128SOL    HW130020   0.051   2.780  14.754  1.5854 -0.7088 -1.8880
 6128SOL    HW230021   4.721   2.912  14.727  0.6124  0.4895 -0.7688
 6129SOL     OW30022   3.769   1.820   7.268  0.4179 -0.1131 -0.3325
 6129SOL    HW130023   3.798   1.818   7.177  1.6020  0.1457  0.0393
 6129SOL    HW230024   3.841   1.769   7.304  0.2015 -1.0564 -1.2377
 6130SOL     OW30025   2.152   1.145   0.356 -0.5112  0.4727 -0.0613
 6130SOL    HW130026   2.115   1.095   0.283  0.3235  0.0743 -0.2161
 6130SOL    HW230027   2.217   1.201   0.314 -2.9752  1.3211 -2.7257
 6131SOL     OW30028   3.214   2.495   4.952 -0.1839  0.5592 -0.3827
 6131SOL    HW130029   3.124   2.478   4.922 -0.1930 -0.4099  0.1810
 6131SOL    HW230030   3.247   2.408   4.930 -1.3161  0.6126 -2.3284
 6132SOL     OW30031   0.133   1.727   2.517  0.4899 -0.3014 -0.2686
 6132SOL    HW130032   0.098   1.716   2.605  1.8531 -2.1942  0.0310
 6132SOL    HW230033   0.050   1.756   2.479 -0.1193  0.3592  1.5713
 6133SOL     OW30034   2.155   4.444   2.236 -1.2975 -0.0549  0.0883
 6133SOL    HW130035   2.174   4.359   2.275  2.2402  0.4060 -0.6144
 6133SOL    HW230036   2.209   4.434   2.157  0.9902 -1.8368  1.8973
 6134SOL     OW30037   3.130   2.388  13.208 -0.2545 -0.4506 -0.2943
 6134SOL    HW130038   3.077   2.446  13.262 -0.6954 -0.0073 -1.2043
 6134SOL    HW230039   3.111   2.421  13.120 -2.0703 -0.3185  0.1682
 6135SOL     OW30040   1.389   4.471  15.644 -0.3202 -0.4379  0.1646
 6135SOL    HW130041   1.322   4.464  15.575  1.7937  2.8688 -2.1816
 6135SOL    HW230042   1.335   4.446  15.719 -0.0795 -2.5576 -0.3578
 6136SOL     OW30043   0.782   0.978   2.082 -0.2869 -0.3132 -0.9718
 6136SOL    HW130044   0.785   0.953   2.174 -0.1673  0.8630 -0.6568
 6136SOL    HW230045   0.693   1.013   2.079 -0.9108 -1.7436  1.9051
 6137SOL     OW30046   2.445   3.771   4.287 -0.2722 -0.0830  0.0364
 6137SOL    HW130047   2.402   3.801   4.367  0.3385  0.7111  0.0700
 6137SOL    HW230048   2.496   3.849   4.263  1.0347 -0.4084  1.7479
 6138SOL     OW30049   1.768   3.514   8.511 -0.3358 -0.5128  0.2476
 6138SOL    HW130050   1.796   3.569   8.438 -1.0654 -0.0652  0.3015
 6138SOL    HW230051   1.674   3.503   8.496 -0.0679 -0.1596 -1.6679
 6139SOL     OW30052   4.193   2.524   6.556 -0.8005 -0.0660 -0.1600
 6139SOL    HW130053   4.207   2.619   6.556 -1.0730 -0.0284 -0.7752
 6139SOL    HW230054   4.193   2.528   6.461  2.9206 -0.3925 -0.1583
 6140SOL     OW30055   3.752   1.774   3.749 -0.4716  0.0889 -0.3357
 6140SOL    HW130056   3.735   1.733   3.664  2.0438  1.1184 -1.3453
 6140SOL    HW230057   3.836   1.818   3.733 -0.6838  0.5472 -0.1924
 6141SOL     OW30058   0.779   2.535  16.675 -0.0429  0.0474 -0.2956
 6141SOL    HW130059   0.871   2.560  16.687 -0.4670  0.4948  1.9325
 6141SOL    HW230060   0.768   2.573  16.588 -1.6609  3.2575  1.3500
 6142SOL     OW30061   3.299   0.035   1.120  0.3765 -0.0791 -0.3231
 6142SOL    HW130062   3.331   0.117   1.080 -3.0512  1.8495  0.8730
 6142SOL    HW230063   3.300   4.713   1.047 -2.3253  0.0218 -0.4410
 6143SOL     OW30064   2.290   3.765  15.323 -0.5233 -0.0377  0.2154
 6143SOL    HW130065   2.255   3.746  15.236  0.7530  0.0720 -0.3192
 6143SOL    HW230066   2.378   3.727  15.316 -0.6142 -0.4729  1.5006
 6144SOL     OW30067   0.011   1.843   7.909 -0.1335 -0.4586  0.1090
 6144SOL    HW130068   0.062   1.919   7.881 -0.2171 -0.4020  0.1097
 6144SOL    HW230069   0.072   1.793   7.962  0.5543  0.7377  0.4351
 6145SOL     OW30070   3.082   0.407   6.730  0.0609  0.6325 -0.0844
 6145SOL    HW130071   3.086   0.390   6.824 -3.8470 -1.7696 -0.3483
 6145SOL    HW230072   3.162   0.358   6.711 -0.1106 -0.1114  1.0844
 6146SOL     OW30073   0.281   2.291  10.212  0.1475 -0.4202  0.2341
 6146SOL    HW130074   0.248   2.251  10.132 -1.1499  1.0755  0.0251
 6146SOL    HW230075   0.371   2.296  10.180 -0.8678  0.4232 -2.4780
 6147SOL     OW30076   2.690   3.412   5.560 -0.1599  0.4408 -0.5087
 6147SOL    HW130077   2.683   3.508   5.560  0.5385  0.4916 -0.6442
 6147SOL    HW230078   2.620   3.394   5.622  0.0704  3.2748  0.6083
 6148SOL     OW30079   0.492   4.199   8.082 -0.9182 -0.1438 -0.1611
 6148SOL    HW130080   0.415   4.169   8.129 -0.6866 -0.2921  0.1221
 6148SOL    HW230081   0.492   4.288   8.118  1.7503 -1.1133  2.2568
 6149SOL     OW30082   1.689   1.582   7.215  0.4498 -0.1373  0.0108
 6149SOL    HW130083   1.687   1.664   7.265 -0.6195  0.2192 -0.6162
 6149SOL    HW230084   1.596   1.560   7.221  0.0272  0.8864 -3.0316
 6150SOL     OW30085   0.015   0.090   9.921  0.4519 -0.4166 -0.1240
 6150SOL    HW130086   4.663   0.117   9.917  0.3798 -0.6342  0.0531
 6150SOL    HW230087   0.031   0.072   9.829 -1.8689  1.9860 -0.9871
 6151SOL     OW30088   2.842   0.849   0.502  0.4895 -0.1351 -0.3642
 6151SOL    HW130089   2.770   0.819   0.447 -1.2181  0.3077  1.6442
 6151SOL    HW230090   2.912   0.846   0.436  1.6243 -0.2590  0.8400
 6152SOL     OW30091   0.736   3.483   7.584 -0.3382 -0.0500  0.3578
 6152SOL    HW130092   0.672   3.453   7.648 -2.8006  2.9428 -0.7053
 6152SOL    HW230093   0.706   3.573   7.573  3.6241  1.0150 -1.7092
 6153SOL     OW30094   3.071   2.526   3.656  0.8562  0.0368 -0.1041
 6153SOL    HW130095   3.025   2.585   3.596 -0.4582  0.1542  1.0090
 6153SOL    HW230096   3.026   2.537   3.740  1.4519 -0.8332  0.3246
 6154SOL     OW30097   2.710   4.691   3.197 -0.0098 -0.5511  0.3255
 6154SOL    HW130098   2.695   4.599   3.177 -0.7475 -0.3413 -0.0806
 6154SOL    HW230099   2.766   4.684   3.274  1.1050  0.4403 -0.3715
 6155SOL     OW30100   2.242   0.424   6.214 -0.1055 -0.2605 -0.3050
 6155SOL    HW130101   2.157   0.458   6.243  0.1864 -0.0602  0.3329
 6155SOL    HW230102   2.295   0.462   6.284 -2.6305 -0.8000  1.9115
 6156SOL     OW30103   0.918   2.129   6.436 -0.0590 -0.0087 -0.0893
 6156SOL    HW130104   0.936   2.063   6.369  1.9396 -1.3344  1.7282
 6156SOL    HW230105   0.848   2.184   6.402 -0.4850  0.2870  1.2655
 6157SOL     OW30106   1.182   4.711   7.093 -0.2053  0.6470 -0.0174
 6157SOL    HW130107   1.234   4.674   7.022  0.9712  1.0869  0.6258
 6157SOL    HW230108   1.123   0.034   7.051 -0.5622 -0.0048 -0.4962
 6158SOL     OW30109   3.855   2.198   2.110 -0.3639  0.2876 -0.2169
 6158SOL    HW130110   3.908   2.259   2.160  0.1740 -1.4498  1.3387
 6158SOL    HW230111   3.846   2.126   2.173 -0.4282 -1.2062 -1.9253
 6159SOL     OW30112   4.626   2.676   1.558 -0.1506  0.0950  0.2880
 6159SOL    HW130113   4.613   2.751   1.618  0.6371 -0.9755  1.7975
 6159SOL    HW230114   4.550   2.698   1.505  1.0636  1.8094 -0.7702
 6160SOL     OW30115   0.380   3.360   5.038  0.6557 -0.0870 -0.2474
 6160SOL    HW130116   0.398   3.450   5.065  1.6567 -0.7568  1.3405
 6160SOL    HW230117   0.295   3.344   5.080  1.2219  1.3874  1.4746
 6161SOL     OW30118   1.987   4.282   4.540 -0.4307 -0.0388 -0.2783
 6161SOL    HW130119   2.042   4.228   4.597 -0.8919 -0.4789 -0.2446
 6161SOL    HW230120   1.909   4.226   4.540 -0.6087  0.2053  0.0377
 6162SOL     OW30121   2.452   0.420   1.081  0.2967 -0.1776  0.0440
 6162SOL    HW130122   2.449   0.406   1.175 -1.7432  0.3553  0.0545
 6162SOL    HW230123   2.379   0.482   1.081 -0.4971 -1.1105  0.6541
 6163SOL     OW30124   1.993   4.385   3.245  0.1893  0.0531 -0.3506
 6163SOL    HW130125   1.917   4.419   3.292 -0.0854  1.2963 -1.6929
 6163SOL    HW230126   2.064   4.445   3.268  0.7865 -1.6020  2.1305
 6164SOL     OW30127   0.871   3.143  17.346 -0.1549 -0.0213 -0.2951
 6164SOL    HW130128   0.827   3.228  17.337 -1.3533 -0.6771 -0.5770
 6164SOL    HW230129   0.803   3.076  17.342 -0.5028  0.5229 -3.4882
 6165SOL     OW30130   2.361   3.221   3.800  0.2446 -0.0981  0.6199
 6165SOL    HW130131   2.318   3.224   3.715  1.1550  2.4421  0.2466
 6165SOL    HW230132   2.289   3.236   3.861 -0.2991  1.7094 -0.4771
 6166SOL     OW30133   0.550   2.808   4.111  0.4448 -0.4538 -0.3636
 6166SOL    HW130134   0.543   2.775   4.021 -0.9675  0.7414 -0.6962
 6166SOL    HW230135   0.591   2.737   4.161 -0.7748 -1.0409 -0.2104
 6167SOL     OW30136   2.863   2.882  13.300 -0.2233 -0.7700  0.4465
 6167SOL    HW130137   2.865   2.947  13.370  1.6270 -0.5671  0.2085
 6167SOL    HW230138   2.770   2.883  13.280  0.0408  1.6302 -0.6601
 6168SOL     OW30139   3.956   0.926   4.937  0.3077 -0.3445  0.0683
 6168SOL    HW130140   3.871   0.890   4.912  2.0729 -3.5282 -1.2446
 6168SOL    HW230141   4.004   0.927   4.855  1.0272  0.5467  0.4986
 6169SOL     OW30142   3.314   3.179   1.887 -0.2089  0.5642  0.5020
 6169SOL    HW130143   3.239   3.170   1.829  0.1963  0.1847  0.0336
 6169SOL    HW230144   3.355   3.249   1.835 -2.7381 -0.1467 -2.4180
 6170SOL     OW30145   3.314   1.450   9.175  0.0643 -0.2984 -0.0311
 6170SOL    HW130146   3.292   1.533   9.217  0.5168  0.1562 -0.7032
 6170SOL    HW230147   3.270   1.472   9.093  2.9275  1.3492 -1.1176
 6171SOL     OW30148   0.412   2.827  11.527  0.4786  0.5714 -0.2151
 6171SOL    HW130149   0.385   2.908  11.570 -1.6818  0.9492 -2.2633
 6171SOL    HW230150   0.393   2.764  11.597 -0.4232  1.6484  0.5008
 6172SOL     OW30151   2.468   1.030   5.612 -0.1610  0.9026 -0.3613
 6172SOL    HW130152   2.380   1.031   5.649 -0.3022 -2.0584 -0.6447
 6172SOL    HW230153   2.477   1.125   5.608  2.3505  0.6618 -0.5901
 6173SOL     OW30154   3.697   2.655  10.614  0.4597  0.3358  1.1081
 6173SOL    HW130155   3.751   2.585  10.577 -1.2686  0.5025 -1.6818
 6173SOL    HW230156   3.643   2.610  10.678 -0.0060  0.2805  0.6782
 6174SOL     OW30157   2.479   0.810   8.221  0.0011  0.3507  0.5750
 6174SOL    HW130158   2.455   0.765   8.302  0.2559 -0.4047  0.2291
 6174SOL    HW230159   2.418   0.883   8.226 -1.0333 -0.5731  1.3959
 6175SOL     OW30160   2.181   2.838  16.998  0.1971 -0.0802 -0.3756
 6175SOL    HW130161   2.093   2.858  16.965  0.5436 -1.5253 -2.2046
 6175SOL    HW230162   2.227   2.909  16.953  0.6353  0.6261  1.2028
 6176SOL     OW30163   1.763   4.489   9.140  0.5222 -0.0505  0.1194
 6176SOL    HW130164   1.749   4.467   9.232 -0.1835 -0.9528 -0.2027
 6176SOL    HW230165   1.833   4.426   9.120 -0.9980 -1.5909 -0.3277
 6177SOL     OW30166   1.653   4.317   8.172  0.1789 -0.3474  0.2354
 6177SOL    HW130167   1.741   4.327   8.207  0.6320 -0.7950 -0.7775
 6177SOL    HW230168   1.665   4.240   8.118 -1.5703  0.5294 -1.4122
 6178SOL     OW30169   4.045   3.738   2.561  0.0400  0.2393  0.5285
 6178SOL    HW130170   3.990   3.670   2.522 -0.2040  0.3279  0.7212
 6178SOL    HW230171   4.063   3.802   2.491  1.5487  0.8701  1.4814
 6179SOL     OW30172   3.591   2.898   2.149 -0.4386 -0.0274 -0.5129
 6179SOL    HW130173   3.677   2.920   2.114 -0.8400 -0.7834 -1.9721
 6179SOL    HW230174   3.622   2.910   2.239  0.9881  1.1582 -1.1543
 6180SOL     OW30175   1.479   2.189  11.445 -0.0265  0.5653  0.1479
 6180SOL    HW130176   1.511   2.101  11.466  2.1114  1.1375 -0.7068
 6180SOL    HW230177   1.519   2.198  11.358  1.8082  1.7125  1.1022
 6181SOL     OW30178   2.186   0.263   0.793  0.0762 -0.3418  0.0438
 6181SOL    HW130179   2.170   0.185   0.739  0.9813  0.7296 -1.7738
 6181SOL    HW230180   2.183   0.331   0.726 -2.0991 -0.9785 -0.4962
 6182SOL     OW30181   2.500   3.556   0.131  0.1350 -0.3814 -0.0887
 6182SOL    HW130182   2.564   3.528   0.197  0.1498  0.1578  0.1191
 6182SOL    HW230183   2.446   3.616   0.182  2.3270 -0.3452  2.1614
 6183SOL     OW30184   3.987   2.655   5.493 -0.0196 -0.0305  0.1248
 6183SOL    HW130185   4.053   2.653   5.562 -1.1905  2.2400  1.3041
 6183SOL    HW230186   4.036   2.699   5.423 -2.6240  1.6034 -0.6787
 6184SOL     OW30187   3.781   2.678   9.321  0.0274  0.0056 -0.5370
 6184SOL    HW130188   3.814   2.588   9.322 -0.0879 -0.0513 -2.1076
 6184SOL    HW230189   3.861   2.730   9.307 -0.2543  0.2535 -1.2207
 6185SOL     OW30190   3.512   0.884   8.891  0.2435  0.0923  0.1805
 6185SOL    HW130191   3.424   0.847   8.888  2.0613 -4.3210  1.2562
 6185SOL    HW230192   3.547   0.808   8.938  1.5863  0.8505  0.4005
 6186SOL     OW30193   1.188   4.470   8.418  0.1341  1.0111  0.2142
 6186SOL    HW130194   1.102   4.510   8.432 -0.5206  0.1518 -1.4530
 6186SOL    HW230195   1.213   4.451   8.509  1.1747 -0.5685 -0.4040
 6187SOL     OW30196   3.989   3.368  11.178 -0.2186  0.3139  0.2139
 6187SOL    HW130197   3.936   3.295  11.212  0.7272 -0.0999  0.8025
 6187SOL    HW230198   4.013   3.330  11.093 -4.5956 -2.1236  0.0609
 6188SOL     OW30199   1.452   2.571   6.051 -0.3001  0.2340 -0.2097
 6188SOL    HW130200   1.498   2.652   6.027 -0.0253  0.3724  0.7834
 6188SOL    HW230201   1.366   2.593   6.016 -0.8476 -1.3865  0.1177
 6189SOL     OW30202   0.606   2.076   9.675  0.7688 -0.4550  0.3463
 6189SOL    HW130203   0.670   2.039   9.614  3.6156  0.7111  2.6602
 6189SOL    HW230204   0.576   2.152   9.624 -0.8757 -0.1248  1.8156
 6190SOL     OW30205   3.581   0.875   7.826 -0.4164 -0.2192  0.2861
 6190SOL    HW130206   3.521   0.942   7.794  1.0718  0.6914 -0.5823
 6190SOL    HW230207   3.516   0.805   7.834  0.1152 -0.7325  0.0855
 6191SOL     OW30208   0.554   2.923   3.074  0.0911 -0.0001  0.0461
 6191SOL    HW130209   0.635   2.966   3.103 -0.3250  0.8165 -0.0096
 6191SOL    HW230210   0.577   2.836   3.107 -0.5271 -0.0726  0.2877
 6192SOL     OW30211   4.195   4.218   4.385  0.1425  0.4668  0.0250
 6192SOL    HW130212   4.225   4.308   4.392 -1.6152  1.1982 -1.9439
 6192SOL    HW230213   4.244   4.187   4.461  1.8828  0.5376 -1.0744
 6193SOL     OW30214   4.603   1.070  13.888 -0.8334 -0.2793  0.0029
 6193SOL    HW130215   4.646   1.047  13.971  1.3897  1.3364 -0.6973
 6193SOL    HW230216   4.682   1.095  13.841 -0.1042  0.1518  1.4356
 6194SOL     OW30217   1.404   1.004  11.017 -0.1451 -0.3041  0.1699
 6194SOL    HW130218   1.434   0.926  10.969  1.2263  0.1284  0.3153
 6194SOL    HW230219   1.458   0.991  11.095  0.9658  0.0800 -0.5417
 6195SOL     OW30220   1.066   3.156   5.635  0.0329  0.1582 -0.6125
 6195SOL    HW130221   0.999   3.224   5.645  0.2509  0.1578  0.9226
 6195SOL    HW230222   1.111   3.196   5.562  2.2994 -0.5657  0.3837
 6196SOL     OW30223   3.938   3.096   2.744 -0.0508 -0.0489 -0.8745
 6196SOL    HW130224   3.974   3.136   2.823  1.1257 -0.4206 -1.2225
 6196SOL    HW230225   3.874   3.036   2.781  0.1082  0.5421  0.3763
 6197SOL     OW30226   1.974   3.115  12.293 -0.5423  0.0665  0.0834
 6197SOL    HW130227   2.034   3.180  12.329 -1.1865  0.1675  0.9846
 6197SOL    HW230228   1.892   3.159  12.314 -1.6577 -2.8309  1.9521
 6198SOL     OW30229   3.620   0.469   9.341 -0.3403 -0.1591  0.1663
 6198SOL    HW130230   3.653   0.404   9.404  1.7151  0.2460 -0.5163
 6198SOL    HW230231   3.527   0.451   9.358  0.0629 -1.5371  0.9028
 6199SOL     OW30232   2.169   0.873   6.048  1.4555 -0.1226 -0.4670
 6199SOL    HW130233   2.118   0.939   6.000 -2.3560 -2.0131  1.0062
 6199SOL    HW230234   2.226   0.938   6.088 -0.5058  1.3822 -0.1290
 6200SOL     OW30235   2.935   3.665   2.790 -0.3780 -0.1309 -0.6952
 6200SOL    HW130236   2.963   3.645   2.701  1.7761 -0.9896  0.1653
 6200SOL    HW230237   2.993   3.740   2.808 -1.2260  1.0368 -2.7761
 6201SOL     OW30238   1.455   1.520   1.668  0.7250 -0.3083  0.0176
 6201SOL    HW130239   1.415   1.594   1.714  0.0918  0.5777 -1.9349
 6201SOL    HW230240   1.548   1.523   1.688  0.6107  1.3171  0.2625
 6202SOL     OW30241   3.847   4.026   2.407 -0.0450 -0.1056  0.2467
 6202SOL    HW130242   3.914   4.092   2.389  0.1711 -1.0637 -2.4660
 6202SOL    HW230243   3.768   4.080   2.409 -1.0495 -1.5133 -1.1292
 6203SOL     OW30244   2.940   2.592   3.918 -0.1404  0.1040 -0.4570
 6203SOL    HW130245   2.927   2.516   3.975 -0.8575 -2.6583 -4.3676
 6203SOL    HW230246   2.997   2.636   3.981  0.1054 -0.9993  0.0944
 6204SOL     OW30247   4.462   2.652   6.329 -0.0503 -0.0478  0.0209
 6204SOL    HW130248   4.469   2.572   6.382 -0.4015 -0.6136 -0.7977
 6204SOL    HW230249   4.547   2.694   6.344 -0.5372  0.3442  1.6792
 6205SOL     OW30250   1.544   4.557   4.836  0.3827  0.0647  0.2601
 6205SOL    HW130251   1.499   4.638   4.816 -0.5897 -0.3426  0.8006
 6205SOL    HW230252   1.502   4.542   4.921  0.8783 -0.1712  0.4674
 6206SOL     OW30253   3.594   1.448  13.922  0.1698  0.0920 -0.1260
 6206SOL    HW130254   3.555   1.438  14.009  0.7478 -1.3885 -0.0390
 6206SOL    HW230255   3.682   1.424  13.950 -1.1807 -1.7723  2.5356
 6207SOL     OW30256   1.011   1.622   3.469  0.4802  0.4516 -0.3408
 6207SOL    HW130257   0.921   1.597   3.488  0.7809 -1.8324 -1.8933
 6207SOL    HW230258   1.041   1.533   3.486  0.7775  1.0362  2.2025
 6208SOL     OW30259   1.690   0.414   8.243  0.0381 -0.2262 -0.1444
 6208SOL    HW130260   1.710   0.366   8.323  0.0436 -0.9545 -0.5914
 6208SOL    HW230261   1.763   0.373   8.196  0.0537  0.4501 -0.7141
 6209SOL     OW30262   3.066   2.352   2.196  0.2989  0.0393  0.0493
 6209SOL    HW130263   3.146   2.399   2.220 -0.0673  0.5976  0.1678
 6209SOL    HW230264   3.115   2.272   2.179 -0.4080 -0.7068  1.5072
 6210SOL     OW30265   2.277   2.339   4.741  0.4111 -1.0057  1.0468
 6210SOL    HW130266   2.333   2.405   4.701 -1.3812  0.2976  0.6457
 6210SOL    HW230267   2.240   2.386   4.816  2.2768 -0.4691  1.6138
 6211SOL     OW30268   1.701   1.994   0.037 -0.0437 -0.1823 -0.1530
 6211SOL    HW130269   1.726   1.902   0.038  2.7675  0.5707 -0.5846
 6211SOL    HW230270   1.665   2.002  17.706 -0.3490  0.9331  0.0706
 6212SOL     OW30271   3.507   1.494   2.438  0.0410  0.0164  0.4247
 6212SOL    HW130272   3.588   1.466   2.480  0.3335 -2.5023 -1.8537
 6212SOL    HW230273   3.446   1.423   2.456 -1.1605  0.9513  0.0764
 6213SOL     OW30274   1.119   1.432  17.417 -0.6563  0.5854 -0.1917
 6213SOL    HW130275   1.060   1.505  17.396 -2.1421 -0.8880 -1.1133
 6213SOL    HW230276   1.189   1.480  17.461  0.1627 -1.0233  0.2427
 6214SOL     OW30277   1.266   0.096   7.896 -0.0405 -0.7501  0.4197
 6214SOL    HW130278   1.224   0.053   7.821 -0.9720 -0.2870  0.6723
 6214SOL    HW230279   1.265   0.189   7.876 -2.4554 -0.4477  1.9225
 6215SOL     OW30280   4.499   1.892   5.846  0.4086 -0.4519 -0.4284
 6215SOL    HW130281   4.547   1.815   5.815 -2.1425 -2.2252  0.0319
 6215SOL    HW230282   4.426   1.847   5.889 -1.5925  1.8818 -1.3808
 6216SOL     OW30283   2.540   2.897   8.598  0.1417  0.3205  0.2430
 6216SOL    HW130284   2.469   2.912   8.536 -0.4719 -0.6865  0.7003
 6216SOL    HW230285   2.601   2.854   8.539 -2.4372 -1.9462 -0.7843
 6217SOL     OW30286   2.026   1.582   5.484  0.2386 -0.0694 -0.3475
 6217SOL    HW130287   2.042   1.619   5.397 -0.8525  1.0199 -0.0914
 6217SOL    HW230288   1.980   1.504   5.452 -2.4194  0.0708  3.0334
 6218SOL     OW30289   1.249   0.495   2.474  0.1676  0.7711  0.3637
 6218SOL    HW130290   1.317   0.516   2.411 -1.3439  1.9261 -0.8898
 6218SOL    HW230291   1.240   0.400   2.466 -0.5170  0.9366 -0.8775
 6219SOL     OW30292   0.642   1.503   6.539 -0.0245 -0.2622  0.4378
 6219SOL    HW130293   0.602   1.446   6.473 -1.6264 -0.5158  1.6294
 6219SOL    HW230294   0.697   1.430   6.567 -1.7060 -2.0996 -1.0391
 6220SOL     OW30295   2.593   4.679   6.022 -0.4910  0.1173 -0.3618
 6220SOL    HW130296   2.550   4.733   6.088  0.6264  0.5551  0.0155
 6220SOL    HW230297   2.554   4.707   5.939 -1.3299 -2.1541 -0.7141
 6221SOL     OW30298   1.352   0.266   2.649 -0.1039 -0.6495  0.5755
 6221SOL    HW130299   1.383   0.218   2.571 -1.9921 -2.6871  1.0818
 6221SOL    HW230300   1.423   0.330   2.657 -0.4486  0.1258 -2.5382
 6222SOL     OW30301   3.483   4.216   3.077 -0.6900  0.2660  0.4385
 6222SOL    HW130302   3.433   4.140   3.048 -1.0648  0.5543  0.3191
 6222SOL    HW230303   3.466   4.223   3.171 -2.4529  0.8636  0.0910
 6223SOL     OW30304   0.954   0.366  10.499 -0.8082  0.1074  0.0426
 6223SOL    HW130305   1.042   0.331  10.484 -0.6495  0.1906  0.8002
 6223SOL    HW230306   0.945   0.411  10.415  1.1729 -0.7064 -0.6224
 6224SOL     OW30307   1.415   3.605   1.804  0.6377  0.6577  0.2990
 6224SOL    HW130308   1.450   3.608   1.715  1.4582  0.4032  0.6205
 6224SOL    HW230309   1.493   3.596   1.858  1.3075  0.2119 -0.7268
 6225SOL     OW30310   3.274   1.650   3.782  0.3101 -0.3160  0.5632
 6225SOL    HW130311   3.325   1.594   3.841  1.5258 -0.8602 -1.0084
 6225SOL    HW230312   3.327   1.730   3.785  0.8024 -0.6496  0.7068
 6226SOL     OW30313   0.937   2.004   2.388 -0.8817 -0.0761 -0.1653
 6226SOL    HW130314   0.942   2.063   2.314 -0.8279  0.8970  0.6128
 6226SOL    HW230315   0.990   1.936   2.347 -2.3755  0.0801 -2.3554
 6227SOL     OW30316   3.068   1.976   2.694  0.4969  0.2000 -0.1760
 6227SOL    HW130317   3.100   1.887   2.679 -0.3785 -0.2772  0.7641
 6227SOL    HW230318   2.976   1.958   2.674  0.9228 -2.6033  0.4281
 6228SOL     OW30319   1.413   2.392  12.135  0.0118  0.3099 -0.1630
 6228SOL    HW130320   1.346   2.326  12.156  0.0243  0.3261 -0.0718
 6228SOL    HW230321   1.437   2.418  12.223  0.4695  1.0138 -0.5007
 6229SOL     OW30322   2.358   2.084  12.621  0.3981 -0.0181 -0.3503
 6229SOL    HW130323   2.293   2.153  12.632 -2.5419 -3.1811  2.2376
 6229SOL    HW230324   2.298   2.009  12.619  1.3859 -0.7776 -1.3903
 6230SOL     OW30325   2.857   4.257  12.407 -0.2434 -0.1088 -0.6560
 6230SOL    HW130326   2.859   4.248  12.502 -1.4688 -0.1348 -0.6249
 6230SOL    HW230327   2.946   4.285  12.386 -0.6252  0.1749 -1.9001
 6231SOL     OW30328   1.832   4.301  12.056 -0.2624  0.3403 -0.1074
 6231SOL    HW130329   1.837   4.397  12.057 -3.8204  0.5822 -2.7750
 6231SOL    HW230330   1.764   4.282  11.991 -0.6946  0.3787  0.3302
 6232SOL     OW30331   2.721   0.042   8.487  0.8056  0.5825  0.3338
 6232SOL    HW130332   2.812   0.029   8.514  1.1403  0.9177 -0.6050
 6232SOL    HW230333   2.726   0.114   8.424 -2.1986 -1.1020 -1.8256
 6233SOL     OW30334   0.981   1.457   2.930 -0.0793 -0.1803  0.3075
 6233SOL    HW130335   0.925   1.411   2.991  0.6518  1.2410  2.0700
 6233SOL    HW230336   0.979   1.399   2.854  0.9734  1.2383 -0.8036
 6234SOL     OW30337   4.013   4.329   0.172  0.1691 -0.2369 -0.1363
 6234SOL    HW130338   4.091   4.382   0.186 -1.5250  1.5474  2.5522
 6234SOL    HW230339   3.962   4.331   0.253  1.5806  2.6496  0.6655
 6235SOL     OW30340   0.948   2.157   3.026 -0.2889  0.2124 -0.8253
 6235SOL    HW130341   1.020   2.214   2.999  0.2028 -0.4536 -0.9098
 6235SOL    HW230342   0.911   2.115   2.949 -0.5368  0.1697 -0.6838
 6236SOL     OW30343   3.825   0.770  15.649  0.5302  0.0829  0.5127
 6236SOL    HW130344   3.853   0.843  15.595  1.2875 -0.7998 -0.2876
 6236SOL    HW230345   3.753   0.810  15.698 -2.6060 -2.2736 -2.1182
 6237SOL     OW30346   3.661   1.251   2.140 -0.2043 -0.3333 -0.6184
 6237SOL    HW130347   3.710   1.287   2.213 -0.2231 -2.7030  0.5652
 6237SOL    HW230348   3.630   1.335   2.106 -1.3770 -0.8400 -0.7967
 6238SOL     OW30349   4.630   2.024  17.188 -0.0787 -0.1953 -0.2623
 6238SOL    HW130350   4.583   2.052  17.110  1.7866 -1.2776 -1.7820
 6238SOL    HW230351   4.563   2.026  17.256 -1.5998  2.6726 -1.8552
 6239SOL     OW30352   4.680   1.614  15.955  0.0081  0.1480 -0.1946
 6239SOL    HW130353   4.608   1.560  15.990  1.2701 -0.9948  0.6215
 6239SOL    HW230354   4.670   1.616  15.860  0.5625  1.4370 -0.2294
 6240SOL     OW30355   2.421   2.680  13.121  0.2753  0.0208  0.3495
 6240SOL    HW130356   2.414   2.585  13.124 -1.5019  0.0934 -1.0732
 6240SOL    HW230357   2.371   2.699  13.041  1.7412  2.1360 -0.0599
 6241SOL     OW30358   1.130   2.653   5.664 -0.2983 -0.1657  0.5021
 6241SOL    HW130359   1.190   2.630   5.736 -1.6583 -2.0903  1.0191
 6241SOL    HW230360   1.164   2.742   5.652  0.1479 -0.6265 -1.6000
 6242SOL     OW30361   0.630   1.050   4.700  0.3174  0.8133 -0.4960
 6242SOL    HW130362   0.608   1.081   4.788  0.6883 -0.4636  0.0511
 6242SOL    HW230363   0.669   1.132   4.670  2.0794  0.9427  2.1231
 6243SOL     OW30364   1.840   3.808   4.332  0.4103 -0.6632 -0.4800
 6243SOL    HW130365   1.807   3.898   4.330 -1.4374 -1.3521 -1.1021
 6243SOL    HW230366   1.902   3.812   4.405  0.5305 -3.3679 -0.4149
 6244SOL     OW30367   1.052   2.609  16.677 -0.5415  0.1408 -0.0402
 6244SOL    HW130368   1.086   2.659  16.603 -2.1124  1.0002 -0.1920
 6244SOL    HW230369   1.032   2.681  16.737 -0.9393  0.8251 -1.0012
 6245SOL     OW30370   2.474   0.456  13.243 -0.0873  0.3469  0.2819
 6245SOL    HW130371   2.490   0.378  13.297 -2.5241 -0.5928 -0.3623
 6245SOL    HW230372   2.489   0.526  13.306 -0.8552  1.0178 -0.2862
 6246SOL     OW30373   3.054   0.689   8.422  0.4875 -0.4130 -0.0692
 6246SOL    HW130374   2.991   0.717   8.356 -0.4609 -2.6681 -0.1209
 6246SOL    HW230375   3.022   0.718   8.507 -1.4157  5.7992 -2.9056
 6247SOL     OW30376   4.125   1.569   7.064 -0.3662  0.4492  0.0547
 6247SOL    HW130377   4.030   1.574   7.069 -0.2164  0.7219  2.6063
 6247SOL    HW230378   4.140   1.579   6.970  0.0395  2.8338  0.3719
 6248SOL     OW30379   3.103   0.615   5.282 -0.0856  0.0177  0.6979
 6248SOL    HW130380   3.146   0.530   5.291 -0.5097 -0.4856 -2.0413
 6248SOL    HW230381   3.033   0.598   5.219 -0.1846 -1.1663  1.1464
 6249SOL     OW30382   4.512   3.337   5.693  0.0506 -0.0442  0.1116
 6249SOL    HW130383   4.575   3.378   5.634  2.0298 -0.4355  1.9305
 6249SOL    HW230384   4.533   3.390   5.771 -1.4911  1.2277 -0.3332
 6250SOL     OW30385   1.239   1.163   1.943  0.3558 -0.3560  0.1990
 6250SOL    HW130386   1.274   1.166   1.854  1.7000 -0.8450  0.7124
 6250SOL    HW230387   1.255   1.251   1.977 -0.1492 -1.1515  2.5027
 6251SOL     OW30388   2.752   1.160   9.211 -0.2994  0.3006  0.1876
 6251SOL    HW130389   2.766   1.133   9.121  0.5541 -1.4665  0.8506
 6251SOL    HW230390   2.794   1.246   9.209 -0.1126  0.1641 -1.3662
 6252SOL     OW30391   1.044   2.274  10.279 -0.1859  0.2536  0.0727
 6252SOL    HW130392   1.091   2.192  10.263  2.2107  1.5695  0.3885
 6252SOL    HW230393   1.075   2.327  10.206  2.1760  0.3805  1.1531
 6253SOL     OW30394   1.995   3.106  10.913 -0.0692 -0.5245  0.5941
 6253SOL    HW130395   2.035   3.061  10.987  0.2510  0.3875  0.9694
 6253SOL    HW230396   1.926   3.044  10.887 -0.2446 -1.0095  2.2130
 6254SOL     OW30397   0.861   1.456  16.860 -0.4782 -0.4428 -0.7823
 6254SOL    HW130398   0.841   1.527  16.799 -0.4060 -0.2891 -0.6269
 6254SOL    HW230399   0.956   1.455  16.874 -1.1958 -3.0409  3.9219
 6255SOL     OW30400   4.593   1.659   9.558  0.0778  0.2408  0.7327
 6255SOL    HW130401   4.673   1.608   9.545 -0.2304 -0.4427  1.4795
 6255SOL    HW230402   4.614   1.685   9.647 -1.5970  1.3380  0.8057
 6256SOL     OW30403   3.478   3.552   3.124 -0.1512 -0.0721  0.5689
 6256SOL    HW130404   3.386   3.550   3.097  0.3092  0.1128 -1.0483
 6256SOL    HW230405   3.498   3.639   3.158 -0.6182  0.7825 -1.3475
 6257SOL     OW30406   2.679   4.435   3.903  0.2203 -0.0503  0.4785
 6257SOL    HW130407   2.668   4.526   3.929 -1.7760  0.4182 -2.0801
 6257SOL    HW230408   2.645   4.398   3.984 -1.0262  1.4892  0.6507
 6258SOL     OW30409   2.227   1.687   2.243 -0.0738  0.2896  0.9867
 6258SOL    HW130410   2.248   1.780   2.250  0.1656  0.2451  0.8952
 6258SOL    HW230411   2.258   1.653   2.327 -0.5848  0.2252  1.1492
 6259SOL     OW30412   3.768   4.495   1.821  0.0717  0.2441  0.4572
 6259SOL    HW130413   3.735   4.580   1.852  1.8543  0.7543  0.9733
 6259SOL    HW230414   3.790   4.459   1.906 -0.4308 -0.8897  0.1053
 6260SOL     OW30415   4.676   2.857   5.166 -0.3967 -0.3585  0.0396
 6260SOL    HW130416   4.700   2.810   5.086  1.0976 -0.1602  0.3804
 6260SOL    HW230417   4.693   2.796   5.237  0.2932 -0.4772 -0.2326
 6261SOL     OW30418   3.787   3.408  12.351 -0.6873  0.6173 -0.1350
 6261SOL    HW130419   3.753   3.347  12.417 -0.3549  0.7435  0.1532
 6261SOL    HW230420   3.708   3.440  12.307 -0.2742  0.6624 -0.8299
 6262SOL     OW30421   0.841   0.193   6.115  0.0902  0.3970 -0.1223
 6262SOL    HW130422   0.816   0.196   6.022  0.4250  0.6352 -0.2033
 6262SOL    HW230423   0.909   0.126   6.108  1.8866  2.3788 -1.5097
 6263SOL     OW30424   3.559   3.483   2.591  0.0820 -0.5161 -0.0100
 6263SOL    HW130425   3.633   3.426   2.612  0.1858 -0.8681 -1.3469
 6263SOL    HW230426   3.525   3.446   2.510 -0.1757  0.5125 -0.3741
 6264SOL     OW30427   1.942   3.391   6.614 -0.2698  0.8793  0.1472
 6264SOL    HW130428   1.990   3.394   6.531 -1.0669  1.5547 -0.2914
 6264SOL    HW230429   1.937   3.296   6.621  0.8711  0.8090  0.1080
 6265SOL     OW30430   1.038   0.066   8.348  0.6905 -0.2371 -0.0869
 6265SOL    HW130431   1.006   0.096   8.263 -4.4588 -0.8577  1.6561
 6265SOL    HW230432   1.134   0.057   8.343  1.0814  3.3061  0.7284
 6266SOL     OW30433   2.658   4.414   3.188 -0.0437 -0.8452  0.5569
 6266SOL    HW130434   2.712   4.428   3.265 -0.0371  1.8394  0.0845
 6266SOL    HW230435   2.573   4.425   3.230 -0.6340  0.6892 -1.0250
 6267SOL     OW30436   4.593   4.361   5.268  0.2381  0.2342 -0.1203
 6267SOL    HW130437   4.678   4.356   5.312  0.9098 -1.4131 -1.6243
 6267SOL    HW230438   4.547   4.414   5.333  0.5809  1.8401 -1.1957
 6268SOL     OW30439   2.136   1.711   5.280  0.2859 -0.3446  0.3915
 6268SOL    HW130440   2.231   1.724   5.290  0.1885  0.7877 -0.1823
 6268SOL    HW230441   2.137   1.648   5.208 -0.1935 -1.0536  0.9974
 6269SOL     OW30442   3.121   3.539   9.787 -0.6332 -0.3768  0.7143
 6269SOL    HW130443   3.056   3.475   9.759 -1.6456  0.5632  0.9483
 6269SOL    HW230444   3.130   3.508   9.877  0.5167  3.1841  1.8289
 6270SOL     OW30445   1.374   2.833   7.590 -0.2387 -0.0292 -0.2032
 6270SOL    HW130446   1.347   2.907   7.536  1.2115  0.0205 -0.8444
 6270SOL    HW230447   1.455   2.868   7.626  0.8798 -0.4499 -2.3344
 6271SOL     OW30448   0.660   2.016   5.300  0.0092 -0.3714 -0.1071
 6271SOL    HW130449   0.690   2.001   5.390  0.5658 -1.4374 -0.4733
 6271SOL    HW230450   0.739   2.053   5.260 -0.1861 -0.4264 -0.5491
 6272SOL     OW30451   4.145   1.529   2.778  0.0062 -0.2265  0.1291
 6272SOL    HW130452   4.117   1.570   2.860 -0.3931 -0.2840  0.0242
 6272SOL    HW230453   4.165   1.441   2.809  0.2827 -0.3785 -0.4646
 6273SOL     OW30454   3.001   0.283   8.690 -0.3788  0.0287 -0.3256
 6273SOL    HW130455   3.034   0.245   8.771  1.0500  1.9526 -0.0210
 6273SOL    HW230456   2.923   0.319   8.733 -1.5863 -1.2372 -1.4454
 6274SOL     OW30457   2.624   3.037   8.185  0.8601  0.4506  0.3056
 6274SOL    HW130458   2.661   3.109   8.134  1.9188  0.2998  0.8533
 6274SOL    HW230459   2.661   3.052   8.272  3.2072  2.4981 -1.0387
 6275SOL     OW30460   1.106   4.315   1.844  0.0011 -0.4227  0.2297
 6275SOL    HW130461   1.097   4.338   1.936 -0.5510 -0.3571  0.1615
 6275SOL    HW230462   1.181   4.368   1.815 -0.2248 -0.2236  0.0086
 6276SOL     OW30463   3.415   0.218   9.680  0.0390 -0.3928 -0.1663
 6276SOL    HW130464   3.409   0.250   9.770 -0.9073 -1.1512  0.0416
 6276SOL    HW230465   3.323   0.194   9.665 -0.8238  3.1641 -0.4501
 6277SOL     OW30466   2.057   3.826   6.623 -0.0973  0.3591 -0.1093
 6277SOL    HW130467   2.077   3.881   6.699 -0.4311 -0.5287  0.6130
 6277SOL    HW230468   2.103   3.885   6.564  2.0129 -0.3752  0.7937
 6278SOL     OW30469   0.320   0.693   9.285  0.4839 -0.5266 -0.9933
 6278SOL    HW130470   0.387   0.711   9.220 -0.9720  0.2682 -2.2884
 6278SOL    HW230471   0.371   0.665   9.361 -1.1061  0.1965  0.3436
 6279SOL     OW30472   4.195   2.381   8.362 -0.1027  0.0440 -0.3689
 6279SOL    HW130473   4.225   2.459   8.409  1.1528  0.5367 -2.0436
 6279SOL    HW230474   4.258   2.386   8.291  0.9916  1.0827  0.6826
 6280SOL     OW30475   3.997   3.298  12.729  0.1130  0.2238 -0.2536
 6280SOL    HW130476   3.999   3.317  12.823  1.1727  0.8223 -0.4021
 6280SOL    HW230477   3.999   3.203  12.743  1.9086  0.3945  0.6155
 6281SOL     OW30478   0.728   4.696   5.153 -0.0326 -0.6079 -0.4562
 6281SOL    HW130479   0.662   0.002   5.100 -0.4554 -0.8925 -0.1682
 6281SOL    HW230480   0.689   4.695   5.240  0.0617 -1.4362 -0.4309
 6282SOL     OW30481   3.739   2.874   8.405  0.0864  0.2601 -0.7052
 6282SOL    HW130482   3.716   2.959   8.367 -1.9033  0.7157  1.5728
 6282SOL    HW230483   3.652   2.836   8.405 -0.2699  1.0861 -2.7863
 6283SOL     OW30484   3.010   0.724   2.830  0.2058 -0.0888 -0.2607
 6283SOL    HW130485   2.938   0.770   2.873  0.7432 -0.0826  0.6458
 6283SOL    HW230486   3.075   0.734   2.900  0.1400 -1.3456 -0.0143
 6284SOL     OW30487   2.216   3.245  13.928  0.2723 -0.0189  0.4123
 6284SOL    HW130488   2.244   3.218  14.015 -0.2739  0.5986  0.7834
 6284SOL    HW230489   2.152   3.311  13.955 -1.3222 -2.2312  2.0307
 6285SOL     OW30490   2.476   2.776   5.074 -0.0837  0.1184 -0.2570
 6285SOL    HW130491   2.501   2.684   5.088  0.2553  0.3642  0.7600
 6285SOL    HW230492   2.386   2.764   5.104 -0.4204  1.4806 -0.7579
 6286SOL     OW30493   1.438   3.126   5.459 -0.0744  0.2400  0.3113
 6286SOL    HW130494   1.497   3.197   5.486 -0.3833  0.7982 -0.4611
 6286SOL    HW230495   1.360   3.180   5.443 -2.0636 -2.7380 -0.1051
 6287SOL     OW30496   1.615   4.102   9.050  0.2763  0.3891 -0.7210
 6287SOL    HW130497   1.548   4.033   9.044  1.0663 -0.5613  1.1244
 6287SOL    HW230498   1.677   4.057   9.107 -0.6986 -0.4239 -0.2973
 6288SOL     OW30499   4.044   2.700   4.397  0.4583 -0.2962 -0.4681
 6288SOL    HW130500   4.107   2.628   4.407 -0.2066 -0.5919  1.5456
 6288SOL    HW230501   3.960   2.671   4.433  0.0745 -0.7956 -1.7924
 6289SOL     OW30502   0.889   3.462   2.224 -0.3146  0.0771  0.0825
 6289SOL    HW130503   0.884   3.437   2.317  0.3382 -0.8323 -0.1294
 6289SOL    HW230504   0.796   3.469   2.203  0.2205  2.0514 -1.6238
 6290SOL     OW30505   0.408   1.685   5.952  0.3313 -0.1346 -0.2638
 6290SOL    HW130506   0.399   1.668   5.858 -0.7733 -0.5741 -0.0779
 6290SOL    HW230507   0.368   1.607   5.991  0.5510 -0.6961 -1.1690
 6291SOL     OW30508   0.476   3.288   1.641  0.2149 -0.3964 -0.2426
 6291SOL    HW130509   0.545   3.329   1.590 -0.5868  0.5263 -0.5711
 6291SOL    HW230510   0.500   3.195   1.633  1.4301 -0.1730  0.7886
 6292SOL     OW30511   0.349   0.142   3.106 -0.3658  0.4454 -0.4104
 6292SOL    HW130512   0.365   0.070   3.167 -0.1229  0.8326 -0.0141
 6292SOL    HW230513   0.389   0.089   3.037  2.7229  1.8848  0.2865
 6293SOL     OW30514   4.601   4.534   4.233 -0.1133  0.0887 -0.0690
 6293SOL    HW130515   4.515   4.575   4.232 -1.9397 -3.6946  0.4007
 6293SOL    HW230516   4.636   4.570   4.314  1.6755 -0.7181 -0.4761
 6294SOL     OW30517   0.923   1.909  14.257 -0.1524 -0.1790 -0.0106
 6294SOL    HW130518   0.923   1.951  14.171  0.4708  1.6113  0.8534
 6294SOL    HW230519   0.889   1.823  14.234  0.2728 -0.7041  1.2682
 6295SOL     OW30520   1.031   2.583  15.591  0.1494  0.0415  0.2461
 6295SOL    HW130521   0.994   2.567  15.504 -0.1186 -0.2044  0.4067
 6295SOL    HW230522   1.085   2.504  15.592  1.3082  0.8036 -1.7206
 6296SOL     OW30523   1.227   1.536   3.011  0.3651 -0.0014  0.5530
 6296SOL    HW130524   1.237   1.598   2.938 -2.1472 -0.6819 -0.3453
 6296SOL    HW230525   1.141   1.505   2.984  0.4247  0.9330 -0.7609
 6297SOL     OW30526   1.820   2.428   6.487  0.0705  0.1381  0.1476
 6297SOL    HW130527   1.816   2.498   6.552  1.6896 -0.9828  1.4332
 6297SOL    HW230528   1.732   2.389   6.489 -0.7668  2.0562  1.1620
 6298SOL     OW30529   1.752   0.133  12.355  0.1099 -0.2094 -0.1116
 6298SOL    HW130530   1.668   0.170  12.328  1.5600  1.1001 -2.7763
 6298SOL    HW230531   1.732   0.049  12.397 -0.8986 -0.5823 -1.3397
 6299SOL     OW30532   1.984   4.002   6.869 -0.1377  0.4773  0.0911
 6299SOL    HW130533   1.985   4.094   6.842  2.8538  0.8714  1.5549
 6299SOL    HW230534   2.078   3.988   6.860  0.0235 -0.1105  2.5967
 6300SOL     OW30535   0.428   3.550  11.514  0.0207 -0.0858 -0.0222
 6300SOL    HW130536   0.387   3.499  11.445 -1.8348  1.5499 -0.1317
 6300SOL    HW230537   0.465   3.628  11.472 -1.5232  0.7481  0.1506
 6301SOL     OW30538   2.685   1.080   1.888 -0.0420  0.0208  0.2894
 6301SOL    HW130539   2.669   0.986   1.902  1.0924 -0.1716  0.2378
 6301SOL    HW230540   2.775   1.086   1.920 -0.0902  1.2622  0.1659
 6302SOL     OW30541   0.237   1.721   0.236  0.0478 -0.5425  0.0330
 6302SOL    HW130542   0.300   1.673   0.183  1.2137 -1.7048  2.4614
 6302SOL    HW230543   0.270   1.807   0.210 -2.2916  0.9137  1.8770
 6303SOL     OW30544   1.298   1.435   4.268  0.2664 -0.1256 -0.1792
 6303SOL    HW130545   1.251   1.357   4.298 -1.9892  1.2215 -0.2346
 6303SOL    HW230546   1.246   1.503   4.311  0.2625 -0.0432 -0.3171
 6304SOL     OW30547   2.672   1.003   0.690  0.1569  0.3225  0.3267
 6304SOL    HW130548   2.711   1.010   0.777 -2.5748 -0.1915  1.5730
 6304SOL    HW230549   2.753   0.983   0.642 -0.2723 -0.4991 -0.0499
 6305SOL     OW30550   2.886   3.031   1.749  0.3306  0.0738  0.0991
 6305SOL    HW130551   2.795   3.009   1.769  0.2357 -1.0674 -1.5638
 6305SOL    HW230552   2.925   2.947   1.774  0.2802 -0.3568 -1.2895
 6306SOL     OW30553   0.471   4.544  12.624 -0.0102  0.0071 -0.4678
 6306SOL    HW130554   0.536   4.478  12.647 -1.5572 -0.9381  1.1909
 6306SOL    HW230555   0.422   4.556  12.706 -2.0380 -0.9963 -1.5280
 6307SOL     OW30556   3.989   3.609   5.702  0.0091  0.0049 -0.0353
 6307SOL    HW130557   4.082   3.586   5.709  0.4646  1.8451 -0.1036
 6307SOL    HW230558   4.012   3.701   5.692 -0.3424  0.2888  1.7291
 6308SOL     OW30559   3.556   0.573  12.913  0.1660 -0.5003 -0.4283
 6308SOL    HW130560   3.476   0.556  12.864  0.0702 -3.9249  0.9260
 6308SOL    HW230561   3.527   0.635  12.979 -0.8334 -1.4405  0.0193
 6309SOL     OW30562   1.452   3.683   2.117 -0.4366 -0.5122  0.6284
 6309SOL    HW130563   1.463   3.596   2.079 -0.5369 -0.8186  1.2910
 6309SOL    HW230564   1.494   3.676   2.203 -0.5287  1.8542  0.8812
 6310SOL     OW30565   3.417   4.227  13.797  0.1357 -0.0183 -0.0507
 6310SOL    HW130566   3.410   4.281  13.718  1.6987  1.1996  0.6465
 6310SOL    HW230567   3.482   4.273  13.850 -0.3634  2.5291 -1.6600
 6311SOL     OW30568   1.423   0.984  15.242  0.0352 -0.3274 -0.1103
 6311SOL    HW130569   1.461   1.042  15.307 -1.5169 -0.5612  0.9982
 6311SOL    HW230570   1.432   1.042  15.167  0.8469 -0.2410  0.0549
 6312SOL     OW30571   0.013   4.545  12.925  0.0990 -0.3749  0.5775
 6312SOL    HW130572   4.674   4.493  12.913 -1.9720  2.3499  2.2832
 6312SOL    HW230573   4.712   4.631  12.936 -3.5673 -1.8264 -1.8405
 6313SOL     OW30574   3.284   3.777   7.630 -0.1407  0.2031  0.7647
 6313SOL    HW130575   3.363   3.728   7.607  0.4189  1.9809 -1.0256
 6313SOL    HW230576   3.222   3.760   7.559 -0.0919  1.3292  0.4552
 6314SOL     OW30577   0.333   1.675  15.496 -0.1175 -0.4201 -0.6223
 6314SOL    HW130578   0.363   1.727  15.422 -0.9045  1.1981  0.2063
 6314SOL    HW230579   0.406   1.693  15.554 -0.8583  1.1447 -0.1766
 6315SOL     OW30580   2.673   0.183   5.678  0.5756 -0.4701  0.4187
 6315SOL    HW130581   2.597   0.125   5.678  0.4209 -0.2862 -1.8347
 6315SOL    HW230582   2.636   0.271   5.680  1.2396 -0.2293  1.8500
 6316SOL     OW30583   0.646   1.009   7.162  0.2133  0.4300  0.5209
 6316SOL    HW130584   0.571   0.978   7.213 -0.5481 -0.5631 -1.1812
 6316SOL    HW230585   0.644   0.948   7.088  0.4794  2.3182 -1.0368
 6317SOL     OW30586   3.052   1.210   4.846  0.6751 -0.2418  0.1885
 6317SOL    HW130587   3.136   1.244   4.878  1.4696 -0.3124 -1.8119
 6317SOL    HW230588   3.079   1.184   4.757  1.7906 -0.4783  0.5942
 6318SOL     OW30589   1.634   2.147  13.159  0.1321  0.2551 -0.2655
 6318SOL    HW130590   1.706   2.147  13.096  0.1938  1.5334 -0.1933
 6318SOL    HW230591   1.562   2.119  13.103  1.3100 -1.3886 -0.9448
 6319SOL     OW30592   4.401   1.697  15.501  0.2946 -0.1302 -0.1421
 6319SOL    HW130593   4.425   1.686  15.409  1.2789 -2.7664  0.4280
 6319SOL    HW230594   4.374   1.788  15.514  0.8135 -0.6360  4.3601
 6320SOL     OW30595   3.635   1.971   5.660 -0.3246 -0.7560 -0.1056
 6320SOL    HW130596   3.602   1.935   5.577 -0.5990 -0.8020  0.0232
 6320SOL    HW230597   3.593   1.921   5.730 -0.8344 -1.0846 -0.6467
 6321SOL     OW30598   0.146   2.198   8.493 -0.1951 -0.1475 -0.2136
 6321SOL    HW130599   0.077   2.140   8.524 -0.1909  0.1105  0.2805
 6321SOL    HW230600   0.163   2.248   8.573 -1.7446 -0.2770  0.1951
 6322SOL     OW30601   0.260   1.968   5.469 -0.1395  0.4226  0.0437
 6322SOL    HW130602   0.184   1.963   5.527  0.9584 -0.4173  1.4291
 6322SOL    HW230603   0.231   2.031   5.404  0.8054 -0.6642 -1.4276
 6323SOL     OW30604   0.885   4.589  16.978  0.6627 -0.2944  0.0756
 6323SOL    HW130605   0.883   4.583  17.073  3.4758 -0.6921  0.0935
 6323SOL    HW230606   0.970   4.554  16.952 -0.5602 -1.2035 -2.7706
 6324SOL     OW30607   3.596   1.270   7.045  0.1654  0.4292  0.2081
 6324SOL    HW130608   3.608   1.231   6.958  1.5386 -0.2944  0.7320
 6324SOL    HW230609   3.537   1.342   7.022 -0.9867 -0.2274  1.1489
 6325SOL     OW30610   2.042   4.530   6.059  0.1910  0.2003 -0.2031
 6325SOL    HW130611   1.996   4.577   5.989  1.5131  2.6177  0.5222
 6325SOL    HW230612   2.026   4.440   6.031  0.8081  0.3170 -0.9495
 6326SOL     OW30613   0.205   2.926   8.925  0.3143 -0.1052  0.0617
 6326SOL    HW130614   0.111   2.915   8.940  0.0124  1.6927 -0.4983
 6326SOL    HW230615   0.227   2.865   8.995 -0.4601 -0.1000  0.3084
 6327SOL     OW30616   0.521   0.943   0.200  0.1327  0.6255  0.2834
 6327SOL    HW130617   0.602   0.948   0.148  0.2582  2.7132  0.7016
 6327SOL    HW230618   0.465   0.882   0.152  1.9192 -0.5322 -0.3713
 6328SOL     OW30619   1.289   2.171   2.216  0.1713  0.6323  0.2075
 6328SOL    HW130620   1.294   2.233   2.143  0.3857  0.9510  0.4919
 6328SOL    HW230621   1.337   2.211   2.288 -1.2547  1.6609  0.5913
 6329SOL     OW30622   1.715   4.204   4.584 -0.1842  0.3198  0.0100
 6329SOL    HW130623   1.698   4.231   4.494 -3.0084  5.1403  1.9998
 6329SOL    HW230624   1.638   4.151   4.604 -0.3492  0.7104  0.4014
 6330SOL     OW30625   0.723   2.037  12.765  0.1786 -0.0334 -0.3857
 6330SOL    HW130626   0.633   2.047  12.734  0.3485 -0.7787 -1.1107
 6330SOL    HW230627   0.766   2.004  12.686 -2.0809 -2.3334 -0.6462
 6331SOL     OW30628   0.666   4.063   5.235  0.0018  0.1224  0.3709
 6331SOL    HW130629   0.587   4.112   5.214 -0.9210 -1.3262  0.4894
 6331SOL    HW230630   0.737   4.101   5.182  0.7536  0.6958  1.7981
 6332SOL     OW30631   4.531   0.837   2.276  0.3016 -0.2549 -0.0842
 6332SOL    HW130632   4.590   0.803   2.344  2.2071  1.3058 -0.9776
 6332SOL    HW230633   4.521   0.762   2.217  0.6894  0.2302 -0.7673
 6333SOL     OW30634   0.114   1.371   8.015  0.2651 -0.1029  0.1383
 6333SOL    HW130635   0.200   1.374   8.056 -1.2529 -0.2134  3.3378
 6333SOL    HW230636   0.084   1.281   8.031  0.8372 -0.5173 -1.0883
 6334SOL     OW30637   4.095   2.470   1.952 -0.1788 -0.3370 -0.2019
 6334SOL    HW130638   4.048   2.468   2.035 -0.1601  2.2873 -0.1133
 6334SOL    HW230639   4.139   2.385   1.956 -1.1038 -0.6466  3.7256
 6335SOL     OW30640   1.983   0.548   3.626 -0.4476 -0.4677  0.2615
 6335SOL    HW130641   2.047   0.491   3.583 -0.4248 -0.9644  0.9398
 6335SOL    HW230642   1.961   0.605   3.553  0.5290  2.2484  2.1124
 6336SOL     OW30643   2.836   1.289   2.817  0.4306 -0.2288 -0.4068
 6336SOL    HW130644   2.767   1.280   2.751  1.6817 -1.4600 -1.5466
 6336SOL    HW230645   2.800   1.360   2.869 -0.1555 -0.1815 -0.8706
 6337SOL     OW30646   0.746   1.628   3.853 -0.3280 -0.5520  0.4604
 6337SOL    HW130647   0.690   1.600   3.926  0.1607 -1.8601  0.3353
 6337SOL    HW230648   0.711   1.717   3.850 -3.4068 -1.7002  2.0044
 6338SOL     OW30649   4.213   3.786   4.188 -0.2951  0.4560  0.2622
 6338SOL    HW130650   4.166   3.766   4.108  0.9704  3.0040 -1.1157
 6338SOL    HW230651   4.255   3.870   4.166  1.3681 -0.6888 -0.9571
 6339SOL     OW30652   0.229   4.216   3.052  0.6501 -0.3431  0.0821
 6339SOL    HW130653   0.305   4.266   3.023 -0.3548  0.9196 -0.3515
 6339SOL    HW230654   0.227   4.136   3.000  0.8864  1.9433 -3.4053
 6340SOL     OW30655   2.515   3.407   5.031  0.7894  0.0755  0.6240
 6340SOL    HW130656   2.559   3.416   4.946 -2.7018  2.8959 -0.8531
 6340SOL    HW230657   2.459   3.484   5.031 -1.0544 -1.2850  1.3197
 6341SOL     OW30658   2.197   2.743   5.054  0.6445  0.0530  0.2440
 6341SOL    HW130659   2.216   2.769   4.964 -1.0518  0.0198 -0.1306
 6341SOL    HW230660   2.115   2.786   5.078 -0.2285 -0.8791 -1.0510
 6342SOL     OW30661   3.122   3.467   5.512 -0.3403  0.8070  0.1558
 6342SOL    HW130662   3.169   3.550   5.520  2.2605 -0.6059 -0.3652
 6342SOL    HW230663   3.147   3.424   5.594  2.0588  0.0317 -0.9805
 6343SOL     OW30664   3.859   2.060   4.537 -0.1509  0.0311 -0.2871
 6343SOL    HW130665   3.865   1.964   4.538 -2.1606 -0.1086  0.5228
 6343SOL    HW230666   3.932   2.081   4.480 -0.4764  1.3245 -0.2249
 6344SOL     OW30667   3.763   2.968   7.452  0.4237 -0.1081  0.1755
 6344SOL    HW130668   3.832   2.909   7.482  0.0516 -0.0893  1.0791
 6344SOL    HW230669   3.758   3.021   7.532 -1.0001 -0.6055  0.4233
 6345SOL     OW30670   4.632   0.698   6.299 -0.0475 -0.0107  0.6875
 6345SOL    HW130671   4.677   0.734   6.375  1.1736 -2.3775  1.0600
 6345SOL    HW230672   4.560   0.654   6.345 -0.4712  0.3288  0.3459
 6346SOL     OW30673   4.581   3.809  13.284  0.4378  0.2291 -1.2013
 6346SOL    HW130674   4.509   3.836  13.227  2.0597  1.8150 -2.5406
 6346SOL    HW230675   4.651   3.838  13.225  0.6188 -0.7679 -1.4783
 6347SOL     OW30676   3.479   4.483   2.968  0.4679  0.2563  0.4559
 6347SOL    HW130677   3.400   4.490   2.915  2.0060  0.1870 -1.9011
 6347SOL    HW230678   3.498   4.389   2.961 -0.5975  0.2481 -2.6130
 6348SOL     OW30679   4.480   2.899   3.010 -0.2020  0.3710  0.2653
 6348SOL    HW130680   4.531   2.934   3.083  0.9318 -0.5420 -0.0886
 6348SOL    HW230681   4.463   2.982   2.965 -0.7240 -0.1209 -0.4516
 6349SOL     OW30682   2.410   3.345   2.710  0.2432 -0.0400 -0.4584
 6349SOL    HW130683   2.451   3.383   2.632  0.7044 -0.6500 -0.5061
 6349SOL    HW230684   2.392   3.427   2.758  0.2337 -0.1119 -0.3394
 6350SOL     OW30685   0.406   0.696   6.571 -0.3179 -0.0433  0.3069
 6350SOL    HW130686   0.416   0.791   6.580  0.9694 -0.2419  1.0302
 6350SOL    HW230687   0.493   0.657   6.561 -0.8121 -1.2023  0.5549
 6351SOL     OW30688   4.566   1.861  12.029 -0.0094  0.4286 -0.5526
 6351SOL    HW130689   4.614   1.888  12.107  0.1286  0.4198 -0.6345
 6351SOL    HW230690   4.626   1.879  11.957  1.6073  0.6942  0.8757
 6352SOL     OW30691   1.256   1.166  11.879 -0.3711  0.2861 -0.0621
 6352SOL    HW130692   1.315   1.242  11.883  1.5426 -1.1116 -1.5823
 6352SOL    HW230693   1.322   1.109  11.919  0.6947  2.0804  0.7505
 6353SOL     OW30694   3.434   2.211   6.506 -0.2069 -0.1599 -0.2554
 6353SOL    HW130695   3.404   2.145   6.569 -1.1299  1.8588  1.4390
 6353SOL    HW230696   3.360   2.222   6.446 -0.1259 -1.1901 -0.5506
 6354SOL     OW30697   0.248   4.347   7.920  0.3152 -0.1853  0.8448
 6354SOL    HW130698   0.272   4.308   7.837 -2.3919 -1.3277  0.5991
 6354SOL    HW230699   0.171   4.298   7.950  0.0768 -0.6819 -0.5714
 6355SOL     OW30700   4.432   3.962   2.198  0.2319  0.3176 -0.6993
 6355SOL    HW130701   4.341   3.940   2.221  0.6683 -2.2345 -1.4948
 6355SOL    HW230702   4.467   3.997   2.280 -0.7605 -3.3793  1.3243
 6356SOL     OW30703   3.415   1.527   6.662  0.4495 -0.6693  0.2458
 6356SOL    HW130704   3.415   1.554   6.570  1.1524 -2.1994 -0.2048
 6356SOL    HW230705   3.329   1.561   6.687  0.0293 -1.2530 -0.4355
 6357SOL     OW30706   3.542   3.704  11.999 -0.1289  0.2222  0.5214
 6357SOL    HW130707   3.634   3.727  11.990  0.2079 -0.2987  2.5302
 6357SOL    HW230708   3.526   3.696  11.905 -0.6005  0.3905  0.5858
 6358SOL     OW30709   2.999   2.881  13.714  0.5924  0.1697 -0.2061
 6358SOL    HW130710   3.085   2.914  13.687 -0.6508  2.5335 -1.2698
 6358SOL    HW230711   2.960   2.966  13.736  0.9913 -0.1069  1.5430
 6359SOL     OW30712   0.284   1.007   9.305 -0.0962  0.1099  0.4630
 6359SOL    HW130713   0.368   1.032   9.267 -0.0086  0.6507  1.0122
 6359SOL    HW230714   0.312   0.969   9.389 -1.8816 -0.3030  0.8712
 6360SOL     OW30715   0.819   3.776  10.684 -0.2832 -0.2569 -0.7380
 6360SOL    HW130716   0.853   3.806  10.769 -1.0299 -1.2499 -0.0816
 6360SOL    HW230717   0.727   3.765  10.704 -0.0619  2.0537  1.5717
 6361SOL     OW30718   1.720   4.433  13.013 -0.7893 -0.0285  0.0724
 6361SOL    HW130719   1.751   4.504  13.069 -0.4271 -0.1221 -0.0080
 6361SOL    HW230720   1.772   4.446  12.934 -0.9449  0.0248 -0.0208
 6362SOL     OW30721   3.808   0.402   6.913 -0.4243  0.0344  0.1771
 6362SOL    HW130722   3.826   0.328   6.854 -0.2750  1.6175 -1.7577
 6362SOL    HW230723   3.798   0.471   6.847  3.1913  0.8245  0.4238
 6363SOL     OW30724   1.382   1.169  10.527 -0.2412 -0.0875 -0.4550
 6363SOL    HW130725   1.400   1.209  10.612 -0.9343 -0.5443 -0.0965
 6363SOL    HW230726   1.473   1.151  10.502 -0.0292  1.5522 -0.8830
 6364SOL     OW30727   1.975   4.105   1.673  0.0246  0.4147 -1.2700
 6364SOL    HW130728   1.897   4.087   1.726 -1.3736 -0.5648 -3.6908
 6364SOL    HW230729   2.028   4.146   1.741 -2.2211 -0.6117  1.0949
 6365SOL     OW30730   0.850   0.882  15.448 -0.3329 -0.1637 -0.5561
 6365SOL    HW130731   0.874   0.887  15.541 -0.4485  1.1633 -0.5944
 6365SOL    HW230732   0.822   0.791  15.449  0.0428 -0.2543  1.8362
 6366SOL     OW30733   2.530   2.820   4.819  0.3765 -0.6326 -0.2892
 6366SOL    HW130734   2.503   2.818   4.910  0.8969  1.4260 -0.1019
 6366SOL    HW230735   2.465   2.754   4.793 -1.8508  0.1372  3.3493
 6367SOL     OW30736   1.754   4.549  12.002  0.1707  0.2748  0.1831
 6367SOL    HW130737   1.712   4.519  11.921  2.0174 -0.1160 -0.6110
 6367SOL    HW230738   1.678   4.568  12.058  0.4467 -0.4363  0.7948
 6368SOL     OW30739   1.118   4.083   4.742 -0.0684  0.6695  0.4005
 6368SOL    HW130740   1.117   4.098   4.647  1.4271 -1.1732  0.0871
 6368SOL    HW230741   1.112   3.988   4.740 -2.5536  0.7980  2.1135
 6369SOL     OW30742   1.695   4.240   2.205  0.1189 -0.4465  0.0509
 6369SOL    HW130743   1.653   4.323   2.229  0.4427 -0.1843 -0.3067
 6369SOL    HW230744   1.785   4.255   2.177  0.0493  0.4966  0.3463
 6370SOL     OW30745   0.037   3.601  12.376 -0.1215  0.0795  0.6677
 6370SOL    HW130746   0.032   3.623  12.284  0.3372  2.6887  1.2763
 6370SOL    HW230747   0.122   3.642  12.394  0.6472 -1.0780 -0.2990
 6371SOL     OW30748   4.328   2.494   9.900 -0.0899  0.1404 -0.1776
 6371SOL    HW130749   4.318   2.414   9.951 -1.1469  0.3228 -0.0994
 6371SOL    HW230750   4.424   2.497   9.893 -0.0047 -1.1488  0.5501
 6372SOL     OW30751   1.535   0.020   0.390  0.2496  0.6391  0.5074
 6372SOL    HW130752   1.458   4.733   0.340  0.4471  0.8949  0.0647
 6372SOL    HW230753   1.523   0.113   0.409  1.7799  0.2283  3.4168
 6373SOL     OW30754   1.300   3.925   8.845  0.4825 -0.1168  0.4037
 6373SOL    HW130755   1.391   3.921   8.816  0.1508  1.4608 -0.8504
 6373SOL    HW230756   1.291   3.884   8.931 -0.1044  0.4752  0.6237
 6374SOL     OW30757   1.347   0.934  11.987  0.6467 -0.3848 -0.4549
 6374SOL    HW130758   1.273   0.949  12.046 -0.7140 -0.0430 -2.2369
 6374SOL    HW230759   1.365   0.842  12.003  2.1531  0.0793  0.5140
 6375SOL     OW30760   0.860   3.406   8.526  0.5351  0.2974 -0.0463
 6375SOL    HW130761   0.905   3.335   8.571 -1.1534 -0.2883  0.7177
 6375SOL    HW230762   0.814   3.345   8.468 -1.2101  0.2695  1.3626
 6376SOL     OW30763   0.929   2.564   4.512  0.1255  0.5274  0.2179
 6376SOL    HW130764   0.953   2.640   4.460  2.1719  0.6283  1.2987
 6376SOL    HW230765   1.019   2.550   4.542  0.6641  2.9514 -0.2402
 6377SOL     OW30766   2.621   2.827   3.530 -0.9991 -0.2148 -0.4593
 6377SOL    HW130767   2.602   2.879   3.452  0.6819  0.8359 -0.1722
 6377SOL    HW230768   2.712   2.854   3.544 -0.9106 -1.2295  0.8612
 6378SOL     OW30769   2.343   2.553   7.286  0.3592 -0.2928 -0.5469
 6378SOL    HW130770   2.374   2.486   7.226  0.6482 -0.3193 -0.3700
 6378SOL    HW230771   2.265   2.581   7.237 -0.1622 -0.6860  0.0592
 6379SOL     OW30772   0.956   1.770   0.330  0.0859  0.5764  0.2156
 6379SOL    HW130773   0.865   1.749   0.308  0.2889 -0.2814  0.2125
 6379SOL    HW230774   0.940   1.844   0.389  1.0058  0.3574  0.7305
 6380SOL     OW30775   1.747   4.708   7.516  0.1283  0.4000  0.4064
 6380SOL    HW130776   1.761   4.723   7.609 -2.4194  0.8690  0.6948
 6380SOL    HW230777   1.792   0.046   7.483  0.8807 -1.0584 -2.1124
 6381SOL     OW30778   0.538   4.647   7.270 -0.0302 -0.1510 -0.1082
 6381SOL    HW130779   0.498   4.716   7.323 -0.2256 -0.2735 -0.0973
 6381SOL    HW230780   0.627   4.680   7.257 -1.2652  3.5835  0.9424
 6382SOL     OW30781   4.491   1.737   5.151  0.4917 -0.3236  0.4431
 6382SOL    HW130782   4.435   1.808   5.182 -0.8442 -0.1977 -2.2580
 6382SOL    HW230783   4.432   1.662   5.149  0.1905 -0.1218  1.7828
 6383SOL     OW30784   0.167   1.287   3.247  0.1185  0.4247 -0.0987
 6383SOL    HW130785   0.084   1.258   3.284  0.4956 -1.5499 -0.7542
 6383SOL    HW230786   0.216   1.308   3.326 -0.4651 -0.5353  0.5182
 6384SOL     OW30787   4.187   4.730   4.015 -0.2030 -0.0319 -0.0341
 6384SOL    HW130788   4.124   0.042   3.965  0.6248 -0.9376 -2.0214
 6384SOL    HW230789   4.231   4.684   3.943  0.1746  0.9630 -0.4341
 6385SOL     OW30790   4.022   1.915   8.972  0.3059  0.4345  0.2137
 6385SOL    HW130791   3.990   1.898   9.061 -3.1848 -2.1325 -1.5230
 6385SOL    HW230792   3.952   1.973   8.942 -1.3004 -0.0700  2.9481
 6386SOL     OW30793   1.155   2.796   2.689 -0.0360 -0.4001  0.6768
 6386SOL    HW130794   1.188   2.708   2.670  0.4170 -0.2305  0.6861
 6386SOL    HW230795   1.078   2.776   2.742  0.0566 -0.2054  0.8856
 6387SOL     OW30796   4.065   0.720   2.612 -0.6188 -0.0648 -0.3097
 6387SOL    HW130797   4.022   0.805   2.609 -0.0485  0.2454  0.2543
 6387SOL    HW230798   3.993   0.658   2.605 -0.5077 -0.1416 -0.7869
 6388SOL     OW30799   3.283   1.810   8.457 -0.2483  0.4325  0.0590
 6388SOL    HW130800   3.330   1.764   8.527 -1.5627  1.7648  1.7811
 6388SOL    HW230801   3.354   1.853   8.409  1.2647 -3.2547 -1.0128
 6389SOL     OW30802   1.638   2.027   3.630 -1.0116 -0.4813  0.3976
 6389SOL    HW130803   1.589   2.093   3.581  0.6285 -0.4878 -1.2567
 6389SOL    HW230804   1.626   1.952   3.572 -1.2827 -0.4650  0.4320
 6390SOL     OW30805   3.744   3.311   2.683  0.2862 -0.1809 -0.2769
 6390SOL    HW130806   3.813   3.246   2.688  1.0383  0.8380  2.3948
 6390SOL    HW230807   3.701   3.295   2.767 -0.2422  2.2407 -0.0640
 6391SOL     OW30808   2.950   3.115   4.149  0.0926 -0.2418  0.1570
 6391SOL    HW130809   2.855   3.119   4.161  0.2257  1.4195  0.6802
 6391SOL    HW230810   2.976   3.051   4.214 -3.0589 -2.6085 -0.9480
 6392SOL     OW30811   4.217   1.687   7.282 -0.3042  0.5595 -0.2683
 6392SOL    HW130812   4.210   1.640   7.200  0.4872  1.2545 -0.7332
 6392SOL    HW230813   4.289   1.747   7.265  0.4682  0.2864  2.0331
 6393SOL     OW30814   0.592   0.752   0.755 -0.1061 -0.3932 -0.2874
 6393SOL    HW130815   0.612   0.831   0.806 -2.3108 -1.2694  1.9525
 6393SOL    HW230816   0.610   0.772   0.663  0.3231  0.3156 -0.0483
 6394SOL     OW30817   2.378   3.607   2.796 -0.3490 -0.1149 -0.1667
 6394SOL    HW130818   2.362   3.687   2.846  0.6215  0.4802 -0.8177
 6394SOL    HW230819   2.474   3.610   2.798 -0.2240 -1.5939 -3.3518
 6395SOL     OW30820   0.919   2.372   8.717 -0.2552 -0.4147 -0.4289
 6395SOL    HW130821   0.952   2.438   8.656  2.1661 -2.0885 -0.9018
 6395SOL    HW230822   0.842   2.336   8.673  3.0798 -1.8308 -4.9441
 6396SOL     OW30823   1.883   3.725   8.005  0.5966 -0.1017  0.1503
 6396SOL    HW130824   1.902   3.647   7.954  0.9559  0.8137 -1.1028
 6396SOL    HW230825   1.794   3.747   7.979 -0.0392 -1.5716  1.0634
 6397SOL     OW30826   0.275   3.571  11.926  0.3532 -0.1402 -0.1055
 6397SOL    HW130827   0.266   3.625  12.005 -0.9764 -1.5234  0.6865
 6397SOL    HW230828   0.261   3.640  11.861  0.7698  0.4467  0.4300
 6398SOL     OW30829   3.167   0.825   4.209 -0.9993 -0.3307 -0.2034
 6398SOL    HW130830   3.164   0.787   4.121 -1.2316 -0.5109 -0.1185
 6398SOL    HW230831   3.221   0.764   4.260 -0.2764  1.0632  0.6898
 6399SOL     OW30832   1.821   1.938   0.915  0.4060 -0.0379  0.7504
 6399SOL    HW130833   1.902   1.957   0.962 -0.3752 -2.4776  3.0870
 6399SOL    HW230834   1.771   1.887   0.979 -1.3023 -0.0797 -0.6139
 6400SOL     OW30835   1.711   0.564  15.193  0.5691 -0.0912  0.5284
 6400SOL    HW130836   1.727   0.489  15.250 -1.7074  1.8309  3.6859
 6400SOL    HW230837   1.625   0.600  15.218  0.1872 -0.1399 -0.7070
 6401SOL     OW30838   2.704   2.143   5.260  0.1938 -0.4209  0.2759
 6401SOL    HW130839   2.711   2.228   5.303  0.1576  0.0876 -0.7418
 6401SOL    HW230840   2.633   2.117   5.319  0.4664  0.0230  0.7984
 6402SOL     OW30841   2.570   2.084   9.367  0.1959  0.4108 -0.0528
 6402SOL    HW130842   2.610   2.125   9.290  0.8939  0.3346  0.2711
 6402SOL    HW230843   2.477   2.089   9.343  0.1387  0.0230  0.0882
 6403SOL     OW30844   3.921   4.685   0.236  0.1529 -0.0026  0.0833
 6403SOL    HW130845   3.850   0.002   0.205  0.6942  1.2116  1.0928
 6403SOL    HW230846   3.952   4.728   0.315 -1.6569 -0.9978  1.3440
 6404SOL     OW30847   1.568   1.690   2.263 -1.0706 -0.4004  0.3321
 6404SOL    HW130848   1.517   1.763   2.298  0.9606  0.7959  0.8054
 6404SOL    HW230849   1.634   1.742   2.217 -0.4497  1.4122  3.3390
 6405SOL     OW30850   4.341   3.543  17.074 -0.2236  0.4872  0.1427
 6405SOL    HW130851   4.435   3.557  17.083  0.1143 -1.3960 -0.4804
 6405SOL    HW230852   4.319   3.618  17.019  0.1488  1.4590  1.3147
 6406SOL     OW30853   3.618   1.612   6.991 -0.5110 -0.4323 -0.2129
 6406SOL    HW130854   3.603   1.632   7.083 -0.8388  0.2503 -0.4203
 6406SOL    HW230855   3.549   1.546   6.982 -0.7970 -0.3170  1.1009
 6407SOL     OW30856   0.846   3.213   4.058 -0.4243  0.1080 -0.0578
 6407SOL    HW130857   0.754   3.232   4.043 -0.3232 -0.8605 -1.9573
 6407SOL    HW230858   0.892   3.257   3.986  1.8071 -0.9458  0.6909
 6408SOL     OW30859   3.434   1.236  11.048 -0.5577 -0.0264 -0.0465
 6408SOL    HW130860   3.524   1.220  11.078  0.1420 -0.2588 -2.2493
 6408SOL    HW230861   3.432   1.179  10.971  0.3696 -0.4037  0.2024
 6409SOL     OW30862   3.906   1.946  10.834 -0.0595 -0.4412 -0.4871
 6409SOL    HW130863   3.952   1.931  10.751  0.3481 -2.9033  0.2035
 6409SOL    HW230864   3.935   2.034  10.861  0.8134 -0.3480 -1.6706
 6410SOL     OW30865   4.577   4.101  16.939  0.0589 -0.0340  0.1102
 6410SOL    HW130866   4.629   4.095  16.859 -2.7445 -1.0177 -1.6383
 6410SOL    HW230867   4.487   4.116  16.911  0.8294 -1.0468 -2.9535
 6411SOL     OW30868   4.616   1.615   6.612 -0.6781 -0.4625  0.0841
 6411SOL    HW130869   4.540   1.625   6.669  0.1128  2.4076  0.6383
 6411SOL    HW230870   4.647   1.534   6.653 -1.8407 -1.0862 -0.2605
 6412SOL     OW30871   3.044   0.388   3.428  0.1066 -0.3412  0.2938
 6412SOL    HW130872   3.115   0.330   3.400 -0.3459 -2.1111  2.7848
 6412SOL    HW230873   3.084   0.436   3.500  2.6619 -0.4237 -1.0850
 6413SOL     OW30874   1.409   3.090   0.860 -0.1015  0.5545 -0.0003
 6413SOL    HW130875   1.380   3.163   0.915  1.5185  0.7983  0.5410
 6413SOL    HW230876   1.464   3.134   0.795 -1.1382  2.8089  0.6302
 6414SOL     OW30877   4.707   1.284   9.306  0.0138 -0.2332 -0.2056
 6414SOL    HW130878   0.023   1.240   9.369 -1.7001 -1.4671  0.4576
 6414SOL    HW230879   0.021   1.313   9.232  2.3232 -0.3284  1.4504
 6415SOL     OW30880   4.379   3.848   5.430 -0.2471  0.2109 -0.0074
 6415SOL    HW130881   4.381   3.930   5.480  1.1276 -0.0499  0.3759
 6415SOL    HW230882   4.383   3.884   5.342  2.9749 -0.1513 -0.0087
 6416SOL     OW30883   1.795   2.395   4.320 -0.3751  0.4493  0.0524
 6416SOL    HW130884   1.795   2.398   4.416  2.0841  2.6740 -0.0400
 6416SOL    HW230885   1.793   2.300   4.306  1.2191  0.4075  0.1585
 6417SOL     OW30886   0.504   0.111   7.850 -0.4667 -0.1712  0.0576
 6417SOL    HW130887   0.445   0.184   7.834  1.5506  1.5258  0.4678
 6417SOL    HW230888   0.551   0.134   7.930  2.4058  0.4028 -1.8146
 6418SOL     OW30889   0.099   0.788   9.154  0.0710  0.7538 -0.2186
 6418SOL    HW130890   0.129   0.877   9.137  1.5013  0.0572 -1.3154
 6418SOL    HW230891   0.177   0.757   9.200  0.7409  1.8111 -0.6345
 6419SOL     OW30892   3.958   3.288   1.492 -0.1201  0.4048  0.0381
 6419SOL    HW130893   3.981   3.215   1.549  1.6493 -0.6412 -1.9997
 6419SOL    HW230894   3.884   3.249   1.446  0.3775  2.2120 -2.3294
 6420SOL     OW30895   3.523   0.031   7.449  0.1450  0.0353 -0.2767
 6420SOL    HW130896   3.545   4.688   7.491  0.1087 -0.1813 -0.6801
 6420SOL    HW230897   3.572   0.097   7.498 -0.3024 -1.3363  1.9995
 6421SOL     OW30898   4.694   2.547   7.653  0.1543 -0.2624  0.0272
 6421SOL    HW130899   0.016   2.476   7.672  1.8798  1.1900 -0.1343
 6421SOL    HW230900   4.633   2.545   7.726 -0.8921 -1.3278 -0.8845
 6422SOL     OW30901   4.519   4.383   8.623 -0.0930 -0.0087  0.0334
 6422SOL    HW130902   4.608   4.418   8.617  0.6099 -1.7795 -0.1047
 6422SOL    HW230903   4.521   4.335   8.540 -0.6256 -1.5244  0.8949
 6423SOL     OW30904   3.323   0.109   8.423  0.9208  0.2478  0.0042
 6423SOL    HW130905   3.248   0.050   8.420  0.9250  0.2413  0.0299
 6423SOL    HW230906   3.342   0.114   8.329  1.8616  1.0211  0.2360
 6424SOL     OW30907   2.759   4.139   7.015 -0.1626  0.0035 -0.2453
 6424SOL    HW130908   2.834   4.094   7.055  0.9168  1.0485 -1.1150
 6424SOL    HW230909   2.719   4.188   7.087  0.2801 -0.9502  0.6492
 6425SOL     OW30910   1.407   2.991   7.940 -0.1717  0.0264 -0.0338
 6425SOL    HW130911   1.457   2.994   7.858 -0.3315 -2.7914 -0.2450
 6425SOL    HW230912   1.456   2.937   8.003  0.2755  0.8117  0.2988
 6426SOL     OW30913   4.196   3.389   3.770 -0.3272  0.1047  0.5904
 6426SOL    HW130914   4.165   3.321   3.830  0.5686  1.1228  2.1991
 6426SOL    HW230915   4.264   3.345   3.720  0.6387  1.0065  1.1283
 6427SOL     OW30916   2.410   1.723   0.783  0.3610  0.4699 -0.1949
 6427SOL    HW130917   2.450   1.706   0.868  0.0498  0.1829 -0.1081
 6427SOL    HW230918   2.329   1.771   0.800  0.8956  1.9716 -1.8529
 6428SOL     OW30919   4.054   1.945   7.585 -0.5640 -0.0550  0.2998
 6428SOL    HW130920   4.114   1.947   7.659 -0.1765 -1.0016  0.0183
 6428SOL    HW230921   4.028   1.854   7.568  1.8942 -0.6639 -0.1542
 6429SOL     OW30922   2.810   3.466  13.131  0.3359  0.2139  0.8380
 6429SOL    HW130923   2.776   3.550  13.162 -0.6326  0.6536 -1.4207
 6429SOL    HW230924   2.821   3.412  13.210 -2.6929  0.0174  1.1191
 6430SOL     OW30925   2.468   1.977   0.691  0.5768  0.5022  0.2572
 6430SOL    HW130926   2.468   1.889   0.728 -1.5806 -0.3036 -1.7520
 6430SOL    HW230927   2.535   2.017   0.748  0.0700 -0.1295  1.2926
 6431SOL     OW30928   4.399   3.601   7.642 -0.6672  0.2316 -0.8968
 6431SOL    HW130929   4.352   3.520   7.662 -0.6901  0.2963 -0.6863
 6431SOL    HW230930   4.331   3.666   7.661 -0.8574  0.0643 -0.9921
 6432SOL     OW30931   2.770   4.624   2.652 -0.0853  0.1933  0.3800
 6432SOL    HW130932   2.847   4.630   2.596  0.4499  2.2466  1.3342
 6432SOL    HW230933   2.807   4.669   2.727  1.1855  0.9448 -0.7092
 6433SOL     OW30934   1.984   0.339  10.567 -0.1062 -0.4150  0.3344
 6433SOL    HW130935   2.080   0.346  10.565 -0.0930 -0.6659  0.1107
 6433SOL    HW230936   1.971   0.349  10.662 -0.4226 -0.0940  0.2592
 6434SOL     OW30937   3.558   0.461   1.865 -0.1807 -0.3355  0.7529
 6434SOL    HW130938   3.589   0.386   1.915 -0.4274 -0.1002  1.2470
 6434SOL    HW230939   3.468   0.478   1.891 -0.3035  0.4223 -0.1461
 6435SOL     OW30940   0.445   3.901  10.327 -0.3627 -0.7549  0.4836
 6435SOL    HW130941   0.353   3.876  10.318 -0.3342 -1.2530  1.5574
 6435SOL    HW230942   0.425   3.969  10.392 -1.5583  0.6459 -1.3467
 6436SOL     OW30943   0.745   2.439   0.446  0.0290 -0.2208 -0.0531
 6436SOL    HW130944   0.765   2.529   0.423  0.8938  0.2436  2.5192
 6436SOL    HW230945   0.793   2.424   0.528 -2.2194  0.1555  1.3229
 6437SOL     OW30946   0.959   0.699   7.836  0.8556  0.8253  0.2705
 6437SOL    HW130947   0.902   0.695   7.913  0.0150  3.4914 -0.2280
 6437SOL    HW230948   0.960   0.609   7.805  0.5484  0.8903  0.0744
 6438SOL     OW30949   3.115   1.595   1.475  0.9423 -0.2501  0.2620
 6438SOL    HW130950   3.094   1.502   1.487  1.4901 -0.2190  1.5333
 6438SOL    HW230951   3.057   1.629   1.543 -1.1421 -1.2557 -1.0289
 6439SOL     OW30952   3.561   3.607   9.506 -0.0094  0.0204 -0.1892
 6439SOL    HW130953   3.612   3.658   9.569  0.6466  0.2548 -0.9060
 6439SOL    HW230954   3.627   3.605   9.436  0.7940  2.5910  0.4893
 6440SOL     OW30955   3.761   3.041   1.446 -0.1668 -0.2485 -0.4436
 6440SOL    HW130956   3.700   3.017   1.515 -0.9089  0.5301 -0.8314
 6440SOL    HW230957   3.817   2.964   1.446 -2.2551 -1.7456  1.8343
 6441SOL     OW30958   0.020   3.262   4.079 -0.1056 -0.0166  0.1283
 6441SOL    HW130959   4.739   3.353   4.100  0.8791 -0.2732  2.1502
 6441SOL    HW230960   0.022   3.227   4.167  1.2353  0.1831  0.1703
 6442SOL     OW30961   4.304   3.390   9.242  0.1127 -0.1358  0.6589
 6442SOL    HW130962   4.211   3.385   9.219 -0.0148 -1.2549  1.3976
 6442SOL    HW230963   4.311   3.484   9.262 -2.0313 -0.0528  1.0616
 6443SOL     OW30964   2.081   3.962   3.169  0.1259  0.2459  0.4160
 6443SOL    HW130965   2.053   3.875   3.139 -1.0065  0.4494  0.8534
 6443SOL    HW230966   2.173   3.955   3.192  0.4270  0.5548 -0.7110
 6444SOL     OW30967   0.135   3.141   3.859  0.0881  0.1613  0.2671
 6444SOL    HW130968   0.130   3.175   3.948 -1.0834 -1.3356  0.7670
 6444SOL    HW230969   0.129   3.226   3.816  3.0738  0.9003  1.3339
 6445SOL     OW30970   4.026   3.499   1.331  0.3143  0.6455  0.0588
 6445SOL    HW130971   4.018   3.420   1.385  1.0614 -0.7392 -1.8636
 6445SOL    HW230972   4.120   3.502   1.313 -0.0005  0.6770 -1.5031
 6446SOL     OW30973   2.822   2.260   4.526 -0.1497  0.0475  0.0365
 6446SOL    HW130974   2.799   2.190   4.464  2.7446 -0.5062 -0.4038
 6446SOL    HW230975   2.756   2.325   4.504  1.3690  1.8538  0.9071
 6447SOL     OW30976   3.097   3.959   2.071 -0.4403 -0.0126  0.5108
 6447SOL    HW130977   3.147   4.032   2.035 -0.7913 -0.4588 -0.8651
 6447SOL    HW230978   3.116   3.878   2.024 -3.2594 -0.6873  0.5080
 6448SOL     OW30979   4.739   3.454   3.154 -0.7073  0.2718 -0.2292
 6448SOL    HW130980   4.658   3.473   3.106 -2.8944 -0.1229  3.2312
 6448SOL    HW230981   0.031   3.540   3.181 -0.9066  0.8603 -1.8687
 6449SOL     OW30982   4.207   1.308  10.698 -0.0276  0.4735 -0.2374
 6449SOL    HW130983   4.285   1.334  10.649 -0.5611  1.0142 -0.8004
 6449SOL    HW230984   4.223   1.342  10.786 -0.9088 -0.7646  0.4031
 6450SOL     OW30985   0.335   2.218  13.742 -0.1410  0.0297 -0.1688
 6450SOL    HW130986   0.284   2.222  13.823 -0.2843  0.9062 -0.3031
 6450SOL    HW230987   0.308   2.136  13.701  4.7938 -2.1634  0.9260
 6451SOL     OW30988   1.283   2.091   2.520  0.6544 -0.5629  0.3242
 6451SOL    HW130989   1.346   2.109   2.450 -0.4924  1.5256 -0.1513
 6451SOL    HW230990   1.294   1.998   2.542 -1.6961 -0.7004  0.9331
 6452SOL     OW30991   4.642   0.902   4.384  0.3469 -0.0486 -0.2551
 6452SOL    HW130992   4.568   0.867   4.335 -0.7510  2.3874 -0.3262
 6452SOL    HW230993   4.631   0.995   4.365 -1.1765 -0.2153 -0.2120
 6453SOL     OW30994   2.473   4.726  12.280  0.2474 -0.1725  0.1414
 6453SOL    HW130995   2.508   4.638  12.292  1.2083  0.0182 -1.3260
 6453SOL    HW230996   2.378   4.719  12.275  0.0105  3.3754 -0.0414
 6454SOL     OW30997   1.505   0.155  12.304 -0.2352  0.2124  0.6597
 6454SOL    HW130998   1.473   0.156  12.214 -0.9257 -1.9428  0.8800
 6454SOL    HW230999   1.479   0.244  12.328 -1.9333 -0.1802  0.3032
 6455SOL     OW31000   0.271   0.365  17.544 -0.6959 -0.8726 -0.5169
 6455SOL    HW131001   0.321   0.314  17.608 -1.0908  0.6256  0.9912
 6455SOL    HW231002   0.238   0.297  17.485  1.2225 -1.8984 -0.3992
 6456SOL     OW31003   0.978   4.007   9.866 -0.0575 -0.7145  0.5358
 6456SOL    HW131004   0.968   4.090   9.818  0.2414 -1.1362 -0.2540
 6456SOL    HW231005   1.071   3.987   9.872  0.3289  1.0121  0.3318
 6457SOL     OW31006   3.477   0.388   3.852 -0.3100  0.5237  0.3238
 6457SOL    HW131007   3.468   0.483   3.845  0.4543  0.6821  1.4504
 6457SOL    HW231008   3.469   0.363   3.944  1.4221  1.0818  0.6290
 6458SOL     OW31009   4.113   4.268   2.084  0.0627 -0.3833  0.4865
 6458SOL    HW131010   4.186   4.247   2.025  0.9441 -0.2597  1.5490
 6458SOL    HW231011   4.115   4.188   2.136  0.8882 -1.7028 -1.5628
 6459SOL     OW31012   1.085   1.562  15.707 -0.4421 -0.2822 -0.2131
 6459SOL    HW131013   1.088   1.536  15.799 -2.0226 -0.0784 -0.1135
 6459SOL    HW231014   1.179   1.556  15.687 -0.7386  1.5270 -2.1044
 6460SOL     OW31015   3.988   0.034   1.694  1.2069 -0.9828 -0.2671
 6460SOL    HW131016   4.013   0.048   1.603  2.3046  2.0957  0.4861
 6460SOL    HW231017   3.937   4.694   1.685 -1.9044  1.0237 -0.2530
 6461SOL     OW31018   4.002   2.452   0.783 -0.5678 -0.2584  0.1777
 6461SOL    HW131019   3.962   2.385   0.728  0.4340  0.9224 -2.0120
 6461SOL    HW231020   3.930   2.508   0.813 -0.0017 -0.3039  1.6150
 6462SOL     OW31021   2.744   2.898   7.858 -0.2218 -0.0722 -0.6852
 6462SOL    HW131022   2.751   2.805   7.879 -1.4174  0.3096  1.4407
 6462SOL    HW231023   2.831   2.934   7.837  0.3705  0.2060  2.2272
 6463SOL     OW31024   1.495   1.425   6.980 -0.2336 -0.1773 -0.7081
 6463SOL    HW131025   1.438   1.357   6.945  0.9444  0.2249 -3.4046
 6463SOL    HW231026   1.429   1.481   7.021 -1.6105 -1.8017 -0.7451
 6464SOL     OW31027   1.291   2.053   9.070 -0.3267  0.1874  0.4880
 6464SOL    HW131028   1.237   2.077   8.995 -1.4749 -3.2076  0.2625
 6464SOL    HW231029   1.380   2.077   9.043  0.4945 -1.5897  1.6126
 6465SOL     OW31030   4.543   3.410   6.169 -0.2754  0.2466  0.0544
 6465SOL    HW131031   4.497   3.371   6.244  0.0502  0.5901  0.4306
 6465SOL    HW231032   4.532   3.502   6.193  0.7414  0.3709  0.0173
 6466SOL     OW31033   1.661   4.307   4.340  0.3464  0.2384  0.3585
 6466SOL    HW131034   1.580   4.290   4.292  1.2885  1.3235 -1.6049
 6466SOL    HW231035   1.700   4.379   4.290  0.9610 -0.8940 -0.7884
 6467SOL     OW31036   3.364   2.229   3.236  0.0061  0.1398  0.3513
 6467SOL    HW131037   3.284   2.178   3.231  0.0680  0.1195 -0.4180
 6467SOL    HW231038   3.427   2.161   3.258 -1.2318 -0.6872  1.3536
 6468SOL     OW31039   4.255   2.139  12.642  0.1849 -0.2830 -0.4186
 6468SOL    HW131040   4.188   2.192  12.600  0.4167 -1.1070 -1.8079
 6468SOL    HW231041   4.325   2.159  12.580 -0.1767  3.1881  0.2936
 6469SOL     OW31042   0.836   3.422   2.500  0.0698 -0.3847 -0.1943
 6469SOL    HW131043   0.791   3.477   2.564  0.4803  1.5394 -1.5491
 6469SOL    HW231044   0.827   3.334   2.537 -1.3110 -1.2285 -2.5064
 6470SOL     OW31045   0.477   3.017   8.133 -0.3311 -0.5171  0.2095
 6470SOL    HW131046   0.548   2.953   8.128  0.9172  0.9878 -1.6421
 6470SOL    HW231047   0.416   2.954   8.096 -1.9330  1.7415 -0.9971
 6471SOL     OW31048   4.560   0.485   7.677 -0.0793 -0.3136 -0.5752
 6471SOL    HW131049   4.560   0.454   7.586 -0.7174  1.6072 -1.2252
 6471SOL    HW231050   4.496   0.557   7.674  0.8953  0.5559 -0.3244
 6472SOL     OW31051   1.426   3.119  15.335  0.4593  0.1280  0.0796
 6472SOL    HW131052   1.414   3.193  15.275  2.0032 -0.2886 -0.7537
 6472SOL    HW231053   1.410   3.043  15.279 -3.1032  0.9411 -0.0072
 6473SOL     OW31054   4.398   3.174   9.352  0.3559  0.1346  0.0350
 6473SOL    HW131055   4.370   3.261   9.321 -1.2017  0.9726  3.8094
 6473SOL    HW231056   4.485   3.196   9.385  0.6327 -1.2493  0.2340
 6474SOL     OW31057   4.193   3.827   2.336  0.1142 -0.2931  0.7402
 6474SOL    HW131058   4.269   3.809   2.391 -0.8165  2.6587  2.9759
 6474SOL    HW231059   4.164   3.741   2.306 -1.1530  0.6562 -0.7465
 6475SOL     OW31060   3.568   0.872   0.727  0.2174 -0.6268  0.0435
 6475SOL    HW131061   3.551   0.797   0.669 -2.0088  1.0959 -1.5583
 6475SOL    HW231062   3.643   0.834   0.773  0.3931 -0.0864  0.2010
 6476SOL     OW31063   0.914   2.771  12.570  0.4211 -0.0867  0.4401
 6476SOL    HW131064   0.981   2.818  12.620  1.6097  1.1748 -2.3173
 6476SOL    HW231065   0.920   2.678  12.594 -2.0444 -0.4242 -0.2357
 6477SOL     OW31066   1.170   2.485   4.569  0.5362  0.1095  0.2061
 6477SOL    HW131067   1.253   2.528   4.550  0.3398  0.1248 -0.6461
 6477SOL    HW231068   1.185   2.467   4.662 -0.3582 -0.5513  0.2352
 6478SOL     OW31069   1.650   0.678   2.247 -0.2695 -0.0044 -0.6384
 6478SOL    HW131070   1.689   0.617   2.309 -0.8275 -1.0116 -1.2903
 6478SOL    HW231071   1.691   0.763   2.261  1.6256 -1.1061  0.3945
 6479SOL     OW31072   0.984   2.953   5.086  0.3227  0.6779 -0.1356
 6479SOL    HW131073   0.898   2.992   5.070 -0.5239 -0.0142  2.6872
 6479SOL    HW231074   0.988   2.939   5.181  0.1970 -1.9197 -0.4957
 6480SOL     OW31075   0.221   2.382   2.435  0.5648  0.0573 -0.0592
 6480SOL    HW131076   0.155   2.324   2.472  0.1746  0.5070 -0.0513
 6480SOL    HW231077   0.292   2.318   2.431  0.6846  0.2776 -1.7160
 6481SOL     OW31078   2.404   4.249   3.127 -0.1108 -0.4485 -0.1827
 6481SOL    HW131079   2.414   4.336   3.089 -0.1879 -0.0093  0.8172
 6481SOL    HW231080   2.361   4.271   3.209 -1.1176  2.0674 -1.3782
 6482SOL     OW31081   1.548   3.214   5.847 -0.0533 -0.0463 -0.3719
 6482SOL    HW131082   1.581   3.282   5.905  1.1979 -1.0643  0.0952
 6482SOL    HW231083   1.570   3.254   5.762 -2.4560  1.1341 -0.4498
 6483SOL     OW31084   3.194   0.699   8.796  0.2385  0.1075 -0.2221
 6483SOL    HW131085   3.195   0.626   8.734 -0.6403 -0.9333  0.9961
 6483SOL    HW231086   3.231   0.768   8.742 -0.7273  1.5272  0.9367
 6484SOL     OW31087   3.696   3.406   1.444 -1.1985 -0.2707  0.3003
 6484SOL    HW131088   3.789   3.405   1.469 -1.0242 -2.2493 -0.4148
 6484SOL    HW231089   3.670   3.336   1.504 -1.8153  0.5428  0.9697
 6485SOL     OW31090   4.376   2.118   0.725  0.1281 -0.0216  0.2550
 6485SOL    HW131091   4.304   2.172   0.759 -0.2919 -1.5334  1.7222
 6485SOL    HW231092   4.363   2.031   0.762 -0.7406 -0.4277 -0.9945
 6486SOL     OW31093   0.954   1.406   5.025 -0.1954  0.5716  0.3409
 6486SOL    HW131094   0.989   1.442   4.944  0.8452  1.3717  1.1417
 6486SOL    HW231095   0.978   1.314   5.013 -1.1428  0.5011 -0.9199
 6487SOL     OW31096   1.547   4.448   9.892 -0.0069  0.1800 -0.5677
 6487SOL    HW131097   1.520   4.356   9.901  0.0694  0.1624 -0.5152
 6487SOL    HW231098   1.598   4.456   9.973 -1.6797 -0.3135  0.5443
 6488SOL     OW31099   1.472   4.091   4.609  0.3648  0.0498 -0.1782
 6488SOL    HW131100   1.441   4.164   4.661  1.8005  0.6775 -0.2257
 6488SOL    HW231101   1.387   4.076   4.568 -0.1432  0.8520  0.5887
 6489SOL     OW31102   4.583   0.409   5.934  0.5017 -0.0699  0.0898
 6489SOL    HW131103   4.648   0.424   6.002  1.9672 -2.0544 -0.8861
 6489SOL    HW231104   4.636   0.435   5.859  0.8649  1.0344  0.7227
 6490SOL     OW31105   2.906   3.168   7.020 -0.0486  0.6061 -0.4226
 6490SOL    HW131106   2.830   3.117   6.991 -0.5732  0.5980  0.9302
 6490SOL    HW231107   2.871   3.257   7.029 -3.9137 -0.7979 -1.4244
 6491SOL     OW31108   0.319   4.094   6.544  0.3187  0.4215 -0.4316
 6491SOL    HW131109   0.343   4.183   6.572 -0.3377  0.3269  0.4280
 6491SOL    HW231110   0.243   4.113   6.489 -0.7454 -0.4054  0.7663
 6492SOL     OW31111   0.792   1.794  11.163 -0.7201  0.2726 -0.0310
 6492SOL    HW131112   0.878   1.756  11.182 -0.3887  1.4413  0.7909
 6492SOL    HW231113   0.804   1.817  11.071 -2.4948  2.3651  0.2806
 6493SOL     OW31114   0.964   1.238   7.180  0.1509 -0.1008 -0.4136
 6493SOL    HW131115   0.917   1.209   7.102 -0.5204 -1.4022  0.4669
 6493SOL    HW231116   1.052   1.214   7.151 -0.1894 -0.1520 -1.4110
 6494SOL     OW31117   1.593   1.038  16.059 -0.2825  0.3370 -0.3308
 6494SOL    HW131118   1.532   0.964  16.061  1.4979 -1.1471 -0.9562
 6494SOL    HW231119   1.559   1.093  15.988 -1.9509  1.1907  1.1257
 6495SOL     OW31120   2.979   3.408   9.461 -0.0468 -0.3022 -0.9309
 6495SOL    HW131121   3.010   3.494   9.432 -1.1575  0.5062  0.2858
 6495SOL    HW231122   2.950   3.432   9.549  0.5663  0.9266 -1.0621
 6496SOL     OW31123   0.042   1.077  12.099  0.3274 -0.2725 -0.9333
 6496SOL    HW131124   0.091   1.144  12.147 -0.0958 -0.4693 -0.2367
 6496SOL    HW231125   4.696   1.077  12.140 -0.2081  0.4837 -2.0276
 6497SOL     OW31126   0.823   0.791   5.623 -0.3852  0.3584 -0.8252
 6497SOL    HW131127   0.740   0.760   5.587 -0.7416 -0.7803  0.9803
 6497SOL    HW231128   0.831   0.873   5.575 -3.3935  0.3278 -1.3858
 6498SOL     OW31129   3.470   2.819   3.565  0.2576 -0.2310 -0.2853
 6498SOL    HW131130   3.431   2.811   3.652  1.6735  1.6777  0.5189
 6498SOL    HW231131   3.559   2.850   3.581  0.6249 -2.3718  1.8889
 6499SOL     OW31132   3.349   4.672   9.743 -0.6965  0.4104  0.1888
 6499SOL    HW131133   3.329   0.024   9.757 -0.1478  0.5270  0.1944
 6499SOL    HW231134   3.404   4.665   9.821  0.6556  0.5160 -0.7655
 6500SOL     OW31135   1.019   2.678   5.321  0.2590  0.1001  0.0976
 6500SOL    HW131136   0.964   2.689   5.399 -2.0568  0.1280 -1.5312
 6500SOL    HW231137   1.024   2.771   5.299  0.0276 -0.2723 -1.5151
 6501SOL     OW31138   1.923   2.503   3.342 -0.2620 -0.3969  0.0249
 6501SOL    HW131139   2.009   2.533   3.313  0.7924 -2.5900  0.8732
 6501SOL    HW231140   1.919   2.537   3.431 -0.5495  1.0548 -0.5402
 6502SOL     OW31141   0.310   2.036  17.439 -0.2494  0.1182 -0.2061
 6502SOL    HW131142   0.333   1.954  17.482 -2.2221 -0.5626 -0.4393
 6502SOL    HW231143   0.389   2.084  17.463 -0.1580 -0.6930  1.0502
 6503SOL     OW31144   3.255   2.254  15.957 -0.1338  0.6981 -0.2550
 6503SOL    HW131145   3.307   2.335  15.963  0.5092  0.2955 -0.4122
 6503SOL    HW231146   3.327   2.201  15.925 -0.8910 -1.2926  1.3751
 6504SOL     OW31147   0.897   0.728   1.879 -0.1382 -0.0818 -0.2745
 6504SOL    HW131148   0.821   0.699   1.930 -1.2597  0.2176 -1.7728
 6504SOL    HW231149   0.901   0.821   1.902  0.6029  0.5689 -3.0427
 6505SOL     OW31150   3.592   3.097   8.681  0.1567 -0.3249 -0.2504
 6505SOL    HW131151   3.647   3.107   8.759  1.0180 -0.0898 -0.8961
 6505SOL    HW231152   3.575   3.004   8.690  0.8420 -0.5158 -0.9808
 6506SOL     OW31153   1.403   3.650   4.382  0.7052  0.1780 -0.4869
 6506SOL    HW131154   1.339   3.710   4.345 -0.1254  1.2901  2.7528
 6506SOL    HW231155   1.364   3.622   4.465 -2.3878 -0.3003 -2.1247
 6507SOL     OW31156   4.272   0.023   8.666  0.0890  0.2946 -0.3554
 6507SOL    HW131157   4.188   0.070   8.667  0.3993  0.8458  0.4447
 6507SOL    HW231158   4.272   4.713   8.748  1.8440 -0.8216 -1.0347
 6508SOL     OW31159   4.712   1.509   8.357 -0.5310 -0.4579  0.9671
 6508SOL    HW131160   4.696   1.541   8.446 -1.0196  0.4640  0.5526
 6508SOL    HW231161   4.733   1.417   8.369 -1.0576 -0.7738 -0.5484
 6509SOL     OW31162   4.144   0.361   0.736 -0.5759 -0.1021  0.7797
 6509SOL    HW131163   4.161   0.418   0.661  0.8917 -0.0513  1.1454
 6509SOL    HW231164   4.076   0.398   0.792 -0.4445  0.5136  0.5362
 6510SOL     OW31165   1.438   3.395   2.052 -0.0746  0.5984 -0.3987
 6510SOL    HW131166   1.442   3.302   2.071  1.8434  0.3705 -1.9293
 6510SOL    HW231167   1.400   3.396   1.964 -0.9344  0.1085 -0.0249
 6511SOL     OW31168   2.320   3.976   3.373 -0.4790  0.1972 -0.3389
 6511SOL    HW131169   2.311   3.935   3.459  1.1922  0.9169  0.1738
 6511SOL    HW231170   2.268   4.056   3.387 -0.8265 -0.2370  0.8366
 6512SOL     OW31171   2.954   4.438  13.256 -0.0754  0.2101 -0.1907
 6512SOL    HW131172   3.017   4.430  13.328  0.8501  1.3258 -0.8775
 6512SOL    HW231173   3.008   4.468  13.183 -0.6628  1.2560 -0.1832
 6513SOL     OW31174   1.430   1.190  10.807 -0.3052  0.0248  0.6002
 6513SOL    HW131175   1.477   1.120  10.853  0.2874 -1.4606 -2.2839
 6513SOL    HW231176   1.345   1.169  10.847 -0.9996 -0.2713 -1.0358
 6514SOL     OW31177   2.715   4.500   6.199 -0.0841 -1.2010 -0.1757
 6514SOL    HW131178   2.667   4.536   6.274 -0.4623 -2.2415  0.0828
 6514SOL    HW231179   2.696   4.572   6.139  0.6498 -0.0344  0.9954
 6515SOL     OW31180   1.907   3.400  10.603  0.3687 -0.2480  0.0786
 6515SOL    HW131181   1.873   3.313  10.582  0.7058 -0.4526  0.3870
 6515SOL    HW231182   1.928   3.395  10.696  1.5935  0.1781 -0.1735
 6516SOL     OW31183   4.380   2.127   9.232  0.4193  0.2259  0.2960
 6516SOL    HW131184   4.457   2.141   9.287 -0.0011  0.1585  0.9030
 6516SOL    HW231185   4.406   2.047   9.186 -0.8760 -1.9530  3.3206
 6517SOL     OW31186   1.621   1.050   0.407  0.4217 -0.2539 -0.2273
 6517SOL    HW131187   1.636   1.077   0.316  0.1033 -1.0114 -0.5102
 6517SOL    HW231188   1.685   1.111   0.441 -1.1231 -0.3497  2.8085
 6518SOL     OW31189   0.022   3.774   0.994  0.0872  0.2096  0.1099
 6518SOL    HW131190   0.020   3.733   0.907  0.0159 -1.5965  0.9562
 6518SOL    HW231191   0.086   3.843   0.978 -1.4117  1.3781 -0.8934
 6519SOL     OW31192   0.836   1.265  10.336 -0.0816  0.3013 -0.2292
 6519SOL    HW131193   0.877   1.304  10.259 -0.3413  1.0141 -0.0062
 6519SOL    HW231194   0.909   1.282  10.397 -1.4995 -1.2287  1.8886
 6520SOL     OW31195   1.199   4.119  13.647  0.0063 -0.3367  0.1190
 6520SOL    HW131196   1.121   4.089  13.693 -0.2488  0.1647  0.0044
 6520SOL    HW231197   1.164   4.104  13.560  0.1676  1.1834 -0.1989
 6521SOL     OW31198   0.185   3.782   5.301  0.1260 -0.0102 -0.2618
 6521SOL    HW131199   0.115   3.812   5.358  0.2003 -0.8888  0.2929
 6521SOL    HW231200   0.135   3.767   5.220  0.0246 -0.6851 -0.0777
 6522SOL     OW31201   4.236   1.424   5.580 -0.0891 -0.2827  0.3888
 6522SOL    HW131202   4.159   1.465   5.541 -0.2832  0.4845  1.5817
 6522SOL    HW231203   4.281   1.508   5.581 -0.0710 -0.2777 -0.6650
 6523SOL     OW31204   1.988   0.829   2.231 -0.0579 -0.1475 -0.5728
 6523SOL    HW131205   2.027   0.915   2.243  2.1216 -1.4296  1.5826
 6523SOL    HW231206   1.910   0.849   2.283 -0.0809  0.2009 -0.7417
 6524SOL     OW31207   2.354   0.113   2.520 -0.0307  0.1696  0.4943
 6524SOL    HW131208   2.336   0.027   2.482  4.8076 -1.0885  0.9497
 6524SOL    HW231209   2.416   0.087   2.588  2.1827  1.7553 -0.8906
 6525SOL     OW31210   3.525   4.155   9.351 -0.2984 -0.3279 -0.1435
 6525SOL    HW131211   3.470   4.096   9.299  1.7260  0.6373 -3.3984
 6525SOL    HW231212   3.470   4.176   9.426  0.5915  0.0446  0.4001
 6526SOL     OW31213   0.009   2.501  14.468 -0.1569 -0.2454  0.2190
 6526SOL    HW131214   0.023   2.517  14.375  0.1739 -0.2137  0.2757
 6526SOL    HW231215   0.027   2.407  14.474 -0.7577 -0.3419  0.4897
 6527SOL     OW31216   2.945   4.550   4.483 -0.1166  0.0867  0.2545
 6527SOL    HW131217   2.993   4.512   4.557  1.5745 -0.0563 -0.9017
 6527SOL    HW231218   2.883   4.605   4.530 -0.8374 -1.2875  0.8896
 6528SOL     OW31219   3.935   2.228  10.893 -0.4900  0.6078  0.0256
 6528SOL    HW131220   4.004   2.213  10.956 -1.1115 -0.0211  0.5537
 6528SOL    HW231221   3.992   2.250  10.819 -0.0724 -1.1682 -0.1743
 6529SOL     OW31222   0.272   2.143   4.361 -0.2643  0.4509  0.2256
 6529SOL    HW131223   0.361   2.163   4.391  0.1575 -1.0299 -0.0135
 6529SOL    HW231224   0.289   2.135   4.267 -0.4663  0.6930  0.1705
 6530SOL     OW31225   2.594   3.142   5.803  0.3161 -0.1426  0.4883
 6530SOL    HW131226   2.520   3.202   5.801 -0.1263 -0.7037 -0.1080
 6530SOL    HW231227   2.665   3.194   5.764 -0.4968  1.4336  1.1089
 6531SOL     OW31228   0.733   2.041   1.276  0.0328 -0.7582 -0.4356
 6531SOL    HW131229   0.787   2.118   1.291 -0.5948 -0.0692 -1.8136
 6531SOL    HW231230   0.649   2.079   1.249 -0.2471 -0.3080  1.0384
 6532SOL     OW31231   4.552   1.250   8.722 -0.2002 -0.1180  0.1904
 6532SOL    HW131232   4.556   1.184   8.791 -1.3985 -1.3951 -0.9832
 6532SOL    HW231233   4.576   1.333   8.765 -1.6162 -0.5837  1.8779
 6533SOL     OW31234   1.315   0.422   0.669 -0.4682 -0.4666  0.4966
 6533SOL    HW131235   1.395   0.460   0.632 -0.7717 -0.5018 -0.1951
 6533SOL    HW231236   1.243   0.474   0.633  1.2136  1.8327  0.4956
 6534SOL     OW31237   4.037   0.925   5.208 -0.1544  0.3790 -0.1134
 6534SOL    HW131238   3.996   0.920   5.122  3.4457 -1.8107 -1.6840
 6534SOL    HW231239   3.972   0.879   5.261 -0.5341 -0.2085 -1.1073
 6535SOL     OW31240   1.205   0.688   7.310 -0.1170  0.2701  0.3867
 6535SOL    HW131241   1.206   0.701   7.405 -0.3438 -1.9004  0.7022
 6535SOL    HW231242   1.299   0.678   7.292  0.0988 -0.3769  1.8690
 6536SOL     OW31243   0.538   3.025   1.303 -0.0160  0.4274 -0.0145
 6536SOL    HW131244   0.583   3.081   1.366 -0.2221  0.1600  0.3753
 6536SOL    HW231245   0.572   3.074   1.229  2.2314  2.2691  2.2639
 6537SOL     OW31246   0.203   3.904   5.634 -0.3053  0.4660  0.7805
 6537SOL    HW131247   0.256   3.861   5.701 -2.1027 -2.8532  0.0687
 6537SOL    HW231248   0.172   3.826   5.588  3.3121  1.1349 -2.7775
 6538SOL     OW31249   3.243   3.739  14.750  0.8665 -0.1137  0.1999
 6538SOL    HW131250   3.236   3.766  14.659  4.3956  2.4303  0.6809
 6538SOL    HW231251   3.154   3.722  14.781  0.4302  1.1755 -0.3509
 6539SOL     OW31252   0.755   3.074   6.181 -0.0964  0.2620  0.3398
 6539SOL    HW131253   0.669   3.094   6.216 -0.5253 -2.8317  1.0575
 6539SOL    HW231254   0.763   2.982   6.205  2.5414 -0.6509 -3.9248
 6540SOL     OW31255   2.096   2.044   8.501  0.6787  0.1763 -0.3944
 6540SOL    HW131256   2.177   2.083   8.533  0.8720 -2.8267  2.6401
 6540SOL    HW231257   2.069   2.119   8.446 -2.5418 -1.4250 -1.0402
 6541SOL     OW31258   1.230   3.063   6.053  0.1053  0.0029  0.6870
 6541SOL    HW131259   1.316   3.038   6.085  0.3020 -0.3945 -0.1397
 6541SOL    HW231260   1.166   2.994   6.070  0.5870 -0.4576  0.6209
 6542SOL     OW31261   1.714   4.391  14.947 -0.0909  0.6709  0.2749
 6542SOL    HW131262   1.809   4.389  14.955 -0.1987  0.8572  1.5192
 6542SOL    HW231263   1.682   4.410  15.035 -3.4637 -0.9443 -0.5936
 6543SOL     OW31264   4.001   3.420  11.717  0.0989  0.3677  0.3716
 6543SOL    HW131265   3.943   3.348  11.739  1.0358 -0.5363 -0.1204
 6543SOL    HW231266   3.997   3.417  11.622  0.6555 -2.1405  0.4296
 6544SOL     OW31267   3.148   1.612   5.682 -0.3498  0.2793  0.6957
 6544SOL    HW131268   3.113   1.533   5.724  0.0293  0.3353  1.1203
 6544SOL    HW231269   3.217   1.584   5.621  1.8881  2.5979  2.1477
 6545SOL     OW31270   4.313   0.710   4.926 -0.5280 -0.2067  0.7014
 6545SOL    HW131271   4.237   0.656   4.904 -0.5337  0.7985 -1.7361
 6545SOL    HW231272   4.316   0.754   4.841  0.4220  0.0913  0.8945
 6546SOL     OW31273   1.612   3.169   4.861  0.1763  0.2153  0.4616
 6546SOL    HW131274   1.559   3.094   4.886 -0.7176  1.4487  2.2794
 6546SOL    HW231275   1.638   3.151   4.770 -0.1428 -1.1638  0.6429
 6547SOL     OW31276   4.128   3.199  11.469 -0.7836  0.2490  0.0616
 6547SOL    HW131277   4.214   3.214  11.508 -0.0586 -2.4561 -0.4641
 6547SOL    HW231278   4.092   3.287  11.459 -1.4460 -0.1854 -1.3591
 6548SOL     OW31279   0.177   3.600   1.509  0.3324  0.4147  0.2845
 6548SOL    HW131280   0.113   3.551   1.458 -0.3066  1.0632  0.4586
 6548SOL    HW231281   0.201   3.531   1.570 -2.4482  0.0584  0.9895
 6549SOL     OW31282   3.760   3.584   2.068  0.4832  0.2468  0.1163
 6549SOL    HW131283   3.777   3.615   2.157  0.3569  0.7142 -0.0192
 6549SOL    HW231284   3.741   3.666   2.021 -0.3233 -1.0135 -1.7725
 6550SOL     OW31285   4.334   2.184   6.631  0.0076 -0.4776  0.3786
 6550SOL    HW131286   4.268   2.226   6.687  0.9037 -1.3397  2.1023
 6550SOL    HW231287   4.283   2.168   6.552  1.2439  0.4778 -0.6014
 6551SOL     OW31288   0.724   2.363  17.146  0.1209 -0.3993  0.3515
 6551SOL    HW131289   0.662   2.340  17.077 -1.7516  2.2462  1.1776
 6551SOL    HW231290   0.803   2.382  17.094 -0.8042  1.3280 -0.4417
 6552SOL     OW31291   4.368   0.793   0.589  0.1140  0.7541 -0.2290
 6552SOL    HW131292   4.322   0.869   0.554  1.0527  0.4203 -2.1472
 6552SOL    HW231293   4.452   0.829   0.616 -0.2610  0.2276  1.6808
 6553SOL     OW31294   4.166   4.627   6.268  0.2507 -0.4723  0.2531
 6553SOL    HW131295   4.189   4.695   6.206  2.2634  1.3668  2.9928
 6553SOL    HW231296   4.101   4.586   6.211  0.2757  0.6106 -0.5432
 6554SOL     OW31297   1.983   3.617  13.879  0.5227  0.2252 -0.3026
 6554SOL    HW131298   1.951   3.636  13.790  1.0034  0.6126 -0.3988
 6554SOL    HW231299   2.075   3.641  13.865  0.7784 -0.0779  0.9505
 6555SOL     OW31300   3.973   4.505   2.461  0.1157 -0.9781 -0.2395
 6555SOL    HW131301   3.971   4.595   2.493  1.9448 -0.7284 -0.8047
 6555SOL    HW231302   4.053   4.504   2.407 -1.0020  1.2172 -1.9288
 6556SOL     OW31303   3.366   3.165   7.796  0.1908  0.2865  0.2575
 6556SOL    HW131304   3.272   3.156   7.786  0.3159 -1.0899  0.3139
 6556SOL    HW231305   3.375   3.259   7.780  1.5714 -0.0536 -1.0151
 6557SOL     OW31306   1.705   2.663   2.756  0.2812 -0.1743  0.5734
 6557SOL    HW131307   1.736   2.598   2.819 -0.2964  0.0132  1.0511
 6557SOL    HW231308   1.770   2.732   2.769 -1.0117  1.0135  0.7559
 6558SOL     OW31309   1.476   0.245  16.157 -0.8219  0.9639 -0.1399
 6558SOL    HW131310   1.473   0.223  16.064 -0.7804  1.4320 -0.2497
 6558SOL    HW231311   1.436   0.165  16.193 -0.3775 -0.3627 -2.6003
 6559SOL     OW31312   0.826   0.273  14.908  0.1308 -0.3048 -0.1555
 6559SOL    HW131313   0.795   0.363  14.911 -1.4920 -0.7326 -3.7786
 6559SOL    HW231314   0.835   0.256  15.002  2.3171  2.0885  0.0776
 6560SOL     OW31315   4.149   1.539  16.754  0.4484 -0.3896  0.1814
 6560SOL    HW131316   4.205   1.501  16.686  0.0576  0.2922 -0.5228
 6560SOL    HW231317   4.065   1.560  16.712  1.7294 -0.2101 -2.3039
 6561SOL     OW31318   2.035   0.412   6.629 -0.2929  0.0419 -0.5155
 6561SOL    HW131319   2.065   0.493   6.671 -0.9263 -0.2163  0.4485
 6561SOL    HW231320   2.035   0.444   6.539  0.2279 -0.2502 -0.6144
 6562SOL     OW31321   1.174   1.587   8.371  0.0716 -0.3481  0.0704
 6562SOL    HW131322   1.214   1.648   8.433  1.9761 -2.2011  0.6721
 6562SOL    HW231323   1.084   1.619   8.373  0.2036  0.0269 -0.0871
 6563SOL     OW31324   2.741   3.195   9.156 -0.1021 -0.4456  0.7458
 6563SOL    HW131325   2.763   3.102   9.146  0.8021 -0.3108  1.4403
 6563SOL    HW231326   2.755   3.198   9.250  1.1112 -2.5005  0.6459
 6564SOL     OW31327   0.002   4.227   7.984 -0.2165  0.3883  0.2691
 6564SOL    HW131328   4.662   4.177   7.997 -0.1335  0.1238 -0.2582
 6564SOL    HW231329   4.712   4.296   7.924 -0.5498 -0.8473 -0.9838
 6565SOL     OW31330   0.885   2.002   0.447 -0.5211  0.2742  0.0798
 6565SOL    HW131331   0.840   2.035   0.525  1.6766  1.7642  0.7254
 6565SOL    HW231332   0.912   2.087   0.412  0.1346  0.1501  0.2851
 6566SOL     OW31333   0.697   1.384   5.155 -0.3639  0.3819 -0.0242
 6566SOL    HW131334   0.766   1.369   5.090 -0.4543  1.6080 -0.4142
 6566SOL    HW231335   0.745   1.414   5.232  0.5858 -2.5057  0.5064
 6567SOL     OW31336   0.242   4.541  14.245  0.1375 -0.2132 -0.2142
 6567SOL    HW131337   0.194   4.549  14.163  1.3563  0.9362 -0.8195
 6567SOL    HW231338   0.323   4.587  14.222  0.2680 -0.1947  0.2700
 6568SOL     OW31339   2.341   0.876  17.226  0.1069 -0.0815 -0.1098
 6568SOL    HW131340   2.389   0.948  17.184 -1.4227  0.9883 -0.0404
 6568SOL    HW231341   2.349   0.814  17.154 -0.9557 -0.8675  0.4484
 6569SOL     OW31342   0.948   0.917   6.689  0.3450  0.1344  0.2723
 6569SOL    HW131343   0.863   0.895   6.728  0.6635 -0.5349  0.5972
 6569SOL    HW231344   0.914   0.968   6.615 -2.2679 -3.6471 -1.1329
 6570SOL     OW31345   3.987   1.640   7.649 -0.0474 -0.6333 -0.0215
 6570SOL    HW131346   3.936   1.565   7.617  0.4462 -0.1720 -1.9388
 6570SOL    HW231347   4.066   1.621   7.598  1.0754  3.7400  0.0962
 6571SOL     OW31348   3.978   4.380   4.041  0.7369 -0.2160 -0.4699
 6571SOL    HW131349   3.887   4.352   4.043 -0.6384  4.2139  0.2234
 6571SOL    HW231350   4.030   4.301   4.055 -0.9298 -1.0595  0.9518
 6572SOL     OW31351   1.423   3.455  16.866 -0.0460  0.7396 -0.0213
 6572SOL    HW131352   1.472   3.384  16.824 -0.7553 -0.5248  1.2960
 6572SOL    HW231353   1.500   3.507  16.891  0.0609  0.3153  0.5492
 6573SOL     OW31354   0.779   4.337   5.043  0.1386 -0.3565 -0.0427
 6573SOL    HW131355   0.814   4.293   4.965  0.6713  1.3922 -0.8098
 6573SOL    HW231356   0.860   4.341   5.093  0.9949  1.2598 -1.5215
 6574SOL     OW31357   3.965   2.569   4.103 -0.5557  0.2505  0.4670
 6574SOL    HW131358   4.004   2.628   4.167 -2.0036  2.2062 -0.4382
 6574SOL    HW231359   3.992   2.607   4.019 -1.0853  0.5692  0.4367
 6575SOL     OW31360   2.635   2.971   1.850  0.0893  0.0336  0.3713
 6575SOL    HW131361   2.643   3.052   1.901  0.3531  0.4020 -0.2489
 6575SOL    HW231362   2.548   2.977   1.811  0.2817 -1.6288 -0.3142
 6576SOL     OW31363   1.444   4.341   2.437  0.1602  0.4048  0.3300
 6576SOL    HW131364   1.354   4.316   2.456  0.7094 -0.5052  1.6523
 6576SOL    HW231365   1.460   4.307   2.349 -1.1403 -1.5419  0.8443
 6577SOL     OW31366   3.104   2.864  15.188  0.5249  0.0038  0.4096
 6577SOL    HW131367   3.047   2.882  15.112 -1.6060  0.5653  2.1318
 6577SOL    HW231368   3.167   2.935  15.174 -1.0675  0.6452 -3.6946
 6578SOL     OW31369   4.348   1.178   6.721  0.0304 -0.1646  0.2663
 6578SOL    HW131370   4.386   1.106   6.670 -0.1799 -1.4548  1.9348
 6578SOL    HW231371   4.261   1.141   6.734  0.7584 -2.3585 -1.0976
 6579SOL     OW31372   1.684   3.805   0.230 -0.2254  0.2964 -0.2250
 6579SOL    HW131373   1.713   3.874   0.171 -0.2726  1.2264  0.8418
 6579SOL    HW231374   1.764   3.752   0.234 -0.4302  0.0791  0.8929
 6580SOL     OW31375   0.205   0.812   2.438 -0.3110  0.0299 -0.7053
 6580SOL    HW131376   0.184   0.727   2.477  0.2782  1.2219  2.1840
 6580SOL    HW231377   0.290   0.789   2.401  0.6140  2.4155 -0.0645
 6581SOL     OW31378   0.500   1.801  12.266 -0.0088 -0.0355 -0.1614
 6581SOL    HW131379   0.527   1.874  12.211 -1.1889  1.4052  1.1601
 6581SOL    HW231380   0.496   1.732  12.199 -0.2878 -1.8429  1.7056
 6582SOL     OW31381   2.881   1.986  12.420 -0.0294 -0.3354  0.3112
 6582SOL    HW131382   2.940   2.013  12.490 -0.1172  0.5262  0.0546
 6582SOL    HW231383   2.854   2.068  12.379 -0.6504 -1.7687 -2.1880
 6583SOL     OW31384   3.544   2.235   2.409 -0.5142  0.5265 -0.0752
 6583SOL    HW131385   3.565   2.319   2.369  2.4649  0.5019  1.4860
 6583SOL    HW231386   3.506   2.265   2.491 -3.2856 -1.5277 -0.6245
 6584SOL     OW31387   4.389   3.768   2.515 -0.1588 -0.2714 -0.0910
 6584SOL    HW131388   4.342   3.690   2.545 -1.5788  0.2811 -0.8220
 6584SOL    HW231389   4.469   3.768   2.566 -0.7382 -2.4748  0.8323
 6585SOL     OW31390   0.417   0.714   7.417  0.0739 -0.3268 -0.4660
 6585SOL    HW131391   0.415   0.674   7.504  1.0024  0.2881 -0.1547
 6585SOL    HW231392   0.386   0.803   7.437  2.3989  0.1047  1.2224
 6586SOL     OW31393   0.227   2.825   3.608 -0.1225 -0.1111  0.3524
 6586SOL    HW131394   0.152   2.865   3.565  0.3973  1.4630  0.9116
 6586SOL    HW231395   0.270   2.898   3.653 -0.4086  1.2743 -1.6191
 6587SOL     OW31396   4.585   4.002   8.410 -0.1644  0.4198 -0.0171
 6587SOL    HW131397   4.672   4.010   8.451 -0.1005 -0.0151 -0.0658
 6587SOL    HW231398   4.584   3.910   8.381 -1.1948  0.6512 -0.7072
 6588SOL     OW31399   3.109   4.598   8.404 -0.2543  0.2851  0.1151
 6588SOL    HW131400   3.065   4.533   8.460 -1.9649  0.9603 -0.4431
 6588SOL    HW231401   3.063   4.680   8.420 -2.6887 -1.3364  1.4555
 6589SOL     OW31402   0.508   1.601   7.247 -0.1180  0.3840 -0.6103
 6589SOL    HW131403   0.453   1.667   7.205 -0.2700  1.6374  1.5549
 6589SOL    HW231404   0.592   1.646   7.252  0.2109 -0.3125  0.0144
 6590SOL     OW31405   2.267   1.616   7.402  0.0122 -0.0966  0.3777
 6590SOL    HW131406   2.323   1.596   7.477  3.3340  1.0395 -1.7854
 6590SOL    HW231407   2.218   1.534   7.396  0.6133 -0.5635  1.8323
 6591SOL     OW31408   3.939   3.348   7.734 -0.2670  0.0167 -0.0079
 6591SOL    HW131409   3.984   3.407   7.794  1.4470 -1.3960  0.1068
 6591SOL    HW231410   4.009   3.320   7.675 -0.4117 -1.4659  0.5257
 6592SOL     OW31411   2.787   0.425   7.212 -0.3959 -0.3073  0.0675
 6592SOL    HW131412   2.854   0.364   7.182  1.4555  1.5718  0.3998
 6592SOL    HW231413   2.718   0.416   7.146  0.0850 -0.5566 -0.3963
 6593SOL     OW31414   1.192   4.167   7.088  0.1345  0.2018  0.0315
 6593SOL    HW131415   1.174   4.136   7.177  2.2398 -2.2199 -0.4175
 6593SOL    HW231416   1.184   4.081   7.048 -1.5593 -0.0481  0.8930
 6594SOL     OW31417   3.811   4.069  13.067  0.0776 -0.0784  0.1569
 6594SOL    HW131418   3.808   3.978  13.097 -2.4109  0.3454  1.1632
 6594SOL    HW231419   3.793   4.066  12.973  3.3898 -0.1000 -0.4749
 6595SOL     OW31420   1.351   3.574   2.584  0.1844 -0.5295  0.2441
 6595SOL    HW131421   1.343   3.508   2.653 -1.2749  1.0300  1.5959
 6595SOL    HW231422   1.376   3.652   2.635  0.2622 -0.3186 -0.1209
 6596SOL     OW31423   3.908   4.000   2.663 -0.0896 -0.0433 -0.0943
 6596SOL    HW131424   3.997   3.970   2.644  1.3695  3.5875  0.9226
 6596SOL    HW231425   3.863   3.994   2.579  0.4403  1.5071 -0.4968
 6597SOL     OW31426   3.952   1.168  14.118  0.2219  0.1560 -0.0569
 6597SOL    HW131427   3.932   1.094  14.060 -0.8768  1.8952 -1.9007
 6597SOL    HW231428   3.964   1.238  14.054  3.2570  1.7806  2.3268
 6598SOL     OW31429   3.216   3.395  14.824 -0.0745  0.3081 -0.0770
 6598SOL    HW131430   3.215   3.423  14.915 -0.5679  1.0761 -0.3207
 6598SOL    HW231431   3.138   3.440  14.792 -0.9792 -0.5966  0.8485
 6599SOL     OW31432   4.104   2.036   8.161  0.0737 -0.4729  0.0237
 6599SOL    HW131433   4.061   2.085   8.090 -0.0294 -1.4140 -0.5623
 6599SOL    HW231434   4.037   2.025   8.229  1.4038  0.4787  1.4934
 6600SOL     OW31435   4.224   0.303  12.673  0.4013 -0.0357 -0.3065
 6600SOL    HW131436   4.265   0.263  12.597  2.2425  2.8583 -0.8218
 6600SOL    HW231437   4.296   0.303  12.736  0.6152  0.3766 -0.5535
 6601SOL     OW31438   4.548   0.086  15.822  0.3106 -0.0838  0.5125
 6601SOL    HW131439   4.453   0.096  15.814  0.3679 -1.2984 -1.4295
 6601SOL    HW231440   4.564   0.166  15.771  0.9245 -0.2432  0.4520
 6602SOL     OW31441   4.205   1.092   6.000 -0.2973  0.4633 -0.7076
 6602SOL    HW131442   4.173   1.181   6.017  2.0412  0.7435  2.1713
 6602SOL    HW231443   4.123   1.052   5.969  0.9684 -0.0869 -3.2996
 6603SOL     OW31444   0.090   2.850   4.303 -0.2375  0.8035 -0.1457
 6603SOL    HW131445   0.080   2.915   4.373 -1.5277  0.5982 -0.1287
 6603SOL    HW231446   0.002   2.825   4.273 -0.6257 -0.3988  2.0381
 6604SOL     OW31447   1.738   0.704   2.624  0.1060 -0.6479  0.2549
 6604SOL    HW131448   1.783   0.619   2.618  0.1986 -0.4023 -2.8715
 6604SOL    HW231449   1.661   0.700   2.566  0.6033 -0.0382 -0.4510
 6605SOL     OW31450   1.367   0.512  17.057 -0.2795 -0.1008  0.1838
 6605SOL    HW131451   1.437   0.572  17.084 -1.1358  1.3860 -0.9118
 6605SOL    HW231452   1.374   0.538  16.965 -0.6788  1.2096  0.5202
 6606SOL     OW31453   0.302   3.120   7.338 -0.2987  0.6579 -0.2390
 6606SOL    HW131454   0.344   3.198   7.375 -1.6426  0.6188  1.3505
 6606SOL    HW231455   0.287   3.158   7.251  0.7199  1.6709  0.0219
 6607SOL     OW31456   4.417   2.931   8.590  0.2752  0.0158 -0.2654
 6607SOL    HW131457   4.348   2.909   8.652  1.9422  1.2079  2.0614
 6607SOL    HW231458   4.444   3.019   8.618 -0.4160 -0.4511  1.8934
 6608SOL     OW31459   0.236   3.441   4.218  0.0301  0.2090  0.4877
 6608SOL    HW131460   0.284   3.424   4.299  0.9511  0.3392 -0.0229
 6608SOL    HW231461   0.156   3.477   4.256 -0.1674  0.7853 -0.4583
 6609SOL     OW31462   3.507   0.316   2.145 -0.1103 -0.0357  0.0649
 6609SOL    HW131463   3.442   0.249   2.122 -0.2316 -0.1134  0.6287
 6609SOL    HW231464   3.572   0.288   2.081  0.4056  0.3891  0.4021
 6610SOL     OW31465   4.725   0.033   9.068  0.0471  0.8963  0.4254
 6610SOL    HW131466   0.035   4.695   9.048  1.2374  1.9286 -0.5980
 6610SOL    HW231467   0.026   0.104   9.019  0.9844 -0.3398 -0.5751
 6611SOL     OW31468   1.008   2.589   8.496 -0.0772 -0.5741  0.1342
 6611SOL    HW131469   1.048   2.588   8.409  3.5820 -1.4958  1.7880
 6611SOL    HW231470   1.057   2.655   8.544  0.7439  0.6214 -2.3736
 6612SOL     OW31471   2.006   2.979   5.802  0.0826  0.0244 -0.5127
 6612SOL    HW131472   1.987   3.054   5.745  1.8935 -1.3477 -2.9418
 6612SOL    HW231473   1.935   2.929   5.762  0.5335  0.8075 -2.3003
 6613SOL     OW31474   0.697   0.857  10.435  0.0199  0.0462  0.7248
 6613SOL    HW131475   0.618   0.888  10.391 -0.1507 -1.7063 -0.1926
 6613SOL    HW231476   0.721   0.931  10.491 -0.8040  1.0525 -0.2471
 6614SOL     OW31477   0.458   4.461   2.247  0.1191  0.0318  0.0079
 6614SOL    HW131478   0.418   4.398   2.307  2.4944 -1.3773  0.0802
 6614SOL    HW231479   0.427   4.435   2.160 -0.3476 -0.4397  0.3121
 6615SOL     OW31480   4.497   1.498   8.538  0.0856 -0.1474  0.5730
 6615SOL    HW131481   4.490   1.410   8.502  0.7020 -0.3249  0.8813
 6615SOL    HW231482   4.431   1.498   8.608 -0.5946 -0.2108 -0.0690
 6616SOL     OW31483   1.164   3.949   8.536  0.0444  0.8126 -0.0062
 6616SOL    HW131484   1.197   4.023   8.486  0.6687  0.5775  0.0590
 6616SOL    HW231485   1.240   3.902   8.569  0.5205  0.7524 -1.1703
 6617SOL     OW31486   1.391   0.207   5.463 -0.0398  0.2249 -0.4634
 6617SOL    HW131487   1.304   0.227   5.498 -0.5748 -1.7837 -0.6424
 6617SOL    HW231488   1.367   0.165   5.381  0.2466 -0.9829  0.0814
 6618SOL     OW31489   4.321   1.567   2.540  0.1870  0.5131  0.1738
 6618SOL    HW131490   4.362   1.493   2.583 -1.0385 -0.0598  0.3509
 6618SOL    HW231491   4.264   1.600   2.609  1.1167  0.2174  1.0707
 6619SOL     OW31492   3.529   2.030   3.313  0.2076 -0.2037 -0.6071
 6619SOL    HW131493   3.521   1.940   3.346 -1.7131  0.8191  1.7150
 6619SOL    HW231494   3.621   2.040   3.336  0.0965  0.0910 -0.2940
 6620SOL     OW31495   2.231   1.251   2.264 -0.2319  0.2360 -0.1048
 6620SOL    HW131496   2.303   1.286   2.213  0.8455 -1.3993  0.3305
 6620SOL    HW231497   2.207   1.325   2.320  0.7460  0.6131 -0.1925
 6621SOL     OW31498   2.106   4.149   7.905 -0.2250  0.2699  0.0079
 6621SOL    HW131499   2.066   4.199   7.976 -0.3039  1.4611 -0.8750
 6621SOL    HW231500   2.194   4.188   7.907 -0.0051 -0.2250 -0.0062
 6622SOL     OW31501   2.728   2.944   9.704  0.3725 -0.7607 -0.1021
 6622SOL    HW131502   2.673   2.877   9.744  0.1743 -0.7305 -0.3247
 6622SOL    HW231503   2.666   2.996   9.653 -1.7035 -2.4664  0.7263
 6623SOL     OW31504   3.231   0.609   2.728  0.4805  0.6940 -0.0787
 6623SOL    HW131505   3.296   0.654   2.783 -0.2621 -0.1134  1.4737
 6623SOL    HW231506   3.147   0.650   2.751  0.1780  1.6401 -2.8727
 6624SOL     OW31507   4.035   4.293   1.234  0.7396  0.2899 -0.5562
 6624SOL    HW131508   3.941   4.275   1.235  0.3513  2.3309  0.0080
 6624SOL    HW231509   4.070   4.205   1.248 -1.0450 -0.0174  1.9969
 6625SOL     OW31510   4.376   4.143   8.275  0.3996 -0.5307 -0.1211
 6625SOL    HW131511   4.415   4.069   8.229 -1.1951 -0.9580 -0.7817
 6625SOL    HW231512   4.444   4.178   8.333 -0.6535  2.2171 -0.5240
 6626SOL     OW31513   3.574   4.476   3.885  0.1992 -0.3059  0.3806
 6626SOL    HW131514   3.659   4.475   3.840 -1.4465 -1.8444 -2.7009
 6626SOL    HW231515   3.523   4.531   3.825  2.2587 -0.4824 -1.5532
 6627SOL     OW31516   0.857   1.391  13.561 -0.7967 -0.1451  0.0198
 6627SOL    HW131517   0.906   1.386  13.479 -0.8277 -0.7159  0.0341
 6627SOL    HW231518   0.768   1.391  13.528 -1.0879 -0.9256  0.8132
 6628SOL     OW31519   0.811   4.018   5.742  0.1033  0.3789 -0.0577
 6628SOL    HW131520   0.728   4.034   5.697 -0.0943 -2.6732 -0.7704
 6628SOL    HW231521   0.848   3.983   5.661 -3.0338  0.5289 -1.5471
 6629SOL     OW31522   4.154   3.160  13.023  0.4702 -0.2496  0.0887
 6629SOL    HW131523   4.116   3.072  13.025  3.2031 -1.4582 -2.2913
 6629SOL    HW231524   4.247   3.138  13.024  0.3333 -0.8580 -0.9305
 6630SOL     OW31525   0.426   2.625   8.682 -0.5495  0.0892 -0.0878
 6630SOL    HW131526   0.502   2.631   8.739 -0.0786  3.2066 -1.0168
 6630SOL    HW231527   0.408   2.717   8.659 -0.3306  0.7735  2.4555
 6631SOL     OW31528   0.250   0.518   6.695  0.0463 -0.0973 -0.4354
 6631SOL    HW131529   0.292   0.599   6.663  0.1228  0.4341  1.0135
 6631SOL    HW231530   0.273   0.522   6.788  0.5665 -0.3788 -0.5495
 6632SOL     OW31531   4.148   1.940   7.857 -0.2021 -0.1889  0.0923
 6632SOL    HW131532   4.109   2.017   7.899 -1.8066 -0.7753 -0.3013
 6632SOL    HW231533   4.096   1.868   7.893  1.1231 -0.5263  1.3268
 6633SOL     OW31534   2.584   4.122   6.516 -0.4487 -0.5377 -0.3035
 6633SOL    HW131535   2.557   4.128   6.607 -0.4312 -0.8332 -0.2772
 6633SOL    HW231536   2.579   4.026   6.520 -0.2971 -0.5451 -0.2925
 6634SOL     OW31537   2.665   0.812   2.723  0.4145  0.0245 -0.2275
 6634SOL    HW131538   2.589   0.855   2.683  0.5431 -1.6841 -2.3005
 6634SOL    HW231539   2.731   0.785   2.658  0.7128 -0.2674  0.1934
 6635SOL     OW31540   3.782   0.814   3.087 -0.1522 -0.3720 -0.3503
 6635SOL    HW131541   3.725   0.771   3.150 -2.0372 -0.9724 -2.4580
 6635SOL    HW231542   3.751   0.905   3.086 -1.2975 -0.7577 -0.7851
 6636SOL     OW31543   4.482   2.461   6.533  0.0371 -0.2945  0.3263
 6636SOL    HW131544   4.412   2.414   6.579  0.0420  0.1074  0.7434
 6636SOL    HW231545   4.547   2.459   6.603 -1.2374 -0.4008  1.5135
 6637SOL     OW31546   2.384   2.620   1.553  0.2093 -0.1531 -0.1769
 6637SOL    HW131547   2.344   2.547   1.600 -0.7868  0.9803  0.7624
 6637SOL    HW231548   2.463   2.641   1.602 -0.4998 -0.0277  0.9080
 6638SOL     OW31549   2.770   4.046   5.499  0.1102  0.2085 -0.5892
 6638SOL    HW131550   2.754   4.134   5.465  0.1111  0.2385 -0.5113
 6638SOL    HW231551   2.857   4.047   5.539  0.3924  2.0477 -1.2501
 6639SOL     OW31552   2.476   1.864   8.321  0.7767 -0.1066 -0.8350
 6639SOL    HW131553   2.441   1.881   8.409 -3.0581  2.3382 -2.8038
 6639SOL    HW231554   2.409   1.913   8.273 -1.2523 -3.1106 -1.0084
 6640SOL     OW31555   2.862   4.592  14.445  0.2599 -0.0609  0.1261
 6640SOL    HW131556   2.785   4.541  14.471 -0.0893 -0.1837 -1.1451
 6640SOL    HW231557   2.851   4.578  14.351  0.0557 -2.4391  0.5154
 6641SOL     OW31558   0.745   3.179   1.408  0.2140 -0.8144 -0.5183
 6641SOL    HW131559   0.792   3.163   1.326  0.9321  1.8125 -0.6380
 6641SOL    HW231560   0.780   3.264   1.436  0.3508 -0.8164 -0.6853
 6642SOL     OW31561   4.656   3.085   6.260  0.2067  0.0091 -0.3131
 6642SOL    HW131562   4.719   3.155   6.277 -1.5388  1.3682  0.5689
 6642SOL    HW231563   4.623   3.063   6.347 -1.0130  0.2518 -0.7245
 6643SOL     OW31564   2.347   2.794   8.935 -0.1600  0.0986  0.1255
 6643SOL    HW131565   2.357   2.874   8.883 -1.5777  0.1134 -0.1359
 6643SOL    HW231566   2.423   2.807   8.992  1.3612 -2.7929 -1.2798
 6644SOL     OW31567   2.086   3.757   7.652  0.3905 -0.3942  0.5764
 6644SOL    HW131568   2.047   3.844   7.657  0.7686 -0.1635 -0.4257
 6644SOL    HW231569   2.050   3.721   7.571 -2.3354  1.2389  1.0601
 6645SOL     OW31570   0.244   0.531   4.894 -0.0904  0.1906  0.0089
 6645SOL    HW131571   0.158   0.567   4.914  0.2539  0.1756  1.5594
 6645SOL    HW231572   0.281   0.552   4.980 -3.0250 -0.7464  1.5003
 6646SOL     OW31573   1.196   1.925  17.592 -0.0816  1.1429 -0.5986
 6646SOL    HW131574   1.249   1.851  17.621  0.3935  1.3529 -0.9359
 6646SOL    HW231575   1.130   1.936  17.661  0.8220 -0.6220  0.5190
 6647SOL     OW31576   0.332   0.195   2.156 -0.2318 -0.0812  0.1986
 6647SOL    HW131577   0.338   0.254   2.231  1.6452  0.5929 -0.4806
 6647SOL    HW231578   0.380   0.240   2.087 -2.2055  1.7476  0.0175
 6648SOL     OW31579   1.868   2.353  12.843 -0.0242  0.1017  0.1696
 6648SOL    HW131580   1.887   2.270  12.885 -1.0018  0.7144  1.8078
 6648SOL    HW231581   1.786   2.379  12.884  0.3234  1.6110 -0.0645
 6649SOL     OW31582   4.380   2.953   8.134 -0.2848  0.6172  0.2021
 6649SOL    HW131583   4.449   2.950   8.201 -0.3893 -0.0826  0.2739
 6649SOL    HW231584   4.324   2.888   8.176 -1.5093  0.0579 -2.2853
 6650SOL     OW31585   3.394   1.010   5.841 -0.4047  0.4491  0.1846
 6650SOL    HW131586   3.459   0.960   5.891  1.6999  3.0373  0.0294
 6650SOL    HW231587   3.447   1.060   5.780  1.8426 -0.7408  1.1543
 6651SOL     OW31588   2.953   0.412   2.528  0.0396  0.0944  0.1837
 6651SOL    HW131589   2.892   0.475   2.565 -0.3177 -2.2293  3.5823
 6651SOL    HW231590   3.027   0.471   2.513  0.5728 -0.7598 -0.6243
 6652SOL     OW31591   4.148   1.205   8.779 -0.0061 -0.0215 -0.7633
 6652SOL    HW131592   4.064   1.251   8.781 -0.2876 -0.4904 -1.5585
 6652SOL    HW231593   4.132   1.149   8.702  1.7469  1.9996 -2.5984
 6653SOL     OW31594   4.406   1.606   7.594  0.6227  0.0997  0.0092
 6653SOL    HW131595   4.443   1.679   7.644  2.0951 -0.6825  0.0675
 6653SOL    HW231596   4.474   1.607   7.527 -2.5871 -0.9265 -3.2502
 6654SOL     OW31597   1.606   1.794   3.856 -0.1196  0.5771 -0.1594
 6654SOL    HW131598   1.640   1.706   3.841 -2.3284 -0.4712  1.0114
 6654SOL    HW231599   1.570   1.820   3.771  0.3002  1.8059  0.0425
 6655SOL     OW31600   3.374   4.720   2.659  0.4479 -0.6638 -0.0125
 6655SOL    HW131601   3.453   4.692   2.612  1.6733 -0.8383  2.1602
 6655SOL    HW231602   3.360   0.067   2.621  0.7791  0.3163  2.1277
 6656SOL     OW31603   4.113   2.447   8.845  0.3154  0.4447  0.0709
 6656SOL    HW131604   4.128   2.360   8.882 -1.4622  0.2940  0.4495
 6656SOL    HW231605   4.075   2.494   8.919  1.2280  0.2112  0.6956
 6657SOL     OW31606   0.296   4.456   2.539 -0.2426  0.3700 -0.0304
 6657SOL    HW131607   0.254   4.507   2.607 -0.3220  0.0230  0.1799
 6657SOL    HW231608   0.329   4.382   2.591 -2.8921 -2.1719 -1.9248
 6658SOL     OW31609   2.769   4.179   4.540 -0.0828  0.2444 -0.1699
 6658SOL    HW131610   2.688   4.226   4.556 -0.3096 -0.8656  1.9914
 6658SOL    HW231611   2.755   4.117   4.611  0.5090 -0.6824 -0.8490
 6659SOL     OW31612   1.475   0.147  15.145  0.1521  0.4841 -0.3073
 6659SOL    HW131613   1.568   0.162  15.161 -0.0378  2.2331 -0.8290
 6659SOL    HW231614   1.467   0.230  15.098 -1.1583  0.0544 -0.8343
 6660SOL     OW31615   3.035   3.578   8.225 -0.0346 -0.5934  0.4550
 6660SOL    HW131616   2.973   3.649   8.239 -0.0915 -0.7387  0.9489
 6660SOL    HW231617   3.114   3.619   8.261 -0.8116  2.3075 -1.1404
 6661SOL     OW31618   3.034   0.393   8.360  0.3632  0.3166  0.0580
 6661SOL    HW131619   3.090   0.389   8.437 -0.9966 -1.0031  0.9734
 6661SOL    HW231620   3.045   0.484   8.333 -0.7594  0.9250  1.6407
 6662SOL     OW31621   0.309   1.644   4.556 -0.5441 -0.4779  0.1171
 6662SOL    HW131622   0.266   1.728   4.567 -0.5578 -0.4862  0.1271
 6662SOL    HW231623   0.237   1.583   4.573 -0.8078  0.1948  1.3615
 6663SOL     OW31624   1.834   3.697   8.282  0.2001 -0.5889 -0.2435
 6663SOL    HW131625   1.835   3.791   8.268 -0.9626 -0.3259  1.4953
 6663SOL    HW231626   1.891   3.676   8.207 -0.4928 -0.3443 -0.8389
 6664SOL     OW31627   4.686   4.429   1.476 -0.2434  0.1318 -0.3555
 6664SOL    HW131628   4.648   4.517   1.479  0.0560  0.1920  1.4485
 6664SOL    HW231629   0.018   4.430   1.412  0.7879  1.2190  0.8344
 6665SOL     OW31630   3.144   0.669   6.343  0.4177 -0.2097  0.6490
 6665SOL    HW131631   3.238   0.655   6.350  0.5832 -0.3592 -1.8541
 6665SOL    HW231632   3.100   0.621   6.414  0.9075 -0.4220  0.8073
 6666SOL     OW31633   4.503   1.277   5.572  0.1397  0.1351  0.0282
 6666SOL    HW131634   4.457   1.332   5.509 -1.9578 -2.5334 -0.7988
 6666SOL    HW231635   4.457   1.300   5.652  0.8585  0.6653  0.2800
 6667SOL     OW31636   1.957   4.509   4.828  0.2323  0.3326 -0.0117
 6667SOL    HW131637   1.925   4.591   4.866 -0.8843 -0.3867  0.5952
 6667SOL    HW231638   1.898   4.498   4.754  0.0735 -1.1529  0.3198
 6668SOL     OW31639   1.404   0.130   5.201 -0.6050  0.2419 -0.2703
 6668SOL    HW131640   1.433   0.110   5.112 -1.3780 -0.7299 -0.2905
 6668SOL    HW231641   1.354   0.211   5.187  1.4691  2.2484  3.6784
 6669SOL     OW31642   2.371   4.344   0.615 -0.4529 -1.0415  0.0018
 6669SOL    HW131643   2.418   4.383   0.689  0.3562 -1.2735 -0.3898
 6669SOL    HW231644   2.282   4.348   0.649  0.0064  4.0363  0.6038
 6670SOL     OW31645   1.163   2.502   2.022 -0.0359  0.2931 -0.4326
 6670SOL    HW131646   1.158   2.413   1.986  0.0002  0.7607 -1.6097
 6670SOL    HW231647   1.241   2.528   1.973 -0.3199  1.0229 -0.4873
 6671SOL     OW31648   1.901   2.108   7.929 -0.6373 -0.1378  0.8384
 6671SOL    HW131649   1.909   2.057   7.849 -1.0078 -1.5526  1.7114
 6671SOL    HW231650   1.839   2.177   7.907 -1.4658 -1.1796 -0.0379
 6672SOL     OW31651   3.069   3.781   4.399 -0.4096  0.0967 -0.3233
 6672SOL    HW131652   3.100   3.716   4.462  0.2157  2.0186  1.3436
 6672SOL    HW231653   2.987   3.810   4.440  0.8811  1.5376  1.2565
 6673SOL     OW31654   0.304   1.120   8.121  0.5481 -0.1370 -0.0657
 6673SOL    HW131655   0.316   1.141   8.028  1.6446 -0.3363  0.0218
 6673SOL    HW231656   0.271   1.030   8.119  1.6265 -0.5207 -0.8725
 6674SOL     OW31657   0.617   4.500   7.540  0.4584 -0.2135 -0.5674
 6674SOL    HW131658   0.522   4.502   7.555  0.0885 -1.5740 -2.6628
 6674SOL    HW231659   0.655   4.527   7.623  2.3276  1.9241 -2.1222
 6675SOL     OW31660   2.617   0.872   6.145  0.2763  0.2923  0.0377
 6675SOL    HW131661   2.636   0.863   6.238  1.1126 -1.6628 -0.3161
 6675SOL    HW231662   2.697   0.827   6.117 -1.2865 -1.8096 -1.1108
 6676SOL     OW31663   2.058   2.548   5.851 -0.4130 -0.2429 -0.7488
 6676SOL    HW131664   2.035   2.458   5.875 -1.4484 -0.3820 -2.2347
 6676SOL    HW231665   2.048   2.536   5.756 -1.7079  2.9574 -1.0057
 6677SOL     OW31666   1.809   3.693   2.509 -0.1309 -0.3312  0.0603
 6677SOL    HW131667   1.845   3.613   2.548 -0.0454 -1.6390 -2.7475
 6677SOL    HW231668   1.852   3.702   2.425  0.9851 -0.6971  0.5986
 6678SOL     OW31669   3.680   2.256  10.761  0.0176 -0.2453  0.0879
 6678SOL    HW131670   3.622   2.218  10.827 -0.5627 -0.5881 -0.6292
 6678SOL    HW231671   3.759   2.252  10.816  1.4490  1.1360 -1.8534
 6679SOL     OW31672   3.914   3.582  12.185 -0.3937  0.1851  0.3979
 6679SOL    HW131673   3.857   3.508  12.207 -0.4939 -0.0324 -0.6244
 6679SOL    HW231674   3.998   3.536  12.191 -1.3486 -1.4265  1.7168
 6680SOL     OW31675   2.692   0.078  13.543  0.0221  0.3418 -0.1351
 6680SOL    HW131676   2.728   0.126  13.617 -1.2812  2.3769 -0.8422
 6680SOL    HW231677   2.768   0.062  13.486 -0.0276 -2.1693  0.4852
 6681SOL     OW31678   1.679   2.265   5.124 -0.0568 -0.2916  0.3147
 6681SOL    HW131679   1.659   2.242   5.214 -0.4389  3.1027  1.0828
 6681SOL    HW231680   1.726   2.188   5.089  1.1973  0.8078 -0.4265
 6682SOL     OW31681   1.990   1.636   4.215  0.2951  0.3853 -0.4639
 6682SOL    HW131682   1.979   1.629   4.310  0.0273 -0.7118 -0.5804
 6682SOL    HW231683   2.078   1.671   4.205  0.8793 -0.6077  1.3088
 6683SOL     OW31684   0.381   3.214   4.811 -0.1787  0.5471 -0.6614
 6683SOL    HW131685   0.379   3.267   4.891  1.4943  0.3012 -0.4573
 6683SOL    HW231686   0.476   3.206   4.804 -0.3469 -3.0675  1.0570
 6684SOL     OW31687   0.083   4.132   4.073  0.1681  0.1500 -0.3404
 6684SOL    HW131688   0.093   4.195   4.144  0.0521 -0.0007 -0.1894
 6684SOL    HW231689   0.003   4.087   4.100  0.5454  0.5011  1.3531
 6685SOL     OW31690   4.314   0.684  11.678  0.1537  0.4555  0.2254
 6685SOL    HW131691   4.341   0.726  11.596  0.3179  0.2341  0.1658
 6685SOL    HW231692   4.304   0.762  11.733 -0.2215 -0.7728  1.9087
 6686SOL     OW31693   2.054   4.487  11.772  0.3270  0.6658 -0.2113
 6686SOL    HW131694   2.052   4.391  11.773 -1.5459  0.7063 -1.0174
 6686SOL    HW231695   1.966   4.520  11.755  1.1547  1.7911 -2.3588
 6687SOL     OW31696   2.959   3.816   6.648 -0.2195 -0.2570  0.7116
 6687SOL    HW131697   2.925   3.905   6.642  2.1861  0.6843  0.9388
 6687SOL    HW231698   2.881   3.760   6.646 -0.8389  0.6753 -2.0332
 6688SOL     OW31699   1.194   2.033   5.894 -0.3278 -0.1102  0.5949
 6688SOL    HW131700   1.264   2.093   5.869 -0.0976 -0.1659  1.1251
 6688SOL    HW231701   1.152   2.027   5.808 -1.3396  0.1919  1.0622
 6689SOL     OW31702   2.936   2.850   9.403 -0.4149 -0.3576 -0.4985
 6689SOL    HW131703   2.959   2.757   9.394 -1.2274 -0.6553  0.5944
 6689SOL    HW231704   2.891   2.851   9.487 -0.0644  0.0195 -0.3144
 6690SOL     OW31705   3.067   2.312   4.425  0.2046 -0.9446  0.6013
 6690SOL    HW131706   3.033   2.284   4.340 -1.8691 -0.9440  1.4401
 6690SOL    HW231707   2.992   2.302   4.484 -0.0373  1.0737  0.6490
 6691SOL     OW31708   2.456   0.510   4.524  0.4105 -0.2451  0.2052
 6691SOL    HW131709   2.404   0.437   4.491  1.5136 -1.2315  0.6657
 6691SOL    HW231710   2.391   0.581   4.531  0.7063  0.1733 -1.1998
 6692SOL     OW31711   0.403   4.275   2.716 -0.7224 -0.3089  0.9569
 6692SOL    HW131712   0.428   4.337   2.784 -0.1145 -0.2388  0.6679
 6692SOL    HW231713   0.351   4.217   2.772 -1.3342  0.3639  1.0798
 6693SOL     OW31714   1.941   0.692   7.355 -0.1563 -0.0370  0.4063
 6693SOL    HW131715   2.021   0.744   7.362 -0.2193  0.0589  0.4102
 6693SOL    HW231716   1.888   0.707   7.433 -1.1970 -1.8813  0.0375
 6694SOL     OW31717   3.791   2.197  13.068 -0.1445 -0.0097 -0.0045
 6694SOL    HW131718   3.836   2.115  13.089 -2.0016 -0.9937  0.1123
 6694SOL    HW231719   3.749   2.209  13.153 -0.6278  1.0924 -0.3983
 6695SOL     OW31720   4.732   2.261  15.671 -0.1825 -0.0778  0.3302
 6695SOL    HW131721   0.085   2.240  15.671  0.4495  2.6609  0.2452
 6695SOL    HW231722   4.735   2.341  15.618 -1.4655 -0.6702 -0.6340
 6696SOL     OW31723   2.886   2.569   2.636 -0.0228  1.0772 -0.7802
 6696SOL    HW131724   2.845   2.509   2.573  0.6407  1.3212 -1.4470
 6696SOL    HW231725   2.828   2.642   2.656 -0.8001  0.7026 -1.6610
 6697SOL     OW31726   2.846   0.921   2.923  0.2093  0.1406  0.1124
 6697SOL    HW131727   2.774   0.883   2.873 -1.0704  1.9460  0.5837
 6697SOL    HW231728   2.802   1.001   2.953  2.0606  1.3840 -0.4525
 6698SOL     OW31729   2.972   2.856   2.032 -0.0805  0.3835  0.1108
 6698SOL    HW131730   2.981   2.811   1.948 -0.1190  0.5425  0.0225
 6698SOL    HW231731   2.884   2.827   2.056  0.7192 -1.3594  0.9418
 6699SOL     OW31732   4.358   2.175   7.334  0.5561 -0.1154 -0.0837
 6699SOL    HW131733   4.298   2.230   7.284  0.8932  2.0618  1.9058
 6699SOL    HW231734   4.358   2.216   7.421 -1.7153 -2.9593  1.2659
 6700SOL     OW31735   2.380   4.553   7.590 -0.0254 -0.1504  0.0400
 6700SOL    HW131736   2.340   4.475   7.629  0.6408 -1.8357 -2.6836
 6700SOL    HW231737   2.323   4.622   7.624  0.3187 -0.8599  2.0488
 6701SOL     OW31738   3.076   3.670   9.382 -0.0359 -0.7714  0.0325
 6701SOL    HW131739   3.067   3.759   9.417 -2.2261 -1.2671  0.7569
 6701SOL    HW231740   3.010   3.688   9.315 -0.5923 -0.7152  0.5846
 6702SOL     OW31741   1.564   3.885   9.335 -0.0140 -0.0633  0.3155
 6702SOL    HW131742   1.469   3.894   9.328 -0.1515 -0.1652  2.0364
 6702SOL    HW231743   1.593   3.973   9.358 -0.7195  0.8557 -2.3902
 6703SOL     OW31744   0.403   1.892   9.447  0.0261 -0.6061  0.4383
 6703SOL    HW131745   0.489   1.914   9.411  0.4119 -1.3838  0.8815
 6703SOL    HW231746   0.428   1.904   9.538  3.1316  1.6564 -0.7104
 6704SOL     OW31747   4.705   3.902   4.958 -0.3858  0.5725  0.4213
 6704SOL    HW131748   4.687   3.961   4.885 -0.1713 -0.5358 -0.5148
 6704SOL    HW231749   0.018   3.956   5.017  1.2939 -3.4401  2.5717
 6705SOL     OW31750   2.649   2.352   5.819  0.2416 -0.8030  0.6115
 6705SOL    HW131751   2.641   2.445   5.796  1.3244 -1.4129 -2.1663
 6705SOL    HW231752   2.744   2.343   5.822  0.3652  0.2772 -0.0975
 6706SOL     OW31753   3.026   2.129  12.656 -0.4154  0.1130  0.0876
 6706SOL    HW131754   3.038   2.069  12.730 -2.9214  1.3527  1.4831
 6706SOL    HW231755   2.995   2.209  12.698 -1.7359  0.0186 -0.7318
 6707SOL     OW31756   4.494   0.499   3.274  0.0948 -0.1037 -0.4080
 6707SOL    HW131757   4.438   0.478   3.199  0.7461  1.0748 -1.2158
 6707SOL    HW231758   4.550   0.422   3.272 -1.2632 -1.0792 -1.0239
 6708SOL     OW31759   1.275   4.465   0.938 -0.0347 -0.4324  0.4171
 6708SOL    HW131760   1.342   4.528   0.963  0.1547 -1.1835  1.7775
 6708SOL    HW231761   1.207   4.486   1.002 -1.4420 -3.0064 -0.2362
 6709SOL     OW31762   1.501   2.154   2.389  0.4173 -0.0133  0.2665
 6709SOL    HW131763   1.542   2.077   2.427  0.9386  0.3991  0.5422
 6709SOL    HW231764   1.572   2.174   2.329  0.5751 -1.9007 -0.1549
 6710SOL     OW31765   1.333   1.726   1.820  0.5961 -0.3460  0.0493
 6710SOL    HW131766   1.249   1.711   1.862  1.0987  1.7562  1.8365
 6710SOL    HW231767   1.342   1.817   1.850  3.0161  0.3106 -2.7356
 6711SOL     OW31768   0.487   1.060   0.609  0.2476  0.1563  0.1051
 6711SOL    HW131769   0.496   0.989   0.546 -1.0157 -0.6927  0.8794
 6711SOL    HW231770   0.569   1.105   0.590 -0.8058  1.9499 -0.2114
 6712SOL     OW31771   3.467   3.023   8.365  0.3366  0.5110  0.4373
 6712SOL    HW131772   3.431   3.110   8.379 -1.4209  0.0380 -1.1431
 6712SOL    HW231773   3.421   2.993   8.286  1.2300 -0.4456  0.2748
 6713SOL     OW31774   1.846   2.902  10.844  0.6493 -0.0848  0.7695
 6713SOL    HW131775   1.851   2.846  10.766 -1.6095 -0.2455  0.7477
 6713SOL    HW231776   1.754   2.927  10.837  0.9971  1.6085  2.4718
 6714SOL     OW31777   3.894   1.699   6.710 -0.1864  0.1445 -0.0213
 6714SOL    HW131778   3.984   1.729   6.696  0.0306  1.2787  3.9428
 6714SOL    HW231779   3.908   1.654   6.793  0.6245  0.3513 -0.0398
 6715SOL     OW31780   3.629   2.350   8.092 -0.3315 -0.3386  0.0556
 6715SOL    HW131781   3.612   2.380   8.181  0.5672 -2.4574  0.9520
 6715SOL    HW231782   3.560   2.285   8.079 -2.1960  1.8650 -1.0465
 6716SOL     OW31783   2.902   0.145   9.475  0.7604 -0.7860 -0.0215
 6716SOL    HW131784   2.833   0.130   9.410 -0.8201  1.5207  1.1073
 6716SOL    HW231785   2.884   0.073   9.536 -1.4799 -0.1690  0.0345
 6717SOL     OW31786   2.067   2.314   3.098 -0.1365  0.1861 -0.2800
 6717SOL    HW131787   2.142   2.299   3.041 -0.3488 -0.1230 -0.4788
 6717SOL    HW231788   2.101   2.380   3.158 -0.1412 -0.5795  0.5670
 6718SOL     OW31789   3.258   2.258   8.370 -0.1803  0.6531  0.0815
 6718SOL    HW131790   3.179   2.276   8.420  0.6340 -0.1381  1.6405
 6718SOL    HW231791   3.318   2.326   8.398  0.4985 -0.7706  2.1023
 6719SOL     OW31792   1.708   2.562   7.800 -0.2036  0.0821 -0.1337
 6719SOL    HW131793   1.709   2.604   7.886  0.8584  0.9956 -0.5809
 6719SOL    HW231794   1.631   2.597   7.756  0.9601  1.2881 -1.2345
 6720SOL     OW31795   0.035   1.927   2.872  0.5242 -0.2101  0.0456
 6720SOL    HW131796   0.057   1.912   2.964  1.6362 -0.6836 -0.2954
 6720SOL    HW231797   0.112   1.979   2.849  0.5334 -0.3955 -0.3383
 6721SOL     OW31798   0.155   2.881   0.931 -0.3738  0.3291 -0.5749
 6721SOL    HW131799   0.132   2.968   0.899 -0.1554  0.4492 -0.4068
 6721SOL    HW231800   0.241   2.871   0.891 -0.9041  0.0001 -1.6582
 6722SOL     OW31801   3.456   1.433   4.662 -0.1440  0.2981  0.5522
 6722SOL    HW131802   3.431   1.509   4.610 -2.9102 -3.0825 -3.0009
 6722SOL    HW231803   3.403   1.462   4.736  1.9343 -0.2375  2.2771
 6723SOL     OW31804   3.629   3.630   6.594  0.4870 -0.0242  0.1196
 6723SOL    HW131805   3.616   3.673   6.678 -0.4085 -0.1896  0.0715
 6723SOL    HW231806   3.615   3.697   6.528 -1.3289  0.2607  0.7961
 6724SOL     OW31807   0.030   0.869  16.451 -0.3304  0.0163  0.5003
 6724SOL    HW131808   0.100   0.896  16.392 -1.1446  0.6899 -0.1576
 6724SOL    HW231809   4.724   0.953  16.455  0.5895  0.5732 -0.8674
 6725SOL     OW31810   0.617   4.688   9.378 -0.3336 -0.0081  0.3649
 6725SOL    HW131811   0.627   4.618   9.442  0.6431  2.2069  2.6217
 6725SOL    HW231812   0.566   0.008   9.432 -0.1367  0.7293 -0.2585
 6726SOL     OW31813   2.669   3.125  15.975 -0.1790 -0.1191 -0.6076
 6726SOL    HW131814   2.716   3.130  15.892  2.5790  1.3617  1.0606
 6726SOL    HW231815   2.586   3.169  15.958  0.1268 -0.7265 -3.6341
 6727SOL     OW31816   0.614   3.749   5.690  0.0345  0.5610  0.3490
 6727SOL    HW131817   0.675   3.719   5.756 -0.0237  0.5184  0.3836
 6727SOL    HW231818   0.659   3.729   5.608  0.4891  1.3024  0.4250
 6728SOL     OW31819   2.709   2.148  11.526  0.7241  0.0718 -0.1087
 6728SOL    HW131820   2.637   2.210  11.537  0.0965 -0.8217  0.8682
 6728SOL    HW231821   2.673   2.068  11.566 -3.1055  1.8933  0.1499
 6729SOL     OW31822   1.199   1.512  10.591  0.1176  0.0534  0.1752
 6729SOL    HW131823   1.254   1.590  10.598 -1.0021  0.8541  0.0798
 6729SOL    HW231824   1.138   1.532  10.663 -0.6298  0.5891 -0.6063
 6730SOL     OW31825   2.428   3.138   5.022 -0.0193 -0.3812  0.7590
 6730SOL    HW131826   2.367   3.146   5.095  1.7376  1.9980  1.9544
 6730SOL    HW231827   2.465   3.226   5.026 -0.5703  0.0150 -2.2748
 6731SOL     OW31828   1.051   4.215   8.374 -0.0402  1.2771  0.5661
 6731SOL    HW131829   1.042   4.216   8.279 -0.1576 -1.9045  0.5236
 6731SOL    HW231830   1.111   4.287   8.390 -1.2323  2.5646 -0.7988
 6732SOL     OW31831   1.063   2.710   1.098  0.1423  0.3065 -0.4308
 6732SOL    HW131832   1.044   2.723   1.191 -1.1470 -0.6257 -0.5653
 6732SOL    HW231833   0.980   2.674   1.068  0.0066 -1.2574  1.8595
 6733SOL     OW31834   0.012   3.711   2.824 -0.1845  0.7443  0.4767
 6733SOL    HW131835   0.083   3.682   2.881  1.0258  3.1309  0.1818
 6733SOL    HW231836   0.017   3.650   2.750  0.9083  0.6898  0.6035
 6734SOL     OW31837   1.222   0.274   9.017  0.1151 -0.3326  0.0037
 6734SOL    HW131838   1.243   0.345   9.077  0.1076 -0.3392  0.0144
 6734SOL    HW231839   1.151   0.317   8.968  0.5578  0.7569  0.3203
 6735SOL     OW31840   4.371   3.718   4.759  0.3093 -0.3609 -0.3775
 6735SOL    HW131841   4.456   3.737   4.721  1.2991  0.2815  2.1602
 6735SOL    HW231842   4.392   3.640   4.810 -0.2633 -0.2593  0.0150
 6736SOL     OW31843   2.553   3.656   7.871  0.1769 -0.3836 -0.4140
 6736SOL    HW131844   2.499   3.688   7.799 -0.9257  0.9649  1.0251
 6736SOL    HW231845   2.558   3.566   7.837  0.7949 -0.7226  0.5521
 6737SOL     OW31846   3.822   3.788   2.261  0.2699 -0.0501  0.1636
 6737SOL    HW131847   3.830   3.738   2.342  1.0146 -0.2777 -0.0490
 6737SOL    HW231848   3.816   3.874   2.304 -1.1073 -0.9833  1.8856
 6738SOL     OW31849   0.951   1.954   8.413  0.3891 -0.3085 -0.5834
 6738SOL    HW131850   1.027   2.011   8.421 -2.2371  2.8580  1.4093
 6738SOL    HW231851   0.905   1.991   8.488  1.3229 -0.1233 -0.1022
 6739SOL     OW31852   1.973   0.991   7.274 -0.4646 -0.0985  0.0309
 6739SOL    HW131853   1.972   0.954   7.186 -0.5504  0.4741 -0.2081
 6739SOL    HW231854   2.056   0.956   7.307 -0.1217  1.7028  1.1351
 6740SOL     OW31855   1.100   2.370   7.999 -0.0267  0.2659  0.1598
 6740SOL    HW131856   1.021   2.422   7.987 -0.5501 -0.4739  0.4467
 6740SOL    HW231857   1.085   2.277   7.983  2.6772 -0.2809  0.6412
 6741SOL     OW31858   1.508   4.184   9.970 -0.1518  0.6439 -0.8221
 6741SOL    HW131859   1.462   4.125  10.030 -0.2302  0.6091 -0.9181
 6741SOL    HW231860   1.541   4.112   9.916  0.6658  0.9598 -0.7525
 6742SOL     OW31861   4.640   1.531   6.153  0.0826 -0.2327 -0.5025
 6742SOL    HW131862   4.632   1.468   6.081 -0.3086 -0.2521 -0.4430
 6742SOL    HW231863   4.577   1.597   6.123  0.2626 -0.8906 -2.3188
 6743SOL     OW31864   3.064   1.505   0.236 -0.0219  0.3113 -0.1388
 6743SOL    HW131865   2.986   1.495   0.291  0.6404 -0.4250  0.6693
 6743SOL    HW231866   3.046   1.591   0.198  2.7357  1.1912  0.5262
 6744SOL     OW31867   2.016   2.117   3.284  0.0798 -0.1172  0.4396
 6744SOL    HW131868   2.051   2.168   3.356 -1.5830  0.1078  1.0826
 6744SOL    HW231869   2.047   2.164   3.206  0.2053  0.4694  0.8506
 6745SOL     OW31870   0.746   1.310   3.345 -0.0384  0.2303  0.1523
 6745SOL    HW131871   0.659   1.272   3.357 -0.5182  1.6964  1.4775
 6745SOL    HW231872   0.803   1.249   3.391  1.5003  1.3021 -0.3611
 6746SOL     OW31873   1.711   1.452   9.072  0.0957  0.1681 -0.0252
 6746SOL    HW131874   1.783   1.507   9.105 -0.3309  0.2694  0.7404
 6746SOL    HW231875   1.645   1.511   9.035  2.0259  0.6350 -2.7427
 6747SOL     OW31876   4.519   3.537   9.491  0.1324  0.3509 -0.5287
 6747SOL    HW131877   4.552   3.552   9.579  0.7975  0.3697 -0.7845
 6747SOL    HW231878   4.508   3.442   9.480  0.6694  0.0010  2.0297
 6748SOL     OW31879   2.507   0.687   7.217 -0.3488 -0.0943  0.2289
 6748SOL    HW131880   2.511   0.702   7.123  2.1654 -0.5569  0.2562
 6748SOL    HW231881   2.416   0.664   7.232  0.3896 -2.8008  0.6090
 6749SOL     OW31882   1.075   3.151   2.194  0.2409 -0.5160  0.1105
 6749SOL    HW131883   1.049   3.163   2.286  0.5013 -1.0824  0.2623
 6749SOL    HW231884   1.099   3.239   2.168  2.1647 -0.9825  0.3168
 6750SOL     OW31885   1.859   1.581  10.291  0.6491  0.1774  0.4532
 6750SOL    HW131886   1.765   1.598  10.304  0.3534  0.6027 -2.1921
 6750SOL    HW231887   1.854   1.485  10.286  1.4506  0.2866 -2.0269
 6751SOL     OW31888   1.317   0.236  15.572  0.2069  0.3147 -0.2044
 6751SOL    HW131889   1.283   0.325  15.565 -0.2176  0.2745  1.4014
 6751SOL    HW231890   1.390   0.230  15.509  2.0799  0.4934  1.9634
 6752SOL     OW31891   1.123   0.474   5.835  0.2888 -0.1111 -0.6082
 6752SOL    HW131892   1.082   0.516   5.912  0.3339 -1.9096  0.3994
 6752SOL    HW231893   1.148   0.545   5.776  0.2020 -0.0092 -0.5241
 6753SOL     OW31894   3.711   3.801   7.208 -0.1077 -0.2878 -0.1346
 6753SOL    HW131895   3.683   3.892   7.219  2.4705  0.9510 -3.6035
 6753SOL    HW231896   3.631   3.750   7.215 -0.4435  0.3542  0.6294
 6754SOL     OW31897   3.937   1.153   4.124 -0.3206 -0.1206  0.7965
 6754SOL    HW131898   3.875   1.216   4.162 -1.5321 -1.1250  0.5084
 6754SOL    HW231899   4.019   1.199   4.142  0.0675  0.5747 -2.6385
 6755SOL     OW31900   4.124   0.996   3.019 -0.0420  0.0032 -0.0518
 6755SOL    HW131901   4.075   0.926   2.976 -0.0185 -0.4891  0.7127
 6755SOL    HW231902   4.208   0.953   3.033  0.1643  0.4609  0.1062
 6756SOL     OW31903   4.483   4.151   4.359 -0.6687  0.0629  0.5429
 6756SOL    HW131904   4.485   4.238   4.399 -2.2721 -0.0675  0.9157
 6756SOL    HW231905   4.471   4.172   4.266 -0.3126 -1.6629  0.1118
 6757SOL     OW31906   0.771   0.452   5.767 -0.0666  0.3561 -0.0263
 6757SOL    HW131907   0.789   0.506   5.844  2.0526 -0.8019  0.2888
 6757SOL    HW231908   0.814   0.504   5.699  0.2736 -1.5156 -1.2505
 6758SOL     OW31909   1.286   3.717   1.127 -0.3137 -0.3848 -0.2704
 6758SOL    HW131910   1.236   3.701   1.047 -0.5811 -1.0659  0.0305
 6758SOL    HW231911   1.348   3.775   1.083 -1.3761  0.2756 -0.9002
 6759SOL     OW31912   4.725   1.821   3.761  0.1046  0.3565 -0.1237
 6759SOL    HW131913   0.020   1.881   3.695 -0.8986  0.1368 -0.8490
 6759SOL    HW231914   4.632   1.820   3.741 -0.0596  0.6285  0.6466
 6760SOL     OW31915   1.342   1.710   5.744 -0.0193  0.1060 -0.0076
 6760SOL    HW131916   1.364   1.801   5.763  0.5987 -0.0187 -0.1284
 6760SOL    HW231917   1.253   1.710   5.710 -0.0870 -0.4297  0.1717
 6761SOL     OW31918   4.289   0.615   3.028  0.1098  0.1972  0.6163
 6761SOL    HW131919   4.290   0.671   2.950  0.9235 -1.9375 -0.8994
 6761SOL    HW231920   4.288   0.685   3.093 -0.1684  1.4895 -0.7850
 6762SOL     OW31921   3.773   2.239   2.700 -0.0126  0.7166  0.3818
 6762SOL    HW131922   3.753   2.289   2.780 -1.0682 -0.5155  0.8770
 6762SOL    HW231923   3.824   2.305   2.654  0.0078  1.0293  0.8450
 6763SOL     OW31924   2.021   2.477  16.645  0.1579 -0.3934  0.0707
 6763SOL    HW131925   2.011   2.541  16.574 -3.6696 -1.5224 -0.4538
 6763SOL    HW231926   2.060   2.404  16.597  0.5456 -0.2605  0.1866
 6764SOL     OW31927   4.049   4.358   3.371  0.1333 -0.4847 -0.1567
 6764SOL    HW131928   4.111   4.302   3.417  1.9826  0.3362 -1.6270
 6764SOL    HW231929   3.966   4.311   3.379  0.5792 -1.5321 -1.4880
 6765SOL     OW31930   2.399   3.389   8.029  0.6512 -0.2658  0.7805
 6765SOL    HW131931   2.448   3.386   7.946 -0.3887  1.9789  0.0720
 6765SOL    HW231932   2.452   3.451   8.080  0.2814 -0.0889  0.9451
 6766SOL     OW31933   4.345   1.736  11.753  0.5277  0.1458 -0.6654
 6766SOL    HW131934   4.400   1.815  11.752  1.1301 -0.2379  1.0377
 6766SOL    HW231935   4.266   1.772  11.713 -0.1746 -1.5755 -0.8280
 6767SOL     OW31936   0.811   4.028  10.913 -0.3555 -0.4172 -0.1782
 6767SOL    HW131937   0.821   4.079  10.993 -1.6775 -3.7964  2.1406
 6767SOL    HW231938   0.872   3.956  10.924 -1.2824 -1.1846 -0.0459
 6768SOL     OW31939   3.123   1.912  17.409  0.2703  0.5310  0.5549
 6768SOL    HW131940   3.029   1.902  17.426  0.4351 -1.5339  0.3209
 6768SOL    HW231941   3.143   2.003  17.428 -2.8373  0.9720  1.7303
 6769SOL     OW31942   4.738   0.474   5.712 -0.4050  0.8362 -0.3135
 6769SOL    HW131943   0.009   0.397   5.657  2.8276 -0.3867  2.0337
 6769SOL    HW231944   0.087   0.504   5.733  0.0105 -2.0051  2.0664
 6770SOL     OW31945   1.088   3.168   8.082  0.1304  0.2012  0.4006
 6770SOL    HW131946   1.010   3.217   8.107  0.1602 -0.2445  1.3372
 6770SOL    HW231947   1.108   3.198   7.993 -3.2357 -0.0790 -0.4298
 6771SOL     OW31948   1.679   2.826   3.530  0.4219 -0.3642 -0.2692
 6771SOL    HW131949   1.684   2.798   3.621 -1.1467  1.5925  0.4339
 6771SOL    HW231950   1.633   2.909   3.546  0.1448 -0.4354 -0.6938
 6772SOL     OW31951   3.067   3.417   2.147 -0.9047 -0.1113 -0.3147
 6772SOL    HW131952   3.000   3.479   2.122 -0.3244  0.3573 -0.7059
 6772SOL    HW231953   3.056   3.334   2.100 -2.0518 -1.6021  2.5606
 6773SOL     OW31954   2.112   3.889   2.651 -0.3431 -0.0249  0.5747
 6773SOL    HW131955   2.197   3.934   2.650  0.5920 -1.8352 -0.7017
 6773SOL    HW231956   2.079   3.907   2.563 -0.6724  1.2598  0.9608
 6774SOL     OW31957   4.690   2.633  13.753  0.4803  0.0103 -0.2262
 6774SOL    HW131958   4.627   2.690  13.709  0.9275  0.5639 -0.1611
 6774SOL    HW231959   0.029   2.658  13.704 -0.2745 -1.2894 -2.1013
 6775SOL     OW31960   0.593   2.109  10.465 -0.7574 -0.4481  0.0749
 6775SOL    HW131961   0.517   2.166  10.469  0.7234  1.5793 -0.9497
 6775SOL    HW231962   0.672   2.163  10.461 -1.2120  0.1700 -0.3791
 6776SOL     OW31963   4.502   4.161  16.127 -0.5349  0.4739  0.3777
 6776SOL    HW131964   4.429   4.101  16.110 -0.0384 -0.3279  1.0302
 6776SOL    HW231965   4.536   4.114  16.204  2.3443 -1.1171 -1.8714
 6777SOL     OW31966   2.488   4.240   5.852 -0.1924 -0.6454  0.1381
 6777SOL    HW131967   2.443   4.167   5.810  1.6096 -2.3942  1.2266
 6777SOL    HW231968   2.578   4.230   5.823 -0.9955 -2.7589 -1.6057
 6778SOL     OW31969   4.346   1.417   2.282  0.0389  0.0507  0.1524
 6778SOL    HW131970   4.380   1.468   2.208  0.2340 -1.0287 -0.5056
 6778SOL    HW231971   4.344   1.487   2.347  1.3434 -0.3506  0.6142
 6779SOL     OW31972   1.355   2.735   0.520 -0.0084  0.5755 -0.6493
 6779SOL    HW131973   1.264   2.750   0.548  0.0455 -1.0781  0.4248
 6779SOL    HW231974   1.344   2.720   0.426  1.6664 -0.1672 -0.7227
 6780SOL     OW31975   3.920   3.609   8.134 -0.0658  0.3956  0.2005
 6780SOL    HW131976   4.009   3.633   8.157 -0.2219  0.8046  0.3745
 6780SOL    HW231977   3.898   3.682   8.077  0.2772  0.6253  0.3628
 6781SOL     OW31978   3.773   0.433   7.192  0.1601 -0.2981 -0.0155
 6781SOL    HW131979   3.799   0.447   7.101 -3.4897 -0.5088 -1.1084
 6781SOL    HW231980   3.810   0.346   7.208  2.2520  0.2062 -2.1798
 6782SOL     OW31981   4.439   4.179   8.936  0.8576  0.8411 -1.0032
 6782SOL    HW131982   4.497   4.131   8.877  1.1425 -0.2447  0.1660
 6782SOL    HW231983   4.355   4.137   8.919 -0.3785  2.1400  1.8174
 6783SOL     OW31984   2.840   0.866   9.498 -0.0543 -0.1836  0.2873
 6783SOL    HW131985   2.808   0.955   9.481 -0.1667 -0.4716 -1.0193
 6783SOL    HW231986   2.770   0.826   9.550 -0.4466 -0.6226 -0.5740
 6784SOL     OW31987   1.339   4.378   5.618  0.1141  0.0825  0.7335
 6784SOL    HW131988   1.323   4.457   5.565  1.5016  1.5909  2.5732
 6784SOL    HW231989   1.291   4.412   5.694  1.7005 -0.4987  1.9796
 6785SOL     OW31990   2.563   0.396   7.010 -0.1125  0.1838 -0.3116
 6785SOL    HW131991   2.476   0.429   6.985 -0.7429 -0.7992  0.5469
 6785SOL    HW231992   2.591   0.389   6.919  1.5349 -1.3150  0.3021
 6786SOL     OW31993   1.729   3.481   9.343  0.0094  0.1947  0.4887
 6786SOL    HW131994   1.678   3.403   9.323  0.6849 -0.3542  0.9056
 6786SOL    HW231995   1.815   3.438   9.347 -1.0834 -1.8567  2.0210
 6787SOL     OW31996   0.169   2.164   9.652  0.2725 -0.2681 -0.8765
 6787SOL    HW131997   0.104   2.224   9.689  0.7808 -0.8681  0.9965
 6787SOL    HW231998   0.150   2.147   9.560  0.5481 -0.7610 -0.8459
 6788SOL     OW31999   0.289   0.604   4.638 -0.1629 -0.1007 -0.2037
 6788SOL    HW132000   0.369   0.553   4.652  0.7276  1.3637  0.0169
 6788SOL    HW232001   0.254   0.602   4.727 -1.8173  0.6060 -0.8264
 6789SOL     OW32002   1.878   2.870   3.297  0.6524  0.2186  0.0701
 6789SOL    HW132003   1.963   2.859   3.339  1.0342  1.1091 -0.4758
 6789SOL    HW232004   1.817   2.876   3.370  1.9439 -2.8915  1.4177
 6790SOL     OW32005   4.619   0.817   4.086 -0.1771 -0.0727  0.3735
 6790SOL    HW132006   4.679   0.760   4.134 -1.2896 -0.3089  1.4972
 6790SOL    HW232007   4.544   0.803   4.144 -1.1214  1.0100 -0.5907
 6791SOL     OW32008   1.419   0.008  16.295 -0.0341 -0.5756 -0.3886
 6791SOL    HW132009   1.494   4.689  16.293  0.5641  0.2984 -2.6915
 6791SOL    HW232010   1.371   4.729  16.376  1.7829  0.6006  0.9785
 6792SOL     OW32011   2.242   4.057  14.721 -0.3533  0.4214  0.6286
 6792SOL    HW132012   2.205   3.970  14.705  0.8652  0.2692 -1.4474
 6792SOL    HW232013   2.172   4.116  14.692  0.3033  0.1485 -1.5362
 6793SOL     OW32014   3.352   1.147  16.413 -0.1847 -0.9943  0.4472
 6793SOL    HW132015   3.267   1.190  16.408  1.1971  1.7311  0.2962
 6793SOL    HW232016   3.410   1.218  16.387 -0.0343 -1.1306  0.4037
 6794SOL     OW32017   4.094   0.915   4.613  0.0883 -0.5464  0.1982
 6794SOL    HW132018   3.999   0.910   4.621 -0.0306  1.7289  0.0044
 6794SOL    HW232019   4.105   0.988   4.552 -1.5812  1.7856  2.7197
 6795SOL     OW32020   3.462   3.080   3.393 -0.9127 -0.1503 -0.0974
 6795SOL    HW132021   3.445   3.146   3.460 -0.9772  0.4329 -0.6769
 6795SOL    HW232022   3.439   2.997   3.435  1.4063 -1.4219 -1.3734
 6796SOL     OW32023   0.204   4.608   4.465 -0.0730 -0.4641  1.0737
 6796SOL    HW132024   0.245   4.663   4.399  0.2777 -1.8956  0.0958
 6796SOL    HW232025   0.273   4.548   4.494 -0.3180 -1.3061 -0.0659
 6797SOL     OW32026   1.894   4.085   4.745  0.0532 -1.2276  0.3802
 6797SOL    HW132027   1.834   4.131   4.686 -0.5519 -1.0281  1.1520
 6797SOL    HW232028   1.853   4.106   4.829 -1.0592  0.9416 -0.7138
 6798SOL     OW32029   0.011   2.599   3.460  1.1530  0.0796 -0.1561
 6798SOL    HW132030   4.715   2.626   3.376  1.7373 -0.7870 -0.6744
 6798SOL    HW232031   4.736   2.684   3.502  0.2755 -0.5781  0.8564
 6799SOL     OW32032   0.938   0.861  15.708  0.0837  0.3179  0.4518
 6799SOL    HW132033   0.952   0.770  15.735 -0.6187 -0.7671 -2.7601
 6799SOL    HW232034   1.013   0.912  15.739  0.7325 -0.2067 -0.2352
 6800SOL     OW32035   3.189   3.528   3.119  0.6342  0.1293  0.0478
 6800SOL    HW132036   3.101   3.549   3.089  0.0222 -0.3333  1.5107
 6800SOL    HW232037   3.199   3.444   3.074  0.0691  1.2762 -2.1729
 6801SOL     OW32038   0.948   4.533   5.427 -0.3092  1.0265  0.0094
 6801SOL    HW132039   0.947   4.481   5.347  0.0560  0.6483  0.2554
 6801SOL    HW232040   0.952   4.461   5.490  0.7523  0.6452 -0.5031
 6802SOL     OW32041   2.524   3.687   2.459  0.1603 -0.0890 -0.1239
 6802SOL    HW132042   2.439   3.657   2.491  0.1974 -0.4608 -0.3762
 6802SOL    HW232043   2.535   3.741   2.537 -2.0563 -0.8970  0.7431
 6803SOL     OW32044   1.438   2.534   6.381 -0.2954 -0.6988 -0.0677
 6803SOL    HW132045   1.449   2.546   6.287 -1.0345 -1.0233 -0.1919
 6803SOL    HW232046   1.344   2.517   6.391 -0.3215 -1.1851 -1.1823
 6804SOL     OW32047   3.653   2.023   7.068  0.2400 -0.1167 -0.6506
 6804SOL    HW132048   3.627   2.073   7.145  0.7775  1.4503 -1.4969
 6804SOL    HW232049   3.719   1.960   7.098  0.6103  0.1705 -0.8695
 6805SOL     OW32050   1.463   0.182  14.768  0.2717  0.1966 -0.2534
 6805SOL    HW132051   1.538   0.138  14.809 -0.8590 -1.7532 -0.2704
 6805SOL    HW232052   1.490   0.270  14.796 -0.8937  0.1827  0.9043
 6806SOL     OW32053   1.004   4.217   8.107  0.7698 -0.4630  0.4648
 6806SOL    HW132054   0.942   4.216   8.035  1.5218  1.5321 -0.2286
 6806SOL    HW232055   1.085   4.221   8.057 -0.6021 -1.1924 -1.8078
 6807SOL     OW32056   2.673   3.533  16.614 -0.5037  0.0598  0.1663
 6807SOL    HW132057   2.754   3.482  16.603 -0.1163  1.6272 -4.2100
 6807SOL    HW232058   2.692   3.622  16.586 -0.8350  0.2101  0.4238
 6808SOL     OW32059   0.759   2.017   5.581 -0.3239 -0.6291 -0.7840
 6808SOL    HW132060   0.805   2.101   5.580  0.8585 -1.2542  0.6924
 6808SOL    HW232061   0.807   1.981   5.656 -0.8546  1.0731  0.3774
 6809SOL     OW32062   3.284   3.748   1.444  0.7386 -0.4553 -0.1959
 6809SOL    HW132063   3.372   3.711   1.455  0.2190 -1.1058  1.6638
 6809SOL    HW232064   3.251   3.677   1.389  0.5235 -0.9479  0.5709
 6810SOL     OW32065   0.223   2.294   5.047 -0.7898 -0.0462 -0.1581
 6810SOL    HW132066   0.137   2.299   5.007 -1.6718  0.9726  1.8622
 6810SOL    HW232067   0.235   2.387   5.064 -0.0773 -0.2274  0.4024
 6811SOL     OW32068   2.707   2.459   9.652  0.1547 -0.8101 -0.0687
 6811SOL    HW132069   2.635   2.506   9.693 -0.5958 -0.4338 -1.8175
 6811SOL    HW232070   2.661   2.376   9.635 -0.4576 -1.0669  2.7562
 6812SOL     OW32071   2.224   1.681   3.685  0.4154 -0.0497  0.2204
 6812SOL    HW132072   2.251   1.711   3.598  0.1670  2.1430  0.9051
 6812SOL    HW232073   2.204   1.591   3.657  0.9800  0.0970 -0.6504
 6813SOL     OW32074   3.230   2.935   5.440  0.6178  0.2503  0.4678
 6813SOL    HW132075   3.268   2.971   5.360  0.7913 -0.4896  0.2132
 6813SOL    HW232076   3.163   2.999   5.463  1.4366  0.2453  2.8077
 6814SOL     OW32077   0.280   4.502  12.839 -0.2914 -0.4328 -0.3151
 6814SOL    HW132078   0.189   4.523  12.861  0.2557  1.4744  0.1738
 6814SOL    HW232079   0.266   4.418  12.797  1.4782  0.6501 -3.0553
 6815SOL     OW32080   4.228   0.634  14.588 -0.1434 -0.2177 -0.3288
 6815SOL    HW132081   4.197   0.683  14.512 -1.7545 -2.2991 -1.0063
 6815SOL    HW232082   4.248   0.549  14.549  2.9377 -0.5451  2.0104
 6816SOL     OW32083   3.248   0.269   6.340  0.5964 -0.3075 -0.7447
 6816SOL    HW132084   3.152   0.271   6.341  0.6575  1.8750  0.3805
 6816SOL    HW232085   3.264   0.283   6.246  1.6415  0.2767 -0.4849
 6817SOL     OW32086   4.417   0.384   8.801  0.0264  0.0284 -0.0918
 6817SOL    HW132087   4.450   0.460   8.754  2.4013 -1.1857 -0.3769
 6817SOL    HW232088   4.345   0.418   8.855  1.4154  0.8687  1.2436
 6818SOL     OW32089   4.508   3.542   6.902  0.0223  0.0432 -0.3683
 6818SOL    HW132090   4.587   3.551   6.848  1.6195  0.2385  2.0096
 6818SOL    HW232091   4.537   3.506   6.986  0.8356  3.1693  0.6943
 6819SOL     OW32092   4.736   0.742   5.784 -0.2314 -0.2684 -0.2219
 6819SOL    HW132093   0.077   0.765   5.739  0.0511  0.6425  0.7378
 6819SOL    HW232094   4.732   0.651   5.756 -0.7795  0.3234 -2.0344
 6820SOL     OW32095   3.195   3.971   4.063  0.6023  0.2379 -0.1665
 6820SOL    HW132096   3.254   3.995   3.992  1.2269  0.9080  0.5777
 6820SOL    HW232097   3.255   3.950   4.134  0.0169 -0.5137  0.1041
 6821SOL     OW32098   4.436   2.341   5.275  0.6862 -0.3039  0.1740
 6821SOL    HW132099   4.378   2.264   5.274  2.4742 -1.6078 -1.5482
 6821SOL    HW232100   4.485   2.335   5.357 -2.6683 -1.0583  2.1176
 6822SOL     OW32101   1.888   0.655   8.149 -0.1592  0.3263  0.0173
 6822SOL    HW132102   1.822   0.642   8.217  1.5921 -0.8457  1.5264
 6822SOL    HW232103   1.956   0.597   8.185  0.2136 -0.4006 -1.8658
 6823SOL     OW32104   1.685   3.118   5.197  0.1141 -0.3197  0.4218
 6823SOL    HW132105   1.709   3.142   5.286 -1.5810  0.9012  0.5503
 6823SOL    HW232106   1.681   3.207   5.162  0.6655 -0.4412  0.0534
 6824SOL     OW32107   3.366   4.426  16.916 -0.2536  0.4591  0.0191
 6824SOL    HW132108   3.366   4.522  16.917  0.3807  0.4671 -0.5861
 6824SOL    HW232109   3.392   4.402  17.005  2.1746 -1.7389 -1.2995
 6825SOL     OW32110   1.660   1.348   0.424 -0.2218 -0.3488  0.3218
 6825SOL    HW132111   1.677   1.442   0.425  1.0773 -0.5508 -2.0843
 6825SOL    HW232112   1.712   1.312   0.352 -0.0420 -0.5069  0.5337
 6826SOL     OW32113   0.731   3.170   9.512  0.5541  0.2637 -0.2803
 6826SOL    HW132114   0.721   3.206   9.424  1.0114 -1.4030 -1.0122
 6826SOL    HW232115   0.814   3.128   9.490  1.4474  0.1217  3.3886
 6827SOL     OW32116   0.989   3.089   9.481 -0.3539  0.1331  0.4151
 6827SOL    HW132117   1.072   3.136   9.485 -0.7891  0.9857 -0.7389
 6827SOL    HW232118   1.014   3.038   9.558  2.1593  0.0479 -0.4752
 6828SOL     OW32119   0.684   0.888  11.276 -0.2768  0.5216  0.3631
 6828SOL    HW132120   0.676   0.953  11.346  1.7314  0.1040  0.9830
 6828SOL    HW232121   0.723   0.816  11.326  0.5356 -0.3658 -1.5288
 6829SOL     OW32122   1.873   2.420   9.125  0.4080  0.6509 -0.0967
 6829SOL    HW132123   1.830   2.411   9.210 -2.5111 -3.8342 -2.0827
 6829SOL    HW232124   1.809   2.389   9.061  1.6565  0.3236 -1.1901
 6830SOL     OW32125   3.950   3.070   9.808  0.5133  0.5747 -0.2542
 6830SOL    HW132126   3.993   3.146   9.767  1.0230  0.6168  0.3656
 6830SOL    HW232127   3.990   3.000   9.756 -0.7519 -0.8846  0.7363
 6831SOL     OW32128   3.728   2.547   1.703  0.7705  0.1031  0.7481
 6831SOL    HW132129   3.811   2.521   1.742  0.3921 -0.0801  1.4193
 6831SOL    HW232130   3.706   2.462   1.665  0.2479  0.1418  0.9647
 6832SOL     OW32131   0.896   1.449  17.175  0.1822 -0.3818  0.1446
 6832SOL    HW132132   0.877   1.419  17.086 -1.6743 -0.9120  0.7234
 6832SOL    HW232133   0.973   1.504  17.161  0.5591 -0.8274  0.4940
 6833SOL     OW32134   3.183   2.749   8.636 -0.1925  0.8195  0.2790
 6833SOL    HW132135   3.194   2.844   8.641 -0.9641  0.9553 -0.4733
 6833SOL    HW232136   3.196   2.724   8.544  1.8789 -1.7481  1.2725
 6834SOL     OW32137   0.538   0.092   1.844  0.5102  0.1269 -0.0103
 6834SOL    HW132138   0.498   0.032   1.781 -0.0661 -0.7141  1.1381
 6834SOL    HW232139   0.626   0.059   1.861 -0.4070 -2.4644 -0.3099
 6835SOL     OW32140   3.673   3.595  13.933  0.1094  0.1666 -0.8051
 6835SOL    HW132141   3.655   3.509  13.894  0.4792 -0.9760  1.5382
 6835SOL    HW232142   3.753   3.576  13.982 -0.1526  0.6143 -0.2022
 6836SOL     OW32143   2.007   2.389   6.255  0.5003 -0.1473 -0.5485
 6836SOL    HW132144   2.079   2.355   6.307  0.7636 -0.7184 -1.2764
 6836SOL    HW232145   1.934   2.378   6.315 -0.6289  1.2681 -1.6751
 6837SOL     OW32146   2.315   1.126   6.358 -0.2980  0.3518 -0.3538
 6837SOL    HW132147   2.379   1.144   6.290 -0.1567 -0.8551 -0.5306
 6837SOL    HW232148   2.368   1.071   6.415  0.5661  0.4119 -1.1017
 6838SOL     OW32149   0.367   0.405  15.910  0.0302  0.2041 -0.1070
 6838SOL    HW132150   0.459   0.431  15.918  0.1554 -0.1319 -0.4757
 6838SOL    HW232151   0.337   0.473  15.850  1.7703  1.6796  0.7029
 6839SOL     OW32152   2.240   1.861  10.612  0.5107  0.4441 -0.0641
 6839SOL    HW132153   2.176   1.806  10.567  1.4685  0.2478 -1.2014
 6839SOL    HW232154   2.251   1.818  10.696  1.7393 -0.2765 -0.5826
 6840SOL     OW32155   0.067   0.683  13.257  0.0787 -0.7053 -0.1017
 6840SOL    HW132156   0.013   0.759  13.278 -2.6386 -2.1225 -1.7887
 6840SOL    HW232157   0.069   0.698  13.162 -1.9407  2.5859  0.3861
 6841SOL     OW32158   1.529   0.760   5.115  0.1582 -0.3825  0.0899
 6841SOL    HW132159   1.565   0.747   5.027 -1.3616  0.5585 -0.6650
 6841SOL    HW232160   1.581   0.704   5.173 -0.1890  0.3252  1.0968
 6842SOL     OW32161   4.041   4.126   5.503 -0.6927  0.4533 -0.0717
 6842SOL    HW132162   4.122   4.149   5.457 -0.5768  0.5978  0.2047
 6842SOL    HW232163   4.031   4.035   5.476 -1.6645 -0.0701  2.0932
 6843SOL     OW32164   2.128   1.712   1.804 -0.2398 -0.3387  0.3984
 6843SOL    HW132165   2.097   1.732   1.715 -1.7543 -2.3686  0.4447
 6843SOL    HW232166   2.181   1.634   1.787  2.2892  1.8065 -1.4010
 6844SOL     OW32167   1.365   2.103   9.368  0.7261  0.0996 -0.4306
 6844SOL    HW132168   1.336   2.059   9.288  0.4370  0.1302 -0.3415
 6844SOL    HW232169   1.299   2.173   9.377  0.5536 -0.0785 -0.3165
 6845SOL     OW32170   1.548   0.514   0.604 -0.0274 -0.0229 -0.1897
 6845SOL    HW132171   1.628   0.531   0.554  1.0646 -1.8684  0.9362
 6845SOL    HW232172   1.581   0.509   0.694 -1.8601 -1.4645  0.3880
 6846SOL     OW32173   1.143   4.517   2.684 -0.4273  0.1388 -0.5102
 6846SOL    HW132174   1.208   4.584   2.659 -1.2065  1.5133  1.1067
 6846SOL    HW232175   1.152   4.536   2.778 -0.3537  0.8632 -0.6608
 6847SOL     OW32176   3.771   1.944   0.037 -0.0779 -0.6536 -0.6808
 6847SOL    HW132177   3.696   2.003   0.045  1.6915  1.3557  1.1954
 6847SOL    HW232178   3.834   2.009   0.067 -1.3892  0.1283  0.3601
 6848SOL     OW32179   4.596   2.664   2.456 -0.0051  0.1805 -0.0769
 6848SOL    HW132180   4.545   2.745   2.455  0.9683  0.7744 -1.2866
 6848SOL    HW232181   4.675   2.688   2.504  0.8684 -0.7858 -1.0316
 6849SOL     OW32182   2.475   4.107  14.863 -0.0421 -0.6124  1.0350
 6849SOL    HW132183   2.536   4.136  14.795 -2.9514 -0.5463 -1.5607
 6849SOL    HW232184   2.392   4.117  14.815  1.3174  1.5216 -0.8794
 6850SOL     OW32185   4.447   1.238  11.931 -0.3605 -0.6857  0.1436
 6850SOL    HW132186   4.432   1.320  11.885  0.6915  0.6387  2.1300
 6850SOL    HW232187   4.394   1.254  12.009  0.0380 -0.5918  0.3970
 6851SOL     OW32188   1.145   0.546   2.724 -0.1687  0.4233  0.2603
 6851SOL    HW132189   1.135   0.462   2.768 -0.1184 -0.5852 -1.6711
 6851SOL    HW232190   1.194   0.526   2.644  3.4708  2.4359  1.9266
 6852SOL     OW32191   0.500   3.845   2.827 -0.3739  0.7075 -0.8370
 6852SOL    HW132192   0.590   3.873   2.842 -0.3443  0.6008 -0.8183
 6852SOL    HW232193   0.505   3.798   2.744  0.9327 -2.2395  0.9391
 6853SOL     OW32194   1.875   2.293  11.820  0.6232  0.7310 -0.5799
 6853SOL    HW132195   1.820   2.337  11.884  0.9230  0.4582 -0.1400
 6853SOL    HW232196   1.858   2.200  11.838  2.3606  0.5633  0.1575
 6854SOL     OW32197   0.932   3.651   3.385 -0.0030  0.6102  0.3906
 6854SOL    HW132198   0.868   3.719   3.404  1.7429  2.4517 -0.2631
 6854SOL    HW232199   0.878   3.582   3.349  0.5490 -0.5204  1.7303
 6855SOL     OW32200   3.242   3.147   2.619  0.4742 -0.0962 -0.7705
 6855SOL    HW132201   3.217   3.134   2.527 -1.7977  1.1518 -0.3481
 6855SOL    HW232202   3.159   3.156   2.667  0.0964 -2.9436 -0.8973
 6856SOL     OW32203   1.211   3.620   9.227 -0.0406 -0.4384 -0.0154
 6856SOL    HW132204   1.152   3.623   9.302 -0.9605 -3.1780 -0.6032
 6856SOL    HW232205   1.187   3.533   9.195  0.9186 -0.6109 -0.2697
 6857SOL     OW32206   0.582   0.650   5.165 -0.0863  0.5465  0.0773
 6857SOL    HW132207   0.600   0.567   5.209  1.6860  2.3371  2.8029
 6857SOL    HW232208   0.653   0.708   5.192  0.9020 -0.9127  0.6058
 6858SOL     OW32209   1.533   3.464   8.902 -0.5481  0.7021  0.2737
 6858SOL    HW132210   1.596   3.406   8.945 -2.0481 -1.0492  0.1099
 6858SOL    HW232211   1.505   3.510   8.982 -2.2257 -0.1802  0.1839
 6859SOL     OW32212   3.149   2.468   8.717  0.0937 -0.3054 -0.0914
 6859SOL    HW132213   3.155   2.549   8.666 -0.2492 -0.3122 -0.1442
 6859SOL    HW232214   3.242   2.463   8.738  0.1554 -2.1175 -0.7393
 6860SOL     OW32215   2.061   2.617   1.915 -0.7834 -0.3893  0.2554
 6860SOL    HW132216   2.017   2.700   1.932 -1.1496 -0.3104 -1.0736
 6860SOL    HW232217   2.013   2.564   1.978 -0.6938 -1.2778 -0.4160
 6861SOL     OW32218   2.153   2.016   7.946  0.0460  0.4222  0.1284
 6861SOL    HW132219   2.196   2.054   7.870  1.9251 -0.0708  0.9573
 6861SOL    HW232220   2.076   2.072   7.955 -1.4951 -1.6797  0.0242
 6862SOL     OW32221   1.052   2.579  14.556  0.9104  0.4569  0.1808
 6862SOL    HW132222   1.012   2.509  14.505  2.1123  0.6352 -1.0208
 6862SOL    HW232223   0.972   2.629  14.571  0.4549 -1.1366  3.1758
 6863SOL     OW32224   3.785   0.038   5.037  0.2063 -0.8938 -0.0386
 6863SOL    HW132225   3.770   4.699   4.986 -1.3392  0.6788 -2.0413
 6863SOL    HW232226   3.701   0.072   5.069  0.7094 -0.8076  1.1797
 6864SOL     OW32227   1.598   1.244   7.354  0.7246  0.6158  0.1788
 6864SOL    HW132228   1.636   1.159   7.376  1.9551  1.5229  1.5267
 6864SOL    HW232229   1.610   1.238   7.259  0.8716  1.5947  0.1347
 6865SOL     OW32230   1.176   0.639  17.568 -0.3296 -0.3378 -0.0327
 6865SOL    HW132231   1.202   0.550  17.592 -2.0151 -1.0349 -0.7534
 6865SOL    HW232232   1.243   0.688  17.615  0.7342 -2.6375  0.8555
 6866SOL     OW32233   3.202   1.081   2.292  0.3214 -0.2252  0.0928
 6866SOL    HW132234   3.294   1.059   2.308  0.3669  0.1310  0.3060
 6866SOL    HW232235   3.201   1.099   2.198  1.0336  0.3715  0.1970
 6867SOL     OW32236   4.686   2.889   8.961  0.3684  0.0522 -0.6859
 6867SOL    HW132237   4.697   2.824   8.892  0.8249  0.8882 -1.3922
 6867SOL    HW232238   4.599   2.865   8.994  0.3283 -0.3724 -1.0963
 6868SOL     OW32239   0.552   2.492   2.437  0.2450 -0.6724  0.2999
 6868SOL    HW132240   0.639   2.481   2.401 -0.1850  0.5464 -1.1062
 6868SOL    HW232241   0.520   2.403   2.451 -2.1067  0.3457  1.4458
 6869SOL     OW32242   4.719   0.642   4.955 -0.4283 -0.3232  0.3461
 6869SOL    HW132243   4.710   0.657   4.861 -1.0635 -0.8669  0.3180
 6869SOL    HW232244   4.660   0.709   4.988 -2.5392 -1.5359 -0.9306
 6870SOL     OW32245   1.925   4.305   2.039 -0.2403 -0.3502 -1.0476
 6870SOL    HW132246   1.973   4.244   1.984 -0.5856 -2.2220  0.7294
 6870SOL    HW232247   1.999   4.330   2.096 -0.6230  0.2622 -0.8163
 6871SOL     OW32248   3.992   3.869   5.719 -0.4717  0.3123  0.1135
 6871SOL    HW132249   3.973   3.893   5.628 -0.4596 -1.5606 -0.3917
 6871SOL    HW232250   4.083   3.896   5.731  0.4513 -2.1573 -1.1966
 6872SOL     OW32251   1.628   4.060   2.014 -0.3226 -0.6012 -0.0620
 6872SOL    HW132252   1.653   4.125   2.080 -2.3565 -1.2735  1.3763
 6872SOL    HW232253   1.536   4.051   2.039 -0.1195 -1.0446  0.5390
 6873SOL     OW32254   0.486   2.224   6.796 -0.0978 -0.2034 -0.6918
 6873SOL    HW132255   0.432   2.149   6.817 -1.2080  0.4483 -1.2340
 6873SOL    HW232256   0.513   2.251   6.884  1.7751  0.0507 -1.3427
 6874SOL     OW32257   3.213   3.950   1.289 -0.2570  0.3601 -0.0142
 6874SOL    HW132258   3.124   3.913   1.291 -0.3416  0.3683 -3.2087
 6874SOL    HW232259   3.261   3.897   1.352  0.7612  2.1022  0.6694
 6875SOL     OW32260   0.092   2.875   9.762  0.2754  0.0719 -0.1826
 6875SOL    HW132261   0.158   2.944   9.766  0.1209  0.2774 -1.0956
 6875SOL    HW232262   0.066   2.894   9.672 -0.2566  1.6729  0.3211
 6876SOL     OW32263   0.701   4.489   4.171  0.0851  0.6235  0.3012
 6876SOL    HW132264   0.749   4.570   4.188  1.9464 -0.2733 -0.6708
 6876SOL    HW232265   0.677   4.500   4.078  1.8228  0.6540 -0.1414
 6877SOL     OW32266   4.620   3.715   8.407 -0.2802  0.0990 -0.1324
 6877SOL    HW132267   4.642   3.736   8.498  1.4844 -1.0816 -0.2893
 6877SOL    HW232268   4.524   3.707   8.411 -0.3346 -0.6184 -2.6865
 6878SOL     OW32269   4.106   1.715   5.787  0.2384 -0.3164  0.2344
 6878SOL    HW132270   4.039   1.742   5.723  0.2543 -1.0944 -0.1079
 6878SOL    HW232271   4.057   1.708   5.869 -0.0378  0.8399  0.1737
 6879SOL     OW32272   1.750   3.651   3.290 -0.4527 -0.0049  0.1303
 6879SOL    HW132273   1.746   3.579   3.227  2.3523 -1.3881  1.5781
 6879SOL    HW232274   1.840   3.680   3.281 -0.1045 -1.2556 -0.3557
 6880SOL     OW32275   2.150   1.368   7.413 -0.6548 -0.2737  0.0614
 6880SOL    HW132276   2.118   1.297   7.469  2.5887 -0.0010  2.2724
 6880SOL    HW232277   2.068   1.385   7.366 -0.8904  0.6260  0.7981
 6881SOL     OW32278   1.455   4.652   2.842  0.9753  0.1515 -0.5571
 6881SOL    HW132279   1.475   4.605   2.761  2.0836  0.8914 -0.7170
 6881SOL    HW232280   1.472   4.585   2.908  0.1983 -0.1459 -0.6599
 6882SOL     OW32281   3.302   3.508   7.121 -0.5215 -0.4356 -0.3097
 6882SOL    HW132282   3.287   3.490   7.028 -1.1549  2.0027 -0.6881
 6882SOL    HW232283   3.254   3.590   7.134 -1.5915 -1.3335  1.4575
 6883SOL     OW32284   4.690   0.142   6.168  0.3463  0.4577  0.2707
 6883SOL    HW132285   4.626   0.208   6.195  0.6751  0.8985 -0.0439
 6883SOL    HW232286   0.030   0.164   6.216  1.3105  0.3065 -1.2811
 6884SOL     OW32287   2.386   4.142   9.138  0.0076 -0.5589  0.1096
 6884SOL    HW132288   2.334   4.063   9.125  1.0594 -1.4513  1.3872
 6884SOL    HW232289   2.373   4.176   9.049  1.5681  1.0769  0.4962
 6885SOL     OW32290   0.280   4.485   8.757 -0.1036 -0.1074  0.7125
 6885SOL    HW132291   0.290   4.392   8.776 -0.2990 -0.3050 -0.1441
 6885SOL    HW232292   0.207   4.511   8.813  0.1629  2.9176 -0.3193
 6886SOL     OW32293   1.560   2.185   9.062 -0.7051 -0.1616 -0.0589
 6886SOL    HW132294   1.530   2.276   9.053 -1.8427 -0.5479 -0.2583
 6886SOL    HW232295   1.634   2.178   9.003 -0.3180  2.0050  0.1798
 6887SOL     OW32296   0.910   3.392   5.628  0.2952  0.6111 -0.0172
 6887SOL    HW132297   0.949   3.465   5.676  0.2464  0.3530  0.4163
 6887SOL    HW232298   0.916   3.420   5.537  0.6764  0.8675  0.0857
 6888SOL     OW32299   0.522   3.589   3.124 -0.0291  0.1446  0.4394
 6888SOL    HW132300   0.578   3.617   3.051  1.8285 -1.0647  1.4017
 6888SOL    HW232301   0.445   3.547   3.086 -1.6675  2.9318  0.7775
 6889SOL     OW32302   3.516   1.148   3.474  0.1490  0.0242  0.1189
 6889SOL    HW132303   3.425   1.131   3.449  1.1605 -1.3958 -2.5418
 6889SOL    HW232304   3.513   1.130   3.568 -1.4663 -0.4045 -0.0097
 6890SOL     OW32305   3.545   1.974  14.561  0.1452 -0.0044 -0.1001
 6890SOL    HW132306   3.451   1.959  14.562  0.3157 -1.0829 -0.4994
 6890SOL    HW232307   3.561   1.979  14.656 -1.3424  0.3184  0.1357
 6891SOL     OW32308   4.504   4.728   2.099 -0.9075  0.1163 -0.1073
 6891SOL    HW132309   4.579   4.722   2.157  0.5285 -1.1206 -2.0621
 6891SOL    HW232310   4.552   4.725   2.016  0.3466  0.8982  0.6058
 6892SOL     OW32311   3.010   3.438   7.942  0.1593 -0.0278 -0.0929
 6892SOL    HW132312   2.969   3.483   7.868 -1.4193 -0.9120  0.2406
 6892SOL    HW232313   3.061   3.515   7.967  0.4556 -0.3447  0.2790
 6893SOL     OW32314   1.795   3.735   6.402 -0.1306 -0.1173  0.2289
 6893SOL    HW132315   1.854   3.719   6.476 -1.2466 -1.0969  0.9083
 6893SOL    HW232316   1.766   3.824   6.422  3.9116  1.6110 -1.8297
 6894SOL     OW32317   2.131   4.048   2.255 -0.3319  0.0087  0.5957
 6894SOL    HW132318   2.141   3.968   2.306 -0.7140 -1.2404 -1.2830
 6894SOL    HW232319   2.084   4.107   2.314 -1.3380 -0.2228  0.0136
 6895SOL     OW32320   4.617   3.924   3.677 -0.2512  0.1987 -0.1480
 6895SOL    HW132321   4.597   4.013   3.704 -0.7077 -0.2528  1.0176
 6895SOL    HW232322   4.569   3.917   3.594 -1.3887 -2.9491  0.7513
 6896SOL     OW32323   2.513   1.728   1.044  0.7559 -0.0820  0.0193
 6896SOL    HW132324   2.546   1.815   1.022 -1.4315  0.0570 -2.8007
 6896SOL    HW232325   2.534   1.721   1.137  0.0654 -2.5121  0.0014
 6897SOL     OW32326   2.060   2.404   3.979 -0.2904  0.2014 -0.4306
 6897SOL    HW132327   2.071   2.330   4.039 -1.9916 -0.0671 -0.4581
 6897SOL    HW232328   2.041   2.468   4.049  0.0979  1.6854 -1.6920
 6898SOL     OW32329   1.174   1.695   6.977 -0.2356 -0.0997  0.1650
 6898SOL    HW132330   1.184   1.751   6.900 -0.8025 -0.2250  0.0043
 6898SOL    HW232331   1.247   1.727   7.030  0.4073  1.3399 -1.5641
 6899SOL     OW32332   0.771   3.597   3.893  0.1085  0.3218  0.3456
 6899SOL    HW132333   0.860   3.569   3.870 -0.4981 -1.1932 -0.1198
 6899SOL    HW232334   0.771   3.596   3.989  2.0482  0.9735  0.3530
 6900SOL     OW32335   1.441   0.271   0.943 -0.4633  0.0947  0.2285
 6900SOL    HW132336   1.504   0.219   0.894  1.2689  1.3291  1.1640
 6900SOL    HW232337   1.390   0.304   0.869  1.0362 -0.1685 -0.9221
 6901SOL     OW32338   2.192   3.850  12.403 -0.6073 -0.6839  0.2058
 6901SOL    HW132339   2.275   3.856  12.355 -0.6238  2.3669  0.5676
 6901SOL    HW232340   2.122   3.881  12.346  0.3574  0.6225 -0.2603
 6902SOL     OW32341   4.645   0.489  15.423  0.2608 -0.7511 -0.3243
 6902SOL    HW132342   4.558   0.452  15.405  0.8402 -1.3075 -1.9426
 6902SOL    HW232343   4.694   0.460  15.347  0.8846 -0.4512 -0.0374
 6903SOL     OW32344   2.557   0.836  12.228 -0.1386 -0.4155  0.5455
 6903SOL    HW132345   2.575   0.855  12.320 -0.4167  1.2104  0.2739
 6903SOL    HW232346   2.482   0.890  12.205  0.8724  0.7906  0.0754
 6904SOL     OW32347   2.632   0.238   4.965 -0.0326 -0.0885  0.3889
 6904SOL    HW132348   2.643   0.299   4.893  2.8145  0.4632  1.2881
 6904SOL    HW232349   2.637   0.303   5.036 -2.6550 -1.5142  1.8583
 6905SOL     OW32350   3.705   1.591   9.965 -0.6732 -0.3850 -0.4434
 6905SOL    HW132351   3.750   1.621  10.043  0.0289 -1.6638 -0.3557
 6905SOL    HW232352   3.670   1.673   9.929 -1.6485 -0.3610  0.5917
 6906SOL     OW32353   2.732   3.046   7.539  0.0141  0.2069 -0.3007
 6906SOL    HW132354   2.795   2.976   7.556 -0.8496 -0.1961  1.2001
 6906SOL    HW232355   2.649   3.000   7.528  1.3217 -1.8880 -1.5192
 6907SOL     OW32356   3.312   0.036   4.135 -0.6498 -0.4551 -0.2868
 6907SOL    HW132357   3.348   4.687   4.133 -0.7016 -0.4186 -3.1392
 6907SOL    HW232358   3.270   0.026   4.049 -0.1139  2.4934 -0.8868
 6908SOL     OW32359   1.962   0.950   5.310 -0.3088  0.4049 -0.2783
 6908SOL    HW132360   1.877   0.986   5.335 -0.3079  1.0824 -1.2553
 6908SOL    HW232361   1.968   0.985   5.221  1.4369  1.4087  0.2419
 6909SOL     OW32362   0.198   2.945   3.181  0.0283 -0.2198  0.1005
 6909SOL    HW132363   0.284   2.985   3.187 -0.0737 -0.0938  0.7362
 6909SOL    HW232364   0.214   2.853   3.204  1.0467 -0.0929 -0.1340
 6910SOL     OW32365   3.066   3.432  13.027 -0.5684  0.3487 -0.1186
 6910SOL    HW132366   3.018   3.350  13.040  1.2167 -0.6411  0.1589
 6910SOL    HW232367   2.992   3.489  13.048 -0.3172 -0.5587  3.2983
 6911SOL     OW32368   1.995   3.947   6.261  0.4395 -0.9952 -0.1639
 6911SOL    HW132369   2.091   3.949   6.263  0.3988 -0.3828  1.2826
 6911SOL    HW232370   1.972   3.997   6.339 -0.3663 -1.1095 -0.3302
 6912SOL     OW32371   4.732   1.763   1.689  0.0872  0.1201  0.3067
 6912SOL    HW132372   4.732   1.674   1.654  0.7884  0.9705 -1.8358
 6912SOL    HW232373   0.079   1.783   1.652 -0.3112  0.8647 -0.2276
 6913SOL     OW32374   1.619   1.935  15.482  0.3498 -0.4425 -0.0541
 6913SOL    HW132375   1.715   1.929  15.482  0.4970  2.0976  0.1553
 6913SOL    HW232376   1.593   2.010  15.535  0.4340 -0.3920 -0.0842
 6914SOL     OW32377   3.973   1.002   5.896  0.6173 -0.1281 -0.8435
 6914SOL    HW132378   3.930   1.070   5.843  0.7071 -0.0950 -0.8742
 6914SOL    HW232379   3.908   0.933   5.905  0.7143 -0.1204 -0.0536
 6915SOL     OW32380   1.082   2.440  10.018  0.5315 -0.0221 -0.1202
 6915SOL    HW132381   1.051   2.436   9.928  1.6074  0.4684 -0.5139
 6915SOL    HW232382   1.072   2.532  10.041 -0.1856 -0.3206  0.7890
 6916SOL     OW32383   4.638   0.559  11.719 -0.1468 -0.3322  0.6178
 6916SOL    HW132384   4.580   0.599  11.655 -3.0791 -2.8461  1.6828
 6916SOL    HW232385   4.684   0.639  11.743 -1.9327  0.8859 -0.0553
 6917SOL     OW32386   0.153   2.616   3.052 -0.1266  0.0414 -0.0979
 6917SOL    HW132387   0.185   2.631   3.141 -0.0500 -0.6836  0.0008
 6917SOL    HW232388   0.234   2.620   3.001 -0.3235 -2.0757 -0.5866
 6918SOL     OW32389   0.766   4.211   1.369  0.3285  0.0888 -0.4084
 6918SOL    HW132390   0.767   4.137   1.430  0.9802  0.7731  0.3967
 6918SOL    HW232391   0.838   4.261   1.407  1.4939 -2.3991  0.6624
 6919SOL     OW32392   2.730   2.596  13.301  0.1936 -0.6602  0.1059
 6919SOL    HW132393   2.708   2.518  13.352 -0.3984 -0.9479 -0.5843
 6919SOL    HW232394   2.702   2.665  13.361  0.5971  0.2004 -0.6893
 6920SOL     OW32395   1.422   0.595  11.638 -0.5501 -0.2930 -0.8181
 6920SOL    HW132396   1.423   0.690  11.652 -0.3283 -0.7342  2.0780
 6920SOL    HW232397   1.327   0.582  11.630 -0.4801 -0.2555 -1.7287
 6921SOL     OW32398   2.541   4.076   7.419  0.5579 -0.1748  0.7120
 6921SOL    HW132399   2.517   4.104   7.508  1.0257  1.6073  0.2720
 6921SOL    HW232400   2.623   4.028   7.433  0.1030 -1.7495 -1.9950
 6922SOL     OW32401   3.325   1.911  11.078  0.0954 -0.0138 -0.1205
 6922SOL    HW132402   3.240   1.909  11.123 -0.2476 -1.3569 -0.8264
 6922SOL    HW232403   3.362   1.992  11.111 -1.4956  1.5594 -2.2093
 6923SOL     OW32404   1.314   4.349  17.118 -0.1987 -0.2537 -0.1253
 6923SOL    HW132405   1.310   4.253  17.121 -0.1864 -0.2513  0.0198
 6923SOL    HW232406   1.300   4.374  17.210  0.1841 -1.4360  0.2572
 6924SOL     OW32407   0.148   0.377   9.279 -0.4445  0.5431  0.1621
 6924SOL    HW132408   0.177   0.425   9.202 -0.4462 -0.1402 -0.2568
 6924SOL    HW232409   0.195   0.295   9.271 -1.4026  0.1206 -1.0751
 6925SOL     OW32410   1.123   3.623   1.785  0.4139  0.1574 -0.1348
 6925SOL    HW132411   1.183   3.671   1.727  0.2624 -0.7284 -1.0205
 6925SOL    HW232412   1.186   3.598   1.853  1.5338  3.0472 -0.1216
 6926SOL     OW32413   4.540   2.606   0.660 -0.1484 -0.3461  0.0359
 6926SOL    HW132414   4.585   2.587   0.578  2.1004 -1.9531  1.6376
 6926SOL    HW232415   4.451   2.585   0.633  0.2653 -2.2967  0.2353
 6927SOL     OW32416   4.226   1.803   6.064 -0.0084 -0.1678 -0.2354
 6927SOL    HW132417   4.193   1.866   6.128 -2.8998 -0.7304 -1.1619
 6927SOL    HW232418   4.179   1.836   5.988  0.6871 -0.5043 -0.8172
 6928SOL     OW32419   1.843   4.413   7.810 -0.3760 -0.1153  0.6741
 6928SOL    HW132420   1.798   4.493   7.785  0.1086  0.6898  2.3537
 6928SOL    HW232421   1.830   4.359   7.732  1.2807 -0.8672  0.9303
 6929SOL     OW32422   2.510   0.411   5.692  0.1199  0.7337  0.0799
 6929SOL    HW132423   2.429   0.391   5.738  1.5034  0.9326  2.6401
 6929SOL    HW232424   2.518   0.502   5.722 -1.9496  0.0348  2.7753
 6930SOL     OW32425   1.624   0.238   2.707 -0.7034  0.1071 -0.6323
 6930SOL    HW132426   1.587   0.168   2.653  1.4512  0.0687 -2.0813
 6930SOL    HW232427   1.585   0.219   2.792  0.9502  0.7690  0.2723
 6931SOL     OW32428   0.332   1.887   7.157 -0.4136 -0.2127 -0.1445
 6931SOL    HW132429   0.248   1.857   7.124  0.6659 -0.7270 -2.4341
 6931SOL    HW232430   0.312   1.887   7.251  0.2053  0.5347 -0.0158
 6932SOL     OW32431   2.270   0.621   9.322 -0.6695 -0.1679 -0.3055
 6932SOL    HW132432   2.236   0.667   9.245 -0.1156 -0.9190 -0.9948
 6932SOL    HW232433   2.228   0.535   9.316  0.5957 -0.9370  1.6239
 6933SOL     OW32434   1.421   2.215  14.785  0.0699  0.3833  0.1117
 6933SOL    HW132435   1.490   2.235  14.722 -1.2615  2.9539 -0.5359
 6933SOL    HW232436   1.386   2.144  14.731  0.1767  0.5829 -0.2188
 6934SOL     OW32437   2.139   4.665   4.654 -0.1473  0.4100  0.4138
 6934SOL    HW132438   2.132   4.571   4.670 -1.0000  0.2299 -1.0713
 6934SOL    HW232439   2.050   4.688   4.683 -0.0514  0.7423  0.4474
 6935SOL     OW32440   3.164   0.390   2.983  0.0326  0.5973  0.4043
 6935SOL    HW132441   3.246   0.341   2.971  1.0229  1.5748  3.2443
 6935SOL    HW232442   3.191   0.457   3.046  1.4841  1.2451 -0.8829
 6936SOL     OW32443   4.577   1.888  10.625 -0.1569 -0.2665  0.1133
 6936SOL    HW132444   4.620   1.973  10.640 -0.3212 -0.0478 -0.6628
 6936SOL    HW232445   4.496   1.910  10.579  0.2390 -1.1343 -0.9873
 6937SOL     OW32446   1.250   3.563   6.191 -0.0392 -0.0949  0.2092
 6937SOL    HW132447   1.325   3.574   6.250  0.0507  0.6267 -0.0422
 6937SOL    HW232448   1.252   3.644   6.140 -0.2220 -1.8609 -2.5705
 6938SOL     OW32449   2.116   0.735   0.788  0.1983 -0.3518 -0.1160
 6938SOL    HW132450   2.145   0.799   0.723 -1.0926 -0.7403 -1.0692
 6938SOL    HW232451   2.198   0.695   0.816 -1.6101 -4.3798 -0.5978
 6939SOL     OW32452   4.003   0.155   8.630  0.1958 -0.4542  0.6188
 6939SOL    HW132453   3.997   0.237   8.679  1.3710  0.5704 -0.9794
 6939SOL    HW232454   3.962   0.188   8.550 -1.6203 -2.0646  0.8813
 6940SOL     OW32455   0.570   4.246   2.427  0.1068 -0.3244 -0.1338
 6940SOL    HW132456   0.626   4.174   2.397 -0.0396 -1.1506  1.5922
 6940SOL    HW232457   0.547   4.217   2.515  0.6310 -0.9688 -0.2113
 6941SOL     OW32458   4.169   4.042   8.949  0.0025  0.5265 -0.6030
 6941SOL    HW132459   4.180   3.998   9.033 -1.6853  0.0869 -0.6164
 6941SOL    HW232460   4.160   4.131   8.984 -2.5822  0.4260 -1.0803
 6942SOL     OW32461   1.533   0.445  15.003 -0.1752  0.0326 -0.3237
 6942SOL    HW132462   1.625   0.462  15.026  0.1342 -0.0047 -1.5456
 6942SOL    HW232463   1.489   0.511  15.057  0.2880  0.7220 -0.7918
 6943SOL     OW32464   3.686   3.320   1.964 -0.5146 -0.0828  0.5979
 6943SOL    HW132465   3.698   3.411   1.992 -2.1344  0.0075  0.9538
 6943SOL    HW232466   3.677   3.270   2.044  0.2539  1.9524  1.9518
 6944SOL     OW32467   3.657   4.385   7.758  0.5663 -0.3361  0.0980
 6944SOL    HW132468   3.694   4.427   7.835 -0.2511 -0.2240  0.4261
 6944SOL    HW232469   3.737   4.347   7.720  1.2584  0.9791  0.2698
 6945SOL     OW32470   0.741   3.238   3.012  0.0274 -0.2279 -0.3706
 6945SOL    HW132471   0.649   3.224   2.987 -0.1976  0.2323  0.2023
 6945SOL    HW232472   0.765   3.159   3.059  2.0749 -0.2828 -1.5015
 6946SOL     OW32473   2.529   0.415  16.596  0.2000 -0.0346  0.0769
 6946SOL    HW132474   2.485   0.341  16.638 -3.7778  1.8742 -0.7858
 6946SOL    HW232475   2.614   0.403  16.639 -1.0340 -0.5908  2.3520
 6947SOL     OW32476   4.625   1.733  16.238 -0.2623  0.6471  0.2505
 6947SOL    HW132477   4.606   1.656  16.291  1.2827 -0.7951 -1.2739
 6947SOL    HW232478   4.585   1.709  16.155 -1.1529  1.2250  0.5170
 6948SOL     OW32479   1.053   4.312   5.198 -0.3692  0.0147 -0.3422
 6948SOL    HW132480   1.107   4.390   5.188  0.8874 -1.0518 -1.9050
 6948SOL    HW232481   1.097   4.240   5.153 -0.1187  0.4005 -0.7032
 6949SOL     OW32482   2.824   2.266  12.811  0.3930  0.5553  0.4283
 6949SOL    HW132483   2.744   2.283  12.761 -0.5333  2.3109  2.5129
 6949SOL    HW232484   2.831   2.346  12.862 -0.9910  0.8091  0.2085
 6950SOL     OW32485   1.714   3.129   6.848 -0.1476  0.2399  0.6443
 6950SOL    HW132486   1.739   3.105   6.759 -3.8539  2.4807 -1.0071
 6950SOL    HW232487   1.789   3.097   6.898  1.1073 -0.8279 -1.9526
 6951SOL     OW32488   2.610   3.328   3.864  0.1002  0.5155  0.3359
 6951SOL    HW132489   2.628   3.364   3.778 -1.3919 -0.8958 -0.5761
 6951SOL    HW232490   2.523   3.292   3.843  1.0830 -0.2723 -2.3808
 6952SOL     OW32491   0.289   0.703   0.507 -0.0763  0.8040 -0.2989
 6952SOL    HW132492   0.244   0.694   0.423  2.5477 -1.6212 -1.4625
 6952SOL    HW232493   0.367   0.751   0.478  0.4802  0.6471  0.9482
 6953SOL     OW32494   3.278   0.302   7.224 -0.6886 -0.8885 -0.1039
 6953SOL    HW132495   3.317   0.217   7.205 -0.1846 -1.1426  2.1216
 6953SOL    HW232496   3.297   0.302   7.317  0.1162  1.2587 -0.2618
 6954SOL     OW32497   2.916   2.696   8.700 -0.3965 -0.1421 -0.4287
 6954SOL    HW132498   3.006   2.725   8.689 -0.4796 -0.3894 -1.8543
 6954SOL    HW232499   2.895   2.718   8.790  2.1281 -0.5635  0.2371
 6955SOL     OW32500   3.266   3.981   0.248  0.3366 -0.2043  0.4542
 6955SOL    HW132501   3.310   3.916   0.303 -1.3594 -1.8446 -0.1070
 6955SOL    HW232502   3.275   3.943   0.161 -0.1150 -1.0488  0.7729
 6956SOL     OW32503   4.175   2.308   7.176 -0.2266 -0.1410  0.1006
 6956SOL    HW132504   4.207   2.398   7.166 -0.9494  0.1648  0.5141
 6956SOL    HW232505   4.115   2.321   7.250  2.0814  3.6805  1.2599
 6957SOL     OW32506   1.151   0.004  17.607  0.3942 -0.5221 -0.1046
 6957SOL    HW132507   1.125   4.671  17.664  0.0051  0.4625  0.9719
 6957SOL    HW232508   1.145   0.074  17.672 -1.8662 -0.9194  0.1025
 6958SOL     OW32509   4.014   3.101  15.007 -0.5060  0.2968  0.1853
 6958SOL    HW132510   4.100   3.081  14.970 -0.5455  1.0750 -0.3264
 6958SOL    HW232511   3.979   3.022  15.048 -0.6364 -0.3888 -1.2484
 6959SOL     OW32512   4.050   4.624   0.810 -0.6781 -0.4895 -0.3998
 6959SOL    HW132513   4.065   4.571   0.888 -0.7159 -1.6096 -1.1631
 6959SOL    HW232514   4.106   4.701   0.819 -2.2948  0.5555  0.8199
 6960SOL     OW32515   2.474   0.648  15.775 -0.2977 -0.0371  0.1276
 6960SOL    HW132516   2.456   0.647  15.869 -1.1725  0.3317 -0.0399
 6960SOL    HW232517   2.473   0.742  15.756  3.0237  0.3110  1.5527
 6961SOL     OW32518   4.275   2.607  11.528  0.0487  0.0047  0.4961
 6961SOL    HW132519   4.256   2.684  11.582  3.4142 -0.7830  2.8081
 6961SOL    HW232520   4.270   2.644  11.440 -1.4663  0.4366  0.7750
 6962SOL     OW32521   1.224   4.090   4.489 -0.4060 -0.9231 -0.3203
 6962SOL    HW132522   1.166   4.043   4.428 -1.1595 -1.6758  0.9767
 6962SOL    HW232523   1.212   4.179   4.455 -0.4302 -0.2045  1.5730
 6963SOL     OW32524   1.106   2.429   3.094  0.4849 -0.2478 -0.1954
 6963SOL    HW132525   1.155   2.383   3.162 -0.2983  0.5912  0.9502
 6963SOL    HW232526   1.169   2.441   3.023  0.3574  0.4095 -0.1964
 6964SOL     OW32527   1.745   1.527   3.577 -0.0255 -0.3592 -0.0277
 6964SOL    HW132528   1.684   1.489   3.514 -1.2618  1.9555 -0.2545
 6964SOL    HW232529   1.697   1.558   3.654 -0.2738 -0.6373 -0.0730
 6965SOL     OW32530   4.358   0.342   5.754  0.4714  0.1274  0.0162
 6965SOL    HW132531   4.358   0.408   5.684 -1.3454  2.4793  2.2114
 6965SOL    HW232532   4.443   0.355   5.796  0.7997  1.1476 -0.9702
 6966SOL     OW32533   2.446   4.353  16.234 -0.0963  0.6069  0.0681
 6966SOL    HW132534   2.372   4.342  16.293 -0.4487 -2.4062 -0.9079
 6966SOL    HW232535   2.438   4.276  16.178  0.9217 -0.3442  1.2478
 6967SOL     OW32536   4.146   2.759   3.636  0.1149 -0.1513  0.0898
 6967SOL    HW132537   4.139   2.684   3.576 -0.6887  0.3995 -0.5102
 6967SOL    HW232538   4.078   2.818   3.603 -1.1739 -1.8487 -0.2997
 6968SOL     OW32539   1.637   0.674  15.464  0.1762 -0.1009  0.1135
 6968SOL    HW132540   1.714   0.698  15.412  1.0424 -2.0240  0.5001
 6968SOL    HW232541   1.659   0.709  15.550  1.8303 -1.3489  0.1940
 6969SOL     OW32542   3.038   0.208   2.681 -0.2968 -0.7754  0.1516
 6969SOL    HW132543   3.128   0.199   2.651 -0.0977 -2.8189  1.3142
 6969SOL    HW232544   3.006   0.278   2.625 -0.5198 -0.5173  0.6019
 6970SOL     OW32545   4.252   1.998   8.852  0.1992  0.2373 -0.0092
 6970SOL    HW132546   4.293   1.917   8.823 -2.3341 -1.1067  0.1817
 6970SOL    HW232547   4.178   1.959   8.899  2.3017 -0.9630  2.2396
 6971SOL     OW32548   2.809   3.421   6.983 -0.5035  0.2241 -0.0700
 6971SOL    HW132549   2.800   3.488   7.051 -1.5543 -0.3389  0.3376
 6971SOL    HW232550   2.743   3.456   6.923  0.8754  1.2725 -0.9729
 6972SOL     OW32551   0.491   1.153  17.278 -0.6482  0.6838  0.0587
 6972SOL    HW132552   0.565   1.177  17.224  0.0644  1.4011  1.3498
 6972SOL    HW232553   0.485   1.059  17.264 -1.5768  0.8035 -0.4214
 6973SOL     OW32554   0.993   1.943   9.254 -0.2899  0.4110 -0.1413
 6973SOL    HW132555   1.033   2.001   9.318  0.9160 -0.0747 -0.4614
 6973SOL    HW232556   1.003   1.861   9.301  0.2590  0.4724 -0.1559
 6974SOL     OW32557   2.912   2.578   3.284 -0.1210 -0.2045  0.0476
 6974SOL    HW132558   2.830   2.592   3.330 -1.8449 -1.6452 -2.6105
 6974SOL    HW232559   2.962   2.653   3.317 -2.0672  1.2595 -0.3550
 6975SOL     OW32560   3.362   4.257   3.368 -0.4360 -0.3375  0.3517
 6975SOL    HW132561   3.271   4.240   3.342 -1.0852  0.7430  1.9230
 6975SOL    HW232562   3.353   4.233   3.460 -3.3555  0.5048  0.3136
 6976SOL     OW32563   2.902   2.756   8.970 -0.1346 -0.0122 -0.3333
 6976SOL    HW132564   2.989   2.792   8.950  0.9428 -1.8059  1.0126
 6976SOL    HW232565   2.863   2.825   9.024  0.9083 -0.2954  0.7900
 6977SOL     OW32566   3.937   0.031   7.946 -0.2417 -0.2773  0.1554
 6977SOL    HW132567   3.895   0.113   7.921 -0.4211 -0.3986  0.0576
 6977SOL    HW232568   3.977   0.059   8.028 -2.2198 -1.4312  1.5198
 6978SOL     OW32569   1.678   2.157  17.539  0.0221  0.9611  0.4202
 6978SOL    HW132570   1.717   2.201  17.463 -0.6055 -0.7682 -0.8740
 6978SOL    HW232571   1.586   2.152  17.515  0.4767  0.5363 -1.2109
 6979SOL     OW32572   3.610   0.206   3.710 -0.0067  0.4498  0.2182
 6979SOL    HW132573   3.674   0.271   3.681  2.9910 -3.1459 -1.3476
 6979SOL    HW232574   3.556   0.263   3.765 -0.5350  1.0786 -0.9608
 6980SOL     OW32575   4.440   3.883  13.058 -0.0108  0.0713  0.1753
 6980SOL    HW132576   4.373   3.932  13.106  1.5621  2.7392 -0.3511
 6980SOL    HW232577   4.423   3.901  12.966 -0.1613  0.3434  0.2555
 6981SOL     OW32578   3.681   2.049   5.175  0.3405  0.2613  0.4402
 6981SOL    HW132579   3.619   2.115   5.144  0.8378  1.1590  1.3604
 6981SOL    HW232580   3.758   2.105   5.188  0.2226  0.6154 -0.3996
 6982SOL     OW32581   0.979   3.522   5.379  0.1036  0.1273 -0.2179
 6982SOL    HW132582   0.981   3.616   5.401  1.4444  0.0963 -0.1926
 6982SOL    HW232583   1.017   3.514   5.292 -0.7097  0.6133 -0.6212
 6983SOL     OW32584   1.047   2.962   5.347  0.3757  0.2046  0.3391
 6983SOL    HW132585   1.016   3.049   5.374  0.3935  0.0608  0.8213
 6983SOL    HW232586   1.135   2.970   5.384  0.2772  3.0471 -0.0449
 6984SOL     OW32587   2.744   4.278   9.093 -0.2306  0.2806  0.1236
 6984SOL    HW132588   2.752   4.370   9.066  1.2915 -0.0611 -0.6198
 6984SOL    HW232589   2.697   4.238   9.020 -0.5206  0.4202  0.2336
 6985SOL     OW32590   2.517   0.765  16.901  0.5098  0.0802 -0.2785
 6985SOL    HW132591   2.530   0.856  16.931  2.2993 -0.0757 -0.5953
 6985SOL    HW232592   2.468   0.728  16.975 -0.5260  1.9680 -0.0104
 6986SOL     OW32593   3.129   1.276   3.994  0.1483  0.5567  0.7224
 6986SOL    HW132594   3.077   1.281   4.074 -2.1002 -0.5279 -0.6815
 6986SOL    HW232595   3.063   1.294   3.928 -0.6757  0.4886  1.5226
 6987SOL     OW32596   0.217   2.114   2.900 -0.0806 -0.5225  0.0735
 6987SOL    HW132597   0.273   2.145   2.830 -0.3763  0.2960  0.1977
 6987SOL    HW232598   0.171   2.195   2.924 -1.5260 -0.3619 -3.1877
 6988SOL     OW32599   3.712   0.858   3.433  0.0931 -0.3273  0.3154
 6988SOL    HW132600   3.792   0.880   3.481  1.2130 -1.4373 -1.0345
 6988SOL    HW232601   3.713   0.924   3.364 -1.5483  0.7127  1.2987
 6989SOL     OW32602   1.959   2.251  13.640 -0.3825 -0.1087 -0.2831
 6989SOL    HW132603   2.013   2.321  13.604 -0.9971  1.2736  1.4330
 6989SOL    HW232604   1.997   2.174  13.598  1.3142  1.6784 -2.0032
 6990SOL     OW32605   3.849   2.637   7.726 -0.7065 -0.5206 -0.2751
 6990SOL    HW132606   3.931   2.603   7.762  0.8683  1.0539 -2.4135
 6990SOL    HW232607   3.795   2.616   7.802 -0.9512  1.7301  0.1742
 6991SOL     OW32608   3.980   0.532   6.512  0.3115  0.0678 -0.0466
 6991SOL    HW132609   4.002   0.609   6.563  1.0396  0.4774 -0.9843
 6991SOL    HW232610   3.957   0.579   6.431  2.8968  0.2977 -0.6363
 6992SOL     OW32611   0.876   1.858   4.492 -0.8212  0.3147  0.0039
 6992SOL    HW132612   0.785   1.859   4.521 -1.3819 -0.0706 -1.7285
 6992SOL    HW232613   0.898   1.765   4.497 -1.3327  0.0887 -1.8315
 6993SOL     OW32614   2.458   4.733   9.202 -0.0834  0.2758  0.2703
 6993SOL    HW132615   2.405   4.655   9.187  0.3665  0.0803 -0.3159
 6993SOL    HW232616   2.414   0.049   9.138 -3.2046 -2.1209  0.3195
 6994SOL     OW32617   2.094   1.377   8.403  0.4948 -0.5277 -0.0862
 6994SOL    HW132618   2.149   1.306   8.437  1.4002 -0.0944 -0.6558
 6994SOL    HW232619   2.128   1.453   8.450  0.9961  0.1232 -1.5285
 6995SOL     OW32620   2.841   3.977   1.488 -0.9524 -0.1091 -0.2686
 6995SOL    HW132621   2.929   3.982   1.524 -1.3920 -0.5975  0.9007
 6995SOL    HW232622   2.806   3.920   1.557  1.2406  1.1309  1.8571
 6996SOL     OW32623   4.336   3.116   5.731 -0.5539  0.4126 -0.0013
 6996SOL    HW132624   4.353   3.022   5.730 -1.4808  0.2268  2.0205
 6996SOL    HW232625   4.421   3.160   5.732  0.1056 -0.9122  1.4919
 6997SOL     OW32626   2.062   1.571   8.775 -0.2863  0.4651 -0.2758
 6997SOL    HW132627   2.111   1.578   8.693 -1.1482  2.7890 -0.6058
 6997SOL    HW232628   2.000   1.644   8.768  1.6621  2.1710  0.3173
 6998SOL     OW32629   1.976   3.113  14.583  0.0671  0.1669  0.4568
 6998SOL    HW132630   1.957   3.038  14.526 -1.0916 -0.1608  1.2850
 6998SOL    HW232631   2.064   3.083  14.607  1.3515  1.9356 -2.0150
 6999SOL     OW32632   4.490   2.925   2.124  0.0914  0.1924 -0.1001
 6999SOL    HW132633   4.585   2.923   2.109  0.1280 -0.1410  0.1903
 6999SOL    HW232634   4.454   2.855   2.068 -0.8057 -1.7423  2.8903
 7000SOL     OW32635   0.978   1.197   6.868  0.0473  0.0805 -0.2056
 7000SOL    HW132636   0.911   1.250   6.912  1.0435  2.4990 -1.6678
 7000SOL    HW232637   0.923   1.144   6.809 -0.7187 -1.1304  1.5665
 7001SOL     OW32638   0.934   3.971   3.523  0.6209  0.2956  0.5061
 7001SOL    HW132639   0.906   3.998   3.611 -2.0856  0.5518 -0.4369
 7001SOL    HW232640   0.863   3.916   3.491  1.6600 -1.1588  0.7112
 7002SOL     OW32641   0.814   3.972   1.524  0.0022 -0.3089 -0.4198
 7002SOL    HW132642   0.878   3.904   1.504 -0.3757 -1.1734  1.3162
 7002SOL    HW232643   0.861   4.026   1.587  0.6381 -1.3021 -0.0521
 7003SOL     OW32644   2.432   4.273  13.621  0.3019 -1.0228 -0.5486
 7003SOL    HW132645   2.343   4.304  13.640  0.7668 -0.4297  0.6644
 7003SOL    HW232646   2.457   4.344  13.561 -2.2880 -0.6827 -1.2383
 7004SOL     OW32647   0.451   0.586   2.510 -0.4616  0.2854  0.3081
 7004SOL    HW132648   0.399   0.594   2.589 -1.5922 -0.0385 -0.4121
 7004SOL    HW232649   0.530   0.555   2.556 -0.4316 -1.5477 -0.9805
 7005SOL     OW32650   0.339   3.412   9.698  0.0996  0.2945 -0.4010
 7005SOL    HW132651   0.430   3.382   9.698 -0.5678 -1.7433 -0.7897
 7005SOL    HW232652   0.353   3.497   9.740  1.9400 -0.4989  0.6200
 7006SOL     OW32653   2.049   0.782  15.780 -0.2745  0.4880  0.3717
 7006SOL    HW132654   2.001   0.810  15.858  0.9553  0.5531  1.1087
 7006SOL    HW232655   2.087   0.701  15.814 -1.1311 -0.3023 -0.5531
 7007SOL     OW32656   1.542   0.806   8.754  0.8441  0.3374  0.0490
 7007SOL    HW132657   1.552   0.800   8.849 -1.9619 -0.1120  0.3335
 7007SOL    HW232658   1.479   0.879   8.753  1.7057  1.0717 -0.4547
 7008SOL     OW32659   2.772   0.426  15.366 -0.3060 -0.6654  0.1358
 7008SOL    HW132660   2.809   0.505  15.406 -1.7132  0.2571 -0.3900
 7008SOL    HW232661   2.710   0.406  15.436  0.9647  0.0441  1.4564
 7009SOL     OW32662   0.150   1.103   2.828  0.1078  0.5432  0.3662
 7009SOL    HW132663   0.242   1.127   2.819  0.1763  0.2523  0.2907
 7009SOL    HW232664   0.170   1.023   2.877  0.8563  1.7251  2.0113
 7010SOL     OW32665   1.286   2.477   7.211 -0.3028 -0.1923  0.0526
 7010SOL    HW132666   1.259   2.477   7.119 -0.9005  0.2104  0.2287
 7010SOL    HW232667   1.353   2.541   7.232 -0.6315  0.1353  0.1012
 7011SOL     OW32668   2.306   2.769   0.301  0.1619  0.0080 -0.2818
 7011SOL    HW132669   2.281   2.848   0.252  2.0100  0.4230 -0.5504
 7011SOL    HW232670   2.292   2.706   0.230 -1.5061  0.3384 -0.2385
 7012SOL     OW32671   4.134   3.231   1.244  0.1539 -0.2489  0.3895
 7012SOL    HW132672   4.082   3.151   1.247 -0.5263  0.1177 -1.3339
 7012SOL    HW232673   4.195   3.208   1.174  0.7979 -2.8299  1.8064
 7013SOL     OW32674   3.369   1.464  16.640  0.0328 -0.5444  0.1610
 7013SOL    HW132675   3.286   1.416  16.636 -0.4983  0.5565 -1.9682
 7013SOL    HW232676   3.384   1.472  16.546  1.0092 -1.1888  0.2636
 7014SOL     OW32677   3.446   1.651   8.222  0.2576 -0.7180  0.0674
 7014SOL    HW132678   3.537   1.665   8.251  0.7556  0.2693 -1.9991
 7014SOL    HW232679   3.436   1.556   8.215  0.0361 -0.7616  0.9938
 7015SOL     OW32680   1.454   2.410   4.432  0.0088 -0.1566 -0.5929
 7015SOL    HW132681   1.510   2.339   4.402  0.7694  0.4735 -0.6778
 7015SOL    HW232682   1.424   2.389   4.520 -0.5193  2.0961 -0.2348
 7016SOL     OW32683   1.155   0.706   4.027  0.0625 -0.7060 -0.7276
 7016SOL    HW132684   1.185   0.638   3.967  0.4350  2.3600 -3.9909
 7016SOL    HW232685   1.164   0.788   3.979  0.8418 -1.3634 -1.7035
 7017SOL     OW32686   0.577   1.410   4.803  0.1075 -0.4087  0.0905
 7017SOL    HW132687   0.519   1.419   4.879  0.7085 -0.2178  0.5197
 7017SOL    HW232688   0.573   1.493   4.755  0.2991 -1.0447 -1.0308
 7018SOL     OW32689   1.275   0.603  10.538  0.0710  0.3912 -0.0247
 7018SOL    HW132690   1.264   0.508  10.533  0.9030  0.3710 -1.5160
 7018SOL    HW232691   1.244   0.619  10.449 -0.0784  0.0824 -0.0264
 7019SOL     OW32692   0.896   1.776   3.019 -0.1496  0.4085  0.4233
 7019SOL    HW132693   0.879   1.720   2.943  1.1032  1.2337 -0.4625
 7019SOL    HW232694   0.991   1.788   3.016  0.4774 -4.4199  1.6878
 7020SOL     OW32695   1.193   0.798   8.510 -0.1946 -0.0354 -0.4545
 7020SOL    HW132696   1.250   0.722   8.521  1.0909  0.9908 -0.0543
 7020SOL    HW232697   1.253   0.861   8.470 -0.2719 -0.8392 -1.8093
 7021SOL     OW32698   0.761   1.605   2.713 -0.1966 -0.2280  0.0570
 7021SOL    HW132699   0.670   1.613   2.741 -0.0643  0.7365  0.2377
 7021SOL    HW232700   0.788   1.546   2.783  1.0154  1.9848  1.4658
 7022SOL     OW32701   2.353   1.913   6.552  0.3971  0.2314 -0.4679
 7022SOL    HW132702   2.418   1.868   6.498 -2.8849 -0.9928 -3.3247
 7022SOL    HW232703   2.342   1.863   6.633 -1.3505  0.2335 -0.7039
 7023SOL     OW32704   0.383   4.546   4.990  0.1266  0.2914  0.0772
 7023SOL    HW132705   0.308   4.551   5.049  0.4078 -0.4775  0.5107
 7023SOL    HW232706   0.338   4.505   4.916  0.0832 -2.7184  1.7338
 7024SOL     OW32707   4.670   0.754   1.922 -0.9019 -0.6843  0.6099
 7024SOL    HW132708   4.622   0.837   1.922 -0.8637 -0.6601  0.0552
 7024SOL    HW232709   4.603   0.686   1.919  0.0803 -1.6704  1.2259
 7025SOL     OW32710   0.654   0.998   5.864 -0.9183  0.2453 -0.2334
 7025SOL    HW132711   0.598   1.047   5.924  0.2798  2.3202 -0.8048
 7025SOL    HW232712   0.614   1.022   5.780 -1.2896  0.5963  0.0460
 7026SOL     OW32713   0.081   0.269   5.554  0.5339  0.7164 -0.7543
 7026SOL    HW132714   0.081   0.325   5.476  2.1360  2.8321  0.7563
 7026SOL    HW232715   0.161   0.218   5.550  0.9109  1.4662 -2.5492
 7027SOL     OW32716   0.098   4.364   4.234  0.1055 -0.2261  0.1101
 7027SOL    HW132717   0.137   4.363   4.322 -0.7731  2.0343  0.5297
 7027SOL    HW232718   0.007   4.391   4.245  0.8401  1.4883  2.0046
 7028SOL     OW32719   1.827   1.883   7.383 -0.0342 -0.3840  0.0998
 7028SOL    HW132720   1.901   1.842   7.428  1.5772  0.6948 -1.5170
 7028SOL    HW232721   1.759   1.875   7.449 -0.2809  1.0055  0.0175
 7029SOL     OW32722   2.604   4.576   7.991  0.0382 -0.4597 -0.0102
 7029SOL    HW132723   2.512   4.584   7.966 -0.0331 -0.1993  0.3367
 7029SOL    HW232724   2.601   4.481   7.997 -0.5925 -0.4477 -0.2249
 7030SOL     OW32725   0.654   0.650  10.941 -0.7021  0.2121 -0.0960
 7030SOL    HW132726   0.671   0.609  10.856 -0.1320  0.6579 -0.1970
 7030SOL    HW232727   0.564   0.683  10.932 -1.2583 -1.6559 -1.3862
 7031SOL     OW32728   1.436   3.748   0.149 -0.1700  0.2633  0.2519
 7031SOL    HW132729   1.430   3.659   0.113 -0.9601  1.3566 -2.2987
 7031SOL    HW232730   1.525   3.747   0.182  0.0778  3.2650 -0.3910
 7032SOL     OW32731   3.915   3.731   5.033  0.2082 -0.3106 -0.1335
 7032SOL    HW132732   3.889   3.679   4.958  0.7834 -0.1105 -0.4740
 7032SOL    HW232733   3.944   3.664   5.095 -4.1739 -1.9609  0.1215
 7033SOL     OW32734   4.430   3.500   9.028  0.4987  0.7744  0.4990
 7033SOL    HW132735   4.385   3.583   9.018 -1.6963 -0.3373  1.1868
 7033SOL    HW232736   4.382   3.457   9.099  0.2751 -0.9045 -0.6525
 7034SOL     OW32737   4.537   3.326   7.622  0.8917 -0.1098  0.5125
 7034SOL    HW132738   4.591   3.307   7.699  2.0270 -0.1526 -0.2972
 7034SOL    HW232739   4.536   3.421   7.629 -0.7249 -0.1163  0.3621
 7035SOL     OW32740   1.445   0.852   6.530 -0.1045  0.3924 -0.5139
 7035SOL    HW132741   1.474   0.900   6.608  0.0793  1.1715 -1.0578
 7035SOL    HW232742   1.527   0.850   6.480  0.1566 -0.9607 -0.0402
 7036SOL     OW32743   3.529   1.947  10.444  0.2617  0.1290 -0.1560
 7036SOL    HW132744   3.552   1.935  10.536 -1.0807 -2.8117 -0.1900
 7036SOL    HW232745   3.500   1.859  10.419  2.2829 -0.9683  1.4088
 7037SOL     OW32746   1.808   4.646  14.144  0.0279  0.3358 -0.2027
 7037SOL    HW132747   1.746   4.601  14.203 -1.1191  2.6309  0.3382
 7037SOL    HW232748   1.742   4.704  14.105 -1.8518 -0.0787  2.3086
 7038SOL     OW32749   3.967   2.138   7.948  0.0519  0.3581  0.6521
 7038SOL    HW132750   3.916   2.219   7.954  1.1492  1.2408 -1.8583
 7038SOL    HW232751   3.902   2.070   7.930 -0.2288  0.7766  0.0574
 7039SOL     OW32752   0.888   3.202   5.346  0.7173  0.4132 -0.0264
 7039SOL    HW132753   0.842   3.283   5.327 -0.0573 -0.0102  0.0356
 7039SOL    HW232754   0.823   3.157   5.402 -0.3815 -2.0955 -3.3451
 7040SOL     OW32755   0.379   4.401   6.482 -0.2534 -0.0452 -0.5523
 7040SOL    HW132756   0.438   4.460   6.435 -0.7060  0.3789 -0.5879
 7040SOL    HW232757   0.314   4.393   6.412 -1.3724 -2.7384  0.8096
 7041SOL     OW32758   4.106   0.877   5.578  0.0943 -0.4432  1.0490
 7041SOL    HW132759   4.145   0.849   5.661 -0.0258 -0.9993  0.9160
 7041SOL    HW232760   4.105   0.972   5.590  1.3939 -0.3523  0.4090
 7042SOL     OW32761   1.486   4.571   3.652 -0.4540 -0.8337  0.1228
 7042SOL    HW132762   1.542   4.615   3.716 -0.1544 -1.8176  0.5510
 7042SOL    HW232763   1.517   4.482   3.636  0.9664 -0.5070  1.0623
 7043SOL     OW32764   1.972   1.564   1.501  0.1579 -0.2319  0.2072
 7043SOL    HW132765   1.989   1.491   1.441 -1.6987 -1.6139  1.3637
 7043SOL    HW232766   1.881   1.540   1.520 -0.5612  0.9104 -1.8772
 7044SOL     OW32767   0.148   1.201   7.445 -0.3040 -0.0422  0.0306
 7044SOL    HW132768   0.235   1.223   7.479  0.6491 -0.7293 -1.9470
 7044SOL    HW232769   0.106   1.190   7.530  1.4229  1.4483  1.0853
 7045SOL     OW32770   2.386   1.533   6.134  0.7177 -0.6248  0.2418
 7045SOL    HW132771   2.441   1.505   6.206 -1.2543  1.5021  2.5882
 7045SOL    HW232772   2.432   1.499   6.057 -0.4708 -0.8329 -0.3852
 7046SOL     OW32773   2.511   2.964   3.258 -0.1673  0.2741 -0.3905
 7046SOL    HW132774   2.450   2.891   3.249  1.4928 -1.1091 -0.3246
 7046SOL    HW232775   2.467   3.026   3.200 -0.3226  0.9265  0.4328
 7047SOL     OW32776   3.494   1.328   6.050 -0.1388 -0.8308  0.1213
 7047SOL    HW132777   3.527   1.349   6.137  0.0855 -1.8428  0.2774
 7047SOL    HW232778   3.423   1.270   6.079 -2.5929  0.8698 -2.4426
 7048SOL     OW32779   3.739   2.524   5.531  0.2610  0.0045 -0.0462
 7048SOL    HW132780   3.827   2.561   5.527 -0.6254  2.4200  2.3960
 7048SOL    HW232781   3.711   2.538   5.621 -0.2011  1.3121 -0.3908
 7049SOL     OW32782   1.940   0.512   2.695 -0.2874 -0.4642 -0.2584
 7049SOL    HW132783   1.960   0.580   2.759  2.4831 -1.3903 -0.1027
 7049SOL    HW232784   2.018   0.511   2.639  0.8567 -0.9370  1.3478
 7050SOL     OW32785   0.587   3.379   6.337 -0.0738 -0.1692  0.0472
 7050SOL    HW132786   0.574   3.288   6.310 -0.4745  0.2844 -1.2959
 7050SOL    HW232787   0.511   3.399   6.392  0.0806 -0.5636  0.4022
 7051SOL     OW32788   0.817   4.428   9.462 -0.1634 -0.1006 -0.5481
 7051SOL    HW132789   0.816   4.341   9.424  3.1339 -0.5011  0.2541
 7051SOL    HW232790   0.808   4.485   9.385  2.2323 -0.1094 -0.8264
 7052SOL     OW32791   0.275   3.460   3.079 -0.0770  0.2785  0.2143
 7052SOL    HW132792   0.190   3.424   3.104 -0.5243  2.9419  2.5184
 7052SOL    HW232793   0.245   3.536   3.027  0.2583 -1.4281 -2.4734
 7053SOL     OW32794   4.390   2.628   3.509 -0.1825  0.4666 -0.0143
 7053SOL    HW132795   4.303   2.590   3.498 -0.0780  0.5076 -0.9773
 7053SOL    HW232796   4.445   2.556   3.478 -0.9200 -0.0835 -0.0692
 7054SOL     OW32797   2.432   0.255  15.643  0.0610  0.1697 -0.0476
 7054SOL    HW132798   2.450   0.349  15.633 -0.7042  0.2113 -1.0242
 7054SOL    HW232799   2.377   0.239  15.567  0.1981  2.9460 -0.7639
 7055SOL     OW32800   3.424   1.891   2.098 -0.3894  0.1934  0.2451
 7055SOL    HW132801   3.468   1.974   2.114  1.2557  0.0366 -3.5925
 7055SOL    HW232802   3.417   1.866   2.190 -2.3803 -1.2915 -0.3153
 7056SOL     OW32803   3.616   0.539   7.528  0.0769  0.0181 -0.3252
 7056SOL    HW132804   3.621   0.596   7.452 -0.1548 -0.8060 -0.9503
 7056SOL    HW232805   3.676   0.584   7.588 -0.5852 -1.8005  1.6932
 7057SOL     OW32806   4.002   0.389   1.485  0.1302 -0.0815 -0.1957
 7057SOL    HW132807   4.050   0.399   1.567 -0.8192  2.0240  0.1204
 7057SOL    HW232808   3.912   0.389   1.518  1.2999  1.5031  2.9806
 7058SOL     OW32809   3.865   0.133   8.408  0.1926  0.4213  0.4512
 7058SOL    HW132810   3.877   0.190   8.332 -0.2365 -0.5450 -0.3317
 7058SOL    HW232811   3.906   0.049   8.387  1.9745  0.4350  3.7926
 7059SOL     OW32812   1.472   0.413  12.287  0.2677 -0.2660  0.0380
 7059SOL    HW132813   1.535   0.451  12.348  1.0404 -0.3019 -0.7305
 7059SOL    HW232814   1.530   0.413  12.211  0.5210 -0.3782  0.2339
 7060SOL     OW32815   3.380   4.496   2.429  0.1795 -1.1272  0.5300
 7060SOL    HW132816   3.437   4.570   2.451  0.2154 -1.4065  1.3440
 7060SOL    HW232817   3.398   4.487   2.335  1.4649 -0.0030  0.6736
 7061SOL     OW32818   2.743   1.402   8.921  0.1542 -0.3582 -0.7674
 7061SOL    HW132819   2.771   1.456   8.994 -0.4215 -0.7573 -0.2558
 7061SOL    HW232820   2.684   1.339   8.962 -0.6470  0.3809 -0.8076
 7062SOL     OW32821   1.609   3.133  16.835  0.6758  0.2925 -0.0424
 7062SOL    HW132822   1.685   3.115  16.890  0.8963 -0.5087 -0.6192
 7062SOL    HW232823   1.640   3.214  16.796 -1.2749 -0.1721 -2.5931
 7063SOL     OW32824   0.846   1.637   7.024 -0.2745  0.6319 -0.3697
 7063SOL    HW132825   0.933   1.667   6.999 -0.3170 -0.2854 -1.6105
 7063SOL    HW232826   0.807   1.702   7.082 -1.2648  0.3648 -0.7372
 7064SOL     OW32827   1.612   3.288   3.813  0.5177 -0.0619 -0.1936
 7064SOL    HW132828   1.679   3.268   3.747  1.1871 -0.1561  0.5048
 7064SOL    HW232829   1.646   3.230   3.881  2.2891 -0.0576 -1.0764
 7065SOL     OW32830   2.100   3.911   8.984 -0.0081 -0.3032 -0.4792
 7065SOL    HW132831   2.178   3.913   8.929  0.0578 -1.7677 -0.4519
 7065SOL    HW232832   2.148   3.885   9.062  1.1360  0.4580 -0.9268
 7066SOL     OW32833   2.848   0.246   3.953 -0.4413 -0.0331  0.4127
 7066SOL    HW132834   2.813   0.281   3.871  1.2030  0.7451  0.0279
 7066SOL    HW232835   2.769   0.231   4.004 -0.9979  0.3700 -0.3322
 7067SOL     OW32836   2.360   2.172  13.629 -0.1645  0.7149 -0.3346
 7067SOL    HW132837   2.342   2.078  13.617 -0.9970  0.5731  2.0212
 7067SOL    HW232838   2.344   2.207  13.542  1.7699 -0.2291 -1.0606
 7068SOL     OW32839   4.433   1.213   1.053 -0.0872  0.3490 -0.0929
 7068SOL    HW132840   4.447   1.286   0.993  1.8450 -1.5342 -1.9008
 7068SOL    HW232841   4.387   1.155   0.993  1.2621  0.8708 -1.6074
 7069SOL     OW32842   2.976   1.965   6.082  0.0979 -0.1187 -0.1254
 7069SOL    HW132843   2.946   1.967   6.172  1.4529 -1.5703  0.3645
 7069SOL    HW232844   2.892   1.943   6.041  0.5085 -1.1296 -0.4398
 7070SOL     OW32845   0.378   1.485   9.072  0.2527 -0.2032  0.0643
 7070SOL    HW132846   0.379   1.421   9.143 -0.7904  0.7839  0.9581
 7070SOL    HW232847   0.443   1.443   9.016  0.4347 -0.3974  0.4216
 7071SOL     OW32848   2.767   0.065   0.486  0.5829  0.8017  0.0185
 7071SOL    HW132849   2.813   0.038   0.565  0.0603 -2.7198 -0.8783
 7071SOL    HW232850   2.693   0.004   0.494  0.9856  0.3753  0.4570
 7072SOL     OW32851   0.002   1.011   5.227 -0.4271  0.1014  0.1791
 7072SOL    HW132852   0.013   0.991   5.134 -0.4417 -0.0452  0.2092
 7072SOL    HW232853   4.709   1.101   5.221 -0.7157  0.1120  1.8901
 7073SOL     OW32854   2.571   2.523   6.892 -0.2803  0.9025  0.0558
 7073SOL    HW132855   2.613   2.503   6.975  2.3171  0.2727 -1.4159
 7073SOL    HW232856   2.620   2.466   6.834 -0.7845  0.8366 -0.3119
 7074SOL     OW32857   1.567   4.006  15.570 -0.0814 -0.0346  0.2847
 7074SOL    HW132858   1.614   3.956  15.637  0.4224  1.9092  1.4163
 7074SOL    HW232859   1.590   4.094  15.602 -0.1393  0.1845 -0.2871
 7075SOL     OW32860   3.533   0.073  15.770 -0.2032 -0.6311  0.4105
 7075SOL    HW132861   3.547   0.095  15.862  1.2249  0.6080 -0.1084
 7075SOL    HW232862   3.445   0.109  15.754  0.2198 -0.2117 -1.0042
 7076SOL     OW32863   0.178   0.041   4.952 -0.2214 -0.4398  0.3666
 7076SOL    HW132864   0.158   4.728   5.028 -2.1962  2.8153  2.1006
 7076SOL    HW232865   0.126   4.734   4.887 -2.5637  3.0208 -0.2480
 7077SOL     OW32866   0.978   3.858   8.318 -0.7043  0.1155 -0.7730
 7077SOL    HW132867   0.913   3.824   8.379  2.0387 -2.1732  0.8911
 7077SOL    HW232868   1.050   3.888   8.373  0.0369 -1.9393 -0.6073
 7078SOL     OW32869   4.063   1.550   3.576 -0.3413 -0.0790 -0.3489
 7078SOL    HW132870   4.116   1.571   3.653 -1.6169 -2.3529  1.1399
 7078SOL    HW232871   4.119   1.485   3.533  1.0215  1.7323 -1.3109
 7079SOL     OW32872   4.446   0.766   8.055 -0.2714  0.3626 -0.0382
 7079SOL    HW132873   4.393   0.846   8.058  0.0196  0.5889 -1.1120
 7079SOL    HW232874   4.475   0.755   7.965 -0.4646 -1.4156  0.1288
 7080SOL     OW32875   3.381   0.058   8.158  0.4040 -0.1031  0.3046
 7080SOL    HW132876   3.343   0.103   8.083 -0.7406 -0.7512  0.5067
 7080SOL    HW232877   3.462   0.028   8.115 -1.0975 -0.6250 -2.1934
 7081SOL     OW32878   1.764   2.123  13.780  0.9249 -0.5380 -0.8192
 7081SOL    HW132879   1.764   2.188  13.850 -2.0305 -0.1155 -1.2100
 7081SOL    HW232880   1.836   2.160  13.728  0.1091  1.9194 -0.2102
 7082SOL     OW32881   4.304   2.143  10.736  0.2211  0.7425 -0.3649
 7082SOL    HW132882   4.348   2.071  10.780  3.9786  1.3889 -3.0145
 7082SOL    HW232883   4.216   2.109  10.720  1.2035 -1.6624 -0.5887
 7083SOL     OW32884   0.357   3.295   2.898 -0.4243  0.2895  0.0497
 7083SOL    HW132885   0.342   3.380   2.939 -1.2850 -0.5546  1.4752
 7083SOL    HW232886   0.360   3.241   2.976 -0.2638 -1.4234 -1.1435
 7084SOL     OW32887   3.287   4.222   2.441  0.0945  0.6351 -0.3112
 7084SOL    HW132888   3.322   4.305   2.408 -0.2100  0.6968 -0.4837
 7084SOL    HW232889   3.372   4.192   2.474  0.6558  1.9287 -0.5658
 7085SOL     OW32890   3.449   0.192   7.722 -0.1891 -0.0011  0.1828
 7085SOL    HW132891   3.437   0.199   7.817  4.3768  0.8897  0.7026
 7085SOL    HW232892   3.543   0.202   7.705 -0.5755  0.6042 -1.5550
 7086SOL     OW32893   2.168   1.319   8.794 -0.6290  0.2223  0.6912
 7086SOL    HW132894   2.120   1.399   8.815 -0.5495 -0.1020  2.0887
 7086SOL    HW232895   2.116   1.262   8.851  0.1035 -0.2303  0.9113
 7087SOL     OW32896   0.872   1.145  17.463  0.7127 -0.1847  0.2947
 7087SOL    HW132897   0.951   1.092  17.455 -0.1709 -1.3646 -0.6534
 7087SOL    HW232898   0.852   1.167  17.372 -1.2668  0.3116  0.8604
 7088SOL     OW32899   2.229   2.572   5.561 -0.0270 -0.4549 -0.6533
 7088SOL    HW132900   2.210   2.646   5.504 -1.1978  0.2948  0.7050
 7088SOL    HW232901   2.191   2.496   5.518 -2.2868  0.1527  0.2747
 7089SOL     OW32902   0.923   1.800  10.917  0.4936  0.4370 -0.1052
 7089SOL    HW132903   0.987   1.729  10.915  0.5510  0.5234 -1.5861
 7089SOL    HW232904   0.965   1.870  10.866  1.6341  0.4783  0.8741
 7090SOL     OW32905   3.379   3.429   6.074  0.8960 -0.1374  0.0807
 7090SOL    HW132906   3.413   3.501   6.021  0.5934 -0.0342  0.0259
 7090SOL    HW232907   3.426   3.434   6.157  3.4530 -2.8496 -1.2060
 7091SOL     OW32908   3.565   0.983   7.152  0.1706  0.3384  0.5142
 7091SOL    HW132909   3.568   1.077   7.170 -0.5284  0.3648  0.4782
 7091SOL    HW232910   3.471   0.975   7.134  0.4019 -1.4223  0.0532
 7092SOL     OW32911   0.855   1.050  14.197 -0.3163  0.7648 -0.0815
 7092SOL    HW132912   0.866   1.054  14.102  1.4216 -0.3932  0.0799
 7092SOL    HW232913   0.943   1.043  14.234 -0.1084  0.7991 -0.5686
 7093SOL     OW32914   4.008   0.400   2.023 -0.0581  0.2113 -1.0528
 7093SOL    HW132915   3.953   0.435   1.953  2.5977  0.2870 -3.1253
 7093SOL    HW232916   4.015   0.306   2.007  1.0741  0.2402 -0.7711
 7094SOL     OW32917   1.277   1.980   3.211 -0.7658  0.0174  0.4954
 7094SOL    HW132918   1.329   1.939   3.141 -1.9264  0.7744 -0.8123
 7094SOL    HW232919   1.223   1.905   3.233  0.3197 -0.9965 -0.2733
 7095SOL     OW32920   3.769   3.120   9.996 -0.2585 -0.0115  0.4152
 7095SOL    HW132921   3.704   3.157   9.935  0.2620 -0.4915 -0.4297
 7095SOL    HW232922   3.827   3.099   9.923  0.4572 -0.4618  1.1312
 7096SOL     OW32923   3.637   0.680   7.139 -0.1122  0.0726  0.0903
 7096SOL    HW132924   3.677   0.604   7.180 -1.6936 -0.1970  1.1286
 7096SOL    HW232925   3.609   0.728   7.217  2.3281  2.2722 -0.3713
 7097SOL     OW32926   1.185   2.069   6.543 -0.2543  0.1514  0.2948
 7097SOL    HW132927   1.225   2.156   6.551 -2.6002  1.1767  1.1599
 7097SOL    HW232928   1.101   2.099   6.508  0.1175 -0.9242 -1.5211
 7098SOL     OW32929   1.543   2.899   9.211 -0.0649  0.1863  0.4126
 7098SOL    HW132930   1.503   2.814   9.194  0.3771 -0.2008  1.3024
 7098SOL    HW232931   1.580   2.914   9.124 -0.1205  3.0233  0.8758
 7099SOL     OW32932   1.028   4.218   3.302  0.5842 -0.3533  0.0073
 7099SOL    HW132933   1.110   4.170   3.287  1.3876  1.4716 -1.4194
 7099SOL    HW232934   0.974   4.139   3.303 -1.6871  1.2006 -0.3457
 7100SOL     OW32935   0.878   2.621  17.641 -0.2677  0.1989 -0.4615
 7100SOL    HW132936   0.801   2.592  17.593 -2.3131  0.4155  2.6834
 7100SOL    HW232937   0.851   2.713  17.642 -1.0973 -0.0699  1.5284
 7101SOL     OW32938   1.898   1.752   3.464  0.2580 -0.1372  0.2077
 7101SOL    HW132939   1.844   1.681   3.498 -0.5997 -0.2049 -1.2939
 7101SOL    HW232940   1.957   1.769   3.537  1.2964  0.9330 -0.9019
 7102SOL     OW32941   4.582   4.559  15.884 -0.2596  0.5304  0.4616
 7102SOL    HW132942   4.662   4.610  15.868 -2.6645  4.2405  0.2417
 7102SOL    HW232943   4.512   4.610  15.843 -0.2829  0.0432 -0.0967
 7103SOL     OW32944   4.552   3.519   7.197 -0.2956 -0.2421  0.1724
 7103SOL    HW132945   4.539   3.542   7.290 -0.4706 -0.9190  0.3094
 7103SOL    HW232946   4.507   3.435   7.190 -1.5040  0.6667 -2.6576
 7104SOL     OW32947   1.112   4.346   0.454 -0.0244  0.5623  0.2952
 7104SOL    HW132948   1.126   4.333   0.360  1.3128  1.7164  0.3245
 7104SOL    HW232949   1.191   4.396   0.478  0.2628 -0.3608  1.2810
 7105SOL     OW32950   1.729   4.479   1.897 -0.0785  0.2077 -0.0351
 7105SOL    HW132951   1.770   4.564   1.911  2.0506 -0.9168  0.5047
 7105SOL    HW232952   1.784   4.423   1.951 -0.6371 -0.2492  0.0632
 7106SOL     OW32953   3.054   3.747   4.906  0.0144  0.2352  1.2160
 7106SOL    HW132954   3.029   3.666   4.950  2.7584 -0.4322  1.5130
 7106SOL    HW232955   3.146   3.757   4.930 -0.4454  1.2353  2.5149
 7107SOL     OW32956   4.172   4.384  16.044 -0.4365  0.1319  0.1987
 7107SOL    HW132957   4.242   4.444  16.069 -1.1565  1.2157 -0.3585
 7107SOL    HW232958   4.225   4.317  16.000 -1.3924 -0.7366  0.3565
 7108SOL     OW32959   2.789   0.432   4.495  0.0882  0.4275 -0.2766
 7108SOL    HW132960   2.734   0.499   4.455  0.1291 -1.3605 -3.3337
 7108SOL    HW232961   2.718   0.374   4.523  1.6890 -1.5290 -0.1987
 7109SOL     OW32962   0.110   2.845   2.381  0.5158  0.0929 -0.0900
 7109SOL    HW132963   0.060   2.851   2.463  1.2059 -0.1029  0.3465
 7109SOL    HW232964   0.194   2.806   2.405 -0.8140 -2.1012  1.1054
 7110SOL     OW32965   2.900   0.803   8.239 -0.2696 -0.6895 -0.1800
 7110SOL    HW132966   2.865   0.840   8.320 -1.1073 -1.6789 -0.0888
 7110SOL    HW232967   2.851   0.855   8.175 -0.3779  0.0657  0.5125
 7111SOL     OW32968   3.608   4.424  16.012  0.3796  0.1779 -0.0915
 7111SOL    HW132969   3.553   4.465  16.079  1.8409  2.7132 -0.4412
 7111SOL    HW232970   3.688   4.398  16.058 -0.0015  0.8356  0.9532
 7112SOL     OW32971   1.547   0.516   4.740  0.1988 -0.1844 -0.2594
 7112SOL    HW132972   1.508   0.523   4.653 -0.9851  0.2758  0.3086
 7112SOL    HW232973   1.602   0.594   4.733  1.3353 -1.0756 -1.1512
 7113SOL     OW32974   2.249   4.143   5.037  0.5311  0.1693  0.6716
 7113SOL    HW132975   2.208   4.225   5.009 -1.6378 -1.2969 -0.4381
 7113SOL    HW232976   2.216   4.090   4.964 -0.2944 -0.6331  1.6133
 7114SOL     OW32977   3.224   1.783  12.790 -0.1266 -0.0422  0.2095
 7114SOL    HW132978   3.128   1.780  12.792 -0.1904  1.1576 -1.6082
 7114SOL    HW232979   3.241   1.811  12.880  0.2315 -2.3947  0.8872
 7115SOL     OW32980   2.592   4.283   2.127  0.3794  0.0703 -0.4824
 7115SOL    HW132981   2.523   4.223   2.158 -0.0676  0.7071 -0.2421
 7115SOL    HW232982   2.607   4.329   2.210  1.3828 -0.1774 -0.5328
 7116SOL     OW32983   3.335   1.629   1.343  0.3898 -0.1107  0.1439
 7116SOL    HW132984   3.325   1.545   1.298 -0.4527  0.1274 -0.1139
 7116SOL    HW232985   3.259   1.633   1.401 -0.4698 -3.1354 -0.7888
 7117SOL     OW32986   3.822   1.431  14.061 -0.4103 -0.2719 -0.3772
 7117SOL    HW132987   3.916   1.445  14.075 -0.7633  1.8956 -0.2243
 7117SOL    HW232988   3.781   1.500  14.113 -0.0897 -0.1618 -0.2665
 7118SOL     OW32989   0.364   4.648  10.039 -0.5455  0.2091  0.0267
 7118SOL    HW132990   0.459   4.652  10.053 -0.6014  0.6829  0.2452
 7118SOL    HW232991   0.321   4.588  10.100 -0.7921 -0.5637 -0.9002
 7119SOL     OW32992   0.620   1.484   7.828  0.1237 -0.2376 -0.3758
 7119SOL    HW132993   0.610   1.457   7.919 -0.5502 -0.6158 -0.5593
 7119SOL    HW232994   0.710   1.517   7.830 -0.0839  0.2936  0.0594
 7120SOL     OW32995   2.704   2.403   1.537 -0.0866  0.2571  1.1956
 7120SOL    HW132996   2.723   2.325   1.589  0.3141 -1.3363 -1.3334
 7120SOL    HW232997   2.649   2.368   1.468  0.1501  2.6071 -0.1849
 7121SOL     OW32998   4.343   1.526  17.561 -0.2551 -0.2454 -0.1714
 7121SOL    HW132999   4.415   1.540  17.623  1.5689 -1.4068 -2.0386
 7121SOL    HW233000   4.281   1.470  17.608 -0.6020  1.5541  1.5145
 7122SOL     OW33001   4.023   0.068   4.407  0.0910 -0.2367 -0.2991
 7122SOL    HW133002   4.008   4.716   4.389 -1.6878  0.0798 -0.4080
 7122SOL    HW233003   3.988   0.074   4.497 -0.8380 -0.9980 -0.6150
 7123SOL     OW33004   4.242   0.840  14.766  0.1909  0.4908 -0.1799
 7123SOL    HW133005   4.281   0.802  14.845 -1.4158  0.0881  0.4265
 7123SOL    HW233006   4.206   0.760  14.727  3.1930 -1.4791  1.0326
 7124SOL     OW33007   2.521   1.707   4.668 -0.0308  0.3176 -0.0568
 7124SOL    HW133008   2.544   1.788   4.623  1.0627 -1.2143 -2.2901
 7124SOL    HW233009   2.534   1.719   4.762 -1.8434 -0.5112  0.3028
 7125SOL     OW33010   1.978   0.173  11.771 -0.2185 -0.1555  0.1907
 7125SOL    HW133011   2.069   0.202  11.782  0.0986 -1.7073  1.7081
 7125SOL    HW233012   1.929   0.244  11.731 -0.4169 -1.9933 -2.7901
 7126SOL     OW33013   4.649   2.988  12.347 -0.5543  0.1299  0.1244
 7126SOL    HW133014   4.718   2.971  12.283  0.3451 -0.4265  1.2562
 7126SOL    HW233015   4.596   3.057  12.305  0.5765  0.8039 -0.1923
 7127SOL     OW33016   1.072   0.335  11.543 -0.7340  0.0108 -0.2961
 7127SOL    HW133017   1.097   0.248  11.576 -1.9818  1.2196  3.8706
 7127SOL    HW233018   1.012   0.312  11.472  1.5491 -0.8704 -1.9210
 7128SOL     OW33019   1.757   1.006   5.572 -0.3662 -0.2757  0.4699
 7128SOL    HW133020   1.800   0.938   5.622 -0.0586 -2.8160 -3.3054
 7128SOL    HW233021   1.814   1.081   5.588  0.4790 -0.8835  0.3006
 7129SOL     OW33022   2.753   3.172   6.571 -0.2397  0.1673  0.0050
 7129SOL    HW133023   2.666   3.139   6.547  0.5532 -0.0739 -2.5482
 7129SOL    HW233024   2.793   3.092   6.604  0.4501  0.4623 -0.1118
 7130SOL     OW33025   1.364   2.396   2.464 -0.7641 -0.6944 -0.4424
 7130SOL    HW133026   1.405   2.481   2.481  0.1406 -1.0755 -0.7224
 7130SOL    HW233027   1.447   2.349   2.461  0.1817  0.9274 -0.1261
 7131SOL     OW33028   3.169   1.827  12.368  0.2992  0.1606 -0.3483
 7131SOL    HW133029   3.175   1.866  12.281 -0.0408 -3.1881 -1.8767
 7131SOL    HW233030   3.233   1.876  12.420 -1.0620  0.1257  1.3558
 7132SOL     OW33031   3.659   3.826   6.397  0.2671  0.2215 -0.5536
 7132SOL    HW133032   3.711   3.861   6.324 -0.7581 -0.3176 -1.5479
 7132SOL    HW233033   3.687   3.880   6.471  0.8758 -0.7246 -0.0903
 7133SOL     OW33034   0.035   3.064   8.427  0.0018  0.0334  0.1519
 7133SOL    HW133035   0.041   3.157   8.451 -0.0337 -1.0077  4.0487
 7133SOL    HW233036   0.122   3.065   8.386 -0.8035  2.3194 -1.5259
 7134SOL     OW33037   0.629   2.048   6.636 -0.2007 -0.2497  0.4052
 7134SOL    HW133038   0.613   2.087   6.551 -1.4089 -2.6221 -0.4498
 7134SOL    HW233039   0.598   2.120   6.691  0.2765  0.7397 -0.6305
 7135SOL     OW33040   2.345   0.095   6.382 -0.3402 -0.1670  0.2157
 7135SOL    HW133041   2.321   0.096   6.290  2.8921 -0.2860 -0.6305
 7135SOL    HW233042   2.297   0.020   6.417 -0.3965 -0.2976 -0.1483
 7136SOL     OW33043   3.642   2.991   1.707  0.3886  0.2188  0.2220
 7136SOL    HW133044   3.567   2.959   1.656  0.9895 -1.3799  0.3369
 7136SOL    HW233045   3.620   3.084   1.712 -0.6549  0.1158 -2.3869
 7137SOL     OW33046   4.277   2.841   6.282  0.1762 -0.2781 -0.4546
 7137SOL    HW133047   4.330   2.763   6.299  3.4436  1.8913 -0.5979
 7137SOL    HW233048   4.337   2.877   6.217  1.9875 -3.3546 -0.5055
 7138SOL     OW33049   4.230   0.863   6.167 -0.6510 -0.2270  0.3844
 7138SOL    HW133050   4.228   0.931   6.100 -1.7924  0.5987  1.2651
 7138SOL    HW233051   4.176   0.794   6.128 -1.0349 -0.6647  1.6885
 7139SOL     OW33052   2.288   1.330  15.189  0.0813 -0.0728  0.1674
 7139SOL    HW133053   2.197   1.307  15.204  0.3749 -1.0681  0.4353
 7139SOL    HW233054   2.318   1.382  15.264  0.0349  1.7622 -1.1052
 7140SOL     OW33055   1.256   4.055   9.868 -0.9801  0.3399  0.1859
 7140SOL    HW133056   1.344   4.017   9.857  0.3606  3.7208 -0.8596
 7140SOL    HW233057   1.268   4.137   9.820 -0.8227  1.0943  1.5324
 7141SOL     OW33058   4.190   0.696   9.823 -0.1806  0.3553 -0.2974
 7141SOL    HW133059   4.187   0.734   9.735  1.9515 -0.6807 -0.7975
 7141SOL    HW233060   4.235   0.763   9.874  0.3010 -0.3046  0.1469
 7142SOL     OW33061   0.591   0.175   0.956  0.9334  0.6608  0.0269
 7142SOL    HW133062   0.549   0.258   0.933 -0.7584 -0.7619 -1.9446
 7142SOL    HW233063   0.528   0.107   0.933  1.4505 -0.3090  1.4300
 7143SOL     OW33064   1.504   3.085   7.032  0.2740 -0.4305  0.1605
 7143SOL    HW133065   1.582   3.111   6.983  0.6586  1.2468  1.6429
 7143SOL    HW233066   1.442   3.145   6.989  1.8567  1.7721  0.9741
 7144SOL     OW33067   4.207   3.623  17.559  0.3888 -0.4625 -0.0001
 7144SOL    HW133068   4.298   3.642  17.581  0.5129  0.2751 -1.1727
 7144SOL    HW233069   4.207   3.527  17.554  1.3885 -0.5297  1.2536
 7145SOL     OW33070   1.275   1.530  17.622  0.3184  0.3914  0.2852
 7145SOL    HW133071   1.334   1.494  17.688  3.2431  0.2803 -2.3800
 7145SOL    HW233072   1.314   1.612  17.591  0.6478 -0.3807 -1.3370
 7146SOL     OW33073   1.226   4.102   3.916 -0.2375  0.0728  0.1153
 7146SOL    HW133074   1.274   4.167   3.864 -2.0019  0.6985 -0.7161
 7146SOL    HW233075   1.236   4.025   3.859  1.1578 -0.9945  1.7821
 7147SOL     OW33076   2.259   2.620   7.536 -0.3448  0.4852 -0.3762
 7147SOL    HW133077   2.182   2.669   7.508 -0.2785  1.9648  2.1055
 7147SOL    HW233078   2.292   2.595   7.449  1.8769  2.5680 -0.1205
 7148SOL     OW33079   1.021   1.322   8.280 -0.4056 -0.0394 -0.0223
 7148SOL    HW133080   1.088   1.315   8.212  0.2458  0.1334  0.6033
 7148SOL    HW233081   1.063   1.376   8.348 -0.7047  0.8506 -0.5385
 7149SOL     OW33082   1.975   4.335   8.079 -0.6273  0.0817 -0.3603
 7149SOL    HW133083   1.923   4.359   8.002 -0.7346  0.7884 -0.0645
 7149SOL    HW233084   2.009   4.417   8.114  0.9651 -0.3474 -0.8913
 7150SOL     OW33085   4.161   3.104   7.175  0.2661  0.2495 -0.0163
 7150SOL    HW133086   4.071   3.134   7.158  0.4124  0.2325 -0.7899
 7150SOL    HW233087   4.154   3.012   7.152  0.7410 -0.5873  3.1896
 7151SOL     OW33088   2.136   0.711  12.267  0.5985  0.0787 -0.2284
 7151SOL    HW133089   2.208   0.649  12.271 -0.1505 -0.6060  2.7365
 7151SOL    HW233090   2.085   0.670  12.196  1.6080 -1.7522  0.1069
 7152SOL     OW33091   0.612   0.286   5.613  0.0580 -0.0700 -0.7010
 7152SOL    HW133092   0.652   0.348   5.674 -1.2726 -1.0709  1.1825
 7152SOL    HW233093   0.670   0.214   5.639 -1.0682 -0.3142  1.1436
 7153SOL     OW33094   0.955   3.201   6.926  0.6422  0.5665 -0.1410
 7153SOL    HW133095   0.922   3.275   6.876  1.8526  1.8054  0.8652
 7153SOL    HW233096   0.946   3.136   6.857  2.0992  0.5504 -0.3288
 7154SOL     OW33097   2.607   4.179   8.875 -0.6038 -0.5016 -0.2357
 7154SOL    HW133098   2.666   4.108   8.851  0.7047  0.6176 -0.2930
 7154SOL    HW233099   2.559   4.174   8.792 -1.4287  0.5848  0.1718
 7155SOL     OW33100   3.383   2.712   5.304 -0.2627  0.3552 -0.4800
 7155SOL    HW133101   3.325   2.644   5.339  1.1850 -0.4537  0.3075
 7155SOL    HW233102   3.367   2.789   5.359 -0.6064  0.7011 -1.0595
 7156SOL     OW33103   3.044   3.725  16.843  0.1655  0.2180 -0.0653
 7156SOL    HW133104   3.140   3.727  16.846  0.2064 -0.2463 -1.1300
 7156SOL    HW233105   3.024   3.634  16.820 -0.1364  0.0214  0.9773
 7157SOL     OW33106   1.019   1.760   1.613  0.7391  0.0190  0.1448
 7157SOL    HW133107   1.053   1.831   1.667  0.0422 -0.0541  0.6878
 7157SOL    HW233108   0.928   1.751   1.641 -0.0707  2.9516 -1.5678
 7158SOL     OW33109   3.302   3.503   9.426  0.1191 -0.2878 -0.2417
 7158SOL    HW133110   3.230   3.561   9.399  0.8424  0.9786  0.5337
 7158SOL    HW233111   3.371   3.569   9.438 -0.5515  0.3486  0.1855
 7159SOL     OW33112   4.096   2.233   2.550 -0.0208  0.4110  0.0073
 7159SOL    HW133113   4.034   2.301   2.575  1.1047  0.8690  1.5723
 7159SOL    HW233114   4.154   2.275   2.487  2.1095 -1.6408  0.6184
 7160SOL     OW33115   3.437   4.047   8.354  0.3843  0.1060 -0.3281
 7160SOL    HW133116   3.435   3.988   8.278  0.2158  1.2952 -1.2483
 7160SOL    HW233117   3.405   4.128   8.314 -1.7327  0.2875  1.7131
 7161SOL     OW33118   4.389   3.713   1.779 -0.5163  0.1675 -0.1449
 7161SOL    HW133119   4.303   3.752   1.789 -1.2394 -1.6317  0.7994
 7161SOL    HW233120   4.407   3.701   1.872 -2.1984  2.2336  0.4399
 7162SOL     OW33121   2.026   1.069   0.079 -0.0952  0.0219 -0.5110
 7162SOL    HW133122   1.938   1.067   0.041 -0.5334  0.3425  0.5021
 7162SOL    HW233123   2.058   0.992   0.030  0.6655 -0.7764  1.2376
 7163SOL     OW33124   2.842   0.909  12.120 -0.1939  0.7204  0.2293
 7163SOL    HW133125   2.760   0.868  12.148  1.0740 -2.2046 -0.3073
 7163SOL    HW233126   2.899   0.849  12.168  0.7991  0.4175 -1.3390
 7164SOL     OW33127   1.935   0.026   4.308  0.1648 -0.4391  0.8826
 7164SOL    HW133128   2.018   4.722   4.327 -0.4845 -0.5733  3.4399
 7164SOL    HW233129   1.962   0.112   4.339  1.6943 -0.2836 -0.9334
 7165SOL     OW33130   0.031   1.925   7.560  0.7964 -0.0492 -0.5497
 7165SOL    HW133131   0.044   1.994   7.625  0.2952 -1.0568  0.6123
 7165SOL    HW233132   4.679   1.929   7.535  0.6883  1.4222  0.0732
 7166SOL     OW33133   3.346   4.003   6.433 -0.8750  0.5429  0.0410
 7166SOL    HW133134   3.274   3.945   6.461 -0.2404 -0.5135 -0.4928
 7166SOL    HW233135   3.314   4.039   6.350 -1.0608 -0.5573 -0.3644
 7167SOL     OW33136   0.517   0.209   6.471  0.1403  0.4972  0.1882
 7167SOL    HW133137   0.493   0.239   6.383 -0.1885  0.7334  0.3560
 7167SOL    HW233138   0.463   0.261   6.530 -0.7172 -1.6453  1.2917
 7168SOL     OW33139   0.532   1.297   6.396  0.2924  0.4231  0.0870
 7168SOL    HW133140   0.452   1.253   6.368  1.7991 -2.1119 -0.2757
 7168SOL    HW233141   0.589   1.257   6.330 -0.8682 -1.2311  0.0779
 7169SOL     OW33142   0.371   0.055   0.814 -0.3500  0.0599 -0.4851
 7169SOL    HW133143   0.309   0.010   0.757 -0.3697 -0.5530  0.0170
 7169SOL    HW233144   0.392   0.123   0.750 -1.5712  1.0576  0.1694
 7170SOL     OW33145   0.049   0.535   6.128 -0.0422 -0.3181  0.2492
 7170SOL    HW133146   0.026   0.606   6.188 -1.9073 -0.7737  0.0965
 7170SOL    HW233147   0.119   0.581   6.083  0.0265  0.8001  1.5078
 7171SOL     OW33148   3.145   3.771   1.853 -0.2622 -0.3533 -0.1019
 7171SOL    HW133149   3.223   3.741   1.807  0.1672  1.8332 -0.7981
 7171SOL    HW233150   3.087   3.699   1.828 -0.0691  0.1025 -1.8084
 7172SOL     OW33151   3.020   0.298   7.362 -0.0864 -0.4417 -0.2860
 7172SOL    HW133152   3.025   0.389   7.390 -3.0688  0.1906 -1.7636
 7172SOL    HW233153   3.101   0.282   7.314  0.7783 -2.1958  1.7462
 7173SOL     OW33154   0.320   0.021   1.681 -0.3741 -0.3854 -0.2954
 7173SOL    HW133155   0.272   0.098   1.714 -0.0874 -0.1522 -0.4226
 7173SOL    HW233156   0.286   4.690   1.735  1.3233 -0.2805  0.9094
 7174SOL     OW33157   4.126   4.337   3.031 -0.0959  0.1629 -0.2030
 7174SOL    HW133158   4.062   4.302   3.094  1.2825 -1.1206  0.5128
 7174SOL    HW233159   4.076   4.344   2.950 -2.6986 -0.8572  1.2904
 7175SOL     OW33160   0.381   2.307   6.202 -0.4181 -0.2438  0.2516
 7175SOL    HW133161   0.308   2.352   6.245  1.5858  1.0374  2.3409
 7175SOL    HW233162   0.326   2.258   6.142  1.5187 -0.5317 -1.3103
 7176SOL     OW33163   2.520   1.834   9.470 -0.3607 -0.4716 -0.1344
 7176SOL    HW133164   2.465   1.801   9.399  1.1344  0.1375 -1.5648
 7176SOL    HW233165   2.538   1.920   9.431 -0.0359  0.2414  1.5887
 7177SOL     OW33166   2.401   4.318   8.240  0.1707  0.5256  0.3064
 7177SOL    HW133167   2.446   4.305   8.324 -1.5333 -1.8096  0.8576
 7177SOL    HW233168   2.478   4.315   8.183  0.3505  0.2272  0.5594
 7178SOL     OW33169   2.527   3.100   2.783  0.1618  0.2649 -1.1899
 7178SOL    HW133170   2.522   3.038   2.710 -0.5786 -0.5145 -0.4774
 7178SOL    HW233171   2.458   3.162   2.759  1.0684  0.7619 -2.4872
 7179SOL     OW33172   4.589   4.189   5.042 -0.2271 -0.4143  0.3266
 7179SOL    HW133173   4.590   4.271   5.092 -1.6740 -0.6678  0.7761
 7179SOL    HW233174   4.666   4.142   5.074 -1.2239 -0.4673  2.6214
 7180SOL     OW33175   1.882   2.147   8.197  0.2222  0.2751 -0.1274
 7180SOL    HW133176   1.901   2.111   8.110 -0.5023 -2.2178  0.7723
 7180SOL    HW233177   1.956   2.204   8.218  0.2640  0.3800 -0.5609
 7181SOL     OW33178   3.041   2.210   9.355 -0.0964 -0.5973 -0.1886
 7181SOL    HW133179   3.025   2.132   9.409 -1.5526 -0.3119 -0.2194
 7181SOL    HW233180   2.986   2.275   9.398  0.5889  1.2572 -2.1326
 7182SOL     OW33181   4.715   1.006   7.248  0.2123 -0.7205  0.4150
 7182SOL    HW133182   4.694   0.989   7.340  0.2004 -0.5865  0.4372
 7182SOL    HW233183   4.644   0.958   7.206  2.3240 -1.3137 -2.4938
 7183SOL     OW33184   2.466   4.052   9.895  0.2691 -0.1616  0.3081
 7183SOL    HW133185   2.371   4.066   9.901  0.4084  1.1011 -0.4857
 7183SOL    HW233186   2.483   4.054   9.801  0.6581 -0.1420  0.3779
 7184SOL     OW33187   1.456   3.051   2.694  0.1061 -0.0571 -0.3691
 7184SOL    HW133188   1.371   3.052   2.738 -0.5293  0.1966 -1.6136
 7184SOL    HW233189   1.507   3.108   2.753  0.6859  0.4483 -1.3631
 7185SOL     OW33190   0.118   0.733   6.450 -0.1628 -0.3721  0.3598
 7185SOL    HW133191   0.070   0.733   6.533  2.6105  1.1146  1.9305
 7185SOL    HW233192   0.209   0.716   6.475  0.4204  1.9345 -0.2267
 7186SOL     OW33193   2.629   3.386   8.262  0.2356 -0.0431 -0.0601
 7186SOL    HW133194   2.617   3.467   8.212 -1.5830  0.3842  1.1074
 7186SOL    HW233195   2.585   3.408   8.344  0.7603  0.1676  0.1694
 7187SOL     OW33196   1.220   0.878   6.801  0.4798  0.4578 -0.0929
 7187SOL    HW133197   1.214   0.785   6.784  1.6590  0.5404 -0.9477
 7187SOL    HW233198   1.133   0.906   6.773 -0.0330 -1.6667 -0.5782
 7188SOL     OW33199   2.582   3.539   8.495  0.2618 -0.1828 -0.5322
 7188SOL    HW133200   2.529   3.606   8.452 -1.3122 -0.2867  1.2668
 7188SOL    HW233201   2.543   3.522   8.581  3.2874  0.6118  0.9861
 7189SOL     OW33202   1.005   4.215   7.373 -0.1246 -0.2122 -0.2618
 7189SOL    HW133203   0.941   4.285   7.357 -1.1965 -0.9910  0.6533
 7189SOL    HW233204   0.959   4.172   7.445  2.2519  0.2492  1.5838
 7190SOL     OW33205   4.568   2.524  10.347  0.0386 -0.3123  0.1155
 7190SOL    HW133206   4.581   2.443  10.297 -1.2997  0.2550 -1.1309
 7190SOL    HW233207   4.554   2.577  10.269 -2.0496 -2.2387 -0.8443
 7191SOL     OW33208   1.034   2.489   3.638  0.0432  0.0197 -0.3031
 7191SOL    HW133209   1.013   2.405   3.680  0.4045  0.7606  1.3161
 7191SOL    HW233210   0.946   2.519   3.616  0.4652  1.3184 -0.2181
 7192SOL     OW33211   2.210   0.997  15.167  0.7416 -0.1558  0.0886
 7192SOL    HW133212   2.160   0.917  15.149 -2.2479  1.8852 -0.6617
 7192SOL    HW233213   2.154   1.041  15.231 -1.3749 -2.4562 -0.1724
 7193SOL     OW33214   1.628   2.246   9.532 -0.1410  0.6045 -0.1180
 7193SOL    HW133215   1.614   2.280   9.620 -0.4077  0.9335 -0.2842
 7193SOL    HW233216   1.537   2.234   9.504 -0.0446 -0.7672  0.1638
 7194SOL     OW33217   0.065   4.464  10.703 -0.5820 -0.3586 -0.7353
 7194SOL    HW133218   4.738   4.426  10.760 -0.1970  0.6798  0.3997
 7194SOL    HW233219   0.078   4.554  10.733  0.6240 -0.8135  0.0901
 7195SOL     OW33220   0.457   3.036   8.802  0.1746 -0.3247 -0.1073
 7195SOL    HW133221   0.383   3.005   8.854  0.2676 -0.2841  0.0500
 7195SOL    HW233222   0.451   2.968   8.735 -1.6567 -1.5063  1.2300
 7196SOL     OW33223   3.148   3.601   4.585  0.3666 -0.5894  0.1396
 7196SOL    HW133224   3.167   3.518   4.627 -1.8389 -0.6801  0.9391
 7196SOL    HW233225   3.217   3.659   4.619 -1.8442  1.1444  1.6395
 7197SOL     OW33226   1.407   1.836   1.509  0.3688 -0.1194  0.0551
 7197SOL    HW133227   1.330   1.807   1.461 -0.9016  2.0252  0.8047
 7197SOL    HW233228   1.394   1.800   1.596 -0.1890 -2.5709 -1.0399
 7198SOL     OW33229   3.444   1.839  15.866  0.3703  0.2225  0.2695
 7198SOL    HW133230   3.463   1.834  15.960 -0.6484  1.7249  0.5545
 7198SOL    HW233231   3.393   1.760  15.846  0.3103 -0.4502  3.0581
 7199SOL     OW33232   2.885   0.610   6.318 -0.2129 -0.2267  0.2471
 7199SOL    HW133233   2.973   0.647   6.313 -0.4468  0.6599  3.0831
 7199SOL    HW233234   2.901   0.519   6.342 -1.2106 -0.7798 -1.1736
 7200SOL     OW33235   3.699   2.523   6.686 -0.0830 -0.2733 -0.5437
 7200SOL    HW133236   3.720   2.540   6.778  0.3430  0.5255 -0.7905
 7200SOL    HW233237   3.648   2.444   6.700 -1.1311  0.5554  0.3025
 7201SOL     OW33238   4.423   1.415  10.543 -0.1993 -0.1607 -0.0619
 7201SOL    HW133239   4.446   1.451  10.458 -2.9715 -1.6259 -1.4180
 7201SOL    HW233240   4.498   1.357  10.555  0.0559  0.0807 -0.4993
 7202SOL     OW33241   1.531   2.479   9.002  0.2776  0.0979  0.3034
 7202SOL    HW133242   1.549   2.556   9.056  0.6525 -0.2545  0.6776
 7202SOL    HW233243   1.453   2.511   8.955  0.9091 -0.6223 -1.2199
 7203SOL     OW33244   0.771   1.931   0.179  0.1072 -0.0668  0.5152
 7203SOL    HW133245   0.702   1.997   0.173  1.7654  1.6686  0.6470
 7203SOL    HW233246   0.817   1.964   0.255  1.5068  1.7934 -1.1471
 7204SOL     OW33247   0.699   1.503   7.493  1.0218 -0.0718  0.8538
 7204SOL    HW133248   0.695   1.575   7.430  0.0308  0.1192  1.1413
 7204SOL    HW233249   0.635   1.526   7.560  1.2121  4.6022 -0.5261
 7205SOL     OW33250   0.591   0.638   2.854 -0.4424 -0.2418  0.6958
 7205SOL    HW133251   0.676   0.624   2.896 -1.6435 -1.4725  2.7578
 7205SOL    HW233252   0.608   0.605   2.766  0.2641  0.3254  0.6255
 7206SOL     OW33253   4.444   1.863   6.295  0.0471 -0.5273  0.6084
 7206SOL    HW133254   4.532   1.846   6.327  0.4728  2.3906  1.0290
 7206SOL    HW233255   4.456   1.948   6.251 -0.3746 -0.8474 -0.1316
 7207SOL     OW33256   0.712   2.965   6.996  0.3735  0.0158 -0.2343
 7207SOL    HW133257   0.645   3.030   7.017 -2.4010 -2.0570 -2.6648
 7207SOL    HW233258   0.776   2.994   7.061  0.9733 -2.5382  0.3193
 7208SOL     OW33259   3.269   1.682  13.168  0.2221  0.3783 -0.0477
 7208SOL    HW133260   3.176   1.661  13.155  0.1932  0.9524 -0.7514
 7208SOL    HW233261   3.260   1.776  13.185  0.1321  0.1260  1.3166
 7209SOL     OW33262   1.144   4.572   3.019 -0.3710 -1.1791 -0.6818
 7209SOL    HW133263   1.153   4.533   3.106 -1.4068  2.7968  1.2212
 7209SOL    HW233264   1.105   4.654   3.050 -2.2259 -2.1298 -0.4821
 7210SOL     OW33265   4.703   1.990   8.618  0.3509  0.1264 -0.7932
 7210SOL    HW133266   4.638   1.928   8.587 -0.5055 -0.1626  1.5302
 7210SOL    HW233267   0.044   1.952   8.586 -0.2481 -0.9714 -1.0149
 7211SOL     OW33268   1.063   2.031   9.531  0.1111 -0.0170 -0.1539
 7211SOL    HW133269   1.110   1.964   9.581 -0.5854  0.5637  1.2820
 7211SOL    HW233270   1.099   2.107   9.578  2.3178 -1.6299  0.7542
 7212SOL     OW33271   4.472   1.821   1.531  0.1717  0.0490 -0.0465
 7212SOL    HW133272   4.503   1.735   1.560  1.9825  1.2344  1.5043
 7212SOL    HW233273   4.542   1.881   1.554 -0.4093  1.0448 -0.8636
 7213SOL     OW33274   4.078   3.213   5.651  0.7087  0.3776  0.2865
 7213SOL    HW133275   4.055   3.257   5.732  0.9254  0.9769  0.0226
 7213SOL    HW233276   4.143   3.150   5.682  0.9918  0.3901 -0.2768
 7214SOL     OW33277   0.199   2.143   6.365  0.6609 -0.1138  0.2760
 7214SOL    HW133278   0.133   2.198   6.406 -0.1505 -0.0495 -1.1436
 7214SOL    HW233279   0.160   2.124   6.280  0.8394  1.1026 -0.0670
 7215SOL     OW33280   0.726   1.741   7.269  0.2632  0.4704 -0.1513
 7215SOL    HW133281   0.721   1.835   7.252  2.0037 -0.0103 -3.3594
 7215SOL    HW233282   0.814   1.733   7.306  0.1759  0.8874  0.1399
 7216SOL     OW33283   1.019   3.904   4.426 -0.1619  0.0350  0.4110
 7216SOL    HW133284   0.949   3.945   4.375 -0.6968 -0.2014  0.9465
 7216SOL    HW233285   0.968   3.871   4.500  1.3661 -1.4102  0.8014
 7217SOL     OW33286   3.109   0.964   3.788 -0.2348 -0.4118  0.6344
 7217SOL    HW133287   3.015   0.949   3.794 -0.3210  1.0321  3.0133
 7217SOL    HW233288   3.111   1.050   3.830  0.9522 -1.0942  1.9794
 7218SOL     OW33289   1.542   1.160   7.843  0.1778  0.7068  0.3048
 7218SOL    HW133290   1.453   1.129   7.855  0.7021 -0.8173  0.3053
 7218SOL    HW233291   1.538   1.223   7.771  2.0207 -0.8552 -1.1778
 7219SOL     OW33292   0.726   0.380   3.598  0.0641 -0.2173 -0.2573
 7219SOL    HW133293   0.779   0.424   3.664  1.2795  1.7725 -2.5322
 7219SOL    HW233294   0.634   0.390   3.623  0.1026 -1.3093  0.3238
 7220SOL     OW33295   2.770   1.410   7.370  0.6047 -0.0396  0.6656
 7220SOL    HW133296   2.729   1.492   7.395  1.6208  0.4142  0.8521
 7220SOL    HW233297   2.855   1.444   7.342 -0.1079  0.8363 -0.4305
 7221SOL     OW33298   2.838   1.090   3.446  0.1389 -0.2455  0.0456
 7221SOL    HW133299   2.767   1.036   3.410 -0.4799 -0.1426  1.0896
 7221SOL    HW233300   2.846   1.169   3.392 -1.3117  0.0827  0.2990
 7222SOL     OW33301   0.490   1.928  11.760  0.2022  0.0793 -0.1230
 7222SOL    HW133302   0.454   2.008  11.721 -0.7816  0.1705  0.9527
 7222SOL    HW233303   0.419   1.897  11.818 -0.1785  0.3657 -0.4376
 7223SOL     OW33304   4.392   2.925   7.378  0.2880 -0.6751  0.4134
 7223SOL    HW133305   4.424   3.014   7.366  0.7748 -0.9063 -0.0316
 7223SOL    HW233306   4.401   2.885   7.292  0.1287 -1.0300  0.5608
 7224SOL     OW33307   3.060   1.791   7.214  0.6047 -0.6162  0.6241
 7224SOL    HW133308   3.020   1.873   7.242 -2.6971 -2.6481  1.8461
 7224SOL    HW233309   3.137   1.813   7.163 -0.1609  0.7177  0.0498
 7225SOL     OW33310   4.521   4.102   1.115  0.2906  0.0383 -0.0184
 7225SOL    HW133311   4.597   4.064   1.158  0.7481  1.5121  0.4825
 7225SOL    HW233312   4.499   4.178   1.169  2.4341  2.5643 -2.6891
 7226SOL     OW33313   3.751   0.502   5.061  0.1760 -0.0164  0.1060
 7226SOL    HW133314   3.697   0.439   5.109  2.3973 -1.5369  0.5854
 7226SOL    HW233315   3.833   0.483   5.106 -1.0640 -2.5173  1.2812
 7227SOL     OW33316   1.586   2.170   8.451  0.3613 -0.3825  0.4814
 7227SOL    HW133317   1.661   2.202   8.501 -0.2172  1.0309  0.4552
 7227SOL    HW233318   1.606   2.077   8.455 -2.3220 -0.9981 -0.3413
 7228SOL     OW33319   2.514   1.950   8.825 -0.3541 -0.1078 -0.2344
 7228SOL    HW133320   2.551   1.866   8.853  0.2215  0.6096  1.1214
 7228SOL    HW233321   2.471   1.913   8.747  1.9505 -0.6312 -1.2697
 7229SOL     OW33322   4.135   4.154   2.507  0.2686 -0.4034 -0.2690
 7229SOL    HW133323   4.194   4.095   2.553  1.4027 -0.5189 -1.8862
 7229SOL    HW233324   4.142   4.227   2.569 -0.9533 -1.3205  0.9293
 7230SOL     OW33325   0.749   3.480   3.316  0.0277 -0.4278  0.2631
 7230SOL    HW133326   0.679   3.430   3.358 -1.0841 -0.6944 -1.8690
 7230SOL    HW233327   0.703   3.513   3.239  1.8728 -1.4013 -1.2473
 7231SOL     OW33328   1.039   4.547   3.470  0.2872 -0.6737  0.9338
 7231SOL    HW133329   1.114   4.586   3.516 -1.9741  2.3153  2.0360
 7231SOL    HW233330   1.078   4.497   3.398  0.1437 -0.7292  0.8966
 7232SOL     OW33331   4.579   0.176   7.246 -0.2276  0.3540 -0.4587
 7232SOL    HW133332   4.562   0.083   7.265 -0.0206  0.4330  0.1253
 7232SOL    HW233333   4.522   0.225   7.305  1.0452  1.8685 -0.4720
 7233SOL     OW33334   0.137   0.575   1.947 -0.9908 -0.0113 -0.1250
 7233SOL    HW133335   0.092   0.500   1.986  0.1205 -0.1224  0.9583
 7233SOL    HW233336   0.067   0.640   1.958 -0.1643  0.8567  0.0118
 7234SOL     OW33337   1.509   2.622   2.552 -0.0704 -0.4997 -0.5747
 7234SOL    HW133338   1.550   2.626   2.639 -0.2003 -0.0206 -0.5373
 7234SOL    HW233339   1.548   2.707   2.533  0.5315 -0.1074  2.3634
 7235SOL     OW33340   1.360   2.568   7.599 -0.7064 -0.5085 -0.1671
 7235SOL    HW133341   1.366   2.661   7.576 -1.0572 -0.4554 -0.0386
 7235SOL    HW233342   1.402   2.525   7.524  1.9302 -1.0331  1.6049
 7236SOL     OW33343   2.466   4.557  13.875 -0.5434  0.1908 -0.3237
 7236SOL    HW133344   2.549   4.518  13.849  0.2647  0.9434  1.1760
 7236SOL    HW233345   2.492   4.648  13.886 -1.9252  0.3572  1.6987
 7237SOL     OW33346   0.012   4.535   7.579 -0.9668 -0.2596 -0.1291
 7237SOL    HW133347   0.008   4.453   7.529  1.5942  0.8360 -2.1823
 7237SOL    HW233348   4.720   4.502   7.662 -0.0862  1.9620  1.0994
 7238SOL     OW33349   2.582   3.755   1.798 -0.1132  0.5126  0.0675
 7238SOL    HW133350   2.523   3.785   1.729 -0.1059 -1.8396 -0.9584
 7238SOL    HW233351   2.548   3.794   1.879 -1.6931  0.0843 -0.3937
 7239SOL     OW33352   1.081   1.066   7.691 -0.8793 -0.0378 -0.2256
 7239SOL    HW133353   1.073   1.107   7.605 -1.3311 -0.0428 -0.1873
 7239SOL    HW233354   1.040   0.984   7.663 -1.7501 -1.3415  4.8560
 7240SOL     OW33355   3.438   3.668   2.729 -0.6108  0.3853 -0.0876
 7240SOL    HW133356   3.492   3.593   2.707 -0.4792  0.3592  0.3259
 7240SOL    HW233357   3.503   3.737   2.742 -0.4354  0.5221 -1.6092
 7241SOL     OW33358   1.925   2.136   2.540  0.4908  0.0086 -0.3130
 7241SOL    HW133359   1.899   2.125   2.448 -1.0829  1.7332 -0.0819
 7241SOL    HW233360   1.855   2.085   2.580  0.8397 -0.0345  0.2377
 7242SOL     OW33361   3.061   4.068   9.189  0.3407  0.4202 -0.4511
 7242SOL    HW133362   3.006   4.011   9.135  0.4474 -0.3601  0.2596
 7242SOL    HW233363   3.039   4.153   9.152  2.7592  1.2618  0.0816
 7243SOL     OW33364   1.068   1.723   5.600 -0.7614 -0.4447  0.3066
 7243SOL    HW133365   1.107   1.761   5.521  0.5890  1.1130  1.6934
 7243SOL    HW233366   1.013   1.794   5.636  1.4641  1.0255  0.8294
 7244SOL     OW33367   4.544   2.936   8.330  0.0537  0.6750  0.0524
 7244SOL    HW133368   4.625   2.976   8.361 -0.2168  0.0178  1.6224
 7244SOL    HW233369   4.493   2.948   8.410 -0.6413  1.3994 -0.4972
 7245SOL     OW33370   0.527   0.041   3.995 -0.2929 -0.1007  0.3988
 7245SOL    HW133371   0.576   0.049   3.913  1.6554  1.2233  1.7036
 7245SOL    HW233372   0.602   0.044   4.055 -1.8759  0.8055  2.3100
 7246SOL     OW33373   1.793   0.480   4.364  0.3964  0.6277  0.0418
 7246SOL    HW133374   1.744   0.399   4.353  0.8104  0.5243 -1.0088
 7246SOL    HW233375   1.720   0.541   4.372  0.1800  0.1221  1.9609
 7247SOL     OW33376   1.197   2.442   4.208  0.2803 -0.0352 -0.8869
 7247SOL    HW133377   1.139   2.394   4.266  1.9138  2.0675  2.5093
 7247SOL    HW233378   1.238   2.488   4.282  0.1776  1.3801 -1.7050
 7248SOL     OW33379   2.469   2.720   2.159  0.6227  0.1150 -0.3480
 7248SOL    HW133380   2.397   2.714   2.223 -0.0108  0.2386 -1.0500
 7248SOL    HW233381   2.433   2.789   2.103 -1.6186 -0.3264  0.5421
 7249SOL     OW33382   0.137   0.506   7.503 -0.2141 -0.6926  0.3024
 7249SOL    HW133383   0.050   0.468   7.486 -0.0062 -0.2889 -1.6664
 7249SOL    HW233384   0.184   0.453   7.439  0.5247  0.1212  0.1728
 7250SOL     OW33385   1.169   3.924   7.288 -0.4001 -0.6517  0.0815
 7250SOL    HW133386   1.084   3.882   7.298  0.8699 -3.5256 -1.2451
 7250SOL    HW233387   1.190   3.939   7.380 -1.9019  1.5223  0.0745
 7251SOL     OW33388   1.751   1.614   8.330  0.2997 -0.5155 -0.3496
 7251SOL    HW133389   1.755   1.708   8.313  2.2410 -0.4227  0.5354
 7251SOL    HW233390   1.808   1.610   8.408  1.5504 -0.1551 -1.2431
 7252SOL     OW33391   1.497   1.306   7.610 -0.1891  0.0365 -0.8849
 7252SOL    HW133392   1.422   1.364   7.601  0.2341  0.6768 -0.2648
 7252SOL    HW233393   1.538   1.305   7.523  0.6851  3.1732 -0.4801
 7253SOL     OW33394   1.890   1.383   7.309 -0.5027 -0.2034  0.1624
 7253SOL    HW133395   1.897   1.436   7.230  0.0170  2.6568  2.1076
 7253SOL    HW233396   1.805   1.426   7.326  0.4633  1.7952 -0.0204
 7254SOL     OW33397   4.728   0.026   8.594  0.1667 -0.4242 -0.1212
 7254SOL    HW133398   4.663   0.049   8.661 -0.5585 -1.3308 -0.5201
 7254SOL    HW233399   4.734   0.112   8.552  2.5263  0.1123  1.2845
 7255SOL     OW33400   1.815   3.959   8.833 -0.2722  0.2943  0.1470
 7255SOL    HW133401   1.899   3.913   8.838  0.0506  0.8867  0.2111
 7255SOL    HW233402   1.782   3.946   8.922  3.2600  0.2829  1.4462
 7256SOL     OW33403   2.451   2.029   7.061 -0.9218  0.4895  0.0579
 7256SOL    HW133404   2.509   1.994   7.128 -1.6934 -0.9385 -0.0166
 7256SOL    HW233405   2.371   2.017   7.113 -2.5049  1.6452 -2.1207
 7257SOL     OW33406   3.533   4.275   4.334 -0.1577 -0.7598 -0.7099
 7257SOL    HW133407   3.601   4.258   4.400 -0.8778 -2.5334 -0.4167
 7257SOL    HW233408   3.517   4.368   4.350  0.5611 -0.4086 -2.0408
 7258SOL     OW33409   2.617   4.156   2.591  0.1492  0.0138 -0.1350
 7258SOL    HW133410   2.603   4.248   2.569  0.4261  0.4189  1.3927
 7258SOL    HW233411   2.580   4.117   2.512 -0.5932  0.5118 -0.0384
 7259SOL     OW33412   0.976   2.488   6.129 -0.2896  0.7196  0.1792
 7259SOL    HW133413   0.897   2.528   6.092 -0.2960  0.6729  0.1427
 7259SOL    HW233414   0.939   2.402   6.146  0.3878  0.6920  1.5096
 7260SOL     OW33415   3.603   3.191   5.366  0.6941  0.2243  0.2425
 7260SOL    HW133416   3.694   3.170   5.389 -0.2177 -2.5262  1.3934
 7260SOL    HW233417   3.597   3.285   5.382 -2.4525  0.0348  0.2128
 7261SOL     OW33418   2.426   0.385   2.852 -0.3931 -1.3720  0.4263
 7261SOL    HW133419   2.370   0.316   2.817 -1.1873 -1.0814  1.1478
 7261SOL    HW233420   2.498   0.326   2.874 -0.3600 -1.6679 -0.4796
 7262SOL     OW33421   4.051   0.713   3.665  0.3654 -0.2693 -0.0807
 7262SOL    HW133422   4.061   0.662   3.584 -0.2455 -0.6064  0.0547
 7262SOL    HW233423   4.063   0.646   3.732  0.1350 -0.1790  0.0509
 7263SOL     OW33424   3.486   2.596   4.419  0.1072  0.4512  0.3804
 7263SOL    HW133425   3.459   2.589   4.328 -2.1022  1.0314  1.0051
 7263SOL    HW233426   3.411   2.557   4.463  0.7377  2.9160  3.6230
 7264SOL     OW33427   2.433   0.533   1.753 -1.0001  0.1103 -0.4652
 7264SOL    HW133428   2.487   0.457   1.774 -0.9106  0.3836  0.2811
 7264SOL    HW233429   2.507   0.584   1.720  0.7683 -0.7948  2.2109
 7265SOL     OW33430   2.636   1.150   1.590 -0.2963  0.3890  0.3160
 7265SOL    HW133431   2.632   1.081   1.524  2.7443  0.0392  0.5171
 7265SOL    HW233432   2.612   1.104   1.670 -2.1628 -2.0447 -1.6321
 7266SOL     OW33433   0.131   1.087   9.096  0.1008  0.1983 -0.2790
 7266SOL    HW133434   0.176   1.071   9.179  1.3532  0.8696 -0.8252
 7266SOL    HW233435   0.134   1.182   9.109  2.7263 -0.4078  3.4967
 7267SOL     OW33436   3.453   0.898  16.419  0.1126 -0.1711 -0.4145
 7267SOL    HW133437   3.417   0.987  16.420  2.9628  0.9768 -0.7963
 7267SOL    HW233438   3.379   0.838  16.407 -1.0138  1.3332 -0.9709
 7268SOL     OW33439   1.528   4.636  12.273 -0.0001  0.5452 -0.2989
 7268SOL    HW133440   1.524   4.724  12.310 -0.0880 -0.2316  1.5279
 7268SOL    HW233441   1.439   4.606  12.255  0.0611 -0.7272  1.5437
 7269SOL     OW33442   4.580   3.168   2.926  0.3421 -0.2892  0.2064
 7269SOL    HW133443   4.612   3.146   3.013  0.2822 -1.0683  0.0248
 7269SOL    HW233444   4.660   3.186   2.877  0.1582  1.5095  0.5624
 7270SOL     OW33445   3.337   3.371   1.695 -0.1500 -0.3481 -0.1102
 7270SOL    HW133446   3.365   3.463   1.689 -1.6016  0.2233  1.6651
 7270SOL    HW233447   3.296   3.346   1.613  1.0205 -0.8125 -0.5532
 7271SOL     OW33448   4.149   1.991   7.321  0.0249 -0.1598 -0.6386
 7271SOL    HW133449   4.234   2.030   7.343 -0.4129 -1.3509  3.0580
 7271SOL    HW233450   4.126   1.941   7.400  1.0999  1.3142  0.5970
 7272SOL     OW33451   3.165   4.414   2.147 -0.3784 -0.7249 -0.5433
 7272SOL    HW133452   3.094   4.378   2.095 -0.8814 -0.2333 -0.1901
 7272SOL    HW233453   3.223   4.339   2.136  0.7020 -0.1173  1.0233
 7273SOL     OW33454   1.823   0.774   3.048  0.1833 -0.1150 -0.0300
 7273SOL    HW133455   1.770   0.777   2.968 -2.0417 -0.6456  1.4214
 7273SOL    HW233456   1.774   0.827   3.111 -2.2821  0.3617 -2.3880
 7274SOL     OW33457   1.035   4.099   2.417  0.7616 -0.2771 -0.0074
 7274SOL    HW133458   1.095   4.136   2.482  1.5077 -1.4052 -0.0401
 7274SOL    HW233459   0.991   4.179   2.391  0.5962 -0.1834  0.5599
 7275SOL     OW33460   1.972   0.643  12.934  0.4191  0.3350  0.3857
 7275SOL    HW133461   2.038   0.713  12.931  0.2466  0.4080 -1.4036
 7275SOL    HW233462   1.979   0.612  13.025 -1.2943  2.3240  1.2004
 7276SOL     OW33463   3.220   4.022   5.424 -0.3349  0.3275  0.1342
 7276SOL    HW133464   3.253   4.055   5.340 -3.7989  0.9098 -0.9935
 7276SOL    HW233465   3.298   3.977   5.457  0.5221  0.3316 -1.8623
 7277SOL     OW33466   3.376   4.617   8.846  0.4783  0.3475  0.0846
 7277SOL    HW133467   3.467   4.623   8.876  0.6252 -0.6585 -0.1362
 7277SOL    HW233468   3.361   4.703   8.808  3.6954  1.1635  0.6697
 7278SOL     OW33469   0.859   1.844   5.051 -0.5499 -0.7787  0.4507
 7278SOL    HW133470   0.949   1.816   5.067  0.4803  0.5666 -2.9911
 7278SOL    HW233471   0.846   1.906   5.123  1.8877  1.7016 -1.2568
 7279SOL     OW33472   3.005   2.443  13.714 -0.4465 -0.1478  0.3488
 7279SOL    HW133473   2.918   2.407  13.696 -0.1037 -1.7625  1.9482
 7279SOL    HW233474   3.049   2.358  13.720  1.5740  0.7434 -1.8529
 7280SOL     OW33475   1.645   3.466   6.703 -0.4758 -0.0777  0.2264
 7280SOL    HW133476   1.619   3.508   6.621  0.4543 -1.3067 -0.6908
 7280SOL    HW233477   1.733   3.503   6.706 -0.7735  0.5481  1.4022
 7281SOL     OW33478   0.561   2.178   7.407  0.1499  0.2057  0.0111
 7281SOL    HW133479   0.563   2.273   7.399 -0.3951 -0.0182 -2.6277
 7281SOL    HW233480   0.635   2.159   7.350  0.1328  0.4800 -0.1015
 7282SOL     OW33481   1.710   3.558   1.849  0.1651 -0.0959  0.4319
 7282SOL    HW133482   1.758   3.641   1.850  0.3602 -0.1666 -2.5151
 7282SOL    HW233483   1.772   3.503   1.800  0.3544  1.5987 -1.2501
 7283SOL     OW33484   1.108   1.127  16.865  0.4057  0.2649  0.2884
 7283SOL    HW133485   1.119   1.056  16.929 -1.3343  2.0411  2.5848
 7283SOL    HW233486   1.035   1.096  16.812  1.1181 -0.6372 -0.1616
 7284SOL     OW33487   1.203   3.289   9.489 -0.2958 -0.2606  0.3679
 7284SOL    HW133488   1.187   3.364   9.431  0.6519 -3.1876 -3.6509
 7284SOL    HW233489   1.298   3.298   9.496 -0.3976  0.6476  0.5922
 7285SOL     OW33490   3.196   0.655  12.086 -0.2561  0.4137 -0.1982
 7285SOL    HW133491   3.229   0.603  12.012  0.5102  0.1776  0.3105
 7285SOL    HW233492   3.276   0.702  12.111  0.5677 -1.7917  1.3770
 7286SOL     OW33493   3.412   2.694   3.321  0.0801 -0.5381 -0.2448
 7286SOL    HW133494   3.328   2.731   3.294 -0.7419 -1.2148  1.3718
 7286SOL    HW233495   3.414   2.721   3.413  0.7930 -0.7124 -0.2110
 7287SOL     OW33496   3.608   0.278   0.589  0.5593 -0.5711 -0.3041
 7287SOL    HW133497   3.635   0.310   0.675  1.1791 -0.2845 -0.6027
 7287SOL    HW233498   3.641   0.351   0.536  0.1457  0.4084  0.8080
 7288SOL     OW33499   0.173   1.476  11.146 -0.0460 -0.2239  0.2050
 7288SOL    HW133500   0.235   1.421  11.193  0.0020 -0.3592 -0.0171
 7288SOL    HW233501   0.114   1.489  11.221 -0.5013  0.3902 -0.2583
 7289SOL     OW33502   2.417   0.452   6.729 -0.3219 -0.4228  0.2613
 7289SOL    HW133503   2.362   0.443   6.807 -1.9629 -0.7457 -0.9380
 7289SOL    HW233504   2.483   0.513   6.763 -0.7768  0.7615 -1.0119
 7290SOL     OW33505   0.003   1.689   3.217 -0.0025 -0.7041 -0.5812
 7290SOL    HW133506   4.714   1.650   3.134 -0.4306 -0.0426 -0.7532
 7290SOL    HW233507   0.008   1.784   3.206 -1.3182 -0.4646  0.9070
 7291SOL     OW33508   3.055   0.393  11.629 -0.1106  0.1001 -0.0860
 7291SOL    HW133509   3.033   0.403  11.722 -1.6262  2.5209 -0.6899
 7291SOL    HW233510   3.148   0.373  11.635 -0.6189 -1.5288  2.5248
 7292SOL     OW33511   1.158   2.421   0.625 -0.1284  0.1549  0.0908
 7292SOL    HW133512   1.142   2.455   0.537 -0.3471  2.1452  0.9137
 7292SOL    HW233513   1.150   2.497   0.682 -2.5620 -0.7159  0.9564
 7293SOL     OW33514   4.685   2.035   8.889 -0.7377 -0.5031 -0.0055
 7293SOL    HW133515   4.651   1.946   8.894  2.1760 -1.5351  1.5845
 7293SOL    HW233516   4.697   2.048   8.795 -2.2991  1.1310  0.0018
 7294SOL     OW33517   0.475   2.503  14.282 -0.1639 -0.4110  0.1189
 7294SOL    HW133518   0.427   2.486  14.201 -1.1687  0.8437  0.4377
 7294SOL    HW233519   0.412   2.550  14.337 -0.1156 -2.0493  1.5648
 7295SOL     OW33520   4.347   1.419   3.865  0.1728  0.4935  0.1050
 7295SOL    HW133521   4.276   1.356   3.877 -0.1497  0.7455 -0.4625
 7295SOL    HW233522   4.373   1.377   3.783  2.9270  2.7268 -0.1644
 7296SOL     OW33523   4.058   0.909   9.434 -0.3721 -0.8498 -0.3887
 7296SOL    HW133524   4.034   0.932   9.344  1.9782 -1.4614 -1.1759
 7296SOL    HW233525   3.975   0.886   9.476  1.0004 -0.9892  2.2495
 7297SOL     OW33526   2.730   3.094   2.226  0.3548  0.5339 -0.5998
 7297SOL    HW133527   2.786   3.085   2.304  1.6046  0.8617 -1.4635
 7297SOL    HW233528   2.775   3.035   2.166  0.0194 -1.2586  0.8898
 7298SOL     OW33529   2.860   4.644   5.995  0.7675  0.0431 -0.0548
 7298SOL    HW133530   2.900   4.726   5.966 -1.1446  0.5775 -1.1898
 7298SOL    HW233531   2.769   4.671   5.994  0.8911  0.4792  0.7684
 7299SOL     OW33532   2.999   4.071   0.193  0.3456 -0.4191  0.5555
 7299SOL    HW133533   3.079   4.028   0.223  1.2120 -0.8168 -2.3333
 7299SOL    HW233534   2.941   3.997   0.176  0.7334 -1.5569  4.0614
 7300SOL     OW33535   4.000   0.178   6.368  0.4157 -0.1139 -0.5021
 7300SOL    HW133536   4.069   0.186   6.302  1.9727  1.9307  1.3234
 7300SOL    HW233537   3.932   0.199   6.305  1.9466  2.4326 -1.3244
 7301SOL     OW33538   4.586   4.033   6.982  0.1732  0.5604  0.2433
 7301SOL    HW133539   4.519   3.967   7.002  1.8680 -0.8752  1.2358
 7301SOL    HW233540   4.662   3.985   6.949 -1.2646  0.1008 -2.4638
 7302SOL     OW33541   1.513   1.332   5.786 -0.0354 -0.3688  0.0383
 7302SOL    HW133542   1.577   1.370   5.847 -0.0625  1.3813 -1.0330
 7302SOL    HW233543   1.504   1.241   5.815  1.2847 -0.5337 -0.0948
 7303SOL     OW33544   1.610   4.048   3.621 -0.1685 -0.1948  0.3236
 7303SOL    HW133545   1.596   3.970   3.674 -1.7152  0.9768  1.6152
 7303SOL    HW233546   1.668   4.025   3.548 -2.1047 -0.0125 -1.2583
 7304SOL     OW33547   1.543   2.801   6.724 -0.4236  0.6060 -0.4053
 7304SOL    HW133548   1.505   2.873   6.674 -0.9726 -1.0609 -2.4271
 7304SOL    HW233549   1.475   2.734   6.721 -0.9353  1.0733  1.3635
 7305SOL     OW33550   3.440   4.350   9.577  0.2546 -0.0563  0.3444
 7305SOL    HW133551   3.529   4.315   9.578  0.3450  0.1802  0.4848
 7305SOL    HW233552   3.455   4.439   9.544  1.1376  0.3360  1.8217
 7306SOL     OW33553   1.845   0.617  11.861 -0.2660  0.0606  0.8121
 7306SOL    HW133554   1.763   0.615  11.912 -0.7482  2.5404  0.1639
 7306SOL    HW233555   1.812   0.615  11.772  0.0160  0.4007  0.7021
 7307SOL     OW33556   3.708   3.604   6.988 -0.5034 -0.4200  0.0060
 7307SOL    HW133557   3.751   3.668   7.045 -1.2285 -0.5875  0.7339
 7307SOL    HW233558   3.638   3.659   6.952 -0.5667 -0.9947 -0.7542
 7308SOL     OW33559   0.541   2.710   9.699  0.1387 -0.1087 -0.2100
 7308SOL    HW133560   0.489   2.672   9.770  1.2142 -2.7204 -0.8009
 7308SOL    HW233561   0.575   2.792   9.734  0.3391 -0.1133 -0.3934
 7309SOL     OW33562   0.881   3.692   6.731  0.2731  0.5582  0.1973
 7309SOL    HW133563   0.860   3.726   6.818  1.9260 -0.5957  1.0661
 7309SOL    HW233564   0.945   3.621   6.739  0.1655  0.3099 -1.0771
 7310SOL     OW33565   3.724   4.221   4.106  0.7304 -0.3117 -0.3134
 7310SOL    HW133566   3.663   4.212   4.179  2.0558  0.3178  0.8523
 7310SOL    HW233567   3.671   4.206   4.028  2.0090 -1.5421 -0.9399
 7311SOL     OW33568   4.183   1.366   8.317 -0.4267  0.1001 -0.1119
 7311SOL    HW133569   4.254   1.365   8.253  0.1176 -0.6827  0.4971
 7311SOL    HW233570   4.225   1.307   8.380 -0.3585 -0.3235 -0.5518
 7312SOL     OW33571   4.410   4.526   1.694  0.6373 -0.5979  0.4292
 7312SOL    HW133572   4.472   4.493   1.759  1.6138  1.4966  0.5414
 7312SOL    HW233573   4.433   4.458   1.631  0.3015 -2.6427  2.4934
 7313SOL     OW33574   0.462   0.236   6.992  0.4285  0.1356 -0.3073
 7313SOL    HW133575   0.421   0.153   6.965  2.8097 -1.5443  1.1816
 7313SOL    HW233576   0.440   0.294   6.919 -1.4686  0.7148  0.7184
 7314SOL     OW33577   3.099   1.264   6.610 -0.0785 -0.0066 -0.1416
 7314SOL    HW133578   3.011   1.230   6.623 -0.0435  0.4124  1.1207
 7314SOL    HW233579   3.072   1.352   6.585  1.4139  0.0440 -1.5607
 7315SOL     OW33580   1.930   1.980   1.513 -0.2216 -0.2227 -0.1427
 7315SOL    HW133581   1.837   1.968   1.492 -0.2690 -1.9605  1.0642
 7315SOL    HW233582   1.946   2.064   1.470  1.6833 -1.4926 -1.8888
 7316SOL     OW33583   1.477   1.386   1.384 -0.0696  0.0055  0.3156
 7316SOL    HW133584   1.415   1.315   1.370  1.0069 -1.1893  1.6317
 7316SOL    HW233585   1.412   1.446   1.420  1.7472  1.2121  1.5672
 7317SOL     OW33586   0.788   3.019  12.651  0.4376 -0.4018  0.1539
 7317SOL    HW133587   0.822   3.063  12.574 -0.5194 -1.2426 -0.7462
 7317SOL    HW233588   0.796   2.927  12.626  0.5778  0.1452 -1.8272
 7318SOL     OW33589   0.813   2.269   5.104  0.3194  0.5716  0.0702
 7318SOL    HW133590   0.782   2.302   5.020  0.6637 -0.8614 -0.6191
 7318SOL    HW233591   0.793   2.333   5.172 -0.4690  0.1547  0.2280
 7319SOL     OW33592   1.567   3.922   8.747 -0.1773  0.1317 -0.2800
 7319SOL    HW133593   1.651   3.966   8.761 -0.1434 -0.2664  0.8422
 7319SOL    HW233594   1.580   3.838   8.792 -1.5154  1.0802  1.9149
 7320SOL     OW33595   2.122   3.311  10.304  0.1036  0.3976 -0.2005
 7320SOL    HW133596   2.152   3.273  10.387 -0.7676 -0.3188 -0.2177
 7320SOL    HW233597   2.081   3.393  10.330  0.8221  0.9424 -0.7619
 7321SOL     OW33598   1.697   2.662   9.459  0.6998  0.4823  0.1096
 7321SOL    HW133599   1.646   2.662   9.540 -1.2603  0.1248 -1.1476
 7321SOL    HW233600   1.755   2.738   9.471 -0.6624  1.7038 -1.0649
 7322SOL     OW33601   2.534   3.673  15.258 -0.0689  0.2083 -0.4215
 7322SOL    HW133602   2.551   3.751  15.206 -1.7046 -0.0828 -1.3841
 7322SOL    HW233603   2.619   3.630  15.267 -0.6065 -0.9361 -0.8747
 7323SOL     OW33604   3.847   4.465   4.666 -0.1463  0.0029  0.2412
 7323SOL    HW133605   3.819   4.381   4.629 -0.1478 -0.0472  0.3555
 7323SOL    HW233606   3.906   4.498   4.599  1.7181 -1.7579  1.0093
 7324SOL     OW33607   0.431   0.790  10.906 -0.0031 -0.1762 -0.0055
 7324SOL    HW133608   0.441   0.875  10.864  0.1994  0.6157  1.6292
 7324SOL    HW233609   0.435   0.822  10.996 -0.8142 -2.5959  0.8885
 7325SOL     OW33610   2.042   0.489  15.825  0.6764  0.0209 -1.1564
 7325SOL    HW133611   2.040   0.549  15.899 -0.0187  1.8486 -2.6524
 7325SOL    HW233612   2.076   0.408  15.862  0.0309  0.7654  1.0452
 7326SOL     OW33613   2.383   3.334   4.633  0.4025 -0.4413  0.2769
 7326SOL    HW133614   2.406   3.415   4.587  1.8434 -0.5516  0.8241
 7326SOL    HW233615   2.471   3.309   4.659  0.7866  1.5806  0.8711
 7327SOL     OW33616   2.005   1.345   3.002  0.5560 -0.4823  0.7077
 7327SOL    HW133617   1.976   1.297   2.925 -2.1203  1.9997  0.1703
 7327SOL    HW233618   1.937   1.314   3.062  1.3784 -0.5104  1.6396
 7328SOL     OW33619   1.065   0.074   1.969 -0.2175  0.1521 -0.2844
 7328SOL    HW133620   1.148   0.027   1.962 -0.9794 -1.6485  2.5385
 7328SOL    HW233621   1.009   0.000   1.992  0.6181  0.1892  1.9395
 7329SOL     OW33622   0.501   4.225  12.919  0.1668  0.9870  0.0867
 7329SOL    HW133623   0.415   4.241  12.880 -0.1367 -0.4641  0.1613
 7329SOL    HW233624   0.559   4.275  12.860  1.4000 -2.7966 -1.8739
 7330SOL     OW33625   0.359   0.995   7.369  0.3454  0.4611 -0.2856
 7330SOL    HW133626   0.333   0.936   7.299 -0.5043  0.1390  0.2941
 7330SOL    HW233627   0.285   1.055   7.377  0.3350  0.1947  1.6630
 7331SOL     OW33628   4.030   0.864   3.311  0.3736  0.5174 -0.2243
 7331SOL    HW133629   4.010   0.901   3.225  0.2539  0.0941 -0.3749
 7331SOL    HW233630   3.978   0.784   3.315  1.6471 -0.3256 -0.2496
 7332SOL     OW33631   3.410   2.277  13.605  0.4427 -0.0414  0.6538
 7332SOL    HW133632   3.343   2.255  13.541 -0.8974  1.3816  1.5946
 7332SOL    HW233633   3.465   2.339  13.557 -2.1780  1.0633 -0.8988
 7333SOL     OW33634   3.158   1.790   0.567 -0.3997 -0.1821  0.5308
 7333SOL    HW133635   3.183   1.807   0.475 -0.5166  0.3549  0.5971
 7333SOL    HW233636   3.205   1.708   0.580 -2.5047 -1.3727  0.4686
 7334SOL     OW33637   2.614   1.676  13.125  0.4361 -0.1750  0.6655
 7334SOL    HW133638   2.651   1.653  13.040 -0.3613 -0.7060  0.4621
 7334SOL    HW233639   2.523   1.647  13.124 -0.1246  1.5217  1.1947
 7335SOL     OW33640   2.256   3.619   8.924 -0.9607 -0.2837  0.4368
 7335SOL    HW133641   2.238   3.559   8.997  1.9445  2.6617  3.6165
 7335SOL    HW233642   2.251   3.553   8.855 -1.2519 -0.0081  0.1981
 7336SOL     OW33643   2.094   2.861   4.298 -0.6166 -0.2347 -0.0112
 7336SOL    HW133644   2.022   2.855   4.360 -2.8440 -0.9722 -2.6993
 7336SOL    HW233645   2.127   2.949   4.316  0.9380 -1.6952  4.1481
 7337SOL     OW33646   1.797   4.262   5.675  0.3325  0.4450  0.2424
 7337SOL    HW133647   1.733   4.310   5.728  1.0999  1.1066  0.5661
 7337SOL    HW233648   1.760   4.253   5.587  3.6005  1.0072 -1.2070
 7338SOL     OW33649   2.417   3.333  13.781 -0.4381 -0.9139  0.2716
 7338SOL    HW133650   2.343   3.325  13.840  1.1103 -0.0936  2.3356
 7338SOL    HW233651   2.372   3.392  13.720 -0.2629 -0.6530  0.3921
 7339SOL     OW33652   1.210   0.267   8.460  0.2142  0.2179 -0.1313
 7339SOL    HW133653   1.198   0.255   8.554  1.8024  0.3041  0.0668
 7339SOL    HW233654   1.264   0.190   8.442 -1.6606 -1.6278  2.0972
 7340SOL     OW33655   4.630   2.179   5.490 -0.6959 -0.3147  0.5723
 7340SOL    HW133656   4.721   2.197   5.467 -0.9491  0.1791 -0.0445
 7340SOL    HW233657   4.622   2.090   5.454  0.7908 -0.7930  1.4486
 7341SOL     OW33658   0.300   3.238   7.774 -0.1161  0.4234  0.1128
 7341SOL    HW133659   0.288   3.220   7.867  2.3011  0.3795  0.4157
 7341SOL    HW233660   0.357   3.164   7.755 -0.6384  0.5568 -2.0670
 7342SOL     OW33661   3.116   4.586   3.025 -0.6802 -0.0070  0.3260
 7342SOL    HW133662   3.134   4.541   2.942  0.9456  0.1246  0.6167
 7342SOL    HW233663   3.076   4.517   3.079 -0.0674 -0.0991  0.6631
 7343SOL     OW33664   2.905   3.457   5.348  0.0275  0.2986 -0.4082
 7343SOL    HW133665   2.820   3.420   5.375  0.5088 -0.6268 -0.1690
 7343SOL    HW233666   2.956   3.456   5.429 -0.4569  1.9269 -0.0785
 7344SOL     OW33667   4.274   1.482   9.910 -0.2100 -0.4482 -0.2728
 7344SOL    HW133668   4.349   1.428   9.887  0.5662  0.3104  0.4788
 7344SOL    HW233669   4.255   1.447   9.997  2.5620 -2.2995 -0.4270
 7345SOL     OW33670   2.646   2.130  11.239  0.3186 -0.1655  0.2783
 7345SOL    HW133671   2.683   2.191  11.176 -2.9102  1.0227 -0.4739
 7345SOL    HW233672   2.704   2.128  11.315  0.1671  0.0631  0.3973
 7346SOL     OW33673   2.898   4.312   2.632  0.3402 -0.2481 -0.7196
 7346SOL    HW133674   2.874   4.385   2.575 -2.5171 -0.6711 -0.0832
 7346SOL    HW233675   2.934   4.251   2.567  1.5963 -0.2631  0.0011
 7347SOL     OW33676   4.512   2.107   3.011 -0.0632 -0.2793  0.2885
 7347SOL    HW133677   4.463   2.088   2.931 -1.4059  3.5209  0.1941
 7347SOL    HW233678   4.599   2.083   2.979 -0.0463 -0.4284  0.4437
 7348SOL     OW33679   4.690   3.935   5.352 -0.4886  0.2156 -0.6894
 7348SOL    HW133680   4.665   3.987   5.428  1.8380  0.1221  0.1386
 7348SOL    HW233681   4.612   3.964   5.304 -0.7255 -2.6066 -1.9816
 7349SOL     OW33682   4.106   3.753   6.229  0.3693 -1.0106  0.0686
 7349SOL    HW133683   4.173   3.771   6.295 -0.1023 -1.4037  0.6633
 7349SOL    HW233684   4.138   3.666   6.204 -0.5823 -1.3664  0.0617
 7350SOL     OW33685   3.976   0.161  15.180 -0.1653  0.6451  0.4285
 7350SOL    HW133686   4.036   0.090  15.201  1.4870  2.1175  0.7251
 7350SOL    HW233687   3.955   0.199  15.266  1.5267  2.0188  0.2409
 7351SOL     OW33688   4.735   3.677   2.097  0.4185 -0.0465 -0.6260
 7351SOL    HW133689   4.713   3.601   2.151  0.9238 -0.0315 -0.4024
 7351SOL    HW233690   0.007   3.634   2.012  1.0900 -1.8364  0.3698
 7352SOL     OW33691   1.322   4.722   1.971 -0.0230 -0.0458 -0.0742
 7352SOL    HW133692   1.360   0.048   1.912  1.2556  0.5062  1.3798
 7352SOL    HW233693   1.396   4.673   2.006 -1.2614 -1.8548  0.0354
 7353SOL     OW33694   0.169   1.223  11.500 -0.2352 -0.9971 -0.6842
 7353SOL    HW133695   0.241   1.166  11.472  1.1538  1.7868 -2.7921
 7353SOL    HW233696   0.190   1.303  11.451  0.5146 -0.0896  1.1227
 7354SOL     OW33697   3.936   2.440   2.614  0.3450  0.4197  0.4316
 7354SOL    HW133698   3.974   2.498   2.680 -0.0432  0.1497  0.8917
 7354SOL    HW233699   3.935   2.500   2.539 -0.6494  0.0786  0.1732
 7355SOL     OW33700   1.917   2.753   4.915  0.1393  0.2404 -0.1173
 7355SOL    HW133701   1.984   2.818   4.937 -1.9893  2.0973  0.8141
 7355SOL    HW233702   1.836   2.797   4.939  0.2240 -0.0796  0.7669
 7356SOL     OW33703   2.172   0.223   8.233  0.2336 -0.5235 -0.6024
 7356SOL    HW133704   2.190   0.313   8.207 -2.0977  0.7645  2.2907
 7356SOL    HW233705   2.253   0.174   8.217  0.1315 -1.1798  0.9386
 7357SOL     OW33706   1.692   0.083   7.146 -0.0987 -0.2694  0.0782
 7357SOL    HW133707   1.704   4.730   7.129 -2.4441 -0.2752 -1.5446
 7357SOL    HW233708   1.756   0.108   7.213  0.5948  0.4389 -0.8623
 7358SOL     OW33709   2.343   0.545   6.461  0.2714  0.0768  0.2849
 7358SOL    HW133710   2.361   0.506   6.547 -0.9449  3.3392  2.0224
 7358SOL    HW233711   2.434   0.541   6.432 -0.2705  1.8767 -1.6906
 7359SOL     OW33712   4.198   3.715   5.935  0.0801  0.1248 -0.1238
 7359SOL    HW133713   4.219   3.669   6.017  0.2569  0.5064  0.0423
 7359SOL    HW233714   4.278   3.720   5.882  0.4859 -0.3230  0.4361
 7360SOL     OW33715   1.914   0.268   2.258 -0.3054 -0.0842 -0.0729
 7360SOL    HW133716   1.944   0.186   2.297  0.4302  0.7158  1.0570
 7360SOL    HW233717   2.002   0.305   2.248  0.8097 -1.3326  4.8844
 7361SOL     OW33718   2.550   0.560  12.559 -0.8241  0.3303 -0.2765
 7361SOL    HW133719   2.626   0.609  12.529  0.0214 -0.1883  1.0247
 7361SOL    HW233720   2.526   0.624  12.627 -0.6932  0.0012  0.0799
 7362SOL     OW33721   1.371   1.732  10.581 -0.1210 -0.6820  0.0238
 7362SOL    HW133722   1.349   1.786  10.505 -1.5040 -2.0469 -0.5451
 7362SOL    HW233723   1.456   1.692  10.560 -0.0430 -0.5490  0.0825
 7363SOL     OW33724   1.407   2.619   8.272 -0.2941  0.0252  0.0445
 7363SOL    HW133725   1.401   2.639   8.366 -0.8860  0.4418 -0.0798
 7363SOL    HW233726   1.451   2.535   8.277  0.5802  0.4472 -0.5124
 7364SOL     OW33727   1.625   4.272  15.653  0.3618 -0.3565  0.5048
 7364SOL    HW133728   1.699   4.333  15.648  0.5012 -0.6214 -0.5904
 7364SOL    HW233729   1.551   4.325  15.625  0.2069 -0.2144  1.1848
 7365SOL     OW33730   3.652   1.399   5.850 -0.2543 -0.1507  0.2577
 7365SOL    HW133731   3.576   1.370   5.899 -0.1648  0.5487  0.8065
 7365SOL    HW233732   3.638   1.493   5.858  1.3345  0.2526 -1.4932
 7366SOL     OW33733   0.170   0.110  12.437  0.0890 -0.2869  0.0202
 7366SOL    HW133734   0.190   0.105  12.531  1.0741 -1.6388 -0.2607
 7366SOL    HW233735   0.249   0.144  12.394  0.7393  1.0564  2.2702
 7367SOL     OW33736   4.620   3.108   2.587 -0.3524  0.1692  0.4680
 7367SOL    HW133737   4.599   3.119   2.495 -2.1396  1.3361  1.0107
 7367SOL    HW233738   4.690   3.171   2.603 -1.2797  0.9022  1.6968
 7368SOL     OW33739   3.708   3.754   9.656  0.1099 -0.7789  0.0525
 7368SOL    HW133740   3.674   3.843   9.665  1.4202 -0.2780 -0.0377
 7368SOL    HW233741   3.792   3.766   9.700 -0.2093  0.1155  0.4286
 7369SOL     OW33742   1.928   2.563  16.268 -0.3009 -0.5594 -0.0141
 7369SOL    HW133743   1.887   2.635  16.219  1.4897  0.0484 -0.6311
 7369SOL    HW233744   2.006   2.609  16.298 -0.6235 -0.2028  0.2701
 7370SOL     OW33745   4.027   1.729  12.060  0.1051 -0.3390 -0.3857
 7370SOL    HW133746   3.986   1.783  11.992  1.8047  0.3539 -0.8637
 7370SOL    HW233747   4.115   1.766  12.056  0.6442 -1.7105 -0.8545
 7371SOL     OW33748   2.024   1.327   4.150 -0.3822  0.1702  0.4068
 7371SOL    HW133749   2.038   1.339   4.056 -1.6992 -0.2528  0.1566
 7371SOL    HW233750   2.023   1.419   4.175  0.1617  0.6072 -1.1641
 7372SOL     OW33751   2.388   1.713  12.666 -0.5126  0.6725 -0.4118
 7372SOL    HW133752   2.349   1.679  12.747  2.8606  0.5064  1.1640
 7372SOL    HW233753   2.317   1.753  12.617 -1.2848 -0.7172 -0.4295
 7373SOL     OW33754   0.446   1.416   8.694  0.3172  0.3789  0.4471
 7373SOL    HW133755   0.355   1.428   8.668 -0.0023 -0.9408  0.9736
 7373SOL    HW233756   0.496   1.498   8.695  1.4785 -0.2955 -1.8328
 7374SOL     OW33757   0.119   0.723   9.502  0.2084  0.4451 -0.3220
 7374SOL    HW133758   0.158   0.730   9.415  2.8064 -1.1864  0.7275
 7374SOL    HW233759   0.078   0.810   9.510 -1.8654 -0.3870 -2.0746
 7375SOL     OW33760   2.280   4.346  10.856 -0.3030 -1.1991  0.0581
 7375SOL    HW133761   2.243   4.434  10.847  1.1931 -0.6967 -1.4064
 7375SOL    HW233762   2.195   4.303  10.857 -1.5621  1.1462 -2.6575
 7376SOL     OW33763   0.424   1.695   9.863  0.3744 -0.3372 -0.4849
 7376SOL    HW133764   0.395   1.777   9.824  2.3545  1.0575  0.9448
 7376SOL    HW233765   0.386   1.711   9.949  0.4047 -1.2032 -0.3045
 7377SOL     OW33766   2.434   1.564   5.535 -0.4200 -0.0593  0.1068
 7377SOL    HW133767   2.419   1.471   5.516 -2.6951  0.5071 -0.9572
 7377SOL    HW233768   2.501   1.581   5.469 -0.5592  0.7524  0.1830
 7378SOL     OW33769   2.481   2.162   1.968  0.4745 -0.6280 -0.4390
 7378SOL    HW133770   2.445   2.243   1.932  3.0835 -0.1171 -1.9288
 7378SOL    HW233771   2.462   2.107   1.891 -0.2789 -0.2549 -0.5144
 7379SOL     OW33772   0.382   2.595  13.082  0.4524  0.7974 -0.2432
 7379SOL    HW133773   0.412   2.543  13.156  1.1464 -0.4392 -1.3983
 7379SOL    HW233774   0.412   2.683  13.105  1.7000  0.5896 -1.0823
 7380SOL     OW33775   2.542   4.693   7.206 -0.1242 -0.0297 -0.6477
 7380SOL    HW133776   2.614   0.011   7.183 -0.1020  0.5804  0.9670
 7380SOL    HW233777   2.577   4.616   7.163  0.9759  0.3072 -0.3501
 7381SOL     OW33778   4.714   0.009   4.055  1.0163  0.6376  0.3351
 7381SOL    HW133779   4.689   4.661   4.084 -0.2393  0.7198 -0.5199
 7381SOL    HW233780   0.006   0.041   4.139  0.8514  2.3077 -0.2428
 7382SOL     OW33781   0.470   2.228   2.469  0.3593  0.3548 -0.4887
 7382SOL    HW133782   0.440   2.224   2.560  0.2570  1.0166 -0.4990
 7382SOL    HW233783   0.472   2.133   2.455  0.4862  0.1173  1.1494
 7383SOL     OW33784   4.664   4.171   6.730 -0.1779 -0.6813 -0.3975
 7383SOL    HW133785   4.719   4.204   6.801  0.0774 -0.5197 -0.6726
 7383SOL    HW233786   4.583   4.220   6.743 -0.1346 -1.5519  3.1029
 7384SOL     OW33787   2.088   3.194   2.999 -0.3058 -0.3556  0.4032
 7384SOL    HW133788   2.018   3.159   2.944  1.1962 -0.7878 -1.2201
 7384SOL    HW233789   2.168   3.144   2.986  0.3963  0.3360  2.0690
 7385SOL     OW33790   1.872   2.083   2.275  0.3046 -0.1031  0.0645
 7385SOL    HW133791   1.866   1.992   2.246 -2.3800  0.1735 -0.2119
 7385SOL    HW233792   1.804   2.123   2.221  1.0850 -0.4705 -1.1773
 7386SOL     OW33793   0.961   1.279   2.279  0.0212  0.1197  0.0985
 7386SOL    HW133794   1.029   1.248   2.338 -0.7100  2.2089  2.0028
 7386SOL    HW233795   0.886   1.224   2.303 -0.8952  1.1116 -0.4632
 7387SOL     OW33796   2.175   0.195  16.212  0.2729 -0.0442 -0.0678
 7387SOL    HW133797   2.265   0.179  16.186  0.9942  1.4200  1.5061
 7387SOL    HW233798   2.147   0.107  16.235  1.7832 -0.5565 -0.1864
 7388SOL     OW33799   1.711   2.693   8.053 -0.7582  0.0529 -0.3588
 7388SOL    HW133800   1.756   2.647   8.123 -1.0222 -0.2175 -0.3671
 7388SOL    HW233801   1.779   2.759   8.048 -2.0413  1.4999  1.3235
 7389SOL     OW33802   0.512   1.371   5.722  0.1915  0.0217 -0.8131
 7389SOL    HW133803   0.530   1.437   5.655 -0.2135 -1.2566 -2.1853
 7389SOL    HW233804   0.593   1.360   5.771 -1.3817 -0.9043  1.5671
 7390SOL     OW33805   2.109   4.132   8.233 -0.2639 -0.2365  0.2126
 7390SOL    HW133806   2.097   4.226   8.221 -0.6824 -0.3263 -0.1088
 7390SOL    HW233807   2.023   4.096   8.210 -0.1745 -0.0022 -0.4762
 7391SOL     OW33808   2.628   3.967  10.600 -0.6156 -0.0855 -0.1242
 7391SOL    HW133809   2.541   4.004  10.616 -1.4096 -1.7963 -0.5064
 7391SOL    HW233810   2.684   4.010  10.665 -0.8627  1.7036 -1.0989
 7392SOL     OW33811   1.383   2.566   1.868 -0.0938  0.3491  0.3062
 7392SOL    HW133812   1.464   2.573   1.818 -0.4539 -0.4104 -0.3847
 7392SOL    HW233813   1.325   2.617   1.810 -0.5000  0.3601  0.7233
 7393SOL     OW33814   3.341   2.421   2.250  0.2568 -0.2422 -0.3257
 7393SOL    HW133815   3.356   2.443   2.158 -2.5496 -0.4345 -0.8132
 7393SOL    HW233816   3.419   2.450   2.299 -0.9610  0.0083  1.4705
 7394SOL     OW33817   4.395   1.318   5.035 -0.5826 -0.4418 -0.2873
 7394SOL    HW133818   4.341   1.249   5.074 -2.6720  1.5608  0.3088
 7394SOL    HW233819   4.486   1.290   5.046 -0.2770  1.1237  1.1098
 7395SOL     OW33820   3.110   0.838   5.516  0.2666 -0.3109 -0.3625
 7395SOL    HW133821   3.195   0.876   5.540  1.0875 -0.3028 -3.2857
 7395SOL    HW233822   3.131   0.794   5.434  1.8013 -1.9357  0.8960
 7396SOL     OW33823   1.791   3.610   1.107  0.3224 -0.3586 -0.0014
 7396SOL    HW133824   1.709   3.560   1.116  1.0330 -1.5964 -0.3049
 7396SOL    HW233825   1.769   3.683   1.050  1.2258 -0.1405 -0.0661
 7397SOL     OW33826   4.045   2.603   2.797  0.4912  0.1632  0.0109
 7397SOL    HW133827   4.117   2.648   2.752 -0.5787  0.3392 -1.5199
 7397SOL    HW233828   3.981   2.673   2.810  0.2443 -0.0170 -0.2240
 7398SOL     OW33829   0.319   3.335   9.129  0.4842 -1.0773 -0.1231
 7398SOL    HW133830   0.292   3.396   9.060 -2.8145 -1.7142  0.5926
 7398SOL    HW233831   0.408   3.320   9.096  0.6240  1.3482 -0.8281
 7399SOL     OW33832   0.861   0.204   3.441  0.1930  0.3403  0.5454
 7399SOL    HW133833   0.802   0.144   3.395  1.4167 -0.0988 -0.4599
 7399SOL    HW233834   0.797   0.261   3.482  0.9964  1.9216 -0.4001
 7400SOL     OW33835   1.670   4.535   0.012  0.6516 -0.6917 -0.2089
 7400SOL    HW133836   1.684   4.478  17.693 -2.0766 -0.8352 -0.5975
 7400SOL    HW233837   1.651   4.616  17.723 -0.1270 -1.4694 -1.2819
 7401SOL     OW33838   0.287   4.040   5.350 -0.3655 -0.5333  0.0679
 7401SOL    HW133839   0.336   4.065   5.273 -0.8152  1.5377  0.4455
 7401SOL    HW233840   0.245   3.955   5.338 -0.0993 -0.6961  0.2873
 7402SOL     OW33841   0.258   4.253   5.544 -0.8158  0.5234 -0.2066
 7402SOL    HW133842   0.279   4.176   5.492  0.0284  2.1515 -2.2897
 7402SOL    HW233843   0.217   4.309   5.477 -1.0521  0.4482 -0.1244
 7403SOL     OW33844   0.469   0.764   4.243 -0.3238  1.2414 -0.5487
 7403SOL    HW133845   0.395   0.801   4.292 -0.5684 -0.7673  0.6209
 7403SOL    HW233846   0.525   0.752   4.319 -1.6970  4.2500  0.9476
 7404SOL     OW33847   2.249   3.635   5.178 -0.0339  0.1802 -0.5142
 7404SOL    HW133848   2.335   3.676   5.191 -1.3228  2.0790  1.9853
 7404SOL    HW233849   2.225   3.674   5.094 -1.6357  0.6420  0.1578
 7405SOL     OW33850   2.855   1.647   5.277  0.1455  0.1684 -0.1434
 7405SOL    HW133851   2.900   1.731   5.282  0.9535 -0.3048  0.5454
 7405SOL    HW233852   2.906   1.599   5.343  1.3998 -1.8645 -2.6004
 7406SOL     OW33853   1.114   3.237   4.191  0.3375 -0.7443 -0.1476
 7406SOL    HW133854   1.035   3.203   4.150 -0.1048 -0.1095  0.1730
 7406SOL    HW233855   1.158   3.165   4.238  0.7180 -0.3327  0.1286
 7407SOL     OW33856   1.783   0.082  17.293  0.1043 -0.1907 -0.1015
 7407SOL    HW133857   1.848   0.037  17.239  1.1225  0.1703  0.8033
 7407SOL    HW233858   1.705   0.057  17.244 -0.3784 -1.0442  1.0939
 7408SOL     OW33859   0.846   2.831   6.268  0.3553 -0.7464  0.0001
 7408SOL    HW133860   0.911   2.791   6.325 -0.7419 -0.4413  1.4774
 7408SOL    HW233861   0.812   2.761   6.212  2.1361  0.2827 -2.3527
 7409SOL     OW33862   2.351   2.310   7.571 -0.1044  0.4014  0.5569
 7409SOL    HW133863   2.353   2.311   7.666 -0.5437 -0.7947  0.5739
 7409SOL    HW233864   2.337   2.400   7.542 -0.5470 -0.2093 -1.1072
 7410SOL     OW33865   4.384   3.897   1.027 -0.4005  0.0688 -0.6096
 7410SOL    HW133866   4.437   3.969   1.061 -0.4213  0.3171 -1.1057
 7410SOL    HW233867   4.407   3.896   0.934 -1.0997  2.2720 -0.7966
 7411SOL     OW33868   2.297   3.931  17.096 -0.6830  0.3006  0.0234
 7411SOL    HW133869   2.211   3.944  17.136 -0.4281  1.3173  0.2314
 7411SOL    HW233870   2.343   3.998  17.145 -0.1943  0.4855 -0.6848
 7412SOL     OW33871   2.916   2.217  10.328 -0.4465 -0.0609 -0.0086
 7412SOL    HW133872   2.976   2.249  10.261  1.8904  0.1045  2.1364
 7412SOL    HW233873   2.890   2.296  10.376  3.1397 -0.1256  2.0233
 7413SOL     OW33874   2.077   3.023   8.194  0.2143  0.1724  0.3746
 7413SOL    HW133875   2.163   3.065   8.202  0.2628  0.1785 -0.2161
 7413SOL    HW233876   2.029   3.083   8.252 -0.3078 -0.4551  0.5801
 7414SOL     OW33877   3.974   0.150   1.952  0.6876 -0.1128  0.4080
 7414SOL    HW133878   4.018   0.081   2.001  0.9810 -1.2396 -1.4720
 7414SOL    HW233879   3.989   0.119   1.863 -2.7416 -1.1622  0.1891
 7415SOL     OW33880   2.536   0.235   7.680  0.0953 -0.4154  1.0289
 7415SOL    HW133881   2.526   0.167   7.613  2.2616  1.4016 -1.1241
 7415SOL    HW233882   2.539   0.310   7.621  1.0791  0.5039  2.2744
 7416SOL     OW33883   3.885   0.505   6.024 -0.2869 -0.2581  0.1358
 7416SOL    HW133884   3.861   0.594   5.998 -0.8192 -0.8879 -1.6125
 7416SOL    HW233885   3.967   0.483   5.980  0.4308  0.1837  1.2802
 7417SOL     OW33886   4.110   3.982   8.272 -0.2912  0.6383 -0.1171
 7417SOL    HW133887   4.188   4.027   8.304  0.2762 -0.7983  0.4813
 7417SOL    HW233888   4.041   4.049   8.272 -2.1980 -1.3291  0.4099
 7418SOL     OW33889   1.859   0.969  16.825 -0.4296 -0.3603 -0.0498
 7418SOL    HW133890   1.801   0.942  16.754 -1.5559 -0.0205  0.7274
 7418SOL    HW233891   1.809   1.040  16.866 -0.9879  0.5194 -2.2567
 7419SOL     OW33892   1.220   2.929   5.665  0.1007  0.0465  0.2297
 7419SOL    HW133893   1.309   2.927   5.699 -0.4460 -3.0790  1.5466
 7419SOL    HW233894   1.190   3.017   5.685 -0.0243 -0.5064  2.4537
 7420SOL     OW33895   0.347   1.271  10.721 -0.3841 -0.0153 -0.4450
 7420SOL    HW133896   0.408   1.267  10.646  1.7690  0.6032  1.2764
 7420SOL    HW233897   0.380   1.339  10.779 -1.9080  1.1181 -0.8978
 7421SOL     OW33898   4.205   1.290   2.908 -0.0312 -0.2464 -0.3848
 7421SOL    HW133899   4.172   1.266   2.821 -0.5814 -0.3672 -0.1391
 7421SOL    HW233900   4.179   1.218   2.965  0.8723 -0.3838 -0.1537
 7422SOL     OW33901   1.669   3.615   3.778 -0.5888 -0.1319  0.7856
 7422SOL    HW133902   1.621   3.547   3.825 -1.1377  0.1446  0.6205
 7422SOL    HW233903   1.636   3.694   3.819 -0.9798  0.3528 -0.4546
 7423SOL     OW33904   4.249   2.504   4.403 -0.5281 -0.1771 -0.5043
 7423SOL    HW133905   4.341   2.487   4.380 -0.1293  0.5615  0.5092
 7423SOL    HW233906   4.240   2.454   4.484 -0.1235 -1.1525 -1.0648
 7424SOL     OW33907   4.529   1.844   1.229 -0.9426  0.2960 -0.5383
 7424SOL    HW133908   4.517   1.836   1.323  1.5893  2.0997 -0.0734
 7424SOL    HW233909   4.493   1.931   1.213 -2.9561 -0.7393 -1.7046
 7425SOL     OW33910   2.844   0.727   6.081 -0.4432  0.1755  0.5769
 7425SOL    HW133911   2.866   0.678   6.160  0.3726  0.3897  0.4833
 7425SOL    HW233912   2.787   0.668   6.031 -0.6159  0.2276  0.7151
 7426SOL     OW33913   3.889   1.557   6.947  0.8474 -0.1668  0.4992
 7426SOL    HW133914   3.801   1.595   6.944  0.8556  0.2799  5.2104
 7426SOL    HW233915   3.854   1.484   6.997 -0.2021  0.7558  1.1199
 7427SOL     OW33916   2.640   2.292   3.063  0.3333 -0.0279 -0.4394
 7427SOL    HW133917   2.644   2.198   3.044 -2.5929 -0.7276  2.4005
 7427SOL    HW233918   2.730   2.323   3.065  0.9549 -1.7389 -1.6015
 7428SOL     OW33919   1.976   3.150   7.067 -0.2152  0.1443 -0.3910
 7428SOL    HW133920   1.999   3.221   7.008 -2.0421  1.0642  0.0013
 7428SOL    HW233921   2.057   3.099   7.063 -0.4666 -0.3536  0.6715
 7429SOL     OW33922   2.645   4.314   8.100 -0.1019 -0.0152 -0.0074
 7429SOL    HW133923   2.692   4.388   8.139  2.3141 -1.5954  0.0710
 7429SOL    HW233924   2.717   4.279   8.049 -0.4981 -0.7145 -0.0902
 7430SOL     OW33925   1.115   0.396   7.027  0.0355  0.5375  0.5111
 7430SOL    HW133926   1.209   0.385   7.041  0.1409  2.5751  1.4533
 7430SOL    HW233927   1.104   0.487   7.000 -2.8075  0.6283  1.8953
 7431SOL     OW33928   1.006   0.911   3.642  0.1243 -0.4709  0.2120
 7431SOL    HW133929   1.009   0.949   3.554  0.9974  0.2176  0.5308
 7431SOL    HW233930   0.915   0.924   3.668  0.3628 -1.9511  1.7655
 7432SOL     OW33931   4.358   3.380   6.398 -0.2177  0.4968 -0.2405
 7432SOL    HW133932   4.281   3.419   6.441 -0.8025 -3.1697  1.9965
 7432SOL    HW233933   4.325   3.291   6.385 -0.4098  0.8845 -2.4096
 7433SOL     OW33934   0.157   1.397   8.569 -0.2317 -0.3393  0.0503
 7433SOL    HW133935   0.114   1.344   8.636  2.0704 -0.5181  1.3941
 7433SOL    HW233936   0.186   1.338   8.500  0.0646  1.5240 -1.4353
 7434SOL     OW33937   1.664   0.772   4.658  0.0777 -0.2236 -0.0406
 7434SOL    HW133938   1.643   0.798   4.568 -0.1753 -0.1343  0.0454
 7434SOL    HW233939   1.583   0.801   4.700 -0.1942 -0.2505 -0.5521
 7435SOL     OW33940   1.704   4.041  10.318  0.2514 -0.5426  0.1163
 7435SOL    HW133941   1.768   3.983  10.360 -0.8936 -1.8121  0.1252
 7435SOL    HW233942   1.629   4.048  10.378  1.3268  2.1772  1.1395
 7436SOL     OW33943   3.027   2.932   7.864  0.0630 -0.3417 -0.0894
 7436SOL    HW133944   3.059   3.016   7.895 -0.8761  0.1774 -0.5058
 7436SOL    HW233945   3.111   2.890   7.847  1.6384  1.9054  2.1968
 7437SOL     OW33946   2.042   2.657   6.877  0.0152  0.3462 -0.5377
 7437SOL    HW133947   2.029   2.567   6.908 -1.4090  0.5248 -0.6009
 7437SOL    HW233948   2.043   2.635   6.784 -1.2570 -2.1449  0.0214
 7438SOL     OW33949   2.369   1.367  16.773 -0.3471  0.2669  0.0459
 7438SOL    HW133950   2.351   1.409  16.857  2.0890  0.8016  0.3119
 7438SOL    HW233951   2.349   1.274  16.778 -0.9280  0.4786  1.5640
 7439SOL     OW33952   1.766   1.635   7.527  0.1369 -0.1358 -0.4024
 7439SOL    HW133953   1.678   1.638   7.566  0.8848  0.0154  1.2530
 7439SOL    HW233954   1.820   1.635   7.606 -1.7259 -2.1932  0.8877
 7440SOL     OW33955   1.960   4.577   3.006  0.3006 -0.5257 -0.3298
 7440SOL    HW133956   1.914   4.624   2.936  0.7014  1.7035  0.9314
 7440SOL    HW233957   1.970   4.650   3.066  1.5714 -0.9979  0.0261
 7441SOL     OW33958   4.619   0.558   8.694 -0.0795  0.1756 -0.4273
 7441SOL    HW133959   4.694   0.499   8.684  0.5298  0.7526  0.6165
 7441SOL    HW233960   4.656   0.635   8.737 -0.2540  0.4874 -0.8370
 7442SOL     OW33961   4.009   3.357  13.128 -0.1911  0.5166 -0.0389
 7442SOL    HW133962   4.052   3.284  13.083 -0.1750  0.5494 -0.0768
 7442SOL    HW233963   3.919   3.324  13.127  0.4118 -1.1498  0.7669
 7443SOL     OW33964   2.634   3.837  16.772 -0.5800 -0.4441  0.1793
 7443SOL    HW133965   2.661   3.820  16.682  0.2971 -0.2808  0.4166
 7443SOL    HW233966   2.545   3.873  16.771 -0.4656 -0.2533 -1.8552
 7444SOL     OW33967   4.127   1.319   3.208  0.3181  0.2089  0.4023
 7444SOL    HW133968   4.108   1.389   3.145 -1.2103 -1.2657 -0.7909
 7444SOL    HW233969   4.057   1.257   3.186  0.1178 -0.0094  1.6811
 7445SOL     OW33970   0.458   2.756   7.830 -0.0169 -0.3242  0.6599
 7445SOL    HW133971   0.400   2.768   7.755 -1.1401 -1.2519  1.3790
 7445SOL    HW233972   0.393   2.778   7.896 -0.2275 -1.3116  0.7930
 7446SOL     OW33973   4.262   0.798   9.575 -0.5703 -0.1823  0.2494
 7446SOL    HW133974   4.285   0.748   9.496 -0.5568 -3.0052  2.0350
 7446SOL    HW233975   4.198   0.856   9.534 -0.1378  0.2729  0.2169
 7447SOL     OW33976   2.074   3.540   7.832  0.0330 -0.5770  0.2590
 7447SOL    HW133977   2.054   3.479   7.761  2.0315  0.5585 -1.2733
 7447SOL    HW233978   2.078   3.619   7.778  0.8129 -0.1009  1.0318
 7448SOL     OW33979   1.710   0.987   7.333  0.1155 -0.0772  0.1551
 7448SOL    HW133980   1.800   0.988   7.300  0.3987 -0.7802  0.9040
 7448SOL    HW233981   1.731   0.920   7.397  1.0951 -1.5431 -1.7131
 7449SOL     OW33982   3.665   2.438   8.348  0.1972 -0.0321  0.4540
 7449SOL    HW133983   3.752   2.409   8.320  0.2296  2.1589 -1.7715
 7449SOL    HW233984   3.692   2.490   8.424  0.9336  0.7089 -0.3127
 7450SOL     OW33985   2.289   2.691   4.581  0.1088 -0.3103  0.3643
 7450SOL    HW133986   2.201   2.676   4.546  0.0854 -0.7388  0.6126
 7450SOL    HW233987   2.341   2.675   4.502  2.8607 -0.0983  2.1461
 7451SOL     OW33988   4.212   4.335   7.155 -0.4877 -0.1350  0.1994
 7451SOL    HW133989   4.123   4.331   7.191 -0.6039  1.0630  0.0405
 7451SOL    HW233990   4.241   4.251   7.191 -0.1967 -0.0014  0.2721
 7452SOL     OW33991   0.092   1.558   7.406 -0.6964 -0.2752  0.4384
 7452SOL    HW133992   0.094   1.488   7.341  3.5140  0.0640  0.2297
 7452SOL    HW233993   0.005   1.598   7.396 -0.1398  1.0031  0.6832
 7453SOL     OW33994   2.663   0.516  15.618  0.2785  0.1172  0.4559
 7453SOL    HW133995   2.573   0.545  15.601  0.0979  0.1189  1.4499
 7453SOL    HW233996   2.670   0.508  15.713 -1.9767  0.2758  0.6273
 7454SOL     OW33997   1.843   0.043   5.055  0.4641  0.7997  0.1244
 7454SOL    HW133998   1.913   0.108   5.063 -1.2897  2.6201  0.8351
 7454SOL    HW233999   1.821   0.052   4.963  0.3835  1.9811  0.2521
 7455SOL     OW34000   2.884   2.321   1.999 -0.2812  0.5510  0.2073
 7455SOL    HW134001   2.821   2.251   2.017  1.8194 -1.7367 -1.4974
 7455SOL    HW234002   2.942   2.327   2.076 -1.3250  0.8365  0.9783
 7456SOL     OW34003   1.396   0.335   7.056 -0.2123 -0.0696 -0.2912
 7456SOL    HW134004   1.394   0.248   7.015  1.6387 -1.6565  2.9715
 7456SOL    HW234005   1.483   0.367   7.029 -0.9422  1.3192 -1.0110
 7457SOL     OW34006   0.062   4.028   1.599 -0.2642 -0.5084 -0.2949
 7457SOL    HW134007   0.120   3.970   1.550  1.3209  0.1724  0.7726
 7457SOL    HW234008   4.739   3.971   1.644 -0.0707 -0.0690  0.5416
 7458SOL     OW34009   2.325   1.819  13.753  0.0835  0.1459  0.6557
 7458SOL    HW134010   2.256   1.761  13.785 -0.8853 -0.2669 -2.2553
 7458SOL    HW234011   2.395   1.770  13.798  1.4586  1.7356  0.2564
 7459SOL     OW34012   0.317   1.762  13.484  0.1282 -0.3967  0.3368
 7459SOL    HW134013   0.303   1.855  13.465 -2.5477 -0.7728  0.4713
 7459SOL    HW234014   0.295   1.728  13.398  0.5499  1.2621 -0.4309
 7460SOL     OW34015   2.626   0.644   3.962  0.0627  0.5063 -0.5984
 7460SOL    HW134016   2.705   0.597   3.935 -0.4999 -0.8364  0.0753
 7460SOL    HW234017   2.559   0.629   3.896 -0.2177 -0.5580 -0.0814
 7461SOL     OW34018   2.791   0.562   3.009  0.3976  0.3554 -0.3000
 7461SOL    HW134019   2.849   0.488   2.993 -0.2849 -0.5628  1.5640
 7461SOL    HW234020   2.821   0.584   3.097  0.8894 -1.9029  0.0695
 7462SOL     OW34021   4.656   1.685   2.780 -0.0968  0.1662 -0.4583
 7462SOL    HW134022   4.677   1.772   2.813  1.0683  0.6925 -2.5835
 7462SOL    HW234023   4.560   1.687   2.782 -0.0497  0.9264  1.4814
 7463SOL     OW34024   0.434   1.226   6.985  0.1327  0.0759 -0.2901
 7463SOL    HW134025   0.451   1.203   6.893 -0.3387 -0.1781 -0.3121
 7463SOL    HW234026   0.509   1.282   7.007  0.8336 -1.0210  0.1227
 7464SOL     OW34027   2.355   2.404   3.906  0.3113  0.0036 -0.0997
 7464SOL    HW134028   2.308   2.483   3.879 -0.5503 -0.6136 -0.4171
 7464SOL    HW234029   2.280   2.344   3.909 -1.9602  2.8131 -0.5907
 7465SOL     OW34030   4.559   3.205   3.892 -0.6037  0.0796 -0.1411
 7465SOL    HW134031   4.624   3.234   3.957 -1.3276  0.2382  0.5152
 7465SOL    HW234032   4.597   3.264   3.826 -0.5968  0.7742  0.4770
 7466SOL     OW34033   2.562   0.382   3.332  0.2741  0.2484 -0.1636
 7466SOL    HW134034   2.615   0.340   3.265 -1.3181 -2.0612  0.0472
 7466SOL    HW234035   2.515   0.301   3.349  3.1341 -1.4184 -0.1385
 7467SOL     OW34036   1.455   1.521   2.526 -0.2876  0.5272 -0.2280
 7467SOL    HW134037   1.424   1.451   2.584  0.2524  0.9856  0.6235
 7467SOL    HW234038   1.471   1.470   2.447 -0.8769 -1.3168  0.8421
 7468SOL     OW34039   2.871   1.023   7.933  0.2162 -0.3843  0.5212
 7468SOL    HW134040   2.939   1.033   8.000  0.6285 -1.4604  0.2664
 7468SOL    HW234041   2.799   0.982   7.982 -0.0414 -0.1841  0.3110
 7469SOL     OW34042   2.652   4.532   7.702  0.4932  0.2811  0.0338
 7469SOL    HW134043   2.578   4.579   7.663  1.3600  1.8278  0.2526
 7469SOL    HW234044   2.669   4.582   7.781  1.2807 -1.4071  0.9299
 7470SOL     OW34045   0.796   3.928   6.624 -0.5427  0.0078  0.9232
 7470SOL    HW134046   0.779   3.838   6.651 -0.5838 -0.5047 -0.8146
 7470SOL    HW234047   0.819   3.918   6.531  0.2632  1.2430  0.9821
 7471SOL     OW34048   1.907   2.117   3.625  0.2786 -0.3623  0.4224
 7471SOL    HW134049   1.841   2.182   3.648  1.4852  1.1500 -0.4171
 7471SOL    HW234050   1.886   2.030   3.659 -0.0313  0.9804  3.6568
 7472SOL     OW34051   3.222   0.193   3.331 -0.0594 -0.3829 -0.5874
 7472SOL    HW134052   3.225   0.190   3.235  1.2447 -0.5696 -0.5480
 7472SOL    HW234053   3.313   0.201   3.361  0.1034  0.3617 -1.2717
 7473SOL     OW34054   3.719   4.546   7.306  0.6482  0.2703 -0.4016
 7473SOL    HW134055   3.715   4.504   7.220  2.9719  0.2127 -0.4790
 7473SOL    HW234056   3.707   4.638   7.282 -0.5295 -0.7978 -3.9768
 7474SOL     OW34057   4.451   2.349   3.446  0.1445  0.1560  0.3343
 7474SOL    HW134058   4.506   2.275   3.469 -1.9073 -0.5565  2.9629
 7474SOL    HW234059   4.374   2.312   3.489 -0.0647  2.7753  2.2181
 7475SOL     OW34060   3.242   1.455  13.992 -0.5139  0.7782 -0.1242
 7475SOL    HW134061   3.176   1.522  14.007  0.0293  1.2735  0.0786
 7475SOL    HW234062   3.320   1.506  13.968 -0.1959  1.0684  1.5134
 7476SOL     OW34063   1.136   1.258   3.777  0.1071 -0.7363 -0.0795
 7476SOL    HW134064   1.142   1.167   3.807  0.7551 -0.8909 -0.6856
 7476SOL    HW234065   1.175   1.301   3.854 -2.1903 -0.2664  0.8194
 7477SOL     OW34066   3.952   3.628   9.555 -0.3800  0.2263 -0.1675
 7477SOL    HW134067   4.038   3.608   9.591 -1.6684 -1.1443  2.1226
 7477SOL    HW234068   3.918   3.696   9.612  2.6371  0.5039  1.2493
 7478SOL     OW34069   0.273   2.805   4.606 -0.3123  0.2227  0.5850
 7478SOL    HW134070   0.235   2.760   4.681 -0.8908  0.7946  0.6286
 7478SOL    HW234071   0.237   2.893   4.614  1.0081  0.6499  1.9713
 7479SOL     OW34072   0.358   4.418   9.161 -0.3665 -1.1083  0.5670
 7479SOL    HW134073   0.336   4.464   9.243  0.1874  1.0281 -0.4814
 7479SOL    HW234074   0.426   4.359   9.195  2.1390  1.2784 -0.3255
 7480SOL     OW34075   0.827   0.644   3.023  0.2721 -0.2372  0.4347
 7480SOL    HW134076   0.839   0.710   3.091 -1.2809  0.4985 -0.0042
 7480SOL    HW234077   0.919   0.623   3.008  0.1025 -0.0927 -0.8635
 7481SOL     OW34078   2.962   2.880   7.197 -0.4590 -0.0146  0.0958
 7481SOL    HW134079   2.958   2.935   7.275  0.4093 -1.3176  1.0578
 7481SOL    HW234080   3.048   2.838   7.193 -0.5607 -0.3202  1.0930
 7482SOL     OW34081   3.358   3.768   5.794  0.0531  0.1027  0.1702
 7482SOL    HW134082   3.361   3.827   5.870  1.0667 -0.2436  0.3844
 7482SOL    HW234083   3.300   3.697   5.821  1.0736 -0.2806  1.3516
 7483SOL     OW34084   4.736   1.340   7.013 -0.1471  0.4524 -0.0668
 7483SOL    HW134085   4.658   1.379   6.974 -0.4319 -1.0962 -1.0351
 7483SOL    HW234086   0.020   1.283   6.940  1.8732 -0.0671  0.9873
 7484SOL     OW34087   1.156   2.917   2.069 -0.3285  0.1446  0.4551
 7484SOL    HW134088   1.221   2.886   2.132 -1.2490 -1.0773  0.8225
 7484SOL    HW234089   1.123   2.997   2.109  0.0157  0.7469 -0.4834
 7485SOL     OW34090   3.694   2.960  13.275 -0.3666 -0.0172 -0.0753
 7485SOL    HW134091   3.699   3.034  13.214 -0.7247  0.2868  0.2629
 7485SOL    HW234092   3.637   2.902  13.224  0.7088 -0.1918 -1.0640
 7486SOL     OW34093   3.212   3.121   4.114  0.6086 -0.6454 -0.1158
 7486SOL    HW134094   3.117   3.118   4.106  0.7694 -1.2339 -1.9451
 7486SOL    HW234095   3.228   3.178   4.189 -1.2818 -0.2584 -0.0164
 7487SOL     OW34096   4.212   0.380   6.434 -0.0652  0.1240 -0.1489
 7487SOL    HW134097   4.182   0.294   6.406 -0.1138  0.0597  0.0956
 7487SOL    HW234098   4.130   0.429   6.443  0.2362  0.3825  1.3042
 7488SOL     OW34099   3.861   0.789   5.677 -0.0957 -0.2435 -0.2615
 7488SOL    HW134100   3.855   0.696   5.655  2.7765 -0.0288 -1.9997
 7488SOL    HW234101   3.946   0.807   5.636 -0.2191 -0.5539 -0.6561
 7489SOL     OW34102   2.296   2.118   9.265 -0.0743 -0.1069 -0.4524
 7489SOL    HW134103   2.201   2.132   9.266 -0.1042 -0.3439  0.2213
 7489SOL    HW234104   2.316   2.071   9.184 -0.2725  1.9443 -1.6739
 7490SOL     OW34105   3.489   1.246   6.486  0.6594  0.2673 -0.1793
 7490SOL    HW134106   3.471   1.310   6.555 -0.3024 -0.8446  0.6160
 7490SOL    HW234107   3.468   1.165   6.534  1.8665  0.3754  0.5282
 7491SOL     OW34108   2.351   3.618   6.488 -0.0419 -0.7086 -0.0930
 7491SOL    HW134109   2.292   3.612   6.413  2.5294 -1.2778 -2.1065
 7491SOL    HW234110   2.395   3.533   6.486 -2.9520 -2.2306  0.3970
 7492SOL     OW34111   0.925   3.928   2.216 -0.1026  0.0204  0.9631
 7492SOL    HW134112   0.990   3.979   2.265  0.1095  0.5845  0.0833
 7492SOL    HW234113   0.977   3.850   2.195 -2.0042 -1.2333  0.9224
 7493SOL     OW34114   1.714   1.236   6.153 -0.2227 -0.1299 -0.2989
 7493SOL    HW134115   1.651   1.182   6.104  0.2354  1.1860 -2.3338
 7493SOL    HW234116   1.736   1.309   6.096  0.8149 -0.2216 -0.0258
 7494SOL     OW34117   2.922   4.060   5.991  0.3461 -0.0744 -0.2909
 7494SOL    HW134118   2.944   4.152   5.974  1.1667 -0.1714  0.2614
 7494SOL    HW234119   2.871   4.068   6.072  1.7584  0.0581  0.5867
 7495SOL     OW34120   0.852   3.025   7.223  0.6800 -0.1575  0.3976
 7495SOL    HW134121   0.900   2.973   7.288 -2.0419 -0.1246  2.4130
 7495SOL    HW234122   0.772   3.050   7.269  0.5597 -1.3236  0.8255
 7496SOL     OW34123   4.093   0.805   8.093  0.2150 -0.1427  0.0854
 7496SOL    HW134124   4.137   0.890   8.085  0.2735 -0.1746  0.0730
 7496SOL    HW234125   4.027   0.832   8.156  1.1805  0.2527  0.9187
 7497SOL     OW34126   0.125   2.749  10.499  0.0860  0.5365  0.1095
 7497SOL    HW134127   0.189   2.684  10.527  1.7003  1.7843 -0.7097
 7497SOL    HW234128   0.046   2.700  10.524  0.4812 -1.2013 -2.0609
 7498SOL     OW34129   1.486   3.774   2.715 -0.2168  0.5850  0.4083
 7498SOL    HW134130   1.539   3.759   2.793  0.3026  2.1673  0.3662
 7498SOL    HW234131   1.525   3.858   2.688 -2.0645  0.7884 -1.6287
 7499SOL     OW34132   0.628   2.507  16.345 -0.0690 -0.3135  0.0059
 7499SOL    HW134133   0.626   2.424  16.298  0.9320 -1.2530  1.6223
 7499SOL    HW234134   0.721   2.514  16.364 -0.0265  1.2720 -0.7808
 7500SOL     OW34135   2.934   3.514   3.031 -0.3907  0.3941  0.0732
 7500SOL    HW134136   2.920   3.534   2.939  0.0916  0.8931  0.1041
 7500SOL    HW234137   2.873   3.569   3.079  0.4274  1.4482 -0.0923
 7501SOL     OW34138   0.498   3.427   7.802 -0.1821 -0.4109  0.3694
 7501SOL    HW134139   0.520   3.417   7.895 -0.1642  0.5331  0.4612
 7501SOL    HW234140   0.435   3.359   7.777  1.3673 -1.3054 -1.0775
 7502SOL     OW34141   0.088   2.390  11.440 -0.6377  0.3324  0.3048
 7502SOL    HW134142   0.072   2.432  11.356  0.5941  0.6049  0.2063
 7502SOL    HW234143   0.004   2.374  11.482 -1.7117  0.1416 -1.9515
 7503SOL     OW34144   2.279   2.874   7.758 -0.3691 -0.2688 -0.0401
 7503SOL    HW134145   2.281   2.943   7.824  0.3410  1.3800 -1.7787
 7503SOL    HW234146   2.194   2.895   7.718 -1.3641 -3.2211  0.5741
 7504SOL     OW34147   2.960   2.759   1.771  0.0514  0.4250  0.2639
 7504SOL    HW134148   2.927   2.669   1.773 -0.2773  0.5579  0.6562
 7504SOL    HW234149   2.991   2.759   1.680 -1.8839 -2.0890 -0.3951
 7505SOL     OW34150   2.348   2.002   9.032 -0.2851 -0.3885  0.0191
 7505SOL    HW134151   2.282   1.950   8.986  1.4471 -0.0416 -2.8917
 7505SOL    HW234152   2.410   1.995   8.960  0.5710  1.4385  0.5754
 7506SOL     OW34153   2.997   0.098  14.434  0.0252  0.0328 -0.1784
 7506SOL    HW134154   2.962   0.158  14.500 -0.6016  2.3279 -2.5635
 7506SOL    HW234155   2.945   0.020  14.450  0.5619 -0.5172 -1.0986
 7507SOL     OW34156   1.316   2.613   6.796 -0.0518  0.2276  0.1600
 7507SOL    HW134157   1.246   2.549   6.780 -0.3639  0.0920  2.0263
 7507SOL    HW234158   1.286   2.671   6.865  0.3927  1.0901 -0.3757
 7508SOL     OW34159   0.780   1.682   2.379 -0.2726  0.2300 -0.2272
 7508SOL    HW134160   0.691   1.693   2.412 -0.4070  0.1726 -0.5690
 7508SOL    HW234161   0.764   1.624   2.305  1.6305  3.3717 -3.1158
 7509SOL     OW34162   3.212   1.493   0.615 -0.0991 -0.1353  0.5094
 7509SOL    HW134163   3.233   1.399   0.614 -0.8447 -0.2976 -0.0149
 7509SOL    HW234164   3.269   1.516   0.541 -1.2036 -1.6903 -0.8498
 7510SOL     OW34165   2.273   0.271  12.051  0.7524 -0.2005  0.0624
 7510SOL    HW134166   2.288   0.361  12.022  0.2960 -0.5136 -1.1259
 7510SOL    HW234167   2.359   0.236  12.029  1.0802  0.5637  0.1138
 7511SOL     OW34168   1.662   0.126   5.294 -0.0987 -0.2533  0.6698
 7511SOL    HW134169   1.701   0.097   5.211 -0.0587 -1.2053  1.0208
 7511SOL    HW234170   1.570   0.103   5.283 -0.2199  0.7952 -0.4559
 7512SOL     OW34171   3.496   2.393   7.306 -0.1212  0.1175 -0.4440
 7512SOL    HW134172   3.449   2.385   7.223  0.1857 -0.9191 -0.5183
 7512SOL    HW234173   3.511   2.302   7.333 -1.2345  0.1428  0.2464
 7513SOL     OW34174   0.659   0.073   8.992 -0.6651 -0.4750  0.2527
 7513SOL    HW134175   0.625   4.724   8.990  0.2405 -0.7370 -2.5879
 7513SOL    HW234176   0.661   0.085   8.897 -2.5766 -0.0409  0.2636
 7514SOL     OW34177   0.594   2.522   3.965 -0.2170 -0.2566 -0.4476
 7514SOL    HW134178   0.588   2.491   4.055 -2.3886  0.6599 -0.2793
 7514SOL    HW234179   0.501   2.543   3.955  0.1769  1.4442 -0.5505
 7515SOL     OW34180   2.375   1.452   5.827  0.3818 -0.5082  0.1809
 7515SOL    HW134181   2.303   1.447   5.765  1.2537  2.3209 -1.0603
 7515SOL    HW234182   2.407   1.542   5.821  0.8306 -0.6503  0.4075
 7516SOL     OW34183   1.120   3.153   2.495  0.1437 -0.1630 -0.3337
 7516SOL    HW134184   1.145   3.190   2.580  1.8747  1.3871 -1.4959
 7516SOL    HW234185   1.187   3.203   2.447 -0.4997  1.0361  0.0004
 7517SOL     OW34186   1.950   0.829  16.303 -0.1467 -0.4803 -0.3931
 7517SOL    HW134187   1.865   0.787  16.316  0.4415 -1.6770 -0.3791
 7517SOL    HW234188   1.994   0.829  16.388  0.3790 -0.1298 -0.6632
 7518SOL     OW34189   4.429   4.325  15.897  0.2528  0.3356  0.1800
 7518SOL    HW134190   4.496   4.394  15.903 -0.0236  0.5731  0.5605
 7518SOL    HW234191   4.477   4.271  15.959  0.7531  1.2005  0.5569
 7519SOL     OW34192   0.925   2.222   7.257 -0.6335 -0.1766 -0.7600
 7519SOL    HW134193   0.964   2.295   7.306 -0.4031 -0.3765 -0.6401
 7519SOL    HW234194   0.904   2.274   7.180  0.4025 -1.0284 -1.6345
 7520SOL     OW34195   4.357   2.699   1.428 -0.6891 -0.0633 -0.0421
 7520SOL    HW134196   4.308   2.765   1.476 -0.2975  0.0791  0.1587
 7520SOL    HW234197   4.289   2.648   1.384 -1.9082 -0.2213  2.0260
 7521SOL     OW34198   3.181   3.732   6.087  0.2113  0.5440 -0.0661
 7521SOL    HW134199   3.107   3.783   6.121 -1.9742 -2.2207 -0.6729
 7521SOL    HW234200   3.258   3.762   6.136  0.1195  0.6421  0.0171
 7522SOL     OW34201   2.047   4.277   3.960 -0.2074  0.0819  0.4704
 7522SOL    HW134202   2.077   4.263   3.871 -0.0340 -0.6184  0.6369
 7522SOL    HW234203   2.131   4.284   4.005 -0.4676 -1.2786  1.1748
 7523SOL     OW34204   3.645   0.006   8.677 -0.1963  0.8401 -0.0378
 7523SOL    HW134205   3.739   0.025   8.669 -0.2302  1.0027 -0.0396
 7523SOL    HW234206   3.612   0.023   8.765  2.6209 -0.2392  1.2441
 7524SOL     OW34207   0.135   4.184   9.647 -0.3475  0.3579  0.0396
 7524SOL    HW134208   0.040   4.198   9.641 -0.2187  1.1546 -0.0587
 7524SOL    HW234209   0.139   4.121   9.720 -0.5960  2.6874  2.0455
 7525SOL     OW34210   1.032   2.436   7.351 -0.4294 -0.7482  0.1388
 7525SOL    HW134211   1.054   2.451   7.443  2.7816  0.7203 -0.8711
 7525SOL    HW234212   1.114   2.449   7.305 -0.7415  1.0784  0.1093
 7526SOL     OW34213   3.570   3.615   8.423 -0.3333 -0.1065  0.0180
 7526SOL    HW134214   3.495   3.673   8.434  1.5794  2.2812  0.5319
 7526SOL    HW234215   3.607   3.662   8.348  0.0840 -0.1524  0.1966
 7527SOL     OW34216   1.063   2.329   2.837  0.8168  0.5214  0.2837
 7527SOL    HW134217   1.016   2.304   2.758  0.0911  0.2719  0.7950
 7527SOL    HW234218   1.147   2.284   2.823 -0.8922 -1.8580 -2.3543
 7528SOL     OW34219   0.769   1.897   2.608  0.1507 -0.4659 -0.7571
 7528SOL    HW134220   0.837   1.919   2.545  0.8247  0.3477  0.2531
 7528SOL    HW234221   0.788   1.808   2.635 -0.3650 -0.1544  0.6480
 7529SOL     OW34222   2.710   1.507   0.975  0.3863  0.5673 -0.6519
 7529SOL    HW134223   2.671   1.553   1.049  2.8005 -0.2625  1.1331
 7529SOL    HW234224   2.740   1.583   0.926 -0.1037  1.0345 -0.2324
 7530SOL     OW34225   2.708   1.888   2.445 -0.0629 -0.2397 -0.1907
 7530SOL    HW134226   2.786   1.843   2.415 -0.3641 -0.2083 -1.0091
 7530SOL    HW234227   2.718   1.884   2.541  2.8792  0.7458 -0.4660
 7531SOL     OW34228   1.735   4.159   6.643  0.5469  0.0332  0.1423
 7531SOL    HW134229   1.729   4.090   6.708 -1.5160 -1.1701 -1.3335
 7531SOL    HW234230   1.650   4.203   6.650  0.5002 -0.2977  1.7108
 7532SOL     OW34231   4.287   2.754   0.269 -0.1097  0.3028  0.3512
 7532SOL    HW134232   4.300   2.660   0.276 -0.7833  0.0197 -2.1795
 7532SOL    HW234233   4.371   2.789   0.298  0.5409 -1.0005  0.0141
 7533SOL     OW34234   3.814   4.148   8.851 -0.5460  0.3535  0.0001
 7533SOL    HW134235   3.737   4.191   8.812 -1.3410  0.4723  1.7128
 7533SOL    HW234236   3.877   4.155   8.779 -1.8194 -0.2153 -1.1876
 7534SOL     OW34237   2.521   0.740   5.097  0.2807  0.1239  0.3276
 7534SOL    HW134238   2.607   0.701   5.078  0.9917  1.6688  0.4225
 7534SOL    HW234239   2.555   0.829   5.091 -1.2877  0.7604  0.9525
 7535SOL     OW34240   2.059   0.397   9.711  0.1619 -0.4636 -0.1252
 7535SOL    HW134241   2.060   0.325   9.774 -1.0520  0.2802  0.7583
 7535SOL    HW234242   2.111   0.358   9.641  2.3974 -1.7597  2.2458
 7536SOL     OW34243   3.967   1.338   8.144  0.1714 -0.0396 -0.0516
 7536SOL    HW134244   4.015   1.301   8.071 -0.5470  1.5842 -1.3381
 7536SOL    HW234245   4.027   1.319   8.216  2.0929 -1.8670 -2.1182
 7537SOL     OW34246   4.316   3.389   1.629 -0.3800  0.4963  0.3890
 7537SOL    HW134247   4.378   3.347   1.569 -2.1877 -0.4343 -0.8355
 7537SOL    HW234248   4.249   3.409   1.564  1.8181 -2.1211 -2.6788
 7538SOL     OW34249   0.688   1.133  17.080 -0.3023 -0.1161  0.0855
 7538SOL    HW134250   0.637   1.137  16.999 -0.5096  0.5457  0.2408
 7538SOL    HW234251   0.766   1.079  17.065 -0.1700 -0.2287  1.1643
 7539SOL     OW34252   3.617   1.583  12.519  0.3516 -0.0801  0.0107
 7539SOL    HW134253   3.601   1.594  12.613 -0.9578 -0.0069 -0.2150
 7539SOL    HW234254   3.710   1.595  12.503  0.6697  1.4419  2.9673
 7540SOL     OW34255   0.851   2.004   6.091  0.1212 -0.1537 -0.3439
 7540SOL    HW134256   0.771   1.955   6.078 -0.2264  0.7946 -1.7709
 7540SOL    HW234257   0.895   1.952   6.159 -2.3871  0.4725  1.7611
 7541SOL     OW34258   1.824   0.032   5.507 -0.3020 -0.5283 -0.0511
 7541SOL    HW134259   1.899   0.085   5.479  1.1981 -1.7943  1.5657
 7541SOL    HW234260   1.774   0.032   5.425  0.9024  1.5370 -0.7759
 7542SOL     OW34261   3.379   0.942   9.869  0.2137 -0.2171 -0.2119
 7542SOL    HW134262   3.457   0.994   9.850  0.5940 -0.2029  1.3700
 7542SOL    HW234263   3.330   0.998   9.930 -0.6025  1.3972 -2.3372
 7543SOL     OW34264   0.209   0.349  16.967 -0.4086 -0.2840 -0.3306
 7543SOL    HW134265   0.200   0.260  16.999 -0.4005 -0.2541 -0.2465
 7543SOL    HW234266   0.119   0.375  16.946 -0.1933 -0.6663 -1.7253
 7544SOL     OW34267   1.565   1.715  13.089 -0.3499 -0.8541  0.3094
 7544SOL    HW134268   1.474   1.687  13.100 -1.0832  2.1403  1.9425
 7544SOL    HW234269   1.600   1.675  13.169  0.1598 -2.1253 -0.5535
 7545SOL     OW34270   0.598   1.737   5.248  0.6144 -0.1290 -0.3877
 7545SOL    HW134271   0.581   1.830   5.236  1.6331  0.2381  1.0657
 7545SOL    HW234272   0.680   1.750   5.296 -0.5758  0.8741  1.3616
 7546SOL     OW34273   0.831   0.047   5.724 -0.0336  0.1476 -0.2486
 7546SOL    HW134274   0.832   0.100   5.804 -0.0002 -0.3072  0.0577
 7546SOL    HW234275   0.784   4.710   5.758  0.8942 -0.6937 -0.9127
 7547SOL     OW34276   3.520   1.823   5.839  0.6388  0.6148 -0.0553
 7547SOL    HW134277   3.517   1.893   5.905 -0.1051  0.6427 -0.1179
 7547SOL    HW234278   3.484   1.747   5.886 -0.5436  1.3039  0.1593
 7548SOL     OW34279   3.429   3.179  13.640 -0.4689 -0.2853  0.2906
 7548SOL    HW134280   3.508   3.149  13.594 -0.3590  0.3750  0.0523
 7548SOL    HW234281   3.461   3.161  13.729 -0.1484 -0.4562  0.1427
 7549SOL     OW34282   4.056   4.177   6.598 -0.4914 -0.1750 -0.2467
 7549SOL    HW134283   4.105   4.109   6.644 -0.1891 -0.4871 -1.0280
 7549SOL    HW234284   4.035   4.236   6.670  1.2060  0.1744 -0.0477
 7550SOL     OW34285   0.978   1.319   6.068  0.5762 -0.5334  0.2646
 7550SOL    HW134286   1.000   1.236   6.111 -0.6077 -0.9392  0.0886
 7550SOL    HW234287   1.050   1.331   6.006  0.7428  3.1376  1.1953
 7551SOL     OW34288   2.010   4.216   3.049 -0.3124 -0.2275 -0.1998
 7551SOL    HW134289   2.007   4.263   3.133  0.3040 -0.7600  0.1180
 7551SOL    HW234290   2.026   4.125   3.074  3.8949  0.7531  0.6401
 7552SOL     OW34291   1.897   0.238   2.642  0.2003 -0.1231 -0.2634
 7552SOL    HW134292   1.803   0.246   2.627  0.2638 -0.3729 -0.8031
 7552SOL    HW234293   1.921   0.322   2.680  0.8418 -0.1945 -0.4991
 7553SOL     OW34294   3.307   0.610   7.305  0.3537  0.3960 -0.2933
 7553SOL    HW134295   3.279   0.519   7.307  0.7701  0.2784  0.0103
 7553SOL    HW234296   3.357   0.618   7.386  1.5438 -0.2057 -0.9650
 7554SOL     OW34297   2.373   3.562  13.960  0.5264  0.7207  0.1959
 7554SOL    HW134298   2.437   3.501  13.996 -1.1721 -0.4555  1.2784
 7554SOL    HW234299   2.313   3.579  14.033 -1.3175 -2.2323 -0.6214
 7555SOL     OW34300   1.696   2.747   9.776 -0.1060  0.8937 -0.1414
 7555SOL    HW134301   1.782   2.788   9.775  0.0937  0.4552 -2.0413
 7555SOL    HW234302   1.643   2.815   9.817 -1.3366  1.3226 -2.4284
 7556SOL     OW34303   2.255   4.336   4.143 -0.1920 -0.2758 -0.0885
 7556SOL    HW134304   2.184   4.366   4.199  0.6128  2.0649 -0.2991
 7556SOL    HW234305   2.317   4.409   4.152 -0.6344 -0.2987  3.1249
 7557SOL     OW34306   2.815   2.216   1.705 -0.3662 -0.4778 -0.0392
 7557SOL    HW134307   2.744   2.152   1.709 -0.2733 -0.6079 -0.4335
 7557SOL    HW234308   2.834   2.216   1.799  0.8619 -0.5971 -0.2884
 7558SOL     OW34309   2.665   0.673   4.358  0.0394  0.0233  0.3498
 7558SOL    HW134310   2.644   0.650   4.268  2.9816  0.5502 -0.4831
 7558SOL    HW234311   2.585   0.645   4.402 -0.0256 -0.7682 -0.2752
 7559SOL     OW34312   3.665   1.834   4.504  0.2213 -0.1552  0.0719
 7559SOL    HW134313   3.590   1.790   4.464 -0.8458  0.2448  1.6724
 7559SOL    HW234314   3.707   1.864   4.423  0.7792  2.4178  1.3136
 7560SOL     OW34315   4.305   4.356   3.236  0.3481  0.2031  0.2436
 7560SOL    HW134316   4.272   4.343   3.147 -0.1677  0.2502  0.4276
 7560SOL    HW234317   4.231   4.394   3.282 -0.2821  1.0067 -1.4418
 7561SOL     OW34318   3.030   4.624   2.560 -0.2854 -0.1407  0.4693
 7561SOL    HW134319   3.092   4.696   2.571 -0.2877  0.1017 -1.1278
 7561SOL    HW234320   3.040   4.603   2.468 -0.7180 -2.0614  0.8614
 7562SOL     OW34321   0.678   2.399   7.936  0.2713 -0.1042  0.3149
 7562SOL    HW134322   0.590   2.432   7.954  0.2625 -0.0233  0.1240
 7562SOL    HW234323   0.684   2.392   7.841 -1.0447  0.3303  0.1991
 7563SOL     OW34324   3.814   1.398   2.324  0.3074  0.6851  0.5652
 7563SOL    HW134325   3.904   1.402   2.357  0.4485  0.5443  0.1920
 7563SOL    HW234326   3.766   1.380   2.405  0.6824 -2.5776  0.0635
 7564SOL     OW34327   3.509   0.596   2.125  0.1861 -0.0305  0.2600
 7564SOL    HW134328   3.511   0.504   2.149  0.5014 -0.2149 -0.4708
 7564SOL    HW234329   3.599   0.622   2.143  0.2451 -0.4485  0.5686
 7565SOL     OW34330   4.463   3.307   8.050 -0.0375  0.0459  0.4775
 7565SOL    HW134331   4.378   3.321   8.008 -0.5985  4.0304  3.0815
 7565SOL    HW234332   4.463   3.211   8.055  0.3107  0.0640  0.7912
 7566SOL     OW34333   2.721   1.783   2.931  0.2732  0.3648 -0.3807
 7566SOL    HW134334   2.745   1.699   2.891 -0.5924  0.1238 -0.4017
 7566SOL    HW234335   2.660   1.745   2.993  1.9228 -0.6316  0.6276
 7567SOL     OW34336   1.444   0.750  17.675 -0.1084 -0.7012  0.1050
 7567SOL    HW134337   1.529   0.740  17.718 -0.0623 -3.4623 -0.6255
 7567SOL    HW234338   1.455   0.666  17.630  0.0309 -0.6741  0.0870
 7568SOL     OW34339   2.024   0.969   6.998  0.1177 -0.1256  0.1742
 7568SOL    HW134340   1.995   1.060   7.000 -2.3321 -0.9138  1.2953
 7568SOL    HW234341   2.119   0.971   6.988  0.3490  0.1042  2.3108
 7569SOL     OW34342   2.216   4.518   3.373 -0.0548 -0.0387 -0.3549
 7569SOL    HW134343   2.195   4.531   3.465  1.2027 -3.2860  0.3824
 7569SOL    HW234344   2.307   4.547   3.364  1.0281 -2.2242  3.5757
 7570SOL     OW34345   3.985   4.205   3.643  0.2457 -0.2430  0.5688
 7570SOL    HW134346   4.044   4.144   3.598  0.6887  1.2416 -0.8895
 7570SOL    HW234347   4.044   4.250   3.704  3.2562 -1.2884 -1.5660
 7571SOL     OW34348   4.395   0.112   6.544  0.1224 -0.3849  0.1837
 7571SOL    HW134349   4.397   0.132   6.637  3.0507 -1.3484  0.3042
 7571SOL    HW234350   4.360   0.023   6.547  0.3702 -0.5230 -0.9396
 7572SOL     OW34351   2.564   1.022   7.094  0.0388 -0.0728 -0.0085
 7572SOL    HW134352   2.613   0.965   7.153 -1.3760  1.0697  2.2554
 7572SOL    HW234353   2.587   1.103   7.141 -2.9702  0.8169 -0.0900
 7573SOL     OW34354   1.765   0.351   1.068  0.3507  0.1441  0.9957
 7573SOL    HW134355   1.709   0.333   1.143  2.3146 -1.4234  2.0904
 7573SOL    HW234356   1.703   0.403   1.017  0.7014  0.6924  1.1405
 7574SOL     OW34357   3.486   1.077   9.100  0.1815 -0.5116  0.3396
 7574SOL    HW134358   3.556   1.112   9.045 -0.2128  1.0268  0.8163
 7574SOL    HW234359   3.438   1.036   9.028 -0.9087  1.3541  0.0083
 7575SOL     OW34360   1.966   0.772  17.003 -0.3401 -0.3660 -0.5123
 7575SOL    HW134361   1.921   0.849  16.967  0.3860 -0.2603 -1.1929
 7575SOL    HW234362   1.999   0.742  16.918  0.6516 -1.8503  0.4013
 7576SOL     OW34363   3.423   2.038   8.391 -0.1657  0.2814 -0.1863
 7576SOL    HW134364   3.431   2.070   8.480 -1.6297  1.0422 -0.3338
 7576SOL    HW234365   3.361   2.103   8.358 -0.2022 -0.8738 -2.4053
 7577SOL     OW34366   4.269   3.010   5.045  0.3828  0.5158  0.3217
 7577SOL    HW134367   4.255   3.019   5.139  0.9862 -0.2347  0.4821
 7577SOL    HW234368   4.197   3.064   5.011 -0.1979  0.5561  1.5941
 7578SOL     OW34369   3.864   1.920   5.805  0.2281 -0.0919 -0.6912
 7578SOL    HW134370   3.781   1.945   5.765 -1.0410 -1.7488  0.8911
 7578SOL    HW234371   3.881   2.006   5.843 -0.5796  0.5996 -1.8969
 7579SOL     OW34372   2.419   4.144   2.864 -0.3358 -0.1176 -0.1757
 7579SOL    HW134373   2.356   4.095   2.811 -0.4388  0.4595 -0.5841
 7579SOL    HW234374   2.366   4.180   2.936 -0.8370 -0.1492 -0.5288
 7580SOL     OW34375   1.669   1.858   4.981 -0.8863  0.4595 -0.4519
 7580SOL    HW134376   1.730   1.931   4.990 -1.8685  1.0387  1.5545
 7580SOL    HW234377   1.706   1.793   5.040 -0.2120  0.3663 -0.9824
 7581SOL     OW34378   0.589   3.637   5.082 -0.0528 -0.5005 -0.2007
 7581SOL    HW134379   0.642   3.707   5.119  1.1773 -0.4704 -2.0630
 7581SOL    HW234380   0.525   3.629   5.153 -0.6450 -2.1773 -0.9166
 7582SOL     OW34381   3.182   4.619  12.299  0.3294 -0.0298  0.7193
 7582SOL    HW134382   3.111   4.683  12.306  0.5729  0.1239  1.7572
 7582SOL    HW234383   3.139   4.534  12.302 -0.2203  0.2357  0.2936
 7583SOL     OW34384   3.713   1.357   2.582  0.1241  0.8455  0.0881
 7583SOL    HW134385   3.643   1.294   2.600  2.5494 -1.4359  1.4071
 7583SOL    HW234386   3.744   1.381   2.669  2.0996 -3.6810  0.5677
 7584SOL     OW34387   0.429   4.521   0.889  0.7739  0.0099  0.2403
 7584SOL    HW134388   0.392   4.604   0.859 -0.2732 -0.9091 -0.9955
 7584SOL    HW234389   0.455   4.546   0.978  1.3696 -0.5406  0.2232
 7585SOL     OW34390   2.307   2.063  11.834  0.5752  0.0471  0.2491
 7585SOL    HW134391   2.261   2.077  11.751  0.7675  0.3398  0.1919
 7585SOL    HW234392   2.387   2.113  11.822  1.1034 -0.3234  2.2775
 7586SOL     OW34393   2.921   3.383   1.383 -0.1537  0.3206 -0.2345
 7586SOL    HW134394   2.873   3.302   1.372 -0.0722  0.1877  0.4329
 7586SOL    HW234395   2.859   3.450   1.412 -1.9031 -0.3392 -2.4807
 7587SOL     OW34396   3.476   3.475  14.806 -0.4007  0.0875 -0.0479
 7587SOL    HW134397   3.386   3.444  14.813 -0.2800  0.1040  1.5332
 7587SOL    HW234398   3.523   3.392  14.797  1.1177  1.4569 -4.7064
 7588SOL     OW34399   1.031   0.861   7.182  0.6904  0.2861 -0.0158
 7588SOL    HW134400   0.968   0.896   7.246 -0.1788  1.0210 -1.2644
 7588SOL    HW234401   1.083   0.803   7.237 -0.5035  0.6240  1.4752
 7589SOL     OW34402   2.339   2.151   5.192  0.0803 -0.0908  0.4474
 7589SOL    HW134403   2.261   2.095   5.196  0.2292 -0.4423 -2.0483
 7589SOL    HW234404   2.376   2.145   5.281 -1.0068  0.1538  0.9088
 7590SOL     OW34405   0.625   1.954  10.247 -0.1002 -0.0634 -0.7337
 7590SOL    HW134406   0.624   2.001  10.331 -0.7658  1.3889 -1.5714
 7590SOL    HW234407   0.561   1.994  10.189 -0.6460 -2.2180 -1.6142
 7591SOL     OW34408   1.872   0.041   4.761  0.2286 -0.2843 -0.2657
 7591SOL    HW134409   1.891   0.131   4.734  2.5398 -0.5454  0.5041
 7591SOL    HW234410   1.820   0.017   4.685 -0.7318 -0.0048  0.3020
 7592SOL     OW34411   3.581   3.307   7.227  0.8156  0.7087 -0.4971
 7592SOL    HW134412   3.513   3.262   7.277 -1.2289  1.9919 -2.1361
 7592SOL    HW234413   3.549   3.318   7.137 -0.7673  0.4554  0.0330
 7593SOL     OW34414   3.134   4.642  11.683 -0.0838  0.2588 -0.4502
 7593SOL    HW134415   3.188   4.645  11.762 -2.2144  0.5456  1.0088
 7593SOL    HW234416   3.074   4.714  11.703 -0.2136  0.5772 -1.9964
 7594SOL     OW34417   3.179   1.604   2.380 -0.0125 -0.1557  0.4137
 7594SOL    HW134418   3.164   1.682   2.326 -2.1770 -0.0877  1.1276
 7594SOL    HW234419   3.135   1.532   2.334 -1.2252 -0.1107  1.5065
 7595SOL     OW34420   2.510   4.716   2.713  0.3151  0.2681  0.5929
 7595SOL    HW134421   2.513   0.033   2.789 -0.5944  1.6132 -0.3827
 7595SOL    HW234422   2.557   4.644   2.755 -1.4293 -0.3918  1.4013
 7596SOL     OW34423   4.046   3.227   2.431  0.1889 -0.6323  0.1852
 7596SOL    HW134424   4.141   3.222   2.435  0.1564  0.0946  1.7770
 7596SOL    HW234425   4.028   3.138   2.463 -1.8858 -0.5677 -0.7842
 7597SOL     OW34426   1.758   0.918   8.610  0.4008  0.2503  0.2282
 7597SOL    HW134427   1.720   1.006   8.619 -0.9039 -0.1564 -1.3233
 7597SOL    HW234428   1.697   0.865   8.661  1.9097 -0.7606  0.9877
 7598SOL     OW34429   1.149   0.963   3.879 -0.1341  0.1272 -0.3627
 7598SOL    HW134430   1.232   0.931   3.845  0.7008  0.4934  1.3431
 7598SOL    HW234431   1.087   0.942   3.808 -0.7068 -0.5171  0.3251
 7599SOL     OW34432   0.141   1.948  16.941  0.5438  0.0274 -0.3980
 7599SOL    HW134433   0.072   1.959  17.006  0.9199  0.2976 -0.0468
 7599SOL    HW234434   0.178   2.037  16.937 -1.2480  0.7154 -1.6595
 7600SOL     OW34435   2.081   1.457   4.688  0.3443 -0.1263  0.3103
 7600SOL    HW134436   2.123   1.429   4.769 -1.9531 -2.6334  0.6441
 7600SOL    HW234437   2.138   1.528   4.659 -0.2558  0.4045  0.4156
 7601SOL     OW34438   0.874   1.891  12.989  0.3169  0.3746 -0.1612
 7601SOL    HW134439   0.955   1.864  12.945  0.2203 -1.0582  0.5509
 7601SOL    HW234440   0.824   1.933  12.919  0.6804 -0.5481 -0.9749
 7602SOL     OW34441   4.698   2.763   6.487  0.0502 -0.0517  0.1585
 7602SOL    HW134442   4.714   2.690   6.546  1.9148  0.0500 -0.2082
 7602SOL    HW234443   4.669   2.833   6.545  1.5848 -0.8637  1.8952
 7603SOL     OW34444   3.104   0.911   5.869 -0.3230 -0.2581  0.1633
 7603SOL    HW134445   3.192   0.943   5.852  0.2520 -1.2939  1.2812
 7603SOL    HW234446   3.083   0.947   5.955  2.1537 -1.0513  1.0876
 7604SOL     OW34447   1.745   1.158   3.515  0.4732 -0.7030 -0.3359
 7604SOL    HW134448   1.757   1.174   3.608  0.7811  1.0915 -0.6797
 7604SOL    HW234449   1.654   1.187   3.504  0.9787  0.6815 -0.8580
 7605SOL     OW34450   1.549   1.824   5.469 -0.7080 -0.0065  0.0226
 7605SOL    HW134451   1.526   1.737   5.435 -1.4020  0.2316 -0.1109
 7605SOL    HW234452   1.521   1.883   5.399  0.7169  1.3636  0.6022
 7606SOL     OW34453   2.721   1.882   1.310 -0.5702 -0.0145 -0.3181
 7606SOL    HW134454   2.686   1.929   1.234 -1.7448  1.1904  0.9693
 7606SOL    HW234455   2.645   1.837   1.345  0.6816 -0.4427  1.8670
 7607SOL     OW34456   4.091   4.056   7.819 -0.0228 -0.1494 -0.6196
 7607SOL    HW134457   4.052   4.125   7.873  1.7694  2.1351 -2.2391
 7607SOL    HW234458   4.027   3.985   7.830 -1.2320  1.2373  1.2679
 7608SOL     OW34459   0.862   0.999   8.113 -0.0392  0.4701 -0.7395
 7608SOL    HW134460   0.948   0.965   8.134 -1.6449 -2.2373  1.4789
 7608SOL    HW234461   0.850   1.080   8.164 -0.7597 -0.0666 -0.0465
 7609SOL     OW34462   1.671   3.928   8.464  0.0184 -0.0153  0.0463
 7609SOL    HW134463   1.624   3.890   8.539  0.8927  3.8764  2.5341
 7609SOL    HW234464   1.617   3.916   8.386  0.6092 -3.1745  0.1260
 7610SOL     OW34465   0.261   3.763  15.665 -0.2601 -0.0599 -0.1807
 7610SOL    HW134466   0.323   3.791  15.732 -0.6245  1.4259 -0.4441
 7610SOL    HW234467   0.243   3.848  15.624 -0.5232 -0.5184 -1.0104
 7611SOL     OW34468   0.761   1.212  14.585  0.0846 -0.4259  0.2092
 7611SOL    HW134469   0.764   1.255  14.499 -3.5514  1.5817  1.0596
 7611SOL    HW234470   0.827   1.144  14.572  1.9398  1.1975  1.1901
 7612SOL     OW34471   2.164   4.269   3.703 -0.1472 -0.1918 -0.4746
 7612SOL    HW134472   2.157   4.347   3.648  0.7413 -0.3068 -0.7496
 7612SOL    HW234473   2.118   4.204   3.649  1.6093 -0.5235 -1.5509
 7613SOL     OW34474   0.456   0.355   6.205  0.2400 -0.5508 -0.3316
 7613SOL    HW134475   0.473   0.447   6.189  1.4608 -0.8714 -0.8752
 7613SOL    HW234476   0.427   0.326   6.119 -0.1559 -0.4301 -0.2368
 7614SOL     OW34477   0.675   3.843  16.334 -0.1772  0.5214 -0.0645
 7614SOL    HW134478   0.742   3.911  16.322  1.0844 -0.8325 -0.6676
 7614SOL    HW234479   0.602   3.883  16.381  1.1285  1.4102  1.2331
 7615SOL     OW34480   4.643   2.634  14.709  0.2543  0.4905 -0.1515
 7615SOL    HW134481   4.578   2.671  14.649  1.5600  2.0444 -0.6063
 7615SOL    HW234482   4.693   2.585  14.645  3.0594  4.7026 -1.1804
 7616SOL     OW34483   1.785   1.560   4.746 -0.1830 -0.5831 -0.7284
 7616SOL    HW134484   1.870   1.592   4.778  0.2887 -1.8370 -0.7292
 7616SOL    HW234485   1.761   1.490   4.807  2.4960 -0.2835  0.6494
 7617SOL     OW34486   1.065   1.350   3.525  0.4181 -0.5080 -0.1255
 7617SOL    HW134487   1.123   1.322   3.596  0.3804 -0.1094  0.0630
 7617SOL    HW234488   0.987   1.303   3.551 -1.5054  2.8681  0.2420
 7618SOL     OW34489   4.435   2.448   9.128  0.2480  0.1472  0.1938
 7618SOL    HW134490   4.492   2.376   9.098 -0.7820  0.2372 -1.9973
 7618SOL    HW234491   4.370   2.447   9.057 -1.1698 -0.5147  1.4997
 7619SOL     OW34492   3.834   1.121  14.600 -0.4433 -1.0521 -0.2621
 7619SOL    HW134493   3.749   1.096  14.636 -0.9046  0.0108 -0.6255
 7619SOL    HW234494   3.902   1.055  14.615  0.4100 -0.3498 -1.0521
 7620SOL     OW34495   0.356   4.658  13.049 -0.2007 -0.3505 -0.1338
 7620SOL    HW134496   0.323   4.586  12.995 -1.8268  1.0425 -0.9510
 7620SOL    HW234497   0.405   4.711  12.986  0.5598  1.0676  1.6317
 7621SOL     OW34498   2.692   3.231  15.193  0.2169 -0.7318  0.3899
 7621SOL    HW134499   2.648   3.146  15.185 -1.4610 -0.0404  2.3585
 7621SOL    HW234500   2.665   3.280  15.116  3.1946  1.3728  0.6792
 7622SOL     OW34501   3.051   1.944   8.390 -0.1080 -0.3123  0.2802
 7622SOL    HW134502   3.135   1.897   8.393 -0.8575 -1.6943 -0.4890
 7622SOL    HW234503   3.072   1.997   8.467 -1.3644  0.1624  0.2791
 7623SOL     OW34504   0.875   1.185   3.613 -0.2914  0.4077 -0.0747
 7623SOL    HW134505   0.781   1.169   3.622 -0.4116  2.1315  1.6923
 7623SOL    HW234506   0.881   1.244   3.688 -1.4874 -1.1461  1.2510
 7624SOL     OW34507   2.334   4.714  13.624  0.2545 -0.5971  0.1342
 7624SOL    HW134508   2.342   4.624  13.592 -1.9960 -1.8871  3.1756
 7624SOL    HW234509   2.400   4.709  13.693  0.6105 -1.1539 -0.2532
 7625SOL     OW34510   4.428   2.274   8.209 -0.1295  0.4172 -0.5020
 7625SOL    HW134511   4.417   2.179   8.204 -0.8596  0.4356  0.8876
 7625SOL    HW234512   4.514   2.271   8.251  0.1800 -0.5747 -1.1930
 7626SOL     OW34513   2.124   3.330   0.828 -0.0536 -0.3234 -0.1355
 7626SOL    HW134514   2.072   3.398   0.785  1.8191  0.8428 -0.5766
 7626SOL    HW234515   2.110   3.339   0.923  0.7941  2.3713 -0.2590
 7627SOL     OW34516   3.574   2.606   3.807 -0.2313 -0.5026  0.1275
 7627SOL    HW134517   3.498   2.663   3.793  0.7196  0.2635 -1.8980
 7627SOL    HW234518   3.633   2.675   3.838  1.3125 -0.3845 -3.0556
 7628SOL     OW34519   0.369   4.102   5.994  0.4182  0.1582  0.5900
 7628SOL    HW134520   0.366   4.102   6.089  0.5263 -0.0696  0.5937
 7628SOL    HW234521   0.439   4.037   5.989  1.0906  0.8313  1.2171
 7629SOL     OW34522   0.379   2.702  10.722  0.3300 -0.6443  0.2448
 7629SOL    HW134523   0.473   2.698  10.707  0.3485  1.3514 -0.1501
 7629SOL    HW234524   0.386   2.793  10.750 -0.2030  0.1058 -2.0566
 7630SOL     OW34525   1.323   3.872   3.451  0.2875  0.0043  0.2732
 7630SOL    HW134526   1.271   3.815   3.395  0.8864 -2.8033  2.5251
 7630SOL    HW234527   1.265   3.948   3.459  2.7913  1.8567  0.9176
 7631SOL     OW34528   3.926   3.428   7.419 -0.7116 -0.0183 -0.9258
 7631SOL    HW134529   4.011   3.384   7.415 -0.5409  0.0474  2.0731
 7631SOL    HW234530   3.876   3.373   7.359 -3.2670  0.9164  0.3540
 7632SOL     OW34531   3.416   0.874   6.568 -0.3299 -0.5414 -0.0435
 7632SOL    HW134532   3.337   0.919   6.539  0.1227 -0.1471 -0.6579
 7632SOL    HW234533   3.448   0.930   6.639 -1.9279  0.8221 -0.3991
 7633SOL     OW34534   1.998   2.967   5.067  0.4587  0.0004  0.0168
 7633SOL    HW134535   2.048   3.017   5.131  0.2168 -1.8189  1.6388
 7633SOL    HW234536   1.960   3.039   5.017  0.0126 -1.3410 -1.5971
 7634SOL     OW34537   3.579   2.046   2.765 -0.5144 -0.6083  0.0068
 7634SOL    HW134538   3.628   2.008   2.691 -0.0082  1.7918 -0.8716
 7634SOL    HW234539   3.577   2.131   2.721  0.4553  0.8092  2.7418
 7635SOL     OW34540   0.441   1.731   7.552 -0.1527 -0.0595 -0.5922
 7635SOL    HW134541   0.426   1.652   7.499  0.5874  0.0773 -0.9923
 7635SOL    HW234542   0.387   1.793   7.504 -0.3003  0.2390 -0.0389
 7636SOL     OW34543   0.385   4.203   9.524 -0.2568  0.2816  0.2829
 7636SOL    HW134544   0.405   4.121   9.570  1.7964  0.4358 -0.3235
 7636SOL    HW234545   0.297   4.221   9.559 -0.7210  1.0783 -1.3052
 7637SOL     OW34546   4.185   1.615   8.068  0.0738  0.2224  0.5227
 7637SOL    HW134547   4.147   1.678   8.006  0.6235  0.9450  0.9134
 7637SOL    HW234548   4.104   1.601   8.117 -0.2169 -1.8951 -0.5719
 7638SOL     OW34549   2.831   3.362   1.793 -0.8807  0.4526 -0.0071
 7638SOL    HW134550   2.787   3.352   1.877 -1.6226  1.3708 -0.2830
 7638SOL    HW234551   2.793   3.288   1.746 -1.3094  1.2342 -0.8884
 7639SOL     OW34552   2.802   0.796   5.340  0.4789  0.7393 -0.4597
 7639SOL    HW134553   2.782   0.869   5.398  0.1768  0.6304 -0.4241
 7639SOL    HW234554   2.831   0.840   5.260  0.1592  0.6393 -0.6305
 7640SOL     OW34555   3.875   3.328   3.948  0.4774 -0.4144 -0.0197
 7640SOL    HW134556   3.962   3.294   3.927  0.2704 -1.6848  1.1955
 7640SOL    HW234557   3.836   3.318   3.861 -0.6228 -0.1458  0.4423
 7641SOL     OW34558   2.691   2.380   2.784  0.3696 -0.1546  0.0577
 7641SOL    HW134559   2.735   2.397   2.867  2.1163 -0.0012 -0.8907
 7641SOL    HW234560   2.754   2.324   2.738 -0.2793  0.2397 -1.3101
 7642SOL     OW34561   1.078   1.373   0.144 -0.4945  0.1927 -0.4778
 7642SOL    HW134562   1.056   1.291   0.188 -1.2081  1.0103  0.7038
 7642SOL    HW234563   1.063   1.335   0.058  0.3682  1.2226 -1.0679
 7643SOL     OW34564   3.434   4.256   9.026  0.3587  0.1020 -0.3903
 7643SOL    HW134565   3.437   4.336   9.079 -0.2976  0.1032 -0.3595
 7643SOL    HW234566   3.402   4.190   9.087 -0.8996  1.9034  0.8909
 7644SOL     OW34567   3.695   1.533  11.660  0.0922  0.0899  0.1891
 7644SOL    HW134568   3.709   1.520  11.754 -1.8264 -0.5629  0.3805
 7644SOL    HW234569   3.630   1.604  11.662  2.1861  2.0025 -0.6258
 7645SOL     OW34570   1.706   4.639   6.534 -0.2806  0.2841 -0.0533
 7645SOL    HW134571   1.748   4.598   6.458 -0.0938 -1.2461  0.8692
 7645SOL    HW234572   1.778   4.636   6.597  0.4122 -1.2950 -0.9085
 7646SOL     OW34573   0.257   0.887   1.178  0.3450  0.2048 -0.0791
 7646SOL    HW134574   0.316   0.961   1.193  0.7622 -0.2884  0.7291
 7646SOL    HW234575   0.232   0.907   1.088 -0.8451 -1.6171 -0.1509
 7647SOL     OW34576   1.462   1.978   1.934  0.0691  0.1466 -0.1187
 7647SOL    HW134577   1.555   1.995   1.923  0.1373  0.3979  0.8420
 7647SOL    HW234578   1.419   2.054   1.893 -2.2670 -1.1113 -0.0301
 7648SOL     OW34579   0.569   2.792   9.078 -0.1698  0.2749  0.1639
 7648SOL    HW134580   0.579   2.762   8.988  2.1808  2.2407 -0.2272
 7648SOL    HW234581   0.653   2.766   9.117 -1.1730 -1.0223  1.4616
 7649SOL     OW34582   3.739   3.494   7.615  0.2647 -0.3215  0.2121
 7649SOL    HW134583   3.779   3.440   7.683  3.1261  2.6942  0.9258
 7649SOL    HW234584   3.795   3.469   7.543  1.0152  0.0836  0.6564
 7650SOL     OW34585   3.790   2.614   4.427  0.2660  0.3714  0.0094
 7650SOL    HW134586   3.738   2.571   4.360 -1.0931  0.6257  0.9123
 7650SOL    HW234587   3.724   2.653   4.484 -1.0582 -0.4406 -0.9846
 7651SOL     OW34588   3.541   4.490   1.111  0.0275  0.5281  0.0066
 7651SOL    HW134589   3.498   4.572   1.087 -0.2017  0.0857 -1.0854
 7651SOL    HW234590   3.594   4.469   1.035 -0.6465 -1.8276  0.1631
 7652SOL     OW34591   2.306   4.363  12.152  0.4980  0.1834  1.1191
 7652SOL    HW134592   2.293   4.457  12.141 -2.0957 -0.5249 -2.1184
 7652SOL    HW234593   2.324   4.360  12.246  2.8230 -0.5712  0.6314
 7653SOL     OW34594   4.007   1.091   8.436  0.3625  0.9526 -0.0197
 7653SOL    HW134595   3.982   1.024   8.372 -0.6083  0.8059  0.5107
 7653SOL    HW234596   3.953   1.166   8.413 -2.5328 -0.6866  1.4675
 7654SOL     OW34597   3.140   2.680   8.076  0.6416  0.2203 -0.6173
 7654SOL    HW134598   3.093   2.596   8.074  0.3239  0.4040 -0.9243
 7654SOL    HW234599   3.077   2.726   8.020  0.8121 -0.2029 -1.1599
 7655SOL     OW34600   0.260   0.441  17.206  0.2552  0.0507 -0.0014
 7655SOL    HW134601   0.266   0.349  17.234 -0.4912  0.3862  1.2486
 7655SOL    HW234602   0.271   0.422  17.113 -1.5073  1.4656 -0.4952
 7656SOL     OW34603   0.944   4.359   3.005 -0.8606  0.7773  0.1500
 7656SOL    HW134604   1.029   4.323   3.029 -0.1803  2.7067  0.6086
 7656SOL    HW234605   0.966   4.440   2.958  2.6531 -0.0446  0.3828
 7657SOL     OW34606   4.494   3.436   8.567 -0.1522 -0.1836  0.1100
 7657SOL    HW134607   4.564   3.431   8.501  0.5370  1.0681  0.7470
 7657SOL    HW234608   4.429   3.494   8.528  2.6146  1.2988 -2.2408
 7658SOL     OW34609   3.652   4.542   1.380  0.2397  0.3379 -0.2674
 7658SOL    HW134610   3.671   4.627   1.340 -0.1997 -0.4532 -2.1218
 7658SOL    HW234611   3.633   4.487   1.304 -0.1055  0.2885 -0.1419
 7659SOL     OW34612   1.500   2.477   2.099  0.1798  0.0946 -0.2864
 7659SOL    HW134613   1.489   2.498   2.006  0.5556  0.0822 -0.3338
 7659SOL    HW234614   1.473   2.555   2.147  0.5892  0.8256 -1.2606
 7660SOL     OW34615   3.808   2.242   7.028  0.3348 -0.2281 -0.2840
 7660SOL    HW134616   3.757   2.161   7.029  0.6853 -0.4177  1.1987
 7660SOL    HW234617   3.837   2.239   7.119  1.3416 -0.6469 -0.6201
 7661SOL     OW34618   2.754   1.570  12.917 -0.2981 -0.4662  0.0341
 7661SOL    HW134619   2.753   1.477  12.938 -2.1322 -0.4076  0.2104
 7661SOL    HW234620   2.762   1.563  12.822  0.3969 -0.2684  0.0754
 7662SOL     OW34621   0.635   1.999  13.172 -0.2519 -0.2164 -0.6120
 7662SOL    HW134622   0.700   1.954  13.118  0.8763  0.9820 -0.2542
 7662SOL    HW234623   0.676   2.007  13.258 -0.4152  1.3571 -0.6778
 7663SOL     OW34624   0.782   0.573   0.021 -0.5086  0.0961  0.1692
 7663SOL    HW134625   0.821   0.638  17.720 -0.3699 -0.7614 -0.7149
 7663SOL    HW234626   0.711   0.539  17.724 -1.6788  1.6619  0.7399
 7664SOL     OW34627   1.246   1.279  15.869 -0.4290 -0.4399  0.0324
 7664SOL    HW134628   1.199   1.340  15.927  3.3763  1.3329  1.2414
 7664SOL    HW234629   1.166   1.228  15.858 -0.1950 -0.5381 -1.1882
 7665SOL     OW34630   3.861   1.039   9.257 -0.1399  0.2352  0.2683
 7665SOL    HW134631   3.863   1.129   9.224 -3.9081 -0.2193 -1.1963
 7665SOL    HW234632   3.830   1.059   9.345 -1.6344 -0.8011 -0.0353
 7666SOL     OW34633   2.435   2.558   8.684  0.0800 -0.4522 -0.3506
 7666SOL    HW134634   2.504   2.617   8.652  1.9318 -2.1707  0.4448
 7666SOL    HW234635   2.490   2.482   8.706  0.1149 -0.7352 -1.4258
 7667SOL     OW34636   3.573   1.074  12.680  0.5407 -0.2012 -0.4933
 7667SOL    HW134637   3.656   1.084  12.726  0.8145 -0.5106 -0.9201
 7667SOL    HW234638   3.543   1.163  12.661 -0.8486 -0.2172  1.6482
 7668SOL     OW34639   1.793   1.292  17.545  0.0838  0.6860 -0.1821
 7668SOL    HW134640   1.861   1.351  17.579  1.4845 -0.3777 -1.1384
 7668SOL    HW234641   1.837   1.242  17.476 -2.0626  0.6149 -1.4844
 7669SOL     OW34642   3.413   2.000   9.244 -0.1879 -0.2046  0.2160
 7669SOL    HW134643   3.447   2.088   9.264 -1.5666  0.6182 -1.0670
 7669SOL    HW234644   3.424   1.987   9.150  2.8660 -1.8173  0.7981
 7670SOL     OW34645   2.738   3.885   9.384  0.3634  0.3327  0.5084
 7670SOL    HW134646   2.779   3.861   9.467  0.6905  0.7248  0.4625
 7670SOL    HW234647   2.762   3.978   9.383 -0.0097  0.4199 -0.0050
 7671SOL     OW34648   1.657   4.515   2.321  0.4539 -0.3247 -0.5495
 7671SOL    HW134649   1.674   4.607   2.301  1.3053 -0.4961 -0.6097
 7671SOL    HW234650   1.595   4.530   2.393  0.9658 -0.3586 -0.1053
 7672SOL     OW34651   3.284   1.144   6.041  0.2069  0.2348 -0.1912
 7672SOL    HW134652   3.297   1.113   6.131  0.2499 -0.5844 -0.4759
 7672SOL    HW234653   3.312   1.078   5.978  0.7917 -0.7983  1.1423
 7673SOL     OW34654   2.492   1.224   8.975  0.3678 -0.5573  0.1571
 7673SOL    HW134655   2.551   1.150   8.989  0.9745 -0.0389  0.2955
 7673SOL    HW234656   2.441   1.222   9.056 -2.2878 -2.5753 -1.5611
 7674SOL     OW34657   0.021   0.771   0.826 -0.0774 -0.2394  0.4151
 7674SOL    HW134658   0.116   0.784   0.824 -0.0933 -0.2635 -0.3932
 7674SOL    HW234659   0.004   0.826   0.903 -3.8519  0.6254 -1.0960
 7675SOL     OW34660   3.367   0.920   4.933 -0.1544 -0.5037  0.2097
 7675SOL    HW134661   3.376   0.870   4.852 -0.9141 -0.7355  0.2702
 7675SOL    HW234662   3.350   0.850   4.996 -1.5178  0.2009  0.6414
 7676SOL     OW34663   3.236   3.565   2.529  0.1833  0.4516 -0.1429
 7676SOL    HW134664   3.306   3.580   2.593  0.4539 -3.3369  0.4223
 7676SOL    HW234665   3.281   3.600   2.452  0.7574 -1.6782 -0.7689
 7677SOL     OW34666   2.783   4.283  13.398 -0.3806  0.0192 -0.7549
 7677SOL    HW134667   2.738   4.359  13.434  0.1667  0.3960 -0.8568
 7677SOL    HW234668   2.851   4.333  13.352  0.1524 -0.2738 -0.2825
 7678SOL     OW34669   0.509   1.963   5.645  0.3413 -0.4052 -0.1305
 7678SOL    HW134670   0.451   2.000   5.578 -0.1356 -0.6321  0.1595
 7678SOL    HW234671   0.592   1.978   5.600  1.2491 -1.7414  1.1086
 7679SOL     OW34672   1.271   4.025  10.602  0.1500  0.5502 -0.2013
 7679SOL    HW134673   1.251   3.937  10.572 -3.1211  0.9757  0.7417
 7679SOL    HW234674   1.221   4.032  10.683  2.2754  1.1692  1.0856
 7680SOL     OW34675   2.939   4.313   9.545 -0.1352 -0.4259  0.1161
 7680SOL    HW134676   2.911   4.404   9.553  1.9907  0.1957  0.5357
 7680SOL    HW234677   3.022   4.320   9.499  0.8179  1.1120  2.0622
 7681SOL     OW34678   2.339   4.449   4.516 -0.6426  0.1569  0.4323
 7681SOL    HW134679   2.420   4.455   4.566 -0.5975  1.8306  0.1579
 7681SOL    HW234680   2.384   4.457   4.432  1.8234 -0.5071  1.7162
 7682SOL     OW34681   4.078   1.928   6.266  0.6904  0.4035 -0.1465
 7682SOL    HW134682   4.039   1.846   6.234 -1.4872  2.4238 -2.6553
 7682SOL    HW234683   4.125   1.892   6.341 -1.3431 -0.8803  0.5162
 7683SOL     OW34684   0.776   3.115  12.065 -0.2148 -0.6477 -0.0014
 7683SOL    HW134685   0.832   3.151  12.133  0.3378  0.5706 -1.0971
 7683SOL    HW234686   0.717   3.191  12.060  0.3587 -0.2471 -0.7282
 7684SOL     OW34687   0.168   3.179   1.959 -0.2262 -0.9259 -0.0478
 7684SOL    HW134688   0.259   3.154   1.971  0.8278  2.1975 -1.3913
 7684SOL    HW234689   0.129   3.152   2.042  1.8919 -2.2277  0.5137
 7685SOL     OW34690   0.859   1.577   4.550  0.1480 -0.4349 -0.0681
 7685SOL    HW134691   0.871   1.567   4.644 -1.7840 -2.5936 -0.0408
 7685SOL    HW234692   0.793   1.510   4.530  0.8048 -0.2571 -2.8258
 7686SOL     OW34693   2.601   1.965  16.216 -0.3308  0.4419  0.2321
 7686SOL    HW134694   2.555   2.008  16.144 -0.1672  0.3108  0.0493
 7686SOL    HW234695   2.594   2.034  16.283  2.8079  0.1386  0.8746
 7687SOL     OW34696   1.789   2.547  12.276 -0.0696  0.2765 -0.5230
 7687SOL    HW134697   1.848   2.488  12.229  0.1847 -1.1356  1.5689
 7687SOL    HW234698   1.856   2.572  12.341  0.3275  0.1429 -0.8791
 7688SOL     OW34699   0.644   3.824   4.184 -0.0956  0.6822  0.7034
 7688SOL    HW134700   0.711   3.757   4.172  0.6547  1.7982 -1.3756
 7688SOL    HW234701   0.597   3.794   4.262 -0.6802 -2.6150 -0.9651
 7689SOL     OW34702   0.550   0.796  17.245 -0.0264  0.0828  0.1378
 7689SOL    HW134703   0.497   0.842  17.180 -0.9864 -0.6859  0.3852
 7689SOL    HW234704   0.618   0.756  17.190 -0.2896 -1.8638  1.2462
 7690SOL     OW34705   4.292   2.848   4.328  0.3044 -0.6564 -0.1149
 7690SOL    HW134706   4.203   2.813   4.329  1.2371 -3.0653 -0.7988
 7690SOL    HW234707   4.311   2.853   4.422  2.0977  0.7745 -0.5573
 7691SOL     OW34708   1.719   0.659  13.179  0.6156  0.1250 -0.0700
 7691SOL    HW134709   1.706   0.569  13.210 -1.0545 -0.0484 -1.2440
 7691SOL    HW234710   1.664   0.665  13.100  0.9739  1.8927 -0.1846
 7692SOL     OW34711   4.151   1.483  11.333 -0.5253  0.2223 -0.0387
 7692SOL    HW134712   4.239   1.456  11.361 -0.6909  2.2796  2.4465
 7692SOL    HW234713   4.117   1.460  11.420 -1.0198  0.1091 -0.2579
 7693SOL     OW34714   1.737   3.179  15.413  0.6140 -0.4539 -0.2323
 7693SOL    HW134715   1.757   3.173  15.320 -0.6735  0.4176 -0.5604
 7693SOL    HW234716   1.690   3.263  15.414  0.8552 -0.3430  2.3846
 7694SOL     OW34717   0.854   1.289  13.198 -0.2754 -0.2969  0.0214
 7694SOL    HW134718   0.919   1.314  13.263  0.8000 -1.0361 -0.7830
 7694SOL    HW234719   0.880   1.350  13.128  0.9536 -0.6455  0.1795
 7695SOL     OW34720   2.210   0.013   5.582 -0.8816  0.0021  0.7276
 7695SOL    HW134721   2.264   0.009   5.503 -0.9087  1.0002  0.6665
 7695SOL    HW234722   2.149   0.084   5.566  1.1862  1.5379 -0.4151
 7696SOL     OW34723   4.360   2.985   5.475  0.5516  0.2801 -0.0596
 7696SOL    HW134724   4.339   3.016   5.563  1.9850  0.7534  0.1247
 7696SOL    HW234725   4.290   3.025   5.424  1.3396  2.2527  0.4064
 7697SOL     OW34726   4.257   3.136   8.399 -0.6610  0.3052  0.0307
 7697SOL    HW134727   4.337   3.180   8.431 -0.6232  0.2294  0.0408
 7697SOL    HW234728   4.220   3.116   8.485  0.4393 -0.4499  0.3317
 7698SOL     OW34729   3.864   1.311   9.178  0.2213  0.0821  0.1499
 7698SOL    HW134730   3.863   1.406   9.173  1.4554 -0.0568 -2.9222
 7698SOL    HW234731   3.897   1.302   9.267  1.7896  1.3661 -0.2957
 7699SOL     OW34732   3.257   2.856   4.744 -0.0793  0.1802  0.2736
 7699SOL    HW134733   3.297   2.769   4.752  0.3752  0.3150 -0.6039
 7699SOL    HW234734   3.309   2.909   4.805  0.0783 -0.3293  0.5809
 7700SOL     OW34735   4.184   3.994   6.083  0.4731  0.2390  0.1686
 7700SOL    HW134736   4.151   3.905   6.091 -0.7496  0.3271 -4.1839
 7700SOL    HW234737   4.110   4.031   6.036  1.6303  0.6552 -1.3033
 7701SOL     OW34738   0.618   1.768  12.541  0.0535  0.0152 -0.0281
 7701SOL    HW134739   0.538   1.803  12.501 -0.1994  0.3211  0.7643
 7701SOL    HW234740   0.685   1.832  12.517 -1.5218  1.5107 -0.4308
 7702SOL     OW34741   1.166   3.947   5.633  0.2446  0.5265  0.7875
 7702SOL    HW134742   1.230   4.004   5.677  0.5419  1.2247 -0.5389
 7702SOL    HW234743   1.116   4.014   5.586 -1.6787 -0.0352  2.0739
 7703SOL     OW34744   3.210   2.437  12.092  0.1527 -0.4857 -0.5246
 7703SOL    HW134745   3.241   2.431  12.182 -1.2079 -3.7076 -0.2681
 7703SOL    HW234746   3.160   2.355  12.095 -0.7978  0.1135  0.0214
 7704SOL     OW34747   1.895   3.183   4.913 -0.2056  0.6289 -1.2458
 7704SOL    HW134748   1.891   3.262   4.967  0.6077 -0.3587  0.2877
 7704SOL    HW234749   1.805   3.173   4.884 -1.5365  2.0446  2.3968
 7705SOL     OW34750   4.305   2.745   8.297 -0.3131  0.0400 -0.1357
 7705SOL    HW134751   4.300   2.703   8.383  0.5488  0.0055 -0.1079
 7705SOL    HW234752   4.385   2.709   8.261  0.4658  0.9363  0.6786
 7706SOL     OW34753   2.639   0.007   2.183 -0.1423  0.0739 -0.2228
 7706SOL    HW134754   2.664   0.025   2.274 -0.7379  1.6654 -0.3650
 7706SOL    HW234755   2.723   0.015   2.139  0.9233 -0.7560  1.6627
 7707SOL     OW34756   0.266   3.617   3.997  0.6157 -0.0038  0.4795
 7707SOL    HW134757   0.233   3.546   4.053  1.9884 -1.2221 -0.2503
 7707SOL    HW234758   0.360   3.601   4.001  0.8074  1.2327  0.7642
 7708SOL     OW34759   3.328   2.373   7.087  0.0413  0.5330 -0.3260
 7708SOL    HW134760   3.242   2.413   7.100  0.8234  2.4389 -1.0424
 7708SOL    HW234761   3.359   2.438   7.024 -1.8816  0.4352 -1.3869
 7709SOL     OW34762   4.191   0.904   8.552  0.0490 -0.1091 -0.0538
 7709SOL    HW134763   4.134   0.970   8.511 -0.2748 -0.3886 -0.0569
 7709SOL    HW234764   4.234   0.868   8.474  0.0744  0.2452 -0.2063
 7710SOL     OW34765   1.635   2.121   8.123 -0.2072 -0.2099  0.4152
 7710SOL    HW134766   1.718   2.158   8.152 -0.3473  1.5084 -1.3980
 7710SOL    HW234767   1.643   2.141   8.030 -1.8687 -3.8541 -0.5125
 7711SOL     OW34768   4.701   4.550   6.998 -0.2297 -0.2574 -0.2921
 7711SOL    HW134769   4.688   4.573   6.906  1.2404  0.7133 -0.2549
 7711SOL    HW234770   0.005   4.630   7.026 -0.3638 -0.1713 -0.3305
 7712SOL     OW34771   2.344   3.832   2.978  0.7778  0.7866 -0.4029
 7712SOL    HW134772   2.400   3.775   3.030  0.4906  0.0664 -0.8776
 7712SOL    HW234773   2.378   3.918   3.000  0.4705  0.5459  1.0108
 7713SOL     OW34774   1.718   2.294  15.290  0.5226 -0.1408  0.1893
 7713SOL    HW134775   1.635   2.247  15.298 -0.0145  0.4952 -1.5433
 7713SOL    HW234776   1.721   2.344  15.371  2.6186  0.0090  0.0123
 7714SOL     OW34777   3.271   1.094  11.814  0.4107  0.0525 -0.3618
 7714SOL    HW134778   3.227   1.022  11.770  0.3612 -0.8015  1.0720
 7714SOL    HW234779   3.311   1.049  11.888 -1.6299 -0.3799  0.4786
 7715SOL     OW34780   2.031   2.786   6.032 -0.1769 -0.0674 -0.4546
 7715SOL    HW134781   2.033   2.701   5.988  0.1260  0.0815 -0.7236
 7715SOL    HW234782   2.016   2.842   5.955  2.2557  0.5276 -0.4993
 7716SOL     OW34783   4.715   3.774  15.394  0.1775  0.2992  0.0315
 7716SOL    HW134784   0.017   3.858  15.410 -0.0408  0.1879  1.2103
 7716SOL    HW234785   4.624   3.803  15.398  0.1223  0.3243 -1.3466
 7717SOL     OW34786   1.141   0.872   0.473 -0.0254 -0.1244  0.5066
 7717SOL    HW134787   1.186   0.934   0.530 -2.1332 -0.3711  2.4421
 7717SOL    HW234788   1.049   0.897   0.479 -0.2736 -0.4908 -1.7843
 7718SOL     OW34789   3.826   3.203   3.377  0.0777  0.3398  0.1562
 7718SOL    HW134790   3.798   3.255   3.302  2.4188  0.5090 -0.5924
 7718SOL    HW234791   3.917   3.224   3.396  0.1396  1.5773 -1.5001
 7719SOL     OW34792   1.400   4.660   8.804 -0.5044  0.0359  0.0621
 7719SOL    HW134793   1.439   4.732   8.853 -1.5163  1.2782 -0.9841
 7719SOL    HW234794   1.435   4.591   8.861 -0.1177 -0.2003 -0.4604
 7720SOL     OW34795   3.785   1.134   4.476 -0.1965  0.2057  0.4674
 7720SOL    HW134796   3.690   1.123   4.472 -0.1848  0.1442  0.3557
 7720SOL    HW234797   3.809   1.164   4.388  1.6388 -1.5715  0.3420
 7721SOL     OW34798   3.277   2.263   8.088 -0.1880 -0.0566 -0.5017
 7721SOL    HW134799   3.208   2.201   8.064  0.8993 -1.5277  0.1274
 7721SOL    HW234800   3.262   2.273   8.182  0.1135  0.5952 -0.5227
 7722SOL     OW34801   0.988   2.699   6.450 -0.2910 -0.6563  0.1548
 7722SOL    HW134802   0.931   2.650   6.509 -1.1881  0.7029  0.4288
 7722SOL    HW234803   1.036   2.755   6.511 -0.4778 -0.0840 -0.2223
 7723SOL     OW34804   3.186   0.298   5.842  0.4364  0.2659  0.9132
 7723SOL    HW134805   3.227   0.304   5.928 -0.3836 -3.2372  1.5666
 7723SOL    HW234806   3.200   0.204   5.827  0.4445  0.3806  0.2044
 7724SOL     OW34807   1.612   1.410   2.996  0.9230  0.3333  1.0465
 7724SOL    HW134808   1.695   1.379   3.031  1.4222  0.0921 -0.3715
 7724SOL    HW234809   1.640   1.495   2.961 -0.2016  0.7474  1.1375
 7725SOL     OW34810   3.619   1.645  16.047  0.0606 -0.0766 -0.2724
 7725SOL    HW134811   3.660   1.589  16.113 -1.3033  2.0769  2.3933
 7725SOL    HW234812   3.613   1.582  15.975  0.0893 -0.0609 -0.2885
 7726SOL     OW34813   0.475   2.881   0.837  0.1894  0.8821 -0.1356
 7726SOL    HW134814   0.491   2.907   0.928  0.8773  2.8237 -0.8156
 7726SOL    HW234815   0.544   2.818   0.817 -0.6484 -0.2538  0.5530
 7727SOL     OW34816   0.727   3.831   3.396  0.2522 -0.2208  0.1674
 7727SOL    HW134817   0.696   3.922   3.394 -0.8235 -0.5763  0.2588
 7727SOL    HW234818   0.646   3.782   3.414  0.9497 -1.3512  0.2362
 7728SOL     OW34819   4.544   2.176   6.208 -0.8197  0.3604  0.5594
 7728SOL    HW134820   4.579   2.265   6.211  0.0855  0.0008  0.7538
 7728SOL    HW234821   4.607   2.136   6.147 -1.4973  1.1445 -0.6621
 7729SOL     OW34822   1.140   3.987  10.846  0.1263  0.7881  0.1638
 7729SOL    HW134823   1.088   3.908  10.861 -0.1334  0.6991 -1.1659
 7729SOL    HW234824   1.077   4.049  10.881  0.3487  1.2825 -0.3146
 7730SOL     OW34825   3.219   1.022   7.958 -0.0423  0.4160 -0.0753
 7730SOL    HW134826   3.231   1.030   7.863 -1.0906  0.1296 -0.2298
 7730SOL    HW234827   3.203   0.929   7.975 -0.8039  0.4639 -0.5163
 7731SOL     OW34828   4.659   2.160  15.939 -0.2570  0.0757 -0.0636
 7731SOL    HW134829   4.677   2.200  15.854  0.0514  0.2178  0.0679
 7731SOL    HW234830   4.730   2.097  15.950  0.0269  0.4345  0.1699
 7732SOL     OW34831   1.548   1.641  10.361 -0.2697 -0.5985 -0.5421
 7732SOL    HW134832   1.529   1.670  10.272 -0.9191 -1.2331 -0.6089
 7732SOL    HW234833   1.543   1.545  10.365  0.4573 -0.6897 -1.6398
 7733SOL     OW34834   1.920   1.625  17.574  0.4341 -0.3202 -0.1764
 7733SOL    HW134835   1.971   1.684  17.518  0.2637 -1.1448 -1.1987
 7733SOL    HW234836   1.967   1.543  17.561 -0.3013 -1.1426  2.3148
 7734SOL     OW34837   3.844   3.587  11.053  0.0271 -0.3228  1.0406
 7734SOL    HW134838   3.903   3.661  11.052 -1.7640  1.1131  1.8338
 7734SOL    HW234839   3.894   3.521  11.100  3.2869  2.3247  1.2481
 7735SOL     OW34840   3.978   3.113   6.617  0.6067 -0.3059 -0.1702
 7735SOL    HW134841   3.941   3.037   6.572 -3.6458  1.3368  0.6321
 7735SOL    HW234842   4.038   3.074   6.681  1.8347  0.7915 -0.6395
 7736SOL     OW34843   4.180   0.586   7.296 -0.7159 -0.4821  0.1167
 7736SOL    HW134844   4.154   0.560   7.384 -0.8698  1.8143  0.7530
 7736SOL    HW234845   4.251   0.649   7.310 -0.9158 -0.3550  0.5602
 7737SOL     OW34846   1.614   2.665  17.173 -0.5839 -0.3932 -0.4536
 7737SOL    HW134847   1.683   2.726  17.200  0.9345 -1.5498 -1.7052
 7737SOL    HW234848   1.555   2.727  17.132 -0.6899 -0.1488  0.0713
 7738SOL     OW34849   1.165   2.513   3.408  0.5587 -0.0065  0.0603
 7738SOL    HW134850   1.137   2.519   3.500 -1.8336 -1.2565 -0.5857
 7738SOL    HW234851   1.209   2.430   3.393 -2.3858 -1.5363 -0.1406
 7739SOL     OW34852   1.285   3.875  11.138 -0.2242  0.0404  0.4955
 7739SOL    HW134853   1.369   3.879  11.094 -1.0396 -4.1396 -1.4489
 7739SOL    HW234854   1.229   3.822  11.081  0.4601 -0.7372  0.5574
 7740SOL     OW34855   1.206   2.788   1.512 -0.4728 -0.0409  0.0016
 7740SOL    HW134856   1.138   2.854   1.499  1.2067  2.1201  2.1208
 7740SOL    HW234857   1.224   2.793   1.606  0.5329 -2.2807 -0.0783
 7741SOL     OW34858   0.510   2.231   1.176 -0.2290 -0.3932 -0.0048
 7741SOL    HW134859   0.498   2.207   1.084  2.0953  0.5913 -0.5563
 7741SOL    HW234860   0.501   2.326   1.169 -2.6133 -0.7311 -1.6110
 7742SOL     OW34861   2.638   3.998   4.328  0.4749  0.1495 -0.3768
 7742SOL    HW134862   2.689   4.068   4.285 -0.1386  1.4071  0.9344
 7742SOL    HW234863   2.711   3.960   4.377 -0.0550 -0.1384  0.1898
 7743SOL     OW34864   1.393   2.655   0.240  0.5243  0.1883 -0.5150
 7743SOL    HW134865   1.319   2.608   0.203 -0.7686  1.7302  0.0959
 7743SOL    HW234866   1.465   2.630   0.182  0.7260 -1.0978  0.3039
 7744SOL     OW34867   1.970   0.774  14.311 -0.1776  0.1389 -0.8984
 7744SOL    HW134868   1.883   0.737  14.297 -1.0406  1.7528  0.1860
 7744SOL    HW234869   2.012   0.694  14.342 -0.3333  0.8465  1.1455
 7745SOL     OW34870   1.834   2.564   6.126  0.3407 -1.2103  0.6726
 7745SOL    HW134871   1.901   2.515   6.173  1.5776  0.7059  0.9065
 7745SOL    HW234872   1.843   2.654   6.157  3.0071 -0.7382 -1.5350
 7746SOL     OW34873   4.534   0.823   5.039  0.2254 -0.2141  0.0171
 7746SOL    HW134874   4.452   0.795   4.998 -0.8652  0.3157  1.8238
 7746SOL    HW234875   4.517   0.808   5.132  1.2908 -2.1665 -0.1003
 7747SOL     OW34876   3.643   0.083   6.550 -0.0327  0.7756  0.0266
 7747SOL    HW134877   3.708   0.153   6.546  0.7612  0.0438 -0.0167
 7747SOL    HW234878   3.674   0.027   6.478  0.2329  0.8920  0.0522
 7748SOL     OW34879   3.071   2.236   8.849  0.4000  0.1096  0.4009
 7748SOL    HW134880   3.090   2.318   8.804  0.3859  0.0408  0.2711
 7748SOL    HW234881   3.114   2.259   8.932  2.5483 -2.4363  0.0057
 7749SOL     OW34882   2.513   3.625   8.152  0.0858 -0.3377 -0.1746
 7749SOL    HW134883   2.499   3.702   8.208 -0.9026 -1.5838  1.2857
 7749SOL    HW234884   2.527   3.663   8.065  0.1429  2.2625  0.9635
 7750SOL     OW34885   1.240   2.075   8.785 -0.1603  0.6991  0.0427
 7750SOL    HW134886   1.279   2.088   8.699 -0.7146  0.6447 -0.2152
 7750SOL    HW234887   1.163   2.019   8.776  0.1122  0.0049  2.0657
 7751SOL     OW34888   4.162   4.308   8.370 -0.4515 -0.5294  0.2550
 7751SOL    HW134889   4.194   4.289   8.459 -0.0015 -0.4644  0.1102
 7751SOL    HW234890   4.243   4.277   8.328 -0.8164  0.2788 -1.0273
 7752SOL     OW34891   1.796   2.361  13.986 -0.2454  0.5909  0.2377
 7752SOL    HW134892   1.874   2.358  14.040 -0.9347 -0.5124  1.1650
 7752SOL    HW234893   1.739   2.397  14.054  0.3733 -0.2903  1.2183
 7753SOL     OW34894   4.067   2.033   4.959 -0.1312  0.5749 -0.4194
 7753SOL    HW134895   3.992   2.085   4.932 -1.2766 -2.1429 -2.4506
 7753SOL    HW234896   4.109   2.030   4.873 -0.4092  0.3176 -0.5458
 7754SOL     OW34897   4.496   3.905   7.353  0.0862 -0.1487 -0.0917
 7754SOL    HW134898   4.496   3.810   7.363 -1.1784 -0.1078  0.3142
 7754SOL    HW234899   4.589   3.925   7.365 -0.5618  2.6111  0.3264
 7755SOL     OW34900   2.138   2.740   7.120  0.5231 -0.5053 -0.4984
 7755SOL    HW134901   2.157   2.832   7.100  0.7585 -0.8239 -1.7109
 7755SOL    HW234902   2.119   2.705   7.033 -0.3017 -1.5550  0.1107
 7756SOL     OW34903   4.272   4.238  14.055  0.2412  0.0546  0.3147
 7756SOL    HW134904   4.206   4.173  14.080 -0.4259 -0.1137 -1.8876
 7756SOL    HW234905   4.287   4.295  14.130 -0.7532 -0.7823  1.1501
 7757SOL     OW34906   0.601   1.419   3.695 -0.1597 -0.5107  0.0932
 7757SOL    HW134907   0.509   1.430   3.718 -0.0439  0.1428  0.2406
 7757SOL    HW234908   0.645   1.465   3.766 -2.6911  1.9929  0.0783
 7758SOL     OW34909   0.748   1.109  10.547 -0.1609 -0.1844  0.0294
 7758SOL    HW134910   0.663   1.151  10.563  0.3080  1.2655 -1.2115
 7758SOL    HW234911   0.771   1.159  10.468 -0.9882  0.5723  0.2606
 7759SOL     OW34912   1.993   0.990   3.151 -0.3656 -0.2560 -0.2530
 7759SOL    HW134913   1.967   0.978   3.242 -1.6470 -0.2143 -0.6159
 7759SOL    HW234914   1.903   1.013   3.129  0.0540  0.0183 -1.7251
 7760SOL     OW34915   0.730   0.224   5.894  0.2909  0.0289  0.0890
 7760SOL    HW134916   0.750   0.300   5.839  1.3108 -0.5858 -0.3822
 7760SOL    HW234917   0.654   0.257   5.943 -0.2512  0.0680 -0.7934
 7761SOL     OW34918   3.635   2.911   5.253  0.4537 -0.1233 -0.1694
 7761SOL    HW134919   3.668   2.920   5.343 -1.1232  2.4010  0.1553
 7761SOL    HW234920   3.639   2.816   5.246  3.7290  0.0147  0.0395
 7762SOL     OW34921   1.005   3.687   8.043 -0.0745 -0.6081  0.3569
 7762SOL    HW134922   0.920   3.678   8.000 -0.3781  4.3876 -0.0683
 7762SOL    HW234923   0.985   3.736   8.122  2.9072 -0.1656  0.8392
 7763SOL     OW34924   4.368   1.634   6.819 -0.1251  0.3121 -0.1736
 7763SOL    HW134925   4.278   1.660   6.801  0.3104  1.4970 -0.6401
 7763SOL    HW234926   4.400   1.724   6.818  1.3956 -0.2001  3.9507
 7764SOL     OW34927   2.749   0.653   7.339 -0.1342 -0.3113  0.0671
 7764SOL    HW134928   2.665   0.670   7.298  0.5122 -2.3394 -2.1185
 7764SOL    HW234929   2.773   0.568   7.300 -0.0576 -0.2503 -0.0172
 7765SOL     OW34930   2.305   3.898   7.354  0.2407  0.4250  0.4646
 7765SOL    HW134931   2.380   3.953   7.331  0.4814 -0.7077 -1.4743
 7765SOL    HW234932   2.249   3.971   7.380 -0.2861  0.5828 -1.1265
 7766SOL     OW34933   3.239   3.253   9.375 -0.1575  0.4957 -0.2699
 7766SOL    HW134934   3.146   3.257   9.397 -0.6453 -0.8144 -2.1237
 7766SOL    HW234935   3.269   3.343   9.391 -1.7470  0.6530  1.7959
 7767SOL     OW34936   2.308   0.565   7.347 -0.3225  0.5089  0.2677
 7767SOL    HW134937   2.258   0.525   7.418 -0.3792  0.6134  0.2866
 7767SOL    HW234938   2.335   0.485   7.301 -1.6031  0.0256  0.3534
 7768SOL     OW34939   2.745   2.814   4.295 -0.3761 -0.6047 -0.0746
 7768SOL    HW134940   2.783   2.728   4.279 -2.6256 -1.3805 -1.3054
 7768SOL    HW234941   2.815   2.853   4.347  0.6185 -0.2589 -1.6829
 7769SOL     OW34942   2.398   0.635   4.245  0.0461  0.5592  0.1945
 7769SOL    HW134943   2.323   0.645   4.303  1.2490  2.3528  1.4485
 7769SOL    HW234944   2.395   0.723   4.208 -0.2440  0.4156 -0.1116
 7770SOL     OW34945   3.153   0.882   6.173 -0.1825  0.0798 -0.0425
 7770SOL    HW134946   3.204   0.832   6.109 -1.0822 -1.5480  0.5144
 7770SOL    HW234947   3.143   0.817   6.242 -1.4830  1.1083  0.7596
 7771SOL     OW34948   2.348   1.107  17.628 -0.4044  0.2484 -0.1526
 7771SOL    HW134949   2.408   1.135  17.559  2.1652 -0.7017  1.6724
 7771SOL    HW234950   2.270   1.116  17.574 -2.1160 -3.6083  1.6481
 7772SOL     OW34951   4.595   3.771  11.169 -0.1332 -0.0261  0.0487
 7772SOL    HW134952   4.578   3.701  11.106 -3.5241  1.0557 -0.2578
 7772SOL    HW234953   4.685   3.757  11.197 -0.3359 -0.2327  0.6118
 7773SOL     OW34954   0.658   3.246   7.105 -0.2297 -0.2685 -0.1142
 7773SOL    HW134955   0.711   3.274   7.031  0.4549 -3.4968 -0.8444
 7773SOL    HW234956   0.602   3.323   7.115 -0.5440 -0.4924 -0.1408
 7774SOL     OW34957   2.357   4.256   7.926  0.0438  0.1853  0.3812
 7774SOL    HW134958   2.382   4.225   8.013 -0.8891  1.8827  1.2562
 7774SOL    HW234959   2.441   4.246   7.882  0.9495  0.3168  2.0960
 7775SOL     OW34960   4.244   0.025   8.386 -0.3753  0.4385 -0.0152
 7775SOL    HW134961   4.232   4.727   8.473  1.1882  0.8082  0.3605
 7775SOL    HW234962   4.259   0.117   8.411  0.9494 -0.0293  0.9070
 7776SOL     OW34963   1.558   4.660   1.508  0.3208 -0.3167 -0.1991
 7776SOL    HW134964   1.603   4.719   1.568 -1.7825  1.0061  0.0516
 7776SOL    HW234965   1.575   4.574   1.549  2.1128  0.2414  0.2314
 7777SOL     OW34966   3.930   2.053   1.531  0.6120  0.1762 -0.2631
 7777SOL    HW134967   3.853   2.095   1.493  2.1862  5.4540  2.4440
 7777SOL    HW234968   3.982   2.056   1.451  0.5631 -0.5391 -0.3267
 7778SOL     OW34969   2.129   2.781   6.280  0.2901 -0.1068  0.0731
 7778SOL    HW134970   2.188   2.706   6.282  1.1002  0.5231 -0.1896
 7778SOL    HW234971   2.110   2.794   6.188  1.6334  2.1932  0.1149
 7779SOL     OW34972   2.030   1.541   9.205 -0.3728 -0.4122 -0.2658
 7779SOL    HW134973   2.116   1.568   9.173 -0.3205  0.5659  0.6773
 7779SOL    HW234974   1.995   1.628   9.224  0.0282 -0.1986 -0.5000
 7780SOL     OW34975   1.921   1.753   5.969 -0.1294  0.2650  0.5446
 7780SOL    HW134976   1.987   1.819   5.989  0.8967 -1.2668  2.2620
 7780SOL    HW234977   1.865   1.798   5.906  1.2196  3.4249  1.5836
 7781SOL     OW34978   1.597   3.469   4.350 -0.1680  0.6251 -0.0608
 7781SOL    HW134979   1.520   3.519   4.378  0.6686  1.7885  0.1753
 7781SOL    HW234980   1.609   3.412   4.426  1.3259  0.4812 -0.4231
 7782SOL     OW34981   0.235   1.811   7.398  0.5070 -0.9850  0.4138
 7782SOL    HW134982   0.186   1.841   7.475  1.2919 -1.6460  1.1671
 7782SOL    HW234983   0.205   1.720   7.404 -0.6062 -0.6349  0.1907
 7783SOL     OW34984   0.257   2.708   5.337  0.2086  0.1409  0.2632
 7783SOL    HW134985   0.323   2.772   5.312 -0.5578  0.4043 -1.0633
 7783SOL    HW234986   0.261   2.713   5.433  0.5820  0.5008  0.2269
 7784SOL     OW34987   3.109   0.599   9.252  0.2708  0.0269 -0.2385
 7784SOL    HW134988   3.065   0.526   9.296  0.1914 -0.9955 -2.0042
 7784SOL    HW234989   3.134   0.655   9.325  0.0770 -0.8922  0.5455
 7785SOL     OW34990   4.089   3.243   3.459  0.0074  0.2887  0.2778
 7785SOL    HW134991   4.142   3.166   3.440 -1.3644 -0.7952  0.8371
 7785SOL    HW234992   4.140   3.313   3.417  2.1369 -1.6899 -0.4219
 7786SOL     OW34993   3.930   1.186   1.996  0.6146 -0.4779 -0.2383
 7786SOL    HW134994   3.844   1.224   2.013 -0.4141 -3.8366  2.0825
 7786SOL    HW234995   3.976   1.265   2.024 -1.3633  0.2723  0.9196
 7787SOL     OW34996   0.380   0.253   5.950  0.3628  0.5023 -0.1041
 7787SOL    HW134997   0.413   0.181   5.895 -0.5119  0.2680 -0.3289
 7787SOL    HW234998   0.294   0.215   5.963  0.0410  1.6512  1.1043
 7788SOL     OW34999   3.649   1.386   7.320 -0.2096 -0.3481  0.1374
 7788SOL    HW135000   3.629   1.358   7.230  1.9563 -0.3489 -0.3391
 7788SOL    HW235001   3.739   1.416   7.316 -0.3716  0.2822  1.4103
 7789SOL     OW35002   3.599   4.007   9.632 -0.5111 -0.0005  0.0690
 7789SOL    HW135003   3.621   4.097   9.657  0.2789  0.2293 -1.5107
 7789SOL    HW235004   3.508   4.006   9.662 -1.6075 -4.8564 -3.4535
 7790SOL     OW35005   0.383   0.492   5.499  0.1810 -0.3216 -0.3618
 7790SOL    HW135006   0.441   0.420   5.475 -2.5645 -2.2330 -1.2530
 7790SOL    HW235007   0.346   0.450   5.576 -0.3012 -1.0485 -0.9876
 7791SOL     OW35008   3.197   2.566   2.422  0.0635 -0.0744  0.0611
 7791SOL    HW135009   3.255   2.512   2.369  1.8903 -0.4406  2.4764
 7791SOL    HW235010   3.188   2.649   2.374 -0.3506 -0.3692 -0.3718
 7792SOL     OW35011   2.676   1.401   4.027  1.0069 -0.4636  0.5456
 7792SOL    HW135012   2.598   1.377   3.977 -0.1677  1.0919  1.6166
 7792SOL    HW235013   2.710   1.319   4.061 -1.8633 -1.6366  0.5510
 7793SOL     OW35014   3.735   2.405  14.637 -0.6820 -0.2289  0.2229
 7793SOL    HW135015   3.644   2.427  14.619 -0.1095  1.3714 -0.6689
 7793SOL    HW235016   3.753   2.317  14.604 -2.6811 -0.4715 -0.1771
 7794SOL     OW35017   2.429   0.758   8.780  0.1389 -0.1690 -0.3043
 7794SOL    HW135018   2.432   0.811   8.859  1.4452  0.4906 -0.8021
 7794SOL    HW235019   2.349   0.709   8.801  1.4092 -1.6632  1.0258
 7795SOL     OW35020   2.593   3.533  10.567  0.3275  0.1971  0.0948
 7795SOL    HW135021   2.537   3.532  10.489 -1.4381 -2.4042  1.3714
 7795SOL    HW235022   2.659   3.470  10.539  0.9141  0.8017  0.1338
 7796SOL     OW35023   0.998   3.735  13.685 -0.4958 -0.1427 -0.3673
 7796SOL    HW135024   0.981   3.828  13.697 -2.5100 -0.9685  3.0906
 7796SOL    HW235025   0.924   3.703  13.634 -0.8287 -0.5611  0.3692
 7797SOL     OW35026   2.998   4.119   6.319  0.1830  0.1720 -0.3525
 7797SOL    HW135027   2.956   4.115   6.405  0.1091  1.5773 -0.3357
 7797SOL    HW235028   2.984   4.212   6.304 -0.6151  0.1697  0.3840
 7798SOL     OW35029   3.904   3.344   8.214 -0.1000  0.6396  0.0063
 7798SOL    HW135030   3.902   3.345   8.310  1.5038 -1.8270  0.0524
 7798SOL    HW235031   3.882   3.435   8.196 -1.9217  0.3696  0.7884
 7799SOL     OW35032   1.209   1.512   7.623 -0.0542 -0.3204 -0.1669
 7799SOL    HW135033   1.114   1.505   7.613 -0.1199  2.2543 -1.3813
 7799SOL    HW235034   1.218   1.596   7.578 -2.0810  1.1690  2.2576
 7800SOL     OW35035   1.728   0.401   2.902 -0.1103  0.4812  0.2724
 7800SOL    HW135036   1.704   0.359   2.819 -0.3244  2.3590 -0.6189
 7800SOL    HW235037   1.794   0.336   2.925 -1.3913 -0.4904  1.2163
 7801SOL     OW35038   2.899   3.823   8.291 -0.2204  0.0736 -0.0521
 7801SOL    HW135039   2.845   3.828   8.212 -1.6786  1.5459  1.0457
 7801SOL    HW235040   2.978   3.872   8.268 -0.5787  1.1534  1.0221
 7802SOL     OW35041   4.142   0.420   2.681  0.3767 -0.0369  0.7889
 7802SOL    HW135042   4.202   0.458   2.745  0.6247 -0.9613  1.1144
 7802SOL    HW235043   4.166   0.464   2.600 -0.2376 -1.2145 -0.0419
 7803SOL     OW35044   1.610   4.134   9.437 -0.5912 -0.5194  0.0620
 7803SOL    HW135045   1.686   4.139   9.379  0.2262  0.3748  1.2335
 7803SOL    HW235046   1.576   4.224   9.437 -1.6720 -0.9146 -0.5433
 7804SOL     OW35047   0.621   3.337   5.645  0.4982 -0.7554  0.2410
 7804SOL    HW135048   0.618   3.355   5.738 -2.9609  2.1939 -0.4189
 7804SOL    HW235049   0.713   3.359   5.629 -0.0451  0.8442 -0.7005
 7805SOL     OW35050   4.124   3.123  12.337 -0.3499 -0.4662 -0.2200
 7805SOL    HW135051   4.115   3.217  12.351 -0.0705 -0.5951  0.8190
 7805SOL    HW235052   4.037   3.101  12.371 -1.0283  2.7532  0.1779
 7806SOL     OW35053   2.883   2.531   4.345 -0.0327  0.2105  0.4318
 7806SOL    HW135054   2.926   2.508   4.262 -1.6434 -1.5840  0.0889
 7806SOL    HW235055   2.800   2.482   4.348  0.0152  0.2395  2.4587
 7807SOL     OW35056   1.753   4.022   6.404  0.8551  0.2108 -0.8012
 7807SOL    HW135057   1.757   4.103   6.455  2.8034  1.0176 -2.2508
 7807SOL    HW235058   1.659   4.022   6.387  1.0483 -1.8559 -1.8831
 7808SOL     OW35059   0.302   2.953  15.397  0.8657  0.5186  0.1721
 7808SOL    HW135060   0.300   3.047  15.416 -2.9219  0.4702  0.1030
 7808SOL    HW235061   0.210   2.934  15.417  1.6707  0.1258  3.5620
 7809SOL     OW35062   4.197   2.770   0.537  0.3589  0.0964 -0.1842
 7809SOL    HW135063   4.136   2.697   0.523 -1.0772  0.9328  1.6385
 7809SOL    HW235064   4.225   2.787   0.447 -1.3389 -0.7401 -0.8643
 7810SOL     OW35065   1.409   1.260   5.473  0.0381  0.2401  0.3000
 7810SOL    HW135066   1.387   1.206   5.548 -0.3685  1.1010  0.8008
 7810SOL    HW235067   1.505   1.261   5.471 -0.0066  1.5545 -1.1786
 7811SOL     OW35068   2.746   2.412   7.078  0.1730  0.3033 -0.4571
 7811SOL    HW135069   2.690   2.341   7.049  2.7057 -2.1051  0.5821
 7811SOL    HW235070   2.831   2.377   7.052  0.4594 -0.3034  1.2677
 7812SOL     OW35071   3.762   0.330   4.421 -0.3590  0.2641 -0.0167
 7812SOL    HW135072   3.720   0.416   4.414  0.4555  0.7585  1.1601
 7812SOL    HW235073   3.811   0.333   4.339 -0.0605  1.1358  0.1959
 7813SOL     OW35074   4.615   2.121   9.914 -0.7711  0.3623 -0.0673
 7813SOL    HW135075   4.634   2.182   9.843  1.6323 -1.3673 -0.8991
 7813SOL    HW235076   4.573   2.053   9.862  0.3428  1.8108 -2.8080
 7814SOL     OW35077   0.991   2.711   2.057 -0.4719 -0.8070  0.4518
 7814SOL    HW135078   1.030   2.796   2.038  0.7370 -1.9610 -2.3512
 7814SOL    HW235079   1.063   2.650   2.075  1.2018  0.6742 -1.1576
 7815SOL     OW35080   4.684   0.268  10.983  0.0228 -0.6310  0.3142
 7815SOL    HW135081   0.027   0.314  10.969 -1.2982  1.8390  0.6801
 7815SOL    HW235082   4.642   0.326  11.046  2.1040  1.4950 -0.2888
 7816SOL     OW35083   2.743   3.757   6.389 -0.0454 -0.1574  0.5790
 7816SOL    HW135084   2.657   3.782   6.421 -0.0513  1.2611 -0.5264
 7816SOL    HW235085   2.716   3.691   6.325  0.5794  2.1300 -2.0320
 7817SOL     OW35086   0.492   3.268   1.968  0.5352  0.0414 -0.1966
 7817SOL    HW135087   0.502   3.255   1.874  0.3518 -0.1722 -0.1860
 7817SOL    HW235088   0.523   3.359   1.976  0.4961 -0.0031  0.4670
 7818SOL     OW35089   1.798   1.814   5.576  0.0969  0.2355 -0.0231
 7818SOL    HW135090   1.781   1.835   5.668  0.7261  0.6911 -0.0161
 7818SOL    HW235091   1.709   1.794   5.546 -0.4862  1.1058  1.1438
 7819SOL     OW35092   3.323   0.677   6.056 -0.3192 -0.2606  0.1860
 7819SOL    HW135093   3.412   0.695   6.025 -1.3586  0.2929 -2.3956
 7819SOL    HW235094   3.351   0.642   6.141 -0.8379  2.2203  1.3952
 7820SOL     OW35095   2.217   2.795   1.729  0.0211 -0.2538 -0.2530
 7820SOL    HW135096   2.140   2.747   1.760  0.8495 -1.7912 -0.5913
 7820SOL    HW235097   2.226   2.755   1.642 -2.5954 -0.4819 -0.4084
 7821SOL     OW35098   0.424   0.417  11.829 -0.2814  0.0175 -0.3222
 7821SOL    HW135099   0.356   0.437  11.894 -0.3976  1.3064 -0.8370
 7821SOL    HW235100   0.381   0.450  11.749  0.6185 -1.8853 -1.5806
 7822SOL     OW35101   2.157   3.136   2.195 -0.1185 -0.0228 -1.1894
 7822SOL    HW135102   2.175   3.042   2.202  0.2190  0.0627 -0.9473
 7822SOL    HW235103   2.240   3.174   2.168  0.4884  0.4154  1.2565
 7823SOL     OW35104   1.942   3.214   5.672 -0.3345 -0.1489 -0.3881
 7823SOL    HW135105   2.016   3.259   5.632  1.0249 -0.0503  2.1825
 7823SOL    HW235106   1.931   3.279   5.742  1.5339 -1.1032  0.7894
 7824SOL     OW35107   1.180   0.293   5.616 -0.4441  0.3224 -0.1684
 7824SOL    HW135108   1.145   0.354   5.680  1.3251  1.1979 -0.0418
 7824SOL    HW235109   1.130   0.219   5.650 -1.9939  1.4048 -0.1151
 7825SOL     OW35110   1.985   3.470   2.538  0.1018 -0.3896 -0.3677
 7825SOL    HW135111   2.021   3.488   2.625 -2.5700  0.9212  0.4564
 7825SOL    HW235112   2.035   3.390   2.520 -2.9289 -2.1242 -0.9514
 7826SOL     OW35113   0.985   3.428   7.742  0.2838 -0.3057 -0.2934
 7826SOL    HW135114   0.923   3.473   7.799  1.8623  1.9624 -0.3866
 7826SOL    HW235115   0.931   3.425   7.663 -0.3848 -1.9765  0.2225
 7827SOL     OW35116   1.245   0.777   6.110  0.6439 -0.0552  0.2115
 7827SOL    HW135117   1.304   0.721   6.058 -1.4014  0.2578 -2.4349
 7827SOL    HW235118   1.212   0.710   6.170 -2.7395  1.8828  0.4830
 7828SOL     OW35119   0.349   1.770   4.933 -0.2987  0.5343 -0.0196
 7828SOL    HW135120   0.326   1.851   4.978  3.1647  0.6948  1.4692
 7828SOL    HW235121   0.271   1.716   4.951 -0.4473  0.7786  0.0624
 7829SOL     OW35122   2.659   3.019   6.090 -0.2097  0.5303  0.1490
 7829SOL    HW135123   2.657   3.113   6.070 -0.8761  0.2887 -0.9291
 7829SOL    HW235124   2.733   2.999   6.032  0.3223  1.9290  0.3214
 7830SOL     OW35125   0.392   2.572   9.234 -0.3895 -0.1962  0.0256
 7830SOL    HW135126   0.429   2.639   9.176  3.6908 -1.1121  1.5294
 7830SOL    HW235127   0.388   2.626   9.313  1.9945  0.4151 -0.2489
 7831SOL     OW35128   0.956   0.110  16.346 -0.1289 -0.0030  0.3163
 7831SOL    HW135129   0.913   0.097  16.431 -2.0622  1.2954 -0.4721
 7831SOL    HW235130   0.958   0.018  16.320  1.7494 -0.2184  1.2340
 7832SOL     OW35131   1.470   0.121   8.958 -0.2834  1.2218 -0.4737
 7832SOL    HW135132   1.513   0.149   9.039 -1.7461  1.0174  0.3824
 7832SOL    HW235133   1.391   0.176   8.956 -0.2612  1.3821  2.1757
 7833SOL     OW35134   0.981   4.595   8.062  0.4061  0.2944 -0.1030
 7833SOL    HW135135   0.961   4.599   7.968  1.0678 -1.5141 -0.3209
 7833SOL    HW235136   0.968   4.690   8.068 -2.8812 -0.2501  1.1354
 7834SOL     OW35137   1.220   3.352   8.848 -0.3048 -0.5828  0.6284
 7834SOL    HW135138   1.258   3.292   8.912  1.5240 -1.7165 -1.4863
 7834SOL    HW235139   1.291   3.415   8.862  0.8229 -1.4250 -1.3055
 7835SOL     OW35140   1.474   3.897  12.639 -0.4980 -0.5747  0.4953
 7835SOL    HW135141   1.461   3.991  12.632 -1.6097 -0.8869 -1.5798
 7835SOL    HW235142   1.400   3.866  12.691 -0.1001  1.0001  2.0027
 7836SOL     OW35143   1.576   2.314   0.065 -1.0244 -0.2776  0.4965
 7836SOL    HW135144   1.539   2.300  17.735 -0.7433 -0.3174  0.3833
 7836SOL    HW235145   1.534   2.242   0.113 -1.6933  0.8364  1.5626
 7837SOL     OW35146   0.588   0.021   6.209 -0.5334  0.5026 -0.0865
 7837SOL    HW135147   0.622   0.109   6.193 -1.1371  0.2627 -2.6853
 7837SOL    HW235148   0.493   0.031   6.217 -0.5980 -0.7997  0.7841
 7838SOL     OW35149   4.376   3.255   7.094  0.5493 -0.7366 -0.2857
 7838SOL    HW135150   4.313   3.298   7.035  0.8771 -0.8827 -0.7400
 7838SOL    HW235151   4.316   3.192   7.134  1.1248 -1.3523 -0.4010
 7839SOL     OW35152   0.864   4.164   9.235 -0.2409 -0.5751 -0.3962
 7839SOL    HW135153   0.794   4.118   9.281  0.6643 -0.8430  0.7294
 7839SOL    HW235154   0.908   4.083   9.209  1.0165  0.6432 -2.0299
 7840SOL     OW35155   3.783   4.006  11.752  0.1307 -0.4606  0.0346
 7840SOL    HW135156   3.875   3.996  11.729  0.3852  0.7419  0.4906
 7840SOL    HW235157   3.753   3.916  11.738 -0.9054 -0.2021  0.5588
 7841SOL     OW35158   0.457   3.939  15.514  0.4603  0.4258  0.2545
 7841SOL    HW135159   0.534   3.943  15.570  0.4824  0.1499  0.2468
 7841SOL    HW235160   0.398   4.012  15.530 -0.6624  0.1013 -2.3435
 7842SOL     OW35161   1.213   1.124  11.182  0.1013  0.0434 -0.1417
 7842SOL    HW135162   1.273   1.083  11.119  1.0161  2.1105 -0.6215
 7842SOL    HW235163   1.140   1.063  11.175 -0.2370  0.3825  0.4000
 7843SOL     OW35164   0.547   0.254   9.178  0.4545 -0.2419  0.2345
 7843SOL    HW135165   0.462   0.212   9.170 -0.3184  1.7491 -1.7785
 7843SOL    HW235166   0.600   0.206   9.114  0.4455  1.2681 -0.8931
 7844SOL     OW35167   3.074   0.183   8.941 -0.3041  0.4915 -0.5168
 7844SOL    HW135168   3.155   0.142   8.969 -2.0313 -2.3909  0.1919
 7844SOL    HW235169   3.029   0.188   9.025  2.8039 -3.1363  1.3581
 7845SOL     OW35170   1.655   1.702   2.643 -0.2677 -0.8336 -0.4285
 7845SOL    HW135171   1.711   1.735   2.573  0.2418 -1.6821 -0.4223
 7845SOL    HW235172   1.615   1.626   2.601  0.1436 -0.2629 -1.8699
 7846SOL     OW35173   0.029   1.718   9.251  0.2066 -0.0430  0.5395
 7846SOL    HW135174   0.095   1.690   9.188  0.6185 -0.7341  1.2728
 7846SOL    HW235175   0.081   1.764   9.317  0.4579  3.3175 -1.9879
 7847SOL     OW35176   1.610   1.110   4.299 -0.2761 -0.8960  0.0948
 7847SOL    HW135177   1.633   1.024   4.333 -1.6333 -2.2139 -2.3155
 7847SOL    HW235178   1.552   1.096   4.225 -0.3484  1.1787 -0.2559
 7848SOL     OW35179   0.979   4.287   9.010  0.1573  0.3181  0.0131
 7848SOL    HW135180   0.922   4.241   9.072 -1.7567  0.3278 -1.7318
 7848SOL    HW235181   0.997   4.210   8.956  0.8803  0.1243  0.5254
 7849SOL     OW35182   1.228   2.806   1.781  0.7800  0.4399 -0.8521
 7849SOL    HW135183   1.288   2.879   1.795  2.0143 -0.7922  0.2984
 7849SOL    HW235184   1.153   2.831   1.836  0.6249 -0.5896 -0.6006
 7850SOL     OW35185   4.221   2.741   9.847 -0.3920  0.6254  0.5421
 7850SOL    HW135186   4.185   2.744   9.935 -3.4176  1.2064 -0.7264
 7850SOL    HW235187   4.262   2.655   9.840 -2.2343 -0.3388  1.8088
 7851SOL     OW35188   2.694   2.550   3.441  0.2571 -0.0469  0.4527
 7851SOL    HW135189   2.649   2.497   3.507 -0.3239  1.6152  1.3944
 7851SOL    HW235190   2.650   2.634   3.455  3.2409  1.5370  0.0721
 7852SOL     OW35191   2.742   3.875   8.498 -0.3713  0.2254 -0.4412
 7852SOL    HW135192   2.673   3.877   8.432 -2.4107 -0.8797  1.6476
 7852SOL    HW235193   2.816   3.837   8.451  0.8064  0.5696  1.1331
 7853SOL     OW35194   3.117   4.062   1.053  0.0393 -0.0885  0.2457
 7853SOL    HW135195   3.122   4.006   1.130  0.6488 -1.6375 -0.9173
 7853SOL    HW235196   3.175   4.135   1.073 -1.3262  0.5634  1.8429
 7854SOL     OW35197   4.170   0.150   3.159 -0.0745 -0.4992 -0.0166
 7854SOL    HW135198   4.121   0.130   3.239  1.2774 -1.6889  0.5325
 7854SOL    HW235199   4.138   0.083   3.098 -2.0148  0.6541 -0.2641
 7855SOL     OW35200   2.268   3.478   1.822  0.2386 -0.5061  0.2045
 7855SOL    HW135201   2.213   3.549   1.791  2.0312  0.3079 -1.0695
 7855SOL    HW235202   2.253   3.473   1.917 -0.3196 -0.5815  0.1110
 7856SOL     OW35203   3.633   4.618  10.933  0.2987 -0.0199  0.1710
 7856SOL    HW135204   3.594   4.705  10.922  1.1273  0.2072 -1.0012
 7856SOL    HW235205   3.574   4.575  10.995 -1.5839  0.8558 -0.9918
 7857SOL     OW35206   1.126   2.987   1.239 -0.0315 -0.5668  0.0129
 7857SOL    HW135207   1.061   2.942   1.294 -0.7320  0.5049  0.0735
 7857SOL    HW235208   1.079   2.986   1.156 -2.1019 -0.1922  1.1712
 7858SOL     OW35209   1.600   4.252   5.221 -0.8945 -0.6655 -0.2727
 7858SOL    HW135210   1.584   4.159   5.206  0.2507 -0.5547 -2.1178
 7858SOL    HW235211   1.590   4.248   5.316  0.1756 -1.5984 -0.2004
 7859SOL     OW35212   1.777   3.665  14.081  0.1778 -0.2516  0.3967
 7859SOL    HW135213   1.795   3.642  13.989 -1.3794 -2.4219  0.6413
 7859SOL    HW235214   1.693   3.709  14.068 -0.3209 -1.2279  0.3347
 7860SOL     OW35215   1.962   0.799   7.931 -0.1323  0.1512  0.4173
 7860SOL    HW135216   1.921   0.739   7.994 -0.3745 -0.3742 -0.2368
 7860SOL    HW235217   2.041   0.822   7.979 -1.5444  2.1949  1.7716
 7861SOL     OW35218   0.248   1.535  15.778 -0.3780 -0.0160  0.0908
 7861SOL    HW135219   0.284   1.447  15.764 -1.2050  0.1412 -2.8648
 7861SOL    HW235220   0.270   1.587  15.701  2.1433  0.3434  1.0549
 7862SOL     OW35221   1.878   0.763  10.695  0.0088  0.4013  0.1405
 7862SOL    HW135222   1.885   0.676  10.735  0.3813 -0.2609 -1.3956
 7862SOL    HW235223   1.868   0.731  10.606  0.1650  0.0757  0.2372
 7863SOL     OW35224   0.040   1.925  12.221  0.1199  0.5601 -0.6994
 7863SOL    HW135225   0.087   2.002  12.187 -0.3134  0.9846 -0.3381
 7863SOL    HW235226   0.059   1.931  12.314 -0.1081 -3.3389 -0.4062
 7864SOL     OW35227   2.074   3.562   0.700  0.4810 -0.4387 -0.3660
 7864SOL    HW135228   2.018   3.624   0.653  1.2807  0.6517  0.1241
 7864SOL    HW235229   2.108   3.612   0.775 -2.8224  2.2304 -0.6588
 7865SOL     OW35230   3.338   0.654   5.635  0.3157  0.1172  0.0406
 7865SOL    HW135231   3.309   0.564   5.620  1.6612 -0.5333  1.3062
 7865SOL    HW235232   3.253   0.680   5.672 -0.2465 -0.5703 -0.7837
 7866SOL     OW35233   0.336   2.654   7.161 -0.8772 -0.4131  0.3621
 7866SOL    HW135234   0.412   2.682   7.212  1.2442 -0.2274 -2.8995
 7866SOL    HW235235   0.278   2.730   7.171  0.1947  0.5625 -0.8091
 7867SOL     OW35236   2.450   4.275   9.670 -0.4821  0.2991  0.5521
 7867SOL    HW135237   2.360   4.255   9.694 -0.3792  0.2402  0.8881
 7867SOL    HW235238   2.490   4.302   9.753  0.3908 -1.1363  0.6112
 7868SOL     OW35239   1.952   3.103  10.551 -0.5283 -0.1125  0.6064
 7868SOL    HW135240   2.044   3.117  10.575  0.0516 -0.7025 -1.2668
 7868SOL    HW235241   1.940   3.009  10.560 -2.4898  0.1847  1.0078
 7869SOL     OW35242   4.051   0.254   3.518  0.0835  0.6796  0.4045
 7869SOL    HW135243   3.957   0.273   3.516 -0.0208  0.0467 -1.2223
 7869SOL    HW235244   4.054   0.222   3.608 -0.8443 -1.9883 -0.5334
 7870SOL     OW35245   0.726   2.289   3.880  0.6675 -0.2001  0.0435
 7870SOL    HW135246   0.644   2.337   3.893  0.2675 -0.9551  0.3210
 7870SOL    HW235247   0.765   2.297   3.968 -0.5775 -1.0574  0.6724
 7871SOL     OW35248   3.662   0.614   8.117  0.6468 -0.3709  0.7282
 7871SOL    HW135249   3.670   0.572   8.202  1.2933 -0.0384  0.8314
 7871SOL    HW235250   3.568   0.633   8.109  0.5976 -1.3601 -1.0158
 7872SOL     OW35251   4.683   2.560  10.590 -0.4884  0.5310  0.2614
 7872SOL    HW135252   4.618   2.555  10.519  0.7712  1.1141 -0.9278
 7872SOL    HW235253   4.686   2.472  10.627 -1.5936  0.6698  0.7098
 7873SOL     OW35254   2.829   0.311  16.407  0.5310 -0.1587  0.4045
 7873SOL    HW135255   2.750   0.258  16.407  1.8629 -2.1038  2.1668
 7873SOL    HW235256   2.879   0.267  16.339 -2.6176 -2.0089 -0.6800
 7874SOL     OW35257   0.940   0.638   6.293 -0.0160 -0.6567  0.0889
 7874SOL    HW135258   0.900   0.639   6.380 -0.7267 -1.9420 -0.2230
 7874SOL    HW235259   0.935   0.731   6.270  1.4714 -0.8345 -0.9040
 7875SOL     OW35260   3.348   0.485   9.179 -0.7317 -0.3330  0.6849
 7875SOL    HW135261   3.355   0.483   9.274  1.1401  0.2365  0.5622
 7875SOL    HW235262   3.276   0.548   9.170 -1.0060 -0.7461 -0.0142
 7876SOL     OW35263   2.129   2.127   2.248 -0.2974 -0.3125 -0.4685
 7876SOL    HW135264   2.129   2.183   2.326 -0.1107 -2.3267  1.0014
 7876SOL    HW235265   2.034   2.127   2.238 -0.1003  1.1400 -2.3370
 7877SOL     OW35266   2.931   4.627   5.325  0.5748 -0.4072  0.1355
 7877SOL    HW135267   2.847   4.627   5.280  0.2996 -1.0839  0.6452
 7877SOL    HW235268   2.985   4.598   5.251  1.8935  2.0278  0.1477
 7878SOL     OW35269   1.692   4.300  11.575  0.4065 -0.5257  0.4921
 7878SOL    HW135270   1.724   4.216  11.606  0.3289 -1.5375 -2.1514
 7878SOL    HW235271   1.635   4.267  11.506 -1.6199 -0.6913  2.2290
 7879SOL     OW35272   0.631   4.405   4.596  0.2030  0.1315 -0.3540
 7879SOL    HW135273   0.707   4.363   4.556  1.4001  0.4615  1.5717
 7879SOL    HW235274   0.676   4.423   4.679 -1.5623  1.2702  0.3552
 7880SOL     OW35275   0.055   1.849   1.140 -0.3318 -0.7687  0.0414
 7880SOL    HW135276   0.065   1.823   1.232  1.3127 -1.3828 -0.3090
 7880SOL    HW235277   4.700   1.850   1.133 -0.4235  1.3947  1.6663
 7881SOL     OW35278   0.457   4.282  11.597  0.5828 -0.0856 -0.1090
 7881SOL    HW135279   0.511   4.294  11.519  0.0284 -1.0296 -0.6389
 7881SOL    HW235280   0.475   4.190  11.614 -0.4120 -0.4776 -1.2542
 7882SOL     OW35281   2.235   3.982   6.514  0.3508 -0.0011 -0.0964
 7882SOL    HW135282   2.220   4.075   6.501  1.5256  0.1427 -0.4884
 7882SOL    HW235283   2.327   3.967   6.537 -0.2030  2.4567  3.6736
 7883SOL     OW35284   0.184   2.666   5.611  0.3884 -0.3234  0.0513
 7883SOL    HW135285   0.254   2.604   5.629  0.8155 -0.1439 -0.9782
 7883SOL    HW235286   0.111   2.608   5.590 -0.3680  0.3783  0.7687
 7884SOL     OW35287   3.112   3.188   7.751 -0.0279 -0.0040  0.2466
 7884SOL    HW135288   3.123   3.282   7.764  0.7792  0.2170 -2.0560
 7884SOL    HW235289   3.043   3.202   7.687  2.2409  1.5471 -1.8792
 7885SOL     OW35290   3.404   0.982  14.509  0.1309 -0.7209 -0.4242
 7885SOL    HW135291   3.394   0.939  14.424 -0.1175  1.7300 -1.6506
 7885SOL    HW235292   3.375   0.914  14.568 -0.5850  0.3478  0.4546
 7886SOL     OW35293   3.024   1.562   5.937 -0.0168 -0.1100 -0.7260
 7886SOL    HW135294   3.068   1.481   5.913  0.7393 -0.2244  1.0821
 7886SOL    HW235295   3.069   1.566   6.021  2.5072 -2.4957 -1.9665
 7887SOL     OW35296   3.056   1.736   9.010 -0.1334  0.7417  0.1859
 7887SOL    HW135297   3.095   1.823   9.001  1.1314  0.1977  0.3961
 7887SOL    HW235298   3.121   1.684   9.057  1.1798  0.9880 -1.3307
 7888SOL     OW35299   3.544   0.329   2.412 -0.6121  0.2151  0.2975
 7888SOL    HW135300   3.573   0.417   2.438 -0.9574  0.2064  0.7036
 7888SOL    HW235301   3.536   0.347   2.318 -1.9543 -2.4941 -0.1020
 7889SOL     OW35302   1.231   3.440   7.110  0.5682 -0.0769  0.3871
 7889SOL    HW135303   1.172   3.423   7.183 -0.0750  1.8838  0.3412
 7889SOL    HW235304   1.245   3.352   7.077  0.5394  0.3524 -0.7752
 7890SOL     OW35305   2.054   4.731   3.953  0.3534 -0.2989 -0.1344
 7890SOL    HW135306   2.001   4.690   4.022  1.6160  1.6336  1.9837
 7890SOL    HW235307   1.985   0.040   3.907 -1.0957  1.4343  3.8253
 7891SOL     OW35308   0.830   4.256   4.159 -0.3645  0.1350 -0.2697
 7891SOL    HW135309   0.792   4.344   4.161  0.5147  0.5081 -0.0900
 7891SOL    HW235310   0.808   4.234   4.069  0.3211 -1.9263  0.0831
 7892SOL     OW35311   0.888   1.538  13.051 -0.3739  0.1376  0.1952
 7892SOL    HW135312   0.799   1.573  13.053 -1.0799 -1.6773  0.5606
 7892SOL    HW235313   0.936   1.617  13.025 -0.5000 -0.7441 -2.6573
 7893SOL     OW35314   1.978   2.556   1.546 -1.0523 -0.1238 -0.1627
 7893SOL    HW135315   1.955   2.648   1.558  1.6712  0.4425  0.8918
 7893SOL    HW235316   1.953   2.525   1.633  1.7802 -3.3252 -0.4659
 7894SOL     OW35317   0.214   3.051  12.056 -0.3754  0.2326 -0.1002
 7894SOL    HW135318   0.222   3.146  12.054  0.7245  0.1779  2.9941
 7894SOL    HW235319   0.123   3.033  12.034  0.1821 -1.1421 -1.3103
 7895SOL     OW35320   1.719   2.279   7.204 -0.3488 -0.3595 -0.3002
 7895SOL    HW135321   1.748   2.234   7.124 -0.2972 -1.4708  0.3442
 7895SOL    HW235322   1.631   2.245   7.220  0.3239 -0.9960  2.0563
 7896SOL     OW35323   1.881   3.189   1.979 -0.2868 -0.1065 -0.1130
 7896SOL    HW135324   1.842   3.273   2.002  2.0420  0.6398  1.0555
 7896SOL    HW235325   1.857   3.128   2.049 -1.3738 -0.6021 -0.9088
 7897SOL     OW35326   2.637   0.971   5.126  0.2028 -0.1428 -0.3070
 7897SOL    HW135327   2.712   1.025   5.097  0.4287 -0.8709 -1.0749
 7897SOL    HW235328   2.566   1.035   5.135  0.5185  0.0754  0.5524
 7898SOL     OW35329   3.502   4.447   2.167  0.1653  0.0712 -0.3708
 7898SOL    HW135330   3.509   4.406   2.080  1.4559  0.1083 -0.2869
 7898SOL    HW235331   3.594   4.472   2.170 -0.7784  3.1996  2.4398
 7899SOL     OW35332   1.477   0.384  10.094  0.5585 -0.0659  0.1890
 7899SOL    HW135333   1.450   0.317  10.157  2.4002  0.7581  1.8334
 7899SOL    HW235334   1.407   0.448  10.107  0.2458  0.0162 -1.8814
 7900SOL     OW35335   0.643   2.353   3.358  0.3526  0.0523  0.2279
 7900SOL    HW135336   0.618   2.280   3.302  0.9523  0.4211 -0.5130
 7900SOL    HW235337   0.736   2.332   3.349  0.7467  1.7059  0.3588
 7901SOL     OW35338   2.046   0.641   5.071 -0.3515  0.7402  0.6355
 7901SOL    HW135339   2.025   0.730   5.042 -1.0117 -0.0599 -1.3327
 7901SOL    HW235340   2.124   0.660   5.124 -2.4481  0.9118  3.6437
 7902SOL     OW35341   1.712   0.581   0.409 -0.1315  0.2184  0.0775
 7902SOL    HW135342   1.741   0.672   0.403 -1.4405  0.6077 -0.2559
 7902SOL    HW235343   1.779   0.541   0.352 -0.5277 -0.6693  0.2287
 7903SOL     OW35344   4.657   3.386   8.839  0.6453 -0.1659  0.2488
 7903SOL    HW135345   4.661   3.313   8.901  0.4602  0.1894  0.6801
 7903SOL    HW235346   4.581   3.435   8.871  1.0378 -0.1368  1.1445
 7904SOL     OW35347   2.740   1.191   6.928  0.2162 -0.4282 -0.0446
 7904SOL    HW135348   2.683   1.267   6.940 -0.5160 -0.7500 -1.4308
 7904SOL    HW235349   2.675   1.126   6.900 -1.2304  0.4493  1.2476
 7905SOL     OW35350   3.765   1.249  16.053  0.6839 -0.2183  0.5658
 7905SOL    HW135351   3.768   1.257  15.958 -0.0397  0.2659  0.5865
 7905SOL    HW235352   3.751   1.340  16.079  0.7413 -0.4298  1.3257
 7906SOL     OW35353   4.513   0.879  12.759 -0.1756 -0.3697 -0.2678
 7906SOL    HW135354   4.508   0.931  12.679  1.4006 -0.8867 -0.7096
 7906SOL    HW235355   4.424   0.895  12.791  0.2234  1.4269 -0.0924
 7907SOL     OW35356   4.504   3.451   2.495  0.5008 -0.1081  0.4671
 7907SOL    HW135357   4.573   3.478   2.556  0.7239  0.4343 -0.0311
 7907SOL    HW235358   4.424   3.458   2.547  0.0185 -1.8713 -0.0224
 7908SOL     OW35359   4.116   0.461   7.067 -0.1205  0.9397 -0.1331
 7908SOL    HW135360   4.131   0.528   7.134 -0.3793 -0.4846  1.3516
 7908SOL    HW235361   4.186   0.400   7.093 -0.2043  1.0751  0.4156
 7909SOL     OW35362   2.127   4.250   6.002  0.5050  0.1785 -0.3347
 7909SOL    HW135363   2.131   4.230   5.908 -1.8192 -1.4311 -0.0896
 7909SOL    HW235364   2.219   4.259   6.024  0.8483  1.7655 -2.3428
 7910SOL     OW35365   0.473   1.233   2.366  0.2537 -0.0335 -0.0190
 7910SOL    HW135366   0.378   1.234   2.360  0.2069 -0.8756  0.4201
 7910SOL    HW235367   0.492   1.139   2.374  2.0552  0.4415  1.2231
 7911SOL     OW35368   3.827   2.768   2.841  0.3731  0.1217  0.2006
 7911SOL    HW135369   3.815   2.718   2.922  2.3947 -0.9182 -0.1355
 7911SOL    HW235370   3.747   2.820   2.830  0.4105  0.4142  1.2551
 7912SOL     OW35371   2.063   0.148   8.489  0.2499  0.1969 -0.5479
 7912SOL    HW135372   2.112   0.170   8.409  0.4344  1.5617 -0.0687
 7912SOL    HW235373   2.106   0.066   8.511 -0.9837 -0.1419  0.5902
 7913SOL     OW35374   1.117   0.427  12.827 -0.0704  0.3060  0.1832
 7913SOL    HW135375   1.059   0.493  12.864  0.9328  1.9826 -1.2311
 7913SOL    HW235376   1.094   0.351  12.880  0.0756  1.3461  1.7455
 7914SOL     OW35377   0.231   3.267  16.041 -0.3516  0.3265 -0.1297
 7914SOL    HW135378   0.324   3.269  16.064 -0.5873 -3.9259  1.1148
 7914SOL    HW235379   0.185   3.261  16.125  0.9485  3.5349  0.8259
 7915SOL     OW35380   2.297   0.635   5.180  0.1934 -0.0896  0.3103
 7915SOL    HW135381   2.307   0.701   5.249 -0.6567  0.7486 -0.3694
 7915SOL    HW235382   2.371   0.651   5.123  0.1671  0.9259  0.5512
 7916SOL     OW35383   4.297   1.005   0.930 -0.1645  0.3670 -0.2106
 7916SOL    HW135384   4.220   1.048   0.966 -0.9403 -0.8676 -0.3792
 7916SOL    HW235385   4.257   0.926   0.893  1.8617 -0.6338 -0.2209
 7917SOL     OW35386   2.177   3.454  13.652 -0.4525 -0.3932  0.0048
 7917SOL    HW135387   2.177   3.534  13.704 -1.8013 -0.5296  0.2251
 7917SOL    HW235388   2.083   3.435  13.646 -0.3731 -0.8902  0.3425
 7918SOL     OW35389   1.522   3.991   5.614 -0.1903 -0.1161 -0.5638
 7918SOL    HW135390   1.461   4.011   5.684 -1.7574 -1.3222 -1.5806
 7918SOL    HW235391   1.606   3.991   5.659  0.2650 -1.0949 -1.4133
 7919SOL     OW35392   1.337   2.491   9.794  0.3006  0.0604  0.0265
 7919SOL    HW135393   1.281   2.445   9.856 -0.7784  1.6170  0.2121
 7919SOL    HW235394   1.415   2.436   9.792 -0.1899 -0.5876 -2.3117
 7920SOL     OW35395   0.210   3.755   6.031 -0.4158  0.2358 -0.1908
 7920SOL    HW135396   0.268   3.800   6.092 -1.8891  4.1274 -1.6211
 7920SOL    HW235397   0.265   3.759   5.953 -1.2827  0.8725 -0.7720
 7921SOL     OW35398   4.068   2.848   7.113 -0.2413  0.1364 -0.0437
 7921SOL    HW135399   3.984   2.879   7.078  0.0952  0.7218 -0.3298
 7921SOL    HW235400   4.041   2.784   7.180 -0.1285 -1.1054 -1.1899
 7922SOL     OW35401   3.577   0.745   5.553 -0.2968 -0.0009 -0.2176
 7922SOL    HW135402   3.493   0.710   5.580 -0.1003  1.1979  1.9523
 7922SOL    HW235403   3.631   0.667   5.541  2.1173  1.6799 -0.4259
 7923SOL     OW35404   2.869   1.828   4.902 -0.4093  0.4666 -0.6996
 7923SOL    HW135405   2.789   1.790   4.938  0.5388 -1.6925 -0.8374
 7923SOL    HW235406   2.840   1.865   4.819 -0.0894  0.8965 -0.6198
 7924SOL     OW35407   3.354   2.139   3.932 -0.1814  0.0298 -0.0351
 7924SOL    HW135408   3.374   2.205   3.999  1.3229  1.1671 -1.6077
 7924SOL    HW235409   3.434   2.154   3.882 -0.5113 -1.9825 -1.1491
 7925SOL     OW35410   3.704   2.798   3.942  0.1108  0.1039 -0.1632
 7925SOL    HW135411   3.690   2.891   3.924 -2.9672  0.0346  1.9454
 7925SOL    HW235412   3.707   2.804   4.037  1.9118 -2.0868 -0.0855
 7926SOL     OW35413   1.293   1.668   4.000 -0.0081 -0.4056  0.1388
 7926SOL    HW135414   1.324   1.692   3.913 -1.6011  0.7123 -0.1170
 7926SOL    HW235415   1.378   1.640   4.036  0.7622  1.7583 -0.0111
 7927SOL     OW35416   1.882   2.163   2.934 -0.0435  0.2997  0.1507
 7927SOL    HW135417   1.818   2.228   2.906  0.1455  0.2053 -0.5026
 7927SOL    HW235418   1.944   2.216   2.984 -0.7051  0.0107  1.2698
 7928SOL     OW35419   1.482   2.346   4.926  0.0098  0.1755 -0.0118
 7928SOL    HW135420   1.494   2.299   5.009 -2.8230  0.2309  0.4136
 7928SOL    HW235421   1.484   2.437   4.953 -1.6830 -0.0104  0.7490
 7929SOL     OW35422   2.335   2.131   1.669  0.3726 -0.3634  0.2005
 7929SOL    HW135423   2.327   2.045   1.626 -1.0077  0.6515 -1.5610
 7929SOL    HW235424   2.329   2.183   1.589 -3.3359 -2.1570 -0.7098
 7930SOL     OW35425   4.292   3.886   9.171  0.2455  0.1159 -0.3542
 7930SOL    HW135426   4.320   3.822   9.237  0.2172  0.4790  0.0137
 7930SOL    HW235427   4.270   3.954   9.235 -0.8312  0.2702 -0.8932
 7931SOL     OW35428   3.783   1.667   1.706  0.5087 -0.2681 -0.3579
 7931SOL    HW135429   3.746   1.600   1.648  0.4368  1.1448 -1.9183
 7931SOL    HW235430   3.868   1.677   1.663  0.5422  1.7642  0.1917
 7932SOL     OW35431   2.341   2.060   7.723  0.0508 -0.4779  0.1555
 7932SOL    HW135432   2.337   2.143   7.674 -0.1405 -0.8268 -0.4284
 7932SOL    HW235433   2.346   1.991   7.657  0.0239 -1.5546  1.2944
 7933SOL     OW35434   2.689   4.720   4.971  0.2679 -0.0003  0.8253
 7933SOL    HW135435   2.667   0.072   4.984  0.9013  0.3748 -0.8434
 7933SOL    HW235436   2.682   4.709   4.877  2.7444 -1.4282  0.7983
 7934SOL     OW35437   3.435   4.640   3.189  0.3469  0.0956 -0.7054
 7934SOL    HW135438   3.367   4.693   3.147 -0.7341 -0.5335  0.2620
 7934SOL    HW235439   3.446   4.565   3.131 -0.8374 -0.0167 -0.7951
 7935SOL     OW35440   2.641   3.565   1.519  0.1687  0.0784  1.1339
 7935SOL    HW135441   2.569   3.514   1.557 -1.2039  1.0226 -0.1621
 7935SOL    HW235442   2.665   3.629   1.586 -1.3796  0.9959  0.8224
 7936SOL     OW35443   1.759   4.728   4.516  0.5038 -0.0346 -0.2023
 7936SOL    HW135444   1.746   4.637   4.545  0.7764 -0.5874 -1.8317
 7936SOL    HW235445   1.813   4.722   4.437 -0.9182 -1.3173 -1.0900
 7937SOL     OW35446   0.507   4.244   8.610  0.4734 -0.3933  0.8506
 7937SOL    HW135447   0.579   4.307   8.605 -1.6507  1.9761  0.2574
 7937SOL    HW235448   0.556   4.175   8.655 -1.1253 -0.4800  2.4496
 7938SOL     OW35449   2.223   2.573  16.813 -0.1951  0.5329 -0.3706
 7938SOL    HW135450   2.184   2.539  16.733 -0.3353 -3.4656  1.3689
 7938SOL    HW235451   2.181   2.658  16.817 -1.9137 -0.3328 -0.0537
 7939SOL     OW35452   2.353   0.876   4.833  0.0562 -0.0601 -0.1291
 7939SOL    HW135453   2.447   0.895   4.830  0.2634 -0.9356  0.6673
 7939SOL    HW235454   2.324   0.940   4.769  0.4957  0.0178 -0.2538
 7940SOL     OW35455   4.553   1.157   4.352  0.5815 -0.4742 -0.4538
 7940SOL    HW135456   4.560   1.246   4.386 -2.6974  0.0464 -1.1498
 7940SOL    HW235457   4.486   1.174   4.286  0.1562  0.1634  0.1362
 7941SOL     OW35458   2.162   1.074   5.470  0.0086 -0.3183 -0.2105
 7941SOL    HW135459   2.132   1.043   5.555 -0.5024  0.5131 -0.0900
 7941SOL    HW235460   2.099   1.031   5.412 -0.0901 -3.5031  2.3067
 7942SOL     OW35461   0.342   1.265   1.108 -0.6307 -0.3170 -0.1791
 7942SOL    HW135462   0.300   1.282   1.024 -0.0960  0.4448 -0.2907
 7942SOL    HW235463   0.265   1.269   1.166 -0.6500  0.2117 -0.2376
 7943SOL     OW35464   3.953   2.385   1.738  0.3017  0.3074 -0.1591
 7943SOL    HW135465   4.000   2.406   1.819 -1.1599  0.2584  0.6930
 7943SOL    HW235466   3.900   2.309   1.759  0.0145  0.8739  1.2007
 7944SOL     OW35467   2.229   0.704   7.084 -0.1593 -0.1906 -0.5507
 7944SOL    HW135468   2.238   0.762   7.160  0.4584 -0.6394 -0.2762
 7944SOL    HW235469   2.211   0.770   7.018  1.7205  0.8495 -0.0217
 7945SOL     OW35470   0.201   2.640   7.691 -0.0705  0.0719  0.1425
 7945SOL    HW135471   0.115   2.600   7.678 -1.7897  3.5944  0.5509
 7945SOL    HW235472   0.190   2.734   7.676  2.3996  0.1612 -0.9420
 7946SOL     OW35473   4.442   1.181   5.858  0.4075  0.0373 -0.1946
 7946SOL    HW135474   4.361   1.150   5.898  0.9262 -1.4357 -0.2725
 7946SOL    HW235475   4.479   1.095   5.839  1.1897  0.4623 -0.6205
 7947SOL     OW35476   2.518   0.993   6.515  0.1705 -0.4988  0.2600
 7947SOL    HW135477   2.548   1.073   6.558 -0.4712 -0.2498  0.2485
 7947SOL    HW235478   2.593   0.952   6.472 -1.5413 -1.4958 -1.7704
 7948SOL     OW35479   2.249   2.909  16.627  0.2452  0.1380 -0.1215
 7948SOL    HW135480   2.328   2.856  16.639  1.1273  1.3017 -0.8426
 7948SOL    HW235481   2.282   2.951  16.548 -1.6250  2.5730  0.3863
 7949SOL     OW35482   2.395   1.646   3.989  0.4786 -0.1551 -0.5521
 7949SOL    HW135483   2.465   1.708   3.969  0.4048  0.1991  0.2511
 7949SOL    HW235484   2.368   1.616   3.903  0.4985  0.7141 -0.8594
 7950SOL     OW35485   0.790   1.779  17.511  0.0972  0.0207 -0.5407
 7950SOL    HW135486   0.808   1.685  17.503  1.0462  0.0820  0.7330
 7950SOL    HW235487   0.788   1.816  17.423 -2.4830  0.0885 -0.4311
 7951SOL     OW35488   2.861   3.340   4.765 -0.6796  0.1874  0.1762
 7951SOL    HW135489   2.817   3.343   4.680 -2.2639 -1.7890  0.9194
 7951SOL    HW235490   2.803   3.277   4.809  1.5347 -1.8216  0.2150
 7952SOL     OW35491   1.382   3.510   5.382  0.3886 -0.1130 -0.1315
 7952SOL    HW135492   1.384   3.584   5.320  0.7031 -1.2618 -1.4890
 7952SOL    HW235493   1.426   3.548   5.458 -0.0673 -0.5151  0.3278
 7953SOL     OW35494   2.439   1.358  10.318 -0.8109  0.5808  0.0982
 7953SOL    HW135495   2.375   1.315  10.374 -1.8818 -0.5385 -1.9838
 7953SOL    HW235496   2.508   1.293  10.307  0.0325  1.2910  1.2288
 7954SOL     OW35497   0.115   2.613   6.959 -0.0257 -0.3073 -0.1396
 7954SOL    HW135498   0.201   2.623   7.000 -0.2591 -0.0807  0.2881
 7954SOL    HW235499   0.096   2.519   6.949  1.1621 -0.6026  0.4104
 7955SOL     OW35500   0.924   0.115   9.928 -0.3946 -0.6866 -0.0284
 7955SOL    HW135501   0.972   0.185   9.972 -1.0836  0.4468 -1.0675
 7955SOL    HW235502   0.881   0.172   9.863  0.7549  0.1331 -0.0700
 7956SOL     OW35503   0.641   0.071   8.713 -0.0063  0.4884 -0.0196
 7956SOL    HW135504   0.551   0.039   8.721  0.7611 -0.6126  4.0672
 7956SOL    HW235505   0.657   0.039   8.625  0.2903  0.3796  0.0759
 7957SOL     OW35506   3.328   4.607   0.913  0.2858 -0.6042  0.0837
 7957SOL    HW135507   3.413   4.627   0.873 -0.6265  1.8273 -0.6669
 7957SOL    HW235508   3.298   4.528   0.868  0.7324 -0.1905 -0.9433
 7958SOL     OW35509   3.156   4.024   2.587 -0.0153  0.2778 -0.5805
 7958SOL    HW135510   3.184   4.108   2.550  1.7395 -0.1283 -0.1707
 7958SOL    HW235511   3.158   3.968   2.509  2.5241 -0.5063  0.0608
 7959SOL     OW35512   1.982   0.045   3.199  0.0258 -0.3259 -0.0118
 7959SOL    HW135513   2.070   0.047   3.238 -0.3870  0.4680  0.8762
 7959SOL    HW235514   1.935   0.098   3.264  0.4260 -0.3289  0.2848
 7960SOL     OW35515   4.366   2.575   8.802  0.0518  0.0759  0.0822
 7960SOL    HW135516   4.277   2.549   8.825 -1.1193  4.2354  0.1859
 7960SOL    HW235517   4.364   2.670   8.803  0.4367  0.0962 -0.8105
 7961SOL     OW35518   4.412   4.457   7.256 -0.1287  0.2882 -0.2705
 7961SOL    HW135519   4.331   4.419   7.220 -0.7082  0.1623  1.1386
 7961SOL    HW235520   4.451   4.376   7.290  0.2288  0.2912 -0.6758
 7962SOL     OW35521   2.810   0.191   5.899 -0.4486 -0.0676 -0.8224
 7962SOL    HW135522   2.747   0.170   5.829 -0.6147  0.1071 -0.7246
 7962SOL    HW235523   2.831   0.280   5.872 -1.3945 -0.3491 -2.5155
 7963SOL     OW35524   2.760   4.048   3.172 -0.4972 -0.0561 -0.3938
 7963SOL    HW135525   2.792   4.110   3.238 -0.2302  1.4949 -1.9904
 7963SOL    HW235526   2.669   4.039   3.202  0.2139 -1.6742  1.2873
 7964SOL     OW35527   2.056   0.672   1.324  0.6629  0.1046  0.2324
 7964SOL    HW135528   1.996   0.602   1.350 -1.1663  1.4407 -0.4066
 7964SOL    HW235529   1.996   0.729   1.276  2.1972  1.9602  0.5438
 7965SOL     OW35530   1.957   2.865   2.475  0.3032  0.0482  0.1623
 7965SOL    HW135531   1.992   2.813   2.403  0.2219  0.0301  0.1354
 7965SOL    HW235532   2.000   2.822   2.549 -1.8072 -0.8457  0.8881
 7966SOL     OW35533   1.925   1.413   2.023 -0.4636  0.2590 -0.1578
 7966SOL    HW135534   1.910   1.502   1.991  0.2861 -0.2832 -2.0029
 7966SOL    HW235535   1.959   1.378   1.941 -0.4111  0.1407 -0.0854
 7967SOL     OW35536   4.039   0.454  14.381 -0.0051  0.0486  0.3740
 7967SOL    HW135537   4.103   0.430  14.448 -0.6352  0.9550  1.2892
 7967SOL    HW235538   3.988   0.373  14.387  0.1327 -0.0624  0.0639
 7968SOL     OW35539   2.285   3.604   5.819  0.0382 -0.1421 -0.0044
 7968SOL    HW135540   2.202   3.569   5.786 -0.2865  0.9584 -0.3483
 7968SOL    HW235541   2.293   3.699   5.809  0.2150 -0.0900  0.6230
 7969SOL     OW35542   1.028   3.537   7.427 -0.0575  0.2138 -0.0979
 7969SOL    HW135543   0.959   3.537   7.362 -1.5510 -1.3577  1.4788
 7969SOL    HW235544   1.017   3.623   7.468  0.6158  0.0086  0.5209
 7970SOL     OW35545   0.201   3.922   3.258 -0.5865 -0.1787  0.0854
 7970SOL    HW135546   0.280   3.927   3.204 -0.1203  2.3762  1.0153
 7970SOL    HW235547   0.230   3.885   3.342 -2.4682  1.6296  1.5522
 7971SOL     OW35548   3.367   2.298   2.949 -0.0665  0.3774  0.4312
 7971SOL    HW135549   3.404   2.383   2.972  0.9026 -0.3478  1.4973
 7971SOL    HW235550   3.354   2.264   3.037  0.5771 -3.0267 -0.8111
 7972SOL     OW35551   1.315   2.961   9.399 -0.2212  0.0529  0.8278
 7972SOL    HW135552   1.301   2.873   9.434 -1.6819 -0.3451 -0.7774
 7972SOL    HW235553   1.409   2.968   9.415 -0.4486 -0.2635  2.2802
 7973SOL     OW35554   0.947   3.935   3.809  0.1148 -0.2280  0.4763
 7973SOL    HW135555   0.968   3.849   3.773 -1.0805  0.5713 -2.1238
 7973SOL    HW235556   0.992   3.936   3.893  0.8526 -0.2975  0.0813
 7974SOL     OW35557   3.198   2.996  13.574 -0.1965  0.4842 -0.2733
 7974SOL    HW135558   3.210   2.980  13.481 -2.5822 -2.4983 -0.0636
 7974SOL    HW235559   3.276   3.044  13.603  0.1115  0.7769 -1.6133
 7975SOL     OW35560   0.560   3.912   8.955  0.6124  0.2515  0.4339
 7975SOL    HW135561   0.521   3.892   9.040  1.1155 -1.6442  0.2130
 7975SOL    HW235562   0.548   3.829   8.910  3.7389 -0.1211  0.2841
 7976SOL     OW35563   0.629   1.773   3.399 -0.1334 -0.1013 -0.0531
 7976SOL    HW135564   0.704   1.719   3.420 -0.8227 -1.2656 -0.5729
 7976SOL    HW235565   0.599   1.741   3.313 -1.7984  0.3040  0.3693
 7977SOL     OW35566   0.235   0.067  16.756  0.1704  0.5425  0.4425
 7977SOL    HW135567   0.255   0.003  16.688 -2.7774 -0.7837  0.8295
 7977SOL    HW235568   0.159   0.112  16.720  0.7533  1.5436  0.4650
 7978SOL     OW35569   2.349   1.298   2.729 -0.8523 -0.6787 -0.1663
 7978SOL    HW135570   2.343   1.372   2.668  3.8075  0.5881  0.8868
 7978SOL    HW235571   2.316   1.231   2.669 -2.5701  1.2591 -1.4300
 7979SOL     OW35572   4.372   0.407   6.156 -0.2672 -0.1518 -0.3383
 7979SOL    HW135573   4.434   0.420   6.085  1.4962 -1.7225  0.9286
 7979SOL    HW235574   4.433   0.379   6.223 -0.9323  2.0337  1.1540
 7980SOL     OW35575   4.683   1.330   7.776 -0.1033 -0.3975  0.3656
 7980SOL    HW135576   0.021   1.283   7.746  1.1987  1.0874  1.4158
 7980SOL    HW235577   4.709   1.421   7.766  0.4669 -0.4707  1.2145
 7981SOL     OW35578   3.806   3.617   2.473 -0.7403  0.1594 -0.0068
 7981SOL    HW135579   3.742   3.600   2.543 -0.1341 -0.1064  0.4879
 7981SOL    HW235580   3.832   3.526   2.455 -2.6973  0.0480 -2.2219
 7982SOL     OW35581   0.134   4.218   4.483  0.2082  0.0975  0.3491
 7982SOL    HW135582   0.217   4.264   4.479 -1.1335  2.4460 -0.6547
 7982SOL    HW235583   0.159   4.128   4.461 -2.2528 -1.0333  2.1882
 7983SOL     OW35584   0.782   0.102  14.385  0.5338  0.7888 -0.2353
 7983SOL    HW135585   0.698   0.065  14.358  1.4566 -1.1853 -0.3663
 7983SOL    HW235586   0.748   0.178  14.432 -1.0510 -0.6340  0.9110
 7984SOL     OW35587   4.287   1.435  16.559  0.5036 -0.4503  0.5008
 7984SOL    HW135588   4.308   1.464  16.471  1.3934 -1.3185  0.4232
 7984SOL    HW235589   4.370   1.392  16.581  1.2135  0.3108 -0.7035
 7985SOL     OW35590   4.582   1.946   4.971 -0.4640 -0.0424 -0.0187
 7985SOL    HW135591   4.599   1.904   4.887 -0.1827  0.5000 -0.2317
 7985SOL    HW235592   4.571   1.873   5.032  0.4346  1.5372  2.0114
 7986SOL     OW35593   1.547   3.382   8.042  0.2801  0.1278  0.5626
 7986SOL    HW135594   1.558   3.446   8.113  0.2742  0.5861  0.1518
 7986SOL    HW235595   1.615   3.415   7.983  0.0295 -0.3760 -0.0043
 7987SOL     OW35596   2.208   0.654   4.494 -0.3400  0.0922  0.2462
 7987SOL    HW135597   2.148   0.724   4.470 -0.1937  0.0829 -0.1509
 7987SOL    HW235598   2.152   0.582   4.524  0.7113 -0.2584  1.3908
 7988SOL     OW35599   3.020   1.328  16.899  0.2304 -0.0714 -0.1184
 7988SOL    HW135600   3.025   1.423  16.915 -2.5102  0.3604 -1.9691
 7988SOL    HW235601   3.005   1.333  16.805  0.3917 -3.5350 -0.3359
 7989SOL     OW35602   2.720   3.974   5.055  0.1655 -0.0434 -0.7935
 7989SOL    HW135603   2.775   4.002   5.128 -0.3089 -2.7661  0.6166
 7989SOL    HW235604   2.661   4.049   5.042 -1.2929 -0.4582  3.1679
 7990SOL     OW35605   2.264   4.521  17.096 -1.0782 -1.2597 -0.4613
 7990SOL    HW135606   2.296   4.595  17.147 -1.8404  0.6299 -2.6771
 7990SOL    HW235607   2.246   4.461  17.167  1.7013  1.0975  2.2248
 7991SOL     OW35608   2.872   4.638   7.583  0.1948  0.3479 -0.4091
 7991SOL    HW135609   2.947   4.578   7.581  1.3094  1.7137  1.1200
 7991SOL    HW235610   2.799   4.584   7.613  0.0462  1.6425  1.5113
 7992SOL     OW35611   3.530   0.043   6.130  0.2069  0.0418  0.4801
 7992SOL    HW135612   3.580   4.721   6.077  1.1662  0.0532  1.3674
 7992SOL    HW235613   3.520   0.006   6.218 -0.4468  0.6739  0.6717
 7993SOL     OW35614   0.100   1.223   6.775 -0.2422  0.0076  0.2028
 7993SOL    HW135615   0.189   1.258   6.778 -0.5149  0.5297  2.7469
 7993SOL    HW235616   0.087   1.251   6.685  0.4194 -2.4642 -0.6596
 7994SOL     OW35617   4.178   3.886   1.778  0.1839 -0.0052 -0.3286
 7994SOL    HW135618   4.242   3.952   1.804 -1.1487  1.1936 -0.1355
 7994SOL    HW235619   4.094   3.931   1.791 -0.1546 -0.5159 -0.7498
 7995SOL     OW35620   2.845   0.525   3.844 -0.8589  1.3166  0.0301
 7995SOL    HW135621   2.811   0.484   3.765  0.2528  0.6614 -0.1103
 7995SOL    HW235622   2.935   0.521   3.812 -1.1546 -2.6764 -0.2086
 7996SOL     OW35623   1.386   3.133  13.959  0.6650  1.1177  0.0796
 7996SOL    HW135624   1.332   3.132  13.880 -2.1715  2.2109  1.9725
 7996SOL    HW235625   1.363   3.045  13.990  1.4501  0.3769 -1.4251
 7997SOL     OW35626   2.985   4.404   6.327 -0.5790 -0.7546  0.3146
 7997SOL    HW135627   3.048   4.461   6.282  0.6084 -1.3978  1.1795
 7997SOL    HW235628   2.905   4.434   6.285  0.1115  0.6682  0.0003
 7998SOL     OW35629   2.907   0.143  10.678  0.1285 -0.2826 -0.0864
 7998SOL    HW135630   2.909   0.117  10.586 -0.1620 -0.8070  0.0494
 7998SOL    HW235631   2.814   0.159  10.696  0.9206  0.8078  3.0897
 7999SOL     OW35632   1.705   0.839  15.662 -0.5851 -0.6868  0.1474
 7999SOL    HW135633   1.735   0.872  15.747 -0.7838  0.0419 -0.0626
 7999SOL    HW235634   1.656   0.921  15.647  0.7189 -0.1022 -0.9121
 8000SOL     OW35635   0.973   2.912   3.302 -0.4888 -0.7038 -0.1456
 8000SOL    HW135636   0.989   2.820   3.281  2.0085 -0.2121 -0.4896
 8000SOL    HW235637   0.982   2.907   3.398  1.5069  3.2197 -0.1310
 8001SOL     OW35638   4.247   1.899   1.405 -0.3311 -0.4151  0.0918
 8001SOL    HW135639   4.186   1.845   1.457 -1.0519  0.5441  0.2435
 8001SOL    HW235640   4.332   1.856   1.412  0.8729  2.0330  0.6405
 8002SOL     OW35641   3.606   0.901  16.017  0.2055  0.0971  0.8948
 8002SOL    HW135642   3.654   0.821  16.041  0.4472 -0.0762 -0.1668
 8002SOL    HW235643   3.533   0.892  16.078 -1.1687  0.4321 -0.7024
 8003SOL     OW35644   0.738   0.403   3.908  0.1970  0.6697 -0.2471
 8003SOL    HW135645   0.671   0.404   3.976  2.1118  0.8107  1.6602
 8003SOL    HW235646   0.745   0.497   3.892  0.4531  1.4542  4.4458
 8004SOL     OW35647   3.093   4.735   5.799 -0.5618 -0.3236  0.5692
 8004SOL    HW135648   3.006   0.013   5.761 -0.5438 -0.0307  0.6670
 8004SOL    HW235649   3.110   4.654   5.752  0.2626 -0.8835  1.8436
 8005SOL     OW35650   0.574   2.594   4.272 -0.3355  0.2099  0.1657
 8005SOL    HW135651   0.539   2.613   4.359  1.9074 -1.1629  1.4004
 8005SOL    HW235652   0.643   2.530   4.288 -1.3897 -0.8131  0.6186
 8006SOL     OW35653   1.098   1.947  11.869  0.2045 -0.2332  0.4335
 8006SOL    HW135654   1.145   1.871  11.903  1.3139  0.7455  1.0835
 8006SOL    HW235655   1.102   1.929  11.775 -0.0446 -0.7365  0.5152
 8007SOL     OW35656   0.963   1.740   7.388 -0.4505 -0.0867 -0.3686
 8007SOL    HW135657   0.981   1.763   7.479  0.6757 -3.3843  0.2493
 8007SOL    HW235658   1.044   1.770   7.347 -0.9312  1.2107 -0.3612
 8008SOL     OW35659   0.117   2.126   6.759 -0.1305  0.0540 -0.0991
 8008SOL    HW135660   0.164   2.063   6.704 -0.4532 -1.8592  1.7811
 8008SOL    HW235661   0.025   2.120   6.732 -0.2069  1.2934 -0.0911
 8009SOL     OW35662   3.745   2.561   6.042 -0.0760 -0.1812 -0.1685
 8009SOL    HW135663   3.724   2.613   5.964  1.1104 -0.5385 -0.7262
 8009SOL    HW235664   3.654   2.553   6.070 -0.1790  0.7528 -0.2066
 8010SOL     OW35665   1.617   2.289   6.753  0.4460 -0.1919  0.2150
 8010SOL    HW135666   1.589   2.292   6.661 -0.4543 -2.5126  0.4153
 8010SOL    HW235667   1.584   2.368   6.796 -1.6858 -1.0395  0.1231
 8011SOL     OW35668   4.318   4.210   5.936 -0.7680  0.4058 -0.8749
 8011SOL    HW135669   4.281   4.252   6.014 -2.4606  1.2430 -2.1136
 8011SOL    HW235670   4.302   4.118   5.958 -1.2194  0.8650  0.6932
 8012SOL     OW35671   3.383   1.209   3.931  0.2190  0.2272  0.4221
 8012SOL    HW135672   3.293   1.240   3.940  0.3641  0.8577 -0.3161
 8012SOL    HW235673   3.378   1.122   3.972 -0.3644  0.3741  0.6668
 8013SOL     OW35674   2.120   0.777  10.860  0.1016 -0.5572 -0.3169
 8013SOL    HW135675   2.057   0.722  10.906 -2.3417  3.7779  1.4372
 8013SOL    HW235676   2.062   0.806  10.790 -2.0666 -3.5662  0.2157
 8014SOL     OW35677   3.838   3.025   2.103 -0.6117  0.2691 -0.6416
 8014SOL    HW135678   3.904   2.956   2.098 -0.1948  0.5235  1.6084
 8014SOL    HW235679   3.891   3.102   2.086 -1.3242  0.8127 -0.3893
 8015SOL     OW35680   1.370   0.153  12.053 -0.2343  0.1107  0.5301
 8015SOL    HW135681   1.397   0.194  11.971  0.0309 -1.6281 -0.2654
 8015SOL    HW235682   1.396   0.061  12.040  0.9793  0.6798 -1.1546
 8016SOL     OW35683   2.127   1.978   5.252 -0.2882  0.0186 -0.4389
 8016SOL    HW135684   2.144   1.885   5.265 -0.0037  0.5298  2.8982
 8016SOL    HW235685   2.037   1.962   5.282 -0.1902 -1.3043 -0.8680
 8017SOL     OW35686   0.755   0.025   7.124  0.3016 -0.0661  0.6240
 8017SOL    HW135687   0.725   0.041   7.034 -0.5050 -0.7917  0.7660
 8017SOL    HW235688   0.850   0.025   7.111  0.0485  2.0298 -1.2912
 8018SOL     OW35689   4.696   0.122  16.772 -0.4041 -0.2849  0.1035
 8018SOL    HW135690   4.686   0.149  16.863  1.3284 -0.0111  0.2202
 8018SOL    HW235691   4.612   0.146  16.734 -0.6240 -2.9502 -1.0986
 8019SOL     OW35692   4.269   0.563  10.045 -0.1670  0.2519  0.6207
 8019SOL    HW135693   4.337   0.507  10.007 -2.9550 -0.1048 -3.7520
 8019SOL    HW235694   4.221   0.593   9.968 -1.1868 -1.0895  0.7466
 8020SOL     OW35695   0.504   2.103   6.379  0.4711 -0.3989  0.1148
 8020SOL    HW135696   0.471   2.045   6.310 -0.2905 -0.3970  0.4823
 8020SOL    HW235697   0.455   2.184   6.372 -0.3248 -0.7641  1.4224
 8021SOL     OW35698   1.016   2.985  10.900 -0.5297  0.3181  0.7102
 8021SOL    HW135699   1.039   2.916  10.961  0.4998  0.4820  0.5033
 8021SOL    HW235700   1.093   3.042  10.895  0.0143 -0.5080 -0.4603
 8022SOL     OW35701   1.686   0.059  11.821  0.3886  0.1225  0.3364
 8022SOL    HW135702   1.740   0.045  11.899 -0.9516 -2.4258  0.7988
 8022SOL    HW235703   1.656   4.710  11.804 -1.5881  1.0837 -1.1286
 8023SOL     OW35704   2.776   0.222   6.490 -0.6981 -1.0170  0.0256
 8023SOL    HW135705   2.834   0.146   6.490 -0.0222 -0.4861  1.2788
 8023SOL    HW235706   2.692   0.176   6.479  1.3128 -4.3067 -1.5710
 8024SOL     OW35707   2.308   1.213   5.952  0.0546  0.1956 -0.0693
 8024SOL    HW135708   2.317   1.301   5.916 -0.4816 -0.1950 -1.1473
 8024SOL    HW235709   2.381   1.200   6.012  0.0374 -1.0314 -0.3170
 8025SOL     OW35710   4.290   3.357   8.841 -0.5586  0.0684  0.0330
 8025SOL    HW135711   4.337   3.405   8.909  0.8659 -1.2327 -0.0199
 8025SOL    HW235712   4.347   3.295   8.795  1.7294  3.5532 -1.7799
 8026SOL     OW35713   0.460   0.690   1.039 -0.4405  0.6284 -0.2633
 8026SOL    HW135714   0.419   0.687   0.953 -0.3142 -0.1810 -0.3012
 8026SOL    HW235715   0.434   0.774   1.076  1.3832  2.3449 -2.9368
 8027SOL     OW35716   3.254   0.860   9.647 -0.2741  0.1943 -0.4570
 8027SOL    HW135717   3.299   0.908   9.716  1.2988 -0.5787 -0.9393
 8027SOL    HW235718   3.307   0.780   9.648  0.9446  0.9657 -2.1614
 8028SOL     OW35719   4.512   2.430   1.483 -0.3403  0.3701 -0.0653
 8028SOL    HW135720   4.607   2.418   1.477 -0.4559 -0.3407 -0.4018
 8028SOL    HW235721   4.505   2.526   1.477  0.9678  0.5215  0.7606
 8029SOL     OW35722   2.352   0.840   1.620 -0.1961  0.0732  0.0050
 8029SOL    HW135723   2.383   0.823   1.709  2.9083  1.2977 -0.8253
 8029SOL    HW235724   2.416   0.789   1.570 -3.5095 -2.0661 -2.0524
 8030SOL     OW35725   3.440   3.349   0.680  0.2128  0.0046  0.4025
 8030SOL    HW135726   3.470   3.259   0.684  0.1034 -0.0829 -0.5823
 8030SOL    HW235727   3.501   3.385   0.615  1.1006  0.5948  1.5655
 8031SOL     OW35728   2.151   1.122  17.443 -0.2311 -0.3356 -0.2030
 8031SOL    HW135729   2.116   1.033  17.434 -0.5312 -0.2885  0.5161
 8031SOL    HW235730   2.179   1.127  17.351 -1.2779 -2.7028 -0.6346
 8032SOL     OW35731   3.988   2.551   1.077 -0.8159  0.2003  0.6030
 8032SOL    HW135732   3.944   2.494   1.015  0.2593  0.4536 -0.3862
 8032SOL    HW235733   3.914   2.602   1.110  0.0551  2.2992 -0.6760
 8033SOL     OW35734   1.455   3.232   7.395  0.1752  0.3205 -0.3622
 8033SOL    HW135735   1.408   3.301   7.443  0.6424  0.9860 -0.8659
 8033SOL    HW235736   1.509   3.289   7.341 -0.2780  2.0715  0.9984
 8034SOL     OW35737   3.556   0.750  17.408 -0.7384 -0.4396 -0.2333
 8034SOL    HW135738   3.524   0.696  17.335 -1.5799  0.6542 -0.6750
 8034SOL    HW235739   3.499   0.826  17.397 -0.1391 -0.0079 -0.3518
 8035SOL     OW35740   0.436   4.165   6.285  0.5165 -0.2072 -0.5529
 8035SOL    HW135741   0.399   4.248   6.316 -0.5847 -0.6360 -0.7252
 8035SOL    HW235742   0.485   4.132   6.361  0.6168  3.0223  0.7737
 8036SOL     OW35743   2.986   1.613  13.067 -0.1678  0.6654 -0.4325
 8036SOL    HW135744   3.045   1.561  13.013 -1.9431  0.9145 -2.5846
 8036SOL    HW235745   2.909   1.613  13.011 -1.2735 -1.7609  1.0783
 8037SOL     OW35746   3.533   4.088  12.098  0.2253  0.2411  0.2477
 8037SOL    HW135747   3.472   4.051  12.034 -2.2531  2.1920  1.4583
 8037SOL    HW235748   3.608   4.103  12.041 -1.3688  0.4754 -1.7812
 8038SOL     OW35749   0.633   2.780   8.054 -0.0229 -0.1536 -0.1498
 8038SOL    HW135750   0.570   2.769   7.983  0.2691  1.1686 -0.6193
 8038SOL    HW235751   0.715   2.788   8.004 -0.2411  0.0208 -0.4849
 8039SOL     OW35752   0.312   2.398  11.607 -0.1275 -0.1159  0.3039
 8039SOL    HW135753   0.240   2.400  11.544 -0.4389  0.0826  0.6655
 8039SOL    HW235754   0.292   2.483  11.648  0.2887 -1.0667  2.4937
 8040SOL     OW35755   4.302   3.956  16.810 -0.2475 -0.5401  0.1383
 8040SOL    HW135756   4.290   3.897  16.885 -1.2255 -1.6487 -0.8898
 8040SOL    HW235757   4.215   3.962  16.771 -0.2591  3.7459  0.8195
 8041SOL     OW35758   2.988   3.450   9.047 -0.2723  0.5260  0.0903
 8041SOL    HW135759   2.930   3.510   9.093  0.7540  0.9022  0.8811
 8041SOL    HW235760   2.937   3.423   8.970 -0.2378  0.7752 -0.0189
 8042SOL     OW35761   0.448   2.314   5.256  0.0258 -0.4077 -0.5817
 8042SOL    HW135762   0.381   2.272   5.203 -1.0843  2.1368 -1.1828
 8042SOL    HW235763   0.493   2.353   5.181  0.2532  3.4388  1.5441
 8043SOL     OW35764   4.502   3.975   4.722 -0.2113 -0.3220 -0.0205
 8043SOL    HW135765   4.446   3.973   4.644 -0.9584  0.3295  0.5053
 8043SOL    HW235766   4.544   3.890   4.707 -0.2212 -0.5927  1.5173
 8044SOL     OW35767   3.592   0.602   3.093  0.1472 -0.7046 -0.2475
 8044SOL    HW135768   3.556   0.617   3.180  0.6785 -0.5583 -0.0511
 8044SOL    HW235769   3.650   0.529   3.113  1.4059  0.7771  1.4734
 8045SOL     OW35770   2.524   0.361  16.283 -0.1627 -0.3653  0.5089
 8045SOL    HW135771   2.524   0.391  16.374 -0.9438 -0.3374  0.4969
 8045SOL    HW235772   2.531   0.266  16.288 -3.7763 -0.5701  1.7360
 8046SOL     OW35773   0.284   1.403   4.938 -0.3497  0.0759 -0.2240
 8046SOL    HW135774   0.235   1.486   4.933 -3.0405 -1.5608 -1.3649
 8046SOL    HW235775   0.305   1.403   5.031 -0.4017  1.9145 -0.2130
 8047SOL     OW35776   1.998   1.089  10.831  0.7315  0.2300 -0.5447
 8047SOL    HW135777   1.938   1.025  10.870  0.4045  1.4704  0.9578
 8047SOL    HW235778   1.979   1.169  10.880  0.4729  1.5773 -2.8398
 8048SOL     OW35779   2.568   2.554   4.646 -0.2877 -0.9375  0.1415
 8048SOL    HW135780   2.622   2.598   4.711 -0.2826 -1.8833  0.7774
 8048SOL    HW235781   2.571   2.619   4.576 -0.1051  0.3962  1.4056
 8049SOL     OW35782   2.400   1.768   5.256  0.7530  0.2489  0.1495
 8049SOL    HW135783   2.442   1.838   5.206  3.1511 -0.9278  0.5144
 8049SOL    HW235784   2.471   1.715   5.292 -0.1510 -0.3757  1.0329
 8050SOL     OW35785   0.249   2.511   8.514  0.0446  0.2263 -0.6776
 8050SOL    HW135786   0.310   2.536   8.583 -1.4247  0.2987  0.5935
 8050SOL    HW235787   0.199   2.443   8.559 -0.8419 -0.2808 -2.4158
 8051SOL     OW35788   3.730   3.937   9.407 -0.1703 -0.5011  0.9915
 8051SOL    HW135789   3.704   3.919   9.498 -1.9588 -5.3952 -0.5111
 8051SOL    HW235790   3.694   4.026   9.401  0.9674 -0.0654  0.6393
 8052SOL     OW35791   2.610   0.220   3.702 -0.2772 -0.1551  0.1160
 8052SOL    HW135792   2.667   0.280   3.655 -2.7021  1.2404 -1.0380
 8052SOL    HW235793   2.631   0.139   3.655 -1.2739 -0.5893  0.4081
 8053SOL     OW35794   4.244   2.363   2.346 -0.2194 -0.8313  0.0313
 8053SOL    HW135795   4.309   2.413   2.395 -0.3410 -1.9851  1.3864
 8053SOL    HW235796   4.306   2.324   2.285  2.3298  1.4064  1.1909
 8054SOL     OW35797   3.745   0.760   4.893  0.4353  0.0066  0.0177
 8054SOL    HW135798   3.671   0.726   4.842  0.2665 -0.7397  0.7651
 8054SOL    HW235799   3.748   0.694   4.962  1.4695  0.0438  0.0115
 8055SOL     OW35800   1.449   3.912  15.232 -0.5562  0.3935 -0.2444
 8055SOL    HW135801   1.439   4.005  15.214 -0.1374  0.9349  2.3994
 8055SOL    HW235802   1.474   3.882  15.144 -1.2866  1.9865 -0.9935
 8056SOL     OW35803   2.475   3.825  10.925 -0.0197  0.3501  0.6710
 8056SOL    HW135804   2.555   3.867  10.953  0.3362  1.2185 -1.6293
 8056SOL    HW235805   2.509   3.765  10.858 -3.3382  0.9055 -1.5502
 8057SOL     OW35806   3.099   4.375   7.151  0.3916  0.0231 -0.0632
 8057SOL    HW135807   3.128   4.466   7.155  0.3055  0.0999 -1.3995
 8057SOL    HW235808   3.111   4.363   7.057  0.9832  1.9924 -0.2337
 8058SOL     OW35809   0.138   2.169   4.616  0.4114 -0.2337 -0.0194
 8058SOL    HW135810   0.199   2.108   4.659  1.2509  0.0993 -0.7336
 8058SOL    HW235811   0.179   2.160   4.530 -1.4430 -2.0807 -0.7032
 8059SOL     OW35812   3.357   2.523   4.167 -0.2209  0.2799 -0.2357
 8059SOL    HW135813   3.346   2.429   4.183 -2.6111  0.7081  0.6034
 8059SOL    HW235814   3.401   2.517   4.082 -0.5464 -1.1449 -0.3103
 8060SOL     OW35815   3.575   4.246   8.774  0.2178 -0.0474 -0.5062
 8060SOL    HW135816   3.564   4.237   8.868 -1.2166  0.5840 -0.6046
 8060SOL    HW235817   3.489   4.282   8.750 -0.0795 -1.1808 -1.1522
 8061SOL     OW35818   2.590   0.070   4.271 -0.0397 -0.9918 -0.0613
 8061SOL    HW135819   2.584   0.122   4.351 -1.3730 -0.1557 -0.7267
 8061SOL    HW235820   2.634   0.128   4.209  0.1024  0.1783  1.1370
 8062SOL     OW35821   0.290   3.434  16.484  0.2804  0.2619  0.3602
 8062SOL    HW135822   0.241   3.423  16.403  0.4316  1.1729  0.1371
 8062SOL    HW235823   0.222   3.463  16.545  0.2341  1.6933 -0.3649
 8063SOL     OW35824   4.513   0.461   8.446 -0.2171 -0.0048 -0.0052
 8063SOL    HW135825   4.509   0.514   8.526 -0.0912 -0.6597  0.4375
 8063SOL    HW235826   4.564   0.525   8.395  0.2140 -1.3314 -1.2171
 8064SOL     OW35827   2.717   1.539   6.456  0.3829 -0.4385  0.6832
 8064SOL    HW135828   2.788   1.476   6.447 -1.7770 -2.4506 -2.2816
 8064SOL    HW235829   2.754   1.601   6.518 -2.2031 -0.1619  1.9457
 8065SOL     OW35830   3.461   2.957   4.901  0.0681  0.6092 -0.2787
 8065SOL    HW135831   3.514   3.012   4.958 -0.4253  3.5084 -2.5945
 8065SOL    HW235832   3.442   2.884   4.960 -0.0238  3.2845  3.0018
 8066SOL     OW35833   0.324   3.897   2.359 -0.0264  0.2013 -0.1356
 8066SOL    HW135834   0.321   3.984   2.318  1.1214  0.1591 -0.3226
 8066SOL    HW235835   0.232   3.875   2.346 -0.2656 -0.0665  1.9978
 8067SOL     OW35836   0.547   1.528   2.385 -0.8346  0.1302  0.6922
 8067SOL    HW135837   0.463   1.571   2.365 -0.0325  1.1478 -0.5312
 8067SOL    HW235838   0.534   1.442   2.346 -0.4278  1.8270 -3.2447
 8068SOL     OW35839   2.784   3.135   3.928 -0.3854  0.3220 -0.4328
 8068SOL    HW135840   2.724   3.200   3.893  2.3527  0.5799 -4.6665
 8068SOL    HW235841   2.751   3.121   4.017 -0.1638 -2.8368 -0.8567
 8069SOL     OW35842   2.714   1.170   4.403 -0.0695  0.0368 -0.2326
 8069SOL    HW135843   2.703   1.171   4.308  2.1837 -1.1492 -0.5169
 8069SOL    HW235844   2.660   1.101   4.440 -1.8169  0.2547 -2.3858
 8070SOL     OW35845   2.447   4.694   0.629  0.1372 -0.9427 -0.0504
 8070SOL    HW135846   2.437   4.613   0.679  1.0306 -0.4479  0.9326
 8070SOL    HW235847   2.481   4.657   0.549  0.6989 -1.5132  0.4572
 8071SOL     OW35848   2.474   3.746  16.047 -0.0063  0.1345 -0.2131
 8071SOL    HW135849   2.477   3.682  16.118  3.1095  0.9662  0.4252
 8071SOL    HW235850   2.535   3.719  15.979  1.6904  3.6516 -0.1061
 8072SOL     OW35851   2.725   2.024   3.047  0.0938 -0.3973 -0.3156
 8072SOL    HW135852   2.709   1.945   2.995 -0.6047 -0.2577 -0.3138
 8072SOL    HW235853   2.819   2.035   3.034 -0.1680  1.1703 -0.8741
 8073SOL     OW35854   0.908   3.346   9.666 -0.1289  0.1601  0.3006
 8073SOL    HW135855   0.881   3.271   9.612  3.3776 -1.1102  0.2779
 8073SOL    HW235856   0.977   3.385   9.612 -0.1775  0.8958  0.7783
 8074SOL     OW35857   1.302   2.042   5.015  0.0405  0.3010  0.4342
 8074SOL    HW135858   1.233   2.098   4.981 -0.4818 -3.0514 -3.9142
 8074SOL    HW235859   1.360   2.041   4.939  3.2053 -0.0614  2.8640
 8075SOL     OW35860   4.681   1.352   9.736  0.1039 -0.2606  0.2571
 8075SOL    HW135861   4.739   1.426   9.752 -0.2966  0.4497 -1.5531
 8075SOL    HW235862   0.002   1.284   9.708  0.6405  0.4599 -0.3213
 8076SOL     OW35863   2.491   3.022  13.764 -0.1078  0.4357  0.4129
 8076SOL    HW135864   2.422   2.984  13.710  0.1980 -2.6125  2.1447
 8076SOL    HW235865   2.483   3.116  13.749  2.0552  0.8360  1.7682
 8077SOL     OW35866   0.271   2.021   4.974 -0.6227 -0.0593 -0.3654
 8077SOL    HW135867   0.336   2.090   4.988 -0.0263 -0.7683  0.3089
 8077SOL    HW235868   0.202   2.053   5.032 -0.9362  0.8002 -1.1978
 8078SOL     OW35869   4.643   0.187   6.862 -0.1419  0.1754  0.4746
 8078SOL    HW135870   4.708   0.244   6.904  2.6718 -2.4729 -0.2301
 8078SOL    HW235871   4.633   0.112   6.921  0.2817 -0.5246 -0.3474
 8079SOL     OW35872   3.024   2.105   8.112 -0.3379 -0.0795  0.2411
 8079SOL    HW135873   2.992   2.185   8.155 -1.5620  1.9302 -4.3917
 8079SOL    HW235874   2.999   2.035   8.173  2.2835 -0.4562  0.8635
 8080SOL     OW35875   2.520   2.182   8.115 -0.4401  0.7680 -0.4929
 8080SOL    HW135876   2.565   2.115   8.063  2.5449  1.4074  1.2748
 8080SOL    HW235877   2.448   2.136   8.159  0.3063 -0.2854 -0.3697
 8081SOL     OW35878   3.308   0.783  14.679 -0.7620  0.0691  0.4859
 8081SOL    HW135879   3.231   0.826  14.641  0.1216  0.3018 -1.0453
 8081SOL    HW235880   3.285   0.787  14.772  0.2480  1.4235  0.6695
 8082SOL     OW35881   0.361   4.400   1.962 -0.4940  0.2682  0.1953
 8082SOL    HW135882   0.325   4.319   1.927 -0.9997  0.7615 -0.4387
 8082SOL    HW235883   0.446   4.407   1.919  0.7339 -0.0080  2.5660
 8083SOL     OW35884   4.167   3.755   0.963 -0.4044 -0.3726  0.1711
 8083SOL    HW135885   4.078   3.787   0.950 -0.2069 -0.1014 -0.5217
 8083SOL    HW235886   4.221   3.835   0.970 -2.0194  0.8948 -1.6316
 8084SOL     OW35887   3.642   0.560   2.548 -0.3714  0.1803  0.4071
 8084SOL    HW135888   3.623   0.640   2.499  0.9191  0.2780  0.0622
 8084SOL    HW235889   3.714   0.601   2.595  1.2593 -1.2126 -0.8996
 8085SOL     OW35890   3.450   0.703   2.862 -0.5238  0.2196 -0.3382
 8085SOL    HW135891   3.476   0.646   2.935 -3.9634  0.9515  1.4474
 8085SOL    HW235892   3.504   0.780   2.879 -1.2219  0.2633  1.6928
 8086SOL     OW35893   1.236   2.319   6.544 -0.2341  0.3008  0.0321
 8086SOL    HW135894   1.187   2.353   6.619 -0.7401  1.0140 -0.6254
 8086SOL    HW235895   1.194   2.346   6.462  2.4669 -0.5563 -1.6074
 8087SOL     OW35896   0.042   3.154   4.966  0.3906  0.0326  0.2711
 8087SOL    HW135897   0.028   3.229   5.024  0.8096 -0.1937  0.6655
 8087SOL    HW235898   4.692   3.126   4.949  0.3508  0.4300 -0.1815
 8088SOL     OW35899   3.472   0.440   2.720 -0.0755 -0.2060  0.3208
 8088SOL    HW135900   3.530   0.478   2.654 -1.4508  0.6081 -0.4139
 8088SOL    HW235901   3.397   0.499   2.725 -0.2543 -0.2846 -1.5715
 8089SOL     OW35902   2.402   1.906   7.497  0.0579  0.2297 -0.4368
 8089SOL    HW135903   2.365   1.832   7.447 -1.9809  0.6083  0.4936
 8089SOL    HW235904   2.406   1.980   7.437 -3.9973 -0.6067 -1.7542
 8090SOL     OW35905   0.982   3.685   7.015 -0.1623  0.7230  0.2551
 8090SOL    HW135906   1.077   3.672   7.020 -0.3923 -0.9468  0.5388
 8090SOL    HW235907   0.952   3.635   7.092  1.4750  1.4486  1.3708
 8091SOL     OW35908   2.153   0.269   3.198 -0.4490  0.2937  0.1305
 8091SOL    HW135909   2.077   0.250   3.143  2.5929  0.3458 -4.0211
 8091SOL    HW235910   2.233   0.257   3.147 -0.5102  0.1820  0.0598
 8092SOL     OW35911   4.296   4.415   7.982 -0.5449  0.0198 -0.0415
 8092SOL    HW135912   4.304   4.350   8.052  2.0613 -0.1686 -0.5090
 8092SOL    HW235913   4.207   4.447   7.997  0.6464  3.1746  0.1957
 8093SOL     OW35914   2.759   2.212   4.963 -0.0335  0.7099  0.2204
 8093SOL    HW135915   2.666   2.227   4.981 -0.1545  1.1308 -0.7550
 8093SOL    HW235916   2.786   2.156   5.037  1.7173 -0.8422 -1.6062
 8094SOL     OW35917   0.820   1.128   6.523 -0.0226  0.1426  0.1395
 8094SOL    HW135918   0.776   1.158   6.603 -0.5371  1.3356 -0.5939
 8094SOL    HW235919   0.839   1.197   6.460  0.9721 -0.4362 -0.1957
 8095SOL     OW35920   2.017   0.092   5.910  0.0551  0.0570  0.1818
 8095SOL    HW135921   1.935   0.051   5.884  0.6347 -1.5401  0.8950
 8095SOL    HW235922   2.063   0.014   5.939 -0.5258 -1.0968 -1.9761
 8096SOL     OW35923   4.373   1.176   1.955 -0.1496  0.4057 -0.3201
 8096SOL    HW135924   4.389   1.226   1.875  0.8444  0.1376 -0.2792
 8096SOL    HW235925   4.292   1.136   1.923 -1.5667  2.0365  1.2340
 8097SOL     OW35926   4.662   4.312   3.549  0.1513 -0.3569  0.1480
 8097SOL    HW135927   0.016   4.330   3.544  0.6402 -2.5032  1.5025
 8097SOL    HW235928   4.635   4.324   3.458 -2.3100 -0.4178  0.8764
 8098SOL     OW35929   0.072   3.074  10.788 -0.3641 -0.0873 -0.5026
 8098SOL    HW135930   0.108   3.088  10.876 -0.7725  1.0869 -0.5301
 8098SOL    HW235931   4.717   3.069  10.802 -0.3804  0.8115 -0.2796
 8099SOL     OW35932   4.527   0.908  13.616 -0.4273 -0.4404 -0.7427
 8099SOL    HW135933   4.484   0.946  13.693  1.3644 -0.5162  0.2873
 8099SOL    HW235934   4.606   0.875  13.658 -1.8349 -0.2574  2.0324
 8100SOL     OW35935   0.338   4.706  13.898  0.6156  0.2017 -0.4629
 8100SOL    HW135936   0.323   4.711  13.803 -0.5891 -0.4217 -0.3028
 8100SOL    HW235937   0.270   4.642  13.917  3.6218 -3.2979 -1.2640
 8101SOL     OW35938   4.364   0.926  11.853  0.1007  0.4567 -0.3853
 8101SOL    HW135939   4.448   0.882  11.867  0.8996  1.6778 -1.2743
 8101SOL    HW235940   4.383   1.018  11.836  0.7536  0.1881 -1.1193
 8102SOL     OW35941   1.799   1.235   2.195 -0.0453 -0.3331 -0.1273
 8102SOL    HW135942   1.851   1.299   2.145  0.0785 -0.0484  0.3631
 8102SOL    HW235943   1.720   1.285   2.214 -0.8890 -2.6190  2.3446
 8103SOL     OW35944   3.967   2.981   3.837 -0.4432  0.3167 -0.0454
 8103SOL    HW135945   3.997   2.980   3.746 -2.3083  1.3336 -0.6750
 8103SOL    HW235946   3.876   3.010   3.842 -0.4284  0.7127 -2.1878
 8104SOL     OW35947   2.212   4.589   6.459  0.0867  0.1958 -0.1592
 8104SOL    HW135948   2.262   4.539   6.524  0.5867  1.6464  0.5761
 8104SOL    HW235949   2.214   4.528   6.386 -2.0406  1.1500 -1.0117
 8105SOL     OW35950   0.805   2.116  17.286  0.1941 -0.2308 -0.1507
 8105SOL    HW135951   0.804   2.035  17.234 -0.2265  0.6504 -1.5025
 8105SOL    HW235952   0.772   2.184  17.227 -1.1301 -1.3891 -0.7468
 8106SOL     OW35953   0.158   0.511   9.671  0.4337 -0.3796 -0.5318
 8106SOL    HW135954   0.167   0.588   9.616 -0.9355 -0.8877 -1.4553
 8106SOL    HW235955   0.083   0.473   9.625  0.3899 -0.1147 -0.6773
 8107SOL     OW35956   0.613   2.624   2.659 -0.1915  0.5209  0.4026
 8107SOL    HW135957   0.687   2.681   2.641  1.2262 -2.0552 -1.9789
 8107SOL    HW235958   0.588   2.596   2.571 -0.4526  0.6148  0.4458
 8108SOL     OW35959   0.464   2.650   3.625 -0.7668 -0.3860  0.4866
 8108SOL    HW135960   0.515   2.703   3.687 -0.8046  0.4820 -0.2095
 8108SOL    HW235961   0.390   2.710   3.621  0.2601  1.0420  2.5501
 8109SOL     OW35962   1.283   4.724   3.567 -0.2795 -0.1672  0.2288
 8109SOL    HW135963   1.355   4.668   3.594 -0.1937  1.0102  2.4195
 8109SOL    HW235964   1.318   0.073   3.575  0.1235 -0.6022  3.1072
 8110SOL     OW35965   1.856   3.942   3.481  0.6753  0.1754  0.2545
 8110SOL    HW135966   1.877   3.870   3.540  0.1176 -1.3698 -1.4132
 8110SOL    HW235967   1.923   3.919   3.416 -0.4216  0.1819 -0.8757
 8111SOL     OW35968   3.228   1.498   8.525 -0.2403 -0.4504  0.4015
 8111SOL    HW135969   3.208   1.535   8.611 -0.1549 -0.5799  0.4773
 8111SOL    HW235970   3.314   1.461   8.546  0.2324  1.2820  1.5299
 8112SOL     OW35971   2.031   1.428   6.837 -0.1191  0.3734  0.3509
 8112SOL    HW135972   2.008   1.495   6.901 -3.0324  0.2080 -0.4846
 8112SOL    HW235973   2.003   1.467   6.754  0.8817 -0.6536 -0.4574
 8113SOL     OW35974   0.543   0.098   4.362  0.9462  0.5850 -0.8823
 8113SOL    HW135975   0.502   0.029   4.310  2.4619 -1.0571  0.0863
 8113SOL    HW235976   0.475   0.130   4.421  0.4849 -0.7075 -0.7154
 8114SOL     OW35977   2.622   4.498   8.905  0.3785  0.2549  0.3262
 8114SOL    HW135978   2.655   4.484   8.817  0.1326  0.9535  0.1224
 8114SOL    HW235979   2.528   4.484   8.905  0.2892  0.8226  1.6636
 8115SOL     OW35980   2.068   0.665  16.036  0.5712 -0.0862 -0.1909
 8115SOL    HW135981   1.984   0.682  16.078  0.1447  0.9627 -1.4743
 8115SOL    HW235982   2.126   0.710  16.097 -2.0541  1.1978  1.3386
 8116SOL     OW35983   0.825   2.726   9.225 -0.4237  0.1643  0.2353
 8116SOL    HW135984   0.908   2.756   9.186 -0.3855 -2.6241 -1.8360
 8116SOL    HW235985   0.847   2.640   9.260 -1.9844  0.8947  2.9749
 8117SOL     OW35986   0.237   3.127   6.367 -0.1663  0.0447  0.6340
 8117SOL    HW135987   0.188   3.153   6.445 -1.1239  1.4155 -0.4249
 8117SOL    HW235988   0.191   3.169   6.294  3.3804  0.2350 -1.4872
 8118SOL     OW35989   1.281   1.493   5.328  0.4630 -0.2491 -0.2606
 8118SOL    HW135990   1.305   1.401   5.333  0.3654 -0.2837 -0.4159
 8118SOL    HW235991   1.334   1.525   5.400 -1.2201  0.9237  0.4634
 8119SOL     OW35992   3.649   2.881  10.031  0.3594  0.0168  0.1042
 8119SOL    HW135993   3.699   2.963  10.021 -0.9881  0.8650  0.4054
 8119SOL    HW235994   3.723   2.821  10.042  1.7523  1.7002  0.0682
 8120SOL     OW35995   2.027   1.765   4.931  0.2835  0.0159  0.3182
 8120SOL    HW135996   2.058   1.833   4.872  1.3113 -1.6233 -1.0357
 8120SOL    HW235997   2.112   1.756   4.975  0.5279 -3.0569 -0.7429
 8121SOL     OW35998   3.507   0.826   4.222 -0.0708  0.4333  0.1157
 8121SOL    HW135999   3.495   0.732   4.211  3.2044  0.3614 -2.6596
 8121SOL    HW236000   3.600   0.823   4.245  0.8808  2.9276 -3.3904
 8122SOL     OW36001   1.029   1.540   5.253 -0.0362 -0.0952  0.1029
 8122SOL    HW136002   1.119   1.515   5.276 -0.0296 -0.2194 -0.0617
 8122SOL    HW236003   1.021   1.512   5.162 -0.3171 -0.3801  0.2168
 8123SOL     OW36004   2.253   0.965   8.547  0.0351 -0.1130  0.0319
 8123SOL    HW136005   2.199   0.982   8.470  2.2823 -0.9977 -1.7401
 8123SOL    HW236006   2.319   0.898   8.526 -1.0269 -1.7428  1.9590
 8124SOL     OW36007   0.057   3.638   7.168  0.1104  0.0962 -0.0269
 8124SOL    HW136008   4.704   3.614   7.168  0.5682 -1.6828  1.4316
 8124SOL    HW236009   0.091   3.578   7.235 -3.9595 -0.9417  1.1229
 8125SOL     OW36010   3.609   2.274   1.961  0.0415  0.5612  0.0606
 8125SOL    HW136011   3.630   2.230   1.879  1.9362 -0.4366  1.0768
 8125SOL    HW236012   3.680   2.237   2.014 -0.9964 -0.5817  0.6470
 8126SOL     OW36013   3.938   3.573   5.994  0.2487  0.1039  0.1762
 8126SOL    HW136014   4.004   3.619   5.942 -0.7156  0.6240 -0.5989
 8126SOL    HW236015   3.868   3.637   5.982  1.1767  1.2110  0.6699
 8127SOL     OW36016   0.680   0.212  15.818 -0.1870 -0.0219 -0.4480
 8127SOL    HW136017   0.701   0.145  15.883  0.0650 -0.4348 -0.9480
 8127SOL    HW236018   0.674   0.293  15.867  4.2250 -0.6370  1.1664
 8128SOL     OW36019   0.012   2.497   2.314  0.1794  0.2003 -0.1953
 8128SOL    HW136020   4.683   2.536   2.367  0.0315  0.8315 -0.8452
 8128SOL    HW236021   0.087   2.490   2.373  1.0893 -2.3587 -1.6880
 8129SOL     OW36022   4.734   0.368   2.021  0.4283 -0.2651 -0.4379
 8129SOL    HW136023   4.720   0.295   2.081  1.4892  0.6511  0.9037
 8129SOL    HW236024   4.645   0.401   2.007  0.0230 -0.5518  1.5230
 8130SOL     OW36025   0.179   1.641   5.346 -0.3679 -0.5147 -0.2329
 8130SOL    HW136026   0.202   1.728   5.313  0.4358 -0.9333 -0.7653
 8130SOL    HW236027   0.259   1.590   5.331  1.4398  2.2452  0.1356
 8131SOL     OW36028   0.489   0.487   0.539  0.1301  0.0706 -1.0422
 8131SOL    HW136029   0.437   0.566   0.555  0.0116 -0.6672  2.0874
 8131SOL    HW236030   0.525   0.510   0.453  0.0189  1.4537 -0.7167
 8132SOL     OW36031   4.705   3.635  11.845  0.0230  0.2745  0.3534
 8132SOL    HW136032   0.022   3.681  11.783 -0.0043  0.9852  0.8548
 8132SOL    HW236033   4.723   3.542  11.831 -2.0180 -0.2915  1.5155
 8133SOL     OW36034   4.023   1.150  12.659 -0.2402 -0.6511  0.1598
 8133SOL    HW136035   3.960   1.093  12.705 -1.2508  0.0855 -0.2982
 8133SOL    HW236036   3.991   1.236  12.684  1.5468 -0.0534  0.3516
 8134SOL     OW36037   2.568   2.284  16.383  0.0255 -0.4338  0.3388
 8134SOL    HW136038   2.486   2.237  16.395  0.7702 -1.3423  1.7354
 8134SOL    HW236039   2.593   2.305  16.473  0.5692 -2.1887  0.5918
 8135SOL     OW36040   0.943   2.377  15.039  0.0219 -0.1753  0.4500
 8135SOL    HW136041   0.916   2.319  14.968 -0.3284 -1.3171  1.5161
 8135SOL    HW236042   1.021   2.419  15.002  0.5305 -1.5373 -0.0169
 8136SOL     OW36043   0.917   2.051   5.235  0.1405  0.7168  0.4439
 8136SOL    HW136044   0.989   2.101   5.273 -2.0271  3.5786  0.7920
 8136SOL    HW236045   0.886   2.119   5.174  1.8932 -1.0603 -2.4508
 8137SOL     OW36046   1.701   3.572   5.676 -0.1547  0.0883 -0.0267
 8137SOL    HW136047   1.648   3.605   5.749  0.8181  2.3046 -0.3258
 8137SOL    HW236048   1.751   3.652   5.664 -0.0113  0.0249  0.1606
 8138SOL     OW36049   0.367   1.512   0.072 -0.2456  0.0732 -0.4661
 8138SOL    HW136050   0.370   1.438   0.012 -0.4487  0.1545 -0.5784
 8138SOL    HW236051   0.386   1.579   0.006  1.9088  0.3692  0.4612
 8139SOL     OW36052   2.938   1.754  12.792  0.7850 -0.6292  0.1008
 8139SOL    HW136053   2.874   1.687  12.767 -0.0123 -0.3117  1.3250
 8139SOL    HW236054   2.889   1.824  12.835 -0.3231 -1.2827 -0.1202
 8140SOL     OW36055   1.266   2.622   9.336  0.2458  0.1629  0.3467
 8140SOL    HW136056   1.292   2.625   9.428  1.1977 -1.1090  0.1170
 8140SOL    HW236057   1.351   2.606   9.296  0.0694 -3.9241  1.6370
 8141SOL     OW36058   2.801   2.451  13.050  0.0511  0.0001  0.1081
 8141SOL    HW136059   2.895   2.466  13.034  0.3698  0.9647  2.7144
 8141SOL    HW236060   2.779   2.508  13.124  1.5534  0.4201  0.2518
 8142SOL     OW36061   1.081   2.177   4.949  0.0446  0.5380  0.6879
 8142SOL    HW136062   1.003   2.230   4.962 -1.0370 -0.8895 -0.0972
 8142SOL    HW236063   1.037   2.115   4.892 -0.0658  2.3548 -1.2302
 8143SOL     OW36064   1.911   2.617   5.587 -0.1878 -0.1454 -0.2424
 8143SOL    HW136065   1.958   2.649   5.509 -2.3183  1.5722 -0.8029
 8143SOL    HW236066   1.918   2.522   5.584 -0.2122 -0.1473 -0.2382
 8144SOL     OW36067   2.675   4.055   5.779  0.2373  0.0105  0.1746
 8144SOL    HW136068   2.756   4.021   5.816 -0.8260 -2.0578  0.6258
 8144SOL    HW236069   2.702   4.051   5.688 -2.7254  0.2380 -0.7354
 8145SOL     OW36070   0.561   3.955   7.974  0.1164  0.4874  0.0222
 8145SOL    HW136071   0.627   3.921   8.034 -1.6113 -1.0440  1.0589
 8145SOL    HW236072   0.536   4.033   8.024 -2.8189  0.4430 -1.3222
 8146SOL     OW36073   0.609   3.867   4.863  0.5983 -0.3474  0.2659
 8146SOL    HW136074   0.542   3.801   4.846  0.6586 -0.4882  0.5765
 8146SOL    HW236075   0.611   3.863   4.959  0.1741  0.9952  0.3273
 8147SOL     OW36076   0.920   4.592   7.782 -0.0807 -0.3621 -0.1012
 8147SOL    HW136077   0.842   4.642   7.759 -0.7542 -0.8729  1.0758
 8147SOL    HW236078   0.986   4.648   7.740  0.1240  0.8743  1.8687
 8148SOL     OW36079   2.813   1.063   8.696  0.0312 -0.4791 -0.1157
 8148SOL    HW136080   2.824   1.154   8.670 -1.8657 -1.0014 -2.7070
 8148SOL    HW236081   2.890   1.019   8.659  0.0565 -0.6550  0.1437
 8149SOL     OW36082   1.879   1.669   3.080  0.6089  0.4398  0.4737
 8149SOL    HW136083   1.831   1.644   3.001 -0.0786 -1.1709  1.4012
 8149SOL    HW236084   1.810   1.704   3.136 -0.1446  0.3480 -0.4041
 8150SOL     OW36085   3.289   3.930   3.362  0.3496  0.1060  0.3121
 8150SOL    HW136086   3.206   3.974   3.380 -0.2847  0.1737 -2.8963
 8150SOL    HW236087   3.282   3.904   3.270 -1.8018 -1.4128  0.8924
 8151SOL     OW36088   4.543   1.372  16.656 -0.2615  0.4893  0.7385
 8151SOL    HW136089   4.607   1.301  16.663 -0.7634  0.1055  1.3762
 8151SOL    HW236090   4.510   1.373  16.746 -1.3784 -0.6391  0.3355
 8152SOL     OW36091   1.580   2.803   5.936 -0.5197  0.1676 -0.7413
 8152SOL    HW136092   1.576   2.861   5.861  1.9206  1.2900  0.0031
 8152SOL    HW236093   1.647   2.741   5.907 -1.0942 -0.0176 -1.6698
 8153SOL     OW36094   1.081   2.567   0.400 -0.4856 -0.0098 -0.0243
 8153SOL    HW136095   1.019   2.639   0.398 -0.1271  0.2379 -1.9641
 8153SOL    HW236096   1.095   2.565   0.305  1.3554 -1.6518  0.2699
 8154SOL     OW36097   2.879   2.643   6.266  0.1106  0.1592  1.0354
 8154SOL    HW136098   2.967   2.639   6.303  0.0825  0.5870  1.1482
 8154SOL    HW236099   2.877   2.733   6.233  1.3329 -0.4201 -0.5832
 8155SOL     OW36100   1.677   4.183  16.643  0.0572  0.0280  0.1128
 8155SOL    HW136101   1.703   4.100  16.683 -0.4961 -0.3255 -0.2655
 8155SOL    HW236102   1.588   4.169  16.611  0.4017 -0.1927 -0.7466
 8156SOL     OW36103   2.008   3.375  14.036  0.3462 -0.0392  0.5998
 8156SOL    HW136104   1.933   3.354  14.090  0.8264  0.1717  1.3479
 8156SOL    HW236105   1.982   3.462  14.004 -1.6833 -0.8956 -0.0266
 8157SOL     OW36106   0.614   2.608   4.906  0.2526  0.0564 -0.4408
 8157SOL    HW136107   0.589   2.516   4.920  0.2918  0.0973 -0.0973
 8157SOL    HW236108   0.529   2.650   4.900 -0.4974 -1.5225 -0.7587
 8158SOL     OW36109   1.289   0.245   3.143 -0.0651  0.2406  0.1548
 8158SOL    HW136110   1.211   0.280   3.102  1.5305  0.0531 -3.0487
 8158SOL    HW236111   1.262   0.213   3.229 -0.6105  0.1864 -0.0369
 8159SOL     OW36112   0.674   4.072   8.775 -0.0756 -0.0410 -0.3176
 8159SOL    HW136113   0.646   4.018   8.849  0.1233  0.4651  0.1303
 8159SOL    HW236114   0.733   4.016   8.726  0.2315 -1.2320  1.3958
 8160SOL     OW36115   1.409   2.811   3.679 -0.4530 -0.0603  0.2427
 8160SOL    HW136116   1.410   2.784   3.587  0.1129  1.8033 -0.3008
 8160SOL    HW236117   1.327   2.768   3.706 -1.8547  2.2389 -0.3333
 8161SOL     OW36118   0.270   0.669   6.036 -0.3622 -0.2127  0.8571
 8161SOL    HW136119   0.295   0.761   6.030  3.1799 -1.3542 -1.9890
 8161SOL    HW236120   0.357   0.632   6.052 -0.4163 -0.0515  1.4865
 8162SOL     OW36121   3.373   4.048   5.200 -0.5376 -0.0465 -0.4683
 8162SOL    HW136122   3.306   3.986   5.170 -3.1004  1.1332  2.8196
 8162SOL    HW236123   3.452   3.995   5.188  0.9914  2.4090 -1.2534
 8163SOL     OW36124   4.158   1.158   1.791 -0.1433  0.7785  0.1395
 8163SOL    HW136125   4.115   1.244   1.782 -1.9992  0.0650  2.0600
 8163SOL    HW236126   4.097   1.105   1.739  0.0650 -0.2822  0.9797
 8164SOL     OW36127   4.531   2.586  16.943 -0.1937 -0.1746  0.4133
 8164SOL    HW136128   4.518   2.680  16.932 -1.8572 -0.4533 -0.0254
 8164SOL    HW236129   4.627   2.586  16.943 -0.1777  0.4274 -1.0594
 8165SOL     OW36130   2.345   1.801   3.182 -0.0786 -0.3992  0.1124
 8165SOL    HW136131   2.254   1.811   3.154  0.4087 -1.5193 -1.8171
 8165SOL    HW236132   2.391   1.870   3.134 -0.1186 -2.3352 -2.6969
 8166SOL     OW36133   1.568   4.047   4.051 -0.2371  0.1897  0.6756
 8166SOL    HW136134   1.644   4.093   4.016 -1.1108  2.8096  2.1625
 8166SOL    HW236135   1.604   4.039   4.139  0.8108 -1.3287  0.1082
 8167SOL     OW36136   3.960   2.817  15.086  0.0364  0.1682 -0.5555
 8167SOL    HW136137   3.875   2.797  15.047  0.4644  0.2689 -1.5473
 8167SOL    HW236138   4.014   2.746  15.053  0.0970 -0.1523  0.2398
 8168SOL     OW36139   4.395   0.285   7.447 -0.0317 -0.3151  0.0194
 8168SOL    HW136140   4.315   0.322   7.485 -0.0402 -1.5342  1.1989
 8168SOL    HW236141   4.426   0.228   7.518  2.5205  1.9150  0.6938
 8169SOL     OW36142   3.683   4.491   6.221  0.6058 -0.3598  0.5467
 8169SOL    HW136143   3.743   4.560   6.248  0.8498 -0.9424  1.4574
 8169SOL    HW236144   3.673   4.446   6.305  0.9693  0.3259  0.9560
 8170SOL     OW36145   4.528   3.004   9.947  0.1466  0.7150  0.5368
 8170SOL    HW136146   4.467   3.069   9.982  0.4362  2.2670 -1.7981
 8170SOL    HW236147   4.550   3.050   9.866 -3.3703  3.3186  1.0246
 8171SOL     OW36148   3.127   3.800   8.697 -0.2142 -0.0830 -0.5409
 8171SOL    HW136149   3.132   3.879   8.643  0.8029  0.0598 -0.2183
 8171SOL    HW236150   3.218   3.788   8.722 -0.3286 -1.9069 -0.9697
 8172SOL     OW36151   3.291   3.575   6.400  0.0419  0.4683  0.5052
 8172SOL    HW136152   3.215   3.553   6.345  0.5759 -1.2274  0.4613
 8172SOL    HW236153   3.268   3.668   6.408 -2.4947 -0.1112  0.0644
 8173SOL     OW36154   0.296   3.688  12.440 -0.3280 -0.5356  0.4700
 8173SOL    HW136155   0.268   3.726  12.522  0.6723  0.8261  0.1834
 8173SOL    HW236156   0.391   3.685  12.454  0.3522  2.3539 -3.5911
 8174SOL     OW36157   0.606   2.364   2.773  0.0315 -0.3586 -0.0767
 8174SOL    HW136158   0.633   2.323   2.690 -0.2484  1.7973 -1.2097
 8174SOL    HW236159   0.652   2.444   2.750  0.2321 -1.0773 -2.1622
 8175SOL     OW36160   2.759   4.722  11.409 -0.1177  0.2122 -0.0999
 8175SOL    HW136161   2.816   4.648  11.429 -2.5292 -1.0217  2.1210
 8175SOL    HW236162   2.831   0.044  11.394  0.6451 -0.6198  0.1296
 8176SOL     OW36163   1.711   0.511   0.008 -0.0706 -0.2133 -0.2234
 8176SOL    HW136164   1.778   0.490   0.074 -3.3823 -1.0275  2.8995
 8176SOL    HW236165   1.731   0.603  17.752  0.1415  0.1930  2.7801
 8177SOL     OW36166   3.979   2.980   3.575 -0.5413  0.2642  0.3305
 8177SOL    HW136167   3.985   2.925   3.497 -0.6574  1.1219 -0.2839
 8177SOL    HW236168   4.027   3.060   3.551 -0.2163 -0.4478 -1.4150
 8178SOL     OW36169   3.389   2.429   3.884  0.5131  0.3881  0.1278
 8178SOL    HW136170   3.374   2.393   3.796  0.9229  0.1917  0.1415
 8178SOL    HW236171   3.453   2.497   3.861  1.0266 -0.6574 -1.5439
 8179SOL     OW36172   3.844   2.432  10.542 -0.5152 -0.7968  0.6739
 8179SOL    HW136173   3.795   2.350  10.553 -1.5267 -0.2642  0.0599
 8179SOL    HW236174   3.900   2.400  10.471  0.2422 -0.0298  0.9285
 8180SOL     OW36175   0.351   2.063   1.356  0.3024  0.0511  0.5836
 8180SOL    HW136176   0.410   2.112   1.299 -1.1946 -0.7327 -1.6774
 8180SOL    HW236177   0.304   2.139   1.390  2.2132  0.7327  1.6775
 8181SOL     OW36178   4.698   3.341   8.394 -0.0654 -0.2553 -0.4630
 8181SOL    HW136179   4.640   3.372   8.324  2.2213  1.2814 -1.6969
 8181SOL    HW236180   0.042   3.372   8.359 -1.4831  1.6124 -2.1820
 8182SOL     OW36181   2.213   1.347   3.335 -0.4406 -0.1248  0.0862
 8182SOL    HW136182   2.204   1.434   3.295 -2.7843  0.1115  1.1407
 8182SOL    HW236183   2.121   1.340   3.360  0.2239 -1.4496  2.1540
 8183SOL     OW36184   4.062   0.369   4.437 -0.3697  1.0839 -0.0243
 8183SOL    HW136185   3.988   0.308   4.445  0.8559  0.3830  5.4113
 8183SOL    HW236186   4.081   0.341   4.347  1.5642 -0.6611  0.9385
 8184SOL     OW36187   0.132   3.537  10.130 -0.0040 -0.2635 -0.3835
 8184SOL    HW136188   0.059   3.480  10.156 -2.0441  0.4392 -4.5714
 8184SOL    HW236189   0.198   3.471  10.110 -0.9053 -1.2327 -0.1394
 8185SOL     OW36190   1.951   0.695  10.056 -0.4163  0.4684 -0.2983
 8185SOL    HW136191   2.025   0.640  10.081  0.5471  0.2093 -3.6517
 8185SOL    HW236192   1.895   0.633  10.008 -2.0509  1.7171  0.0006
 8186SOL     OW36193   3.309   4.251   8.225 -0.3448  0.2360  0.3910
 8186SOL    HW136194   3.226   4.264   8.181  0.2138 -2.1581 -1.3636
 8186SOL    HW236195   3.319   4.335   8.269 -1.9088 -0.4789  2.1108
 8187SOL     OW36196   2.009   1.421   2.448  0.4350  0.0572 -0.5087
 8187SOL    HW136197   1.927   1.371   2.453 -0.1119  1.0235  0.3021
 8187SOL    HW236198   1.990   1.490   2.384 -1.8720  0.5464  0.7165
 8188SOL     OW36199   2.719   2.274   8.276  0.1453  0.0331  0.2581
 8188SOL    HW136200   2.739   2.185   8.307  2.5127  0.1457 -0.9348
 8188SOL    HW236201   2.656   2.245   8.210  0.5701 -4.7323  1.9041
 8189SOL     OW36202   3.439   4.695   7.867  0.3258  0.2561 -0.0064
 8189SOL    HW136203   3.520   4.716   7.911  0.2552 -1.1698  0.8082
 8189SOL    HW236204   3.435   0.032   7.810  2.1761  1.2011  1.1564
 8190SOL     OW36205   4.324   4.320   1.287 -0.2451 -0.3636 -0.0657
 8190SOL    HW136206   4.367   4.390   1.239  1.7079 -1.3917  0.1908
 8190SOL    HW236207   4.229   4.335   1.280 -0.0151  0.0898 -2.1941
 8191SOL     OW36208   1.350   3.134   3.900 -0.7289  0.1429 -0.0538
 8191SOL    HW136209   1.377   3.222   3.927 -1.6751  0.5420 -0.3957
 8191SOL    HW236210   1.378   3.081   3.974 -0.7910  0.0560 -0.0933
 8192SOL     OW36211   0.673   3.102  15.262 -0.1050 -0.2033  0.1236
 8192SOL    HW136212   0.598   3.086  15.204 -0.0888 -1.5579  0.4812
 8192SOL    HW236213   0.685   3.193  15.234  1.0741 -1.2538 -2.8009
 8193SOL     OW36214   4.186   3.103   5.286 -0.3438 -0.3873  0.4827
 8193SOL    HW136215   4.203   3.197   5.278 -1.4469 -0.2921 -0.6994
 8193SOL    HW236216   4.093   3.096   5.265 -0.1809  1.4797 -0.8311
 8194SOL     OW36217   2.226   1.092  16.403 -0.3937 -0.2307  0.4818
 8194SOL    HW136218   2.167   1.164  16.428  0.4146  0.3860  0.5896
 8194SOL    HW236219   2.308   1.139  16.418  0.1619 -0.7808 -0.8613
 8195SOL     OW36220   4.645   2.491   5.171  0.2222 -0.5318  0.1094
 8195SOL    HW136221   4.566   2.448   5.204  0.7517 -1.3538  0.3046
 8195SOL    HW236222   4.676   2.537   5.249  1.0214 -1.0061  0.0697
 8196SOL     OW36223   4.042   4.458   5.160  0.1466 -0.1045  0.1576
 8196SOL    HW136224   4.125   4.472   5.205  0.5120  0.8287 -0.8147
 8196SOL    HW236225   3.970   4.462   5.222 -0.4031  0.7787 -0.5360
 8197SOL     OW36226   1.719   3.707   6.929 -0.3010  0.2368 -0.3821
 8197SOL    HW136227   1.653   3.639   6.928  1.1835 -1.1979 -0.0064
 8197SOL    HW236228   1.780   3.678   6.861 -0.7045 -0.9065 -0.2459
 8198SOL     OW36229   0.977   3.865   2.596  0.1804  0.6610  0.1698
 8198SOL    HW136230   0.998   3.918   2.520 -1.9999 -1.2374 -1.7852
 8198SOL    HW236231   1.044   3.796   2.601  0.1192  0.6107  0.2960
 8199SOL     OW36232   2.467   0.694  16.640 -0.2918  0.4336 -0.0154
 8199SOL    HW136233   2.508   0.607  16.632  0.3730  0.4157  3.6482
 8199SOL    HW236234   2.487   0.720  16.730 -0.5066 -0.5619  0.3202
 8200SOL     OW36235   2.471   2.170   6.666  0.5732  0.2497 -0.3636
 8200SOL    HW136236   2.490   2.249   6.615 -1.2437 -0.2945 -1.8737
 8200SOL    HW236237   2.456   2.101   6.602  1.3736 -0.9791  0.7605
 8201SOL     OW36238   4.439   1.658   6.012 -0.3419  0.0764 -0.1680
 8201SOL    HW136239   4.384   1.601   5.959 -1.8973  0.3692  1.1274
 8201SOL    HW236240   4.367   1.713   6.044  0.7410  2.0173 -1.0343
 8202SOL     OW36241   0.199   4.257   5.860  0.3103 -0.1398  0.6514
 8202SOL    HW136242   0.239   4.248   5.773  0.7904 -0.4943  0.9134
 8202SOL    HW236243   0.259   4.201   5.909  2.0391  0.8304 -0.3557
 8203SOL     OW36244   1.484   1.861  15.178 -0.7426 -0.2307 -0.1846
 8203SOL    HW136245   1.510   1.941  15.224  0.5447 -0.8124  0.0899
 8203SOL    HW236246   1.493   1.897  15.090 -0.3145 -0.1709 -0.1158
 8204SOL     OW36247   1.207   3.920  16.556  0.4663  0.0392 -0.2640
 8204SOL    HW136248   1.197   3.828  16.535  0.7399 -0.4378  1.6772
 8204SOL    HW236249   1.251   3.920  16.641 -0.2583  1.7546  0.1122
 8205SOL     OW36250   4.042   2.949   8.836  0.0718  0.5801 -0.6032
 8205SOL    HW136251   4.024   3.030   8.885  0.2133  0.4235 -0.2901
 8205SOL    HW236252   4.055   2.981   8.747  0.0882  3.9168  0.5749
 8206SOL     OW36253   1.023   1.117   5.049 -0.4478 -0.4149 -0.6569
 8206SOL    HW136254   1.042   1.111   5.142  1.0063 -0.1265 -0.9324
 8206SOL    HW236255   1.091   1.069   5.002  2.1292  2.7107 -0.1629
 8207SOL     OW36256   3.968   4.170   8.636  0.5430  0.0630  0.3717
 8207SOL    HW136257   4.053   4.209   8.655  0.8257 -1.2413  1.8007
 8207SOL    HW236258   3.930   4.234   8.576 -2.0501 -2.0825 -0.2692
 8208SOL     OW36259   0.833   0.503   6.106 -0.3308 -0.2142 -0.2719
 8208SOL    HW136260   0.852   0.560   6.181 -0.3331  0.1431 -0.5439
 8208SOL    HW236261   0.880   0.423   6.127 -0.1710 -0.3000 -0.9537
 8209SOL     OW36262   4.302   3.494   0.920  0.5659 -0.0567  0.0668
 8209SOL    HW136263   4.344   3.504   1.006  1.0009  1.2345 -0.2950
 8209SOL    HW236264   4.241   3.567   0.910  1.1723  0.6957  1.7340
 8210SOL     OW36265   3.353   2.467   5.489  0.6205 -0.4221 -0.0066
 8210SOL    HW136266   3.325   2.380   5.519 -2.0025  0.6963  0.7227
 8210SOL    HW236267   3.378   2.504   5.574  0.3976  0.3379 -0.2769
 8211SOL     OW36268   1.770   2.950   6.244  0.3478 -0.2081  0.4807
 8211SOL    HW136269   1.838   2.931   6.179  0.4644 -0.4079  0.6613
 8211SOL    HW236270   1.793   2.877   6.302  0.7640  0.3068  0.9641
 8212SOL     OW36271   4.550   1.582  10.996 -0.1985  0.3615  0.3246
 8212SOL    HW136272   4.566   1.570  10.902 -0.4710  1.9712  0.0759
 8212SOL    HW236273   4.598   1.664  10.999 -1.1548  0.8547  1.8741
 8213SOL     OW36274   0.108   0.900   1.794 -0.6457  0.4155  0.4913
 8213SOL    HW136275   0.046   0.859   1.854  1.4909 -1.0667  1.6595
 8213SOL    HW236276   0.164   0.946   1.856  0.4261  2.9224 -2.3640
 8214SOL     OW36277   4.071   4.067   0.072  0.0485  0.2295 -0.1193
 8214SOL    HW136278   4.036   4.154   0.092  0.5029  0.7335 -1.5331
 8214SOL    HW236279   4.042   4.062  17.739  0.3606 -0.3174 -0.1908
 8215SOL     OW36280   2.041   1.779   7.503  0.0552  0.4638 -0.6365
 8215SOL    HW136281   2.027   1.703   7.559 -0.7746  0.0401 -1.4143
 8215SOL    HW236282   2.099   1.745   7.434  0.8293  0.6219 -0.0584
 8216SOL     OW36283   3.710   4.499   9.008  0.3455  0.3223  0.5455
 8216SOL    HW136284   3.675   4.584   9.033 -2.5364 -0.8117  0.3194
 8216SOL    HW236285   3.700   4.451   9.091  1.5800  0.9174  1.0409
 8217SOL     OW36286   3.259   1.249   6.847  0.4362  0.2080  0.0535
 8217SOL    HW136287   3.202   1.277   6.776 -0.3150 -0.9793  0.1982
 8217SOL    HW236288   3.190   1.214   6.903 -0.3831  1.4456 -0.1971
 8218SOL     OW36289   4.618   3.442   6.487 -0.2892 -0.4550 -0.0278
 8218SOL    HW136290   4.617   3.388   6.566 -0.6788  1.8401  1.5617
 8218SOL    HW236291   4.527   3.439   6.456 -0.2941 -1.0156  0.0373
 8219SOL     OW36292   4.680   4.360   5.909 -0.4170 -0.0410 -0.4896
 8219SOL    HW136293   0.021   4.311   5.898 -1.6629 -2.3767  0.6635
 8219SOL    HW236294   4.644   4.316   5.987 -0.9072  0.3226 -0.5146
 8220SOL     OW36295   2.471   0.011   5.776 -0.5408 -0.0237  0.2300
 8220SOL    HW136296   2.385   0.051   5.773 -0.2808  0.5527  0.4960
 8220SOL    HW236297   2.457   4.665   5.736  0.0302  0.3070 -0.6974
 8221SOL     OW36298   3.287   2.855   7.827  0.0773  0.4089  0.2258
 8221SOL    HW136299   3.352   2.912   7.786 -1.6446  1.6390 -0.7642
 8221SOL    HW236300   3.308   2.769   7.791 -3.8983  0.1508 -1.4064
 8222SOL     OW36301   4.148   2.203   6.050 -0.3382 -0.2321  0.7539
 8222SOL    HW136302   4.227   2.236   6.095  0.1727  0.9942 -1.0334
 8222SOL    HW236303   4.177   2.206   5.959  1.1361  2.1205  1.2928
 8223SOL     OW36304   3.343   3.682   8.914 -0.5645 -0.0536  0.0970
 8223SOL    HW136305   3.294   3.720   8.988 -1.4350 -1.4697  0.2451
 8223SOL    HW236306   3.429   3.722   8.928 -0.7377 -0.0172  1.0783
 8224SOL     OW36307   4.109   0.595   6.820 -0.4723  0.7735  0.0169
 8224SOL    HW136308   4.077   0.542   6.893  0.2182 -1.4862 -1.3300
 8224SOL    HW236309   4.034   0.653   6.810 -0.8520 -0.0750 -2.0015
 8225SOL     OW36310   3.310   1.098  12.938 -0.0110  0.4295  0.5118
 8225SOL    HW136311   3.370   1.032  12.904 -0.7233  0.2397 -0.4004
 8225SOL    HW236312   3.269   1.123  12.855 -0.1264 -1.4187 -0.0004
 8226SOL     OW36313   0.542   2.814   1.131  0.0795 -0.1806  0.2961
 8226SOL    HW136314   0.472   2.760   1.167  0.1408 -0.5825 -0.1848
 8226SOL    HW236315   0.521   2.892   1.182 -0.7901 -1.5958  2.0681
 8227SOL     OW36316   1.702   0.927  17.467 -0.0327  0.2433  0.5131
 8227SOL    HW136317   1.776   0.938  17.407 -0.1795 -1.6126 -0.0155
 8227SOL    HW236318   1.725   0.986  17.538 -2.7175 -0.5446  2.0506
 8228SOL     OW36319   2.968   4.145   4.132 -0.1564  0.1114  0.5145
 8228SOL    HW136320   3.043   4.085   4.123 -0.9539 -0.9326  0.7992
 8228SOL    HW236321   3.009   4.232   4.134  2.0226 -0.9072  1.0801
 8229SOL     OW36322   2.957   4.199  11.270 -0.1822 -0.2484 -0.5864
 8229SOL    HW136323   2.869   4.161  11.266 -0.9988  1.4032  1.9858
 8229SOL    HW236324   2.986   4.172  11.183  2.5709  1.1365 -0.0716
 8230SOL     OW36325   2.044   0.481   4.624  0.0428 -0.1619 -0.0581
 8230SOL    HW136326   1.996   0.430   4.689 -3.0774 -1.2402 -3.2047
 8230SOL    HW236327   2.019   0.567   4.659 -0.9261 -0.9314  1.1465
 8231SOL     OW36328   0.961   3.891   9.139  0.8766  0.2864 -0.7477
 8231SOL    HW136329   0.955   3.943   9.059 -0.3946  0.3742 -0.5980
 8231SOL    HW236330   1.056   3.877   9.140  0.5672 -1.6661  3.0383
 8232SOL     OW36331   4.150   3.117  16.850 -0.1359 -0.2764 -0.8250
 8232SOL    HW136332   4.064   3.105  16.811 -0.0438  1.1826 -1.5051
 8232SOL    HW236333   4.167   3.043  16.907 -0.2662 -0.1960 -0.6810
 8233SOL     OW36334   1.889   2.888   6.836 -0.2507  0.7886 -0.2604
 8233SOL    HW136335   1.947   2.811   6.833  0.9471  1.5996  2.0093
 8233SOL    HW236336   1.839   2.856   6.911 -0.2710  1.9839  0.2314
 8234SOL     OW36337   1.912   3.405  13.658 -0.1673  0.8373 -0.6610
 8234SOL    HW136338   1.872   3.333  13.707 -2.7424  3.5923  1.2653
 8234SOL    HW236339   1.832   3.446  13.624  1.1062  1.2530 -3.1955
 8235SOL     OW36340   1.606   3.572   4.089 -0.2148 -0.1504  0.0043
 8235SOL    HW136341   1.584   3.549   4.179  0.4493 -0.6322  0.0373
 8235SOL    HW236342   1.622   3.666   4.103 -2.7084  0.2513  0.1826
 8236SOL     OW36343   2.192   1.406   3.624  0.0937  0.4413  0.3159
 8236SOL    HW136344   2.221   1.316   3.635  1.9432  1.0419  0.3872
 8236SOL    HW236345   2.116   1.389   3.568 -0.7449  0.5801  1.4210
 8237SOL     OW36346   3.630   3.167   7.905 -0.4313 -0.2481  0.4079
 8237SOL    HW136347   3.548   3.175   7.856 -0.1984  1.3842  0.2733
 8237SOL    HW236348   3.601   3.196   7.992 -1.0443 -0.6729  0.3466
 8238SOL     OW36349   1.732   3.282  15.145  0.3902  0.6883  0.6235
 8238SOL    HW136350   1.639   3.307  15.144 -0.3147 -1.9499 -0.7831
 8238SOL    HW236351   1.752   3.318  15.058  1.1032 -1.7720 -0.2611
 8239SOL     OW36352   4.441   1.783   8.790  1.0814  0.4596 -0.2545
 8239SOL    HW136353   4.514   1.770   8.850 -0.7398 -2.2926  1.3544
 8239SOL    HW236354   4.403   1.695   8.792  0.0081  0.9546  1.4155
 8240SOL     OW36355   0.486   0.809  13.815 -0.2935 -0.3277  0.3358
 8240SOL    HW136356   0.563   0.862  13.795 -0.5324 -0.5482 -1.1475
 8240SOL    HW236357   0.434   0.881  13.850  1.9111 -0.1166  3.1874
 8241SOL     OW36358   1.030   0.572   9.381 -0.9715 -0.0822 -0.2072
 8241SOL    HW136359   0.983   0.514   9.321 -2.7171  0.7795  0.3029
 8241SOL    HW236360   1.082   0.508   9.428  2.9773  1.2739 -2.7502
 8242SOL     OW36361   2.683   4.132   8.592  0.3436  0.3932  0.2006
 8242SOL    HW136362   2.737   4.144   8.514  1.6914 -2.2647  0.7244
 8242SOL    HW236363   2.703   4.042   8.616  1.3224  0.6926  0.5035
 8243SOL     OW36364   4.557   3.611   3.422  0.0321  0.6832 -0.2002
 8243SOL    HW136365   4.614   3.639   3.351  1.7418 -1.0563  0.4702
 8243SOL    HW236366   4.513   3.540   3.376  1.1157  0.9005 -1.5559
 8244SOL     OW36367   3.884   3.601   4.521  0.8750 -0.1604  0.2879
 8244SOL    HW136368   3.966   3.593   4.571  0.6798 -1.6774  0.3529
 8244SOL    HW236369   3.881   3.696   4.511 -0.6342  0.0936  3.2365
 8245SOL     OW36370   3.913   3.958   9.056  0.2212  0.2193  0.0205
 8245SOL    HW136371   3.974   4.016   9.102 -0.1349  1.1192 -0.6430
 8245SOL    HW236372   3.881   4.007   8.980  1.8030  0.9862 -0.1432
 8246SOL     OW36373   1.788   0.290  17.621 -0.4162 -0.4141  0.5973
 8246SOL    HW136374   1.828   0.334  17.545 -1.4832  1.2121  0.9781
 8246SOL    HW236375   1.744   0.367  17.657  0.8802  1.1661 -1.1477
 8247SOL     OW36376   3.000   2.264   7.155 -0.2799  0.2403 -0.1076
 8247SOL    HW136377   3.012   2.335   7.217  0.9270 -0.3487  0.3395
 8247SOL    HW236378   3.041   2.296   7.075  1.4976  1.0210  1.1261
 8248SOL     OW36379   3.426   2.140   8.655 -0.4146 -0.4892 -0.0780
 8248SOL    HW136380   3.378   2.124   8.736  1.0958 -1.7791  0.5702
 8248SOL    HW236381   3.416   2.234   8.644 -0.4608 -0.1162  3.1824
 8249SOL     OW36382   1.675   2.277  12.297  0.2057 -0.2168 -0.2277
 8249SOL    HW136383   1.741   2.317  12.240 -0.1934  1.4932  0.5022
 8249SOL    HW236384   1.642   2.344  12.357  0.1578 -1.8178  1.5567
 8250SOL     OW36385   4.065   3.907  11.730  0.3291  0.5020 -0.5627
 8250SOL    HW136386   4.083   3.977  11.668  0.0250  1.7566  0.7422
 8250SOL    HW236387   4.154   3.903  11.766  1.2217  1.2902 -2.7345
 8251SOL     OW36388   3.065   4.351   5.072 -0.2658  0.8516  0.2074
 8251SOL    HW136389   3.017   4.350   4.990 -0.3801  0.1479  0.2799
 8251SOL    HW236390   3.019   4.412   5.130 -0.8887  0.5145  0.0675
 8252SOL     OW36391   2.109   0.974   8.309 -0.0544 -0.6960  0.7691
 8252SOL    HW136392   2.097   1.026   8.230  0.5633  0.6133  1.5452
 8252SOL    HW236393   2.018   0.957   8.330 -0.1128  1.4975  2.2482
 8253SOL     OW36394   2.408   1.435   8.842  0.4383  0.0791 -1.2920
 8253SOL    HW136395   2.323   1.411   8.805 -0.0995  1.5823 -1.0046
 8253SOL    HW236396   2.425   1.353   8.888  1.3293  1.3276  0.6223
 8254SOL     OW36397   2.437   4.504  13.475 -0.0584  0.2799  0.4451
 8254SOL    HW136398   2.376   4.532  13.407  0.3194  0.8631  0.3499
 8254SOL    HW236399   2.521   4.531  13.439  0.1912  1.0158  1.5636
 8255SOL     OW36400   1.866   3.256   4.261  0.3607 -0.2970  0.3483
 8255SOL    HW136401   1.873   3.352   4.261  1.5239 -0.3761  1.5255
 8255SOL    HW236402   1.955   3.222   4.275  0.9333  1.4656  1.0411
 8256SOL     OW36403   0.801   2.708   6.880 -0.2097  0.4034 -0.0125
 8256SOL    HW136404   0.774   2.791   6.919 -0.0980  0.7287 -0.6403
 8256SOL    HW236405   0.710   2.680   6.871 -0.0235 -0.3944  0.6186
 8257SOL     OW36406   3.854   0.307   3.900  0.3404 -0.2158  0.1858
 8257SOL    HW136407   3.802   0.228   3.916 -0.6415  0.3680 -0.1385
 8257SOL    HW236408   3.939   0.272   3.873  1.1799  1.5831  0.5172
 8258SOL     OW36409   3.531   3.782   6.864 -0.1894  0.1366 -0.1013
 8258SOL    HW136410   3.567   3.854   6.916  1.1009 -1.5365  1.3354
 8258SOL    HW236411   3.456   3.814   6.814  0.6723  0.7821 -0.9815
 8259SOL     OW36412   2.431   2.550   3.265 -0.4355 -0.4371  0.4216
 8259SOL    HW136413   2.483   2.588   3.335  2.6356 -0.1768 -2.0023
 8259SOL    HW236414   2.360   2.502   3.308  0.0072  0.6839  2.4009
 8260SOL     OW36415   0.383   3.697   9.776  0.4370  0.4817  1.0433
 8260SOL    HW136416   0.412   3.727   9.690 -1.6570  1.6520  0.7410
 8260SOL    HW236417   0.461   3.697   9.830  0.7973 -0.6336  0.5397
 8261SOL     OW36418   0.742   4.717   5.431 -0.5624 -0.0993  0.5902
 8261SOL    HW136419   0.809   4.650   5.419  0.3403  0.5893  1.7969
 8261SOL    HW236420   0.733   4.736   5.525  1.7457 -0.1913  0.8129
 8262SOL     OW36421   0.852   4.234   4.533 -0.0089  0.4884 -0.2202
 8262SOL    HW136422   0.839   4.219   4.439 -0.3614 -2.3317  0.2860
 8262SOL    HW236423   0.860   4.149   4.575 -1.4170  0.3366 -0.2597
 8263SOL     OW36424   3.085   0.640   7.076  0.3919  0.1551  0.1992
 8263SOL    HW136425   3.084   0.707   7.008  1.1681 -0.8797 -0.8284
 8263SOL    HW236426   3.041   0.685   7.148 -0.9676  0.1557 -0.6490
 8264SOL     OW36427   0.033   2.284  10.326  0.0646  0.2594  0.2966
 8264SOL    HW136428   0.125   2.298  10.305  0.0230  0.2693  0.1213
 8264SOL    HW236429   4.728   2.295  10.242  1.5391  0.0504 -0.5135
 8265SOL     OW36430   3.456   3.717   2.111 -0.2143  0.0613  0.2854
 8265SOL    HW136431   3.531   3.749   2.061 -1.7049  2.2639 -0.5128
 8265SOL    HW236432   3.401   3.677   2.043 -1.5856  0.5140  1.1298
 8266SOL     OW36433   1.425   0.982   2.815 -0.1601 -0.0210 -0.0905
 8266SOL    HW136434   1.362   0.948   2.751 -0.2673 -0.8885  0.4863
 8266SOL    HW236435   1.494   0.915   2.813  0.6743  0.9142 -3.5579
 8267SOL     OW36436   3.734   4.554   4.888 -0.1623 -0.0430  1.0354
 8267SOL    HW136437   3.791   4.529   4.815 -3.4681 -2.3205 -0.7346
 8267SOL    HW236438   3.662   4.499   4.858 -0.4112  0.0604  1.4470
 8268SOL     OW36439   2.665   0.011   4.716  0.3193  0.8829  0.1825
 8268SOL    HW136440   2.624   0.092   4.684  1.1674  2.0605  2.1141
 8268SOL    HW236441   2.740   0.009   4.657  0.2653  1.3359  0.0959
 8269SOL     OW36442   2.485   0.358   6.093  0.3667  0.3623  0.2640
 8269SOL    HW136443   2.457   0.281   6.043  3.7521 -1.2903  0.9457
 8269SOL    HW236444   2.404   0.409   6.103 -0.5581 -0.5934 -2.3800
 8270SOL     OW36445   0.158   1.499  17.621  0.5192  0.0326 -0.2409
 8270SOL    HW136446   0.206   1.439  17.564  1.6105 -1.5768  2.3597
 8270SOL    HW236447   0.127   1.572  17.567  1.0008  0.5099  0.1154
 8271SOL     OW36448   3.904   0.503   2.817 -0.1414 -0.0086  0.3140
 8271SOL    HW136449   3.995   0.475   2.809 -0.1236 -0.2319  1.3038
 8271SOL    HW236450   3.874   0.488   2.728  1.4405 -2.7534  0.2534
 8272SOL     OW36451   2.339   3.339   2.159 -0.1844  0.2269 -0.5312
 8272SOL    HW136452   2.367   3.264   2.108  1.3122  0.6405 -0.3179
 8272SOL    HW236453   2.389   3.323   2.239 -1.8299 -1.7944  0.0731
 8273SOL     OW36454   2.719   3.598   3.690  0.1607  0.3346 -0.3060
 8273SOL    HW136455   2.679   3.586   3.604  1.5014 -0.6319 -0.7848
 8273SOL    HW236456   2.785   3.666   3.677  0.7722 -0.1182  0.3848
 8274SOL     OW36457   2.955   3.767   4.084 -0.2364 -0.4830 -0.6629
 8274SOL    HW136458   3.040   3.810   4.090 -0.9161  0.3999  2.3442
 8274SOL    HW236459   2.959   3.711   4.162 -1.1285  1.1693  0.5691
 8275SOL     OW36460   4.002   1.486  11.843  0.0422  0.6749 -0.5047
 8275SOL    HW136461   3.985   1.419  11.910  2.6481  0.8360  0.2945
 8275SOL    HW236462   4.008   1.569  11.890 -1.1082 -1.3024  3.1706
 8276SOL     OW36463   0.317   4.365   8.439 -0.4419 -0.0584 -0.3759
 8276SOL    HW136464   0.413   4.359   8.436 -0.5987 -1.5124 -2.3277
 8276SOL    HW236465   0.294   4.273   8.445  0.0418 -0.5098 -5.9331
 8277SOL     OW36466   1.507   2.838   8.145  0.1844  0.1208 -0.8156
 8277SOL    HW136467   1.586   2.789   8.121 -0.6786 -1.1198 -1.0777
 8277SOL    HW236468   1.469   2.763   8.191 -1.6167  1.9792  0.7514
 8278SOL     OW36469   4.705   1.273  17.385 -0.5806 -0.1908 -0.6133
 8278SOL    HW136470   4.671   1.271  17.475  4.4531 -1.0375  1.2313
 8278SOL    HW236471   0.059   1.272  17.398 -0.6742 -1.0250  0.0531
 8279SOL     OW36472   4.325   2.158   8.510 -0.3676  0.0402 -0.4987
 8279SOL    HW136473   4.298   2.229   8.451  1.0709  1.8075  0.9775
 8279SOL    HW236474   4.243   2.109   8.517 -0.6101  0.5777  0.4384
 8280SOL     OW36475   0.983   3.033   8.323 -0.2516  0.7000  0.0721
 8280SOL    HW136476   1.048   2.994   8.264  0.9435 -0.5000  2.1705
 8280SOL    HW236477   0.932   2.954   8.341  0.7580  0.3541  1.4846
 8281SOL     OW36478   2.528   4.056  13.493 -0.2687 -0.0208 -0.1889
 8281SOL    HW136479   2.479   4.138  13.499  0.4296  0.6748 -4.1515
 8281SOL    HW236480   2.567   4.068  13.407 -0.4846  0.0159 -0.2831
 8282SOL     OW36481   1.642   3.014   9.967  0.5438  0.2484  0.0852
 8282SOL    HW136482   1.713   2.966  10.010 -0.9958 -1.1652  1.0351
 8282SOL    HW236483   1.621   3.079  10.034 -1.1351 -0.3372  0.1092
 8283SOL     OW36484   2.274   0.110   8.757  0.4429 -0.3389  0.3798
 8283SOL    HW136485   2.243   0.126   8.668  4.5517 -0.5033 -1.1093
 8283SOL    HW236486   2.369   0.101   8.744  0.4840 -0.5727  0.8630
 8284SOL     OW36487   0.787   1.992   9.084  0.0275  0.3138  0.0026
 8284SOL    HW136488   0.868   1.986   9.136  0.3579  0.4641 -0.4968
 8284SOL    HW236489   0.816   2.019   8.997 -1.8052  0.8763 -0.4348
 8285SOL     OW36490   0.714   2.032   7.194 -0.0615  0.3117  0.1894
 8285SOL    HW136491   0.783   2.050   7.257 -2.3064  2.5260  1.9962
 8285SOL    HW236492   0.758   1.984   7.124 -0.7099 -0.0731  0.0392
 8286SOL     OW36493   3.938   1.991   3.107  0.0226 -0.7315  0.0499
 8286SOL    HW136494   3.991   2.068   3.088 -0.9446 -1.2482 -4.8831
 8286SOL    HW236495   3.851   2.018   3.078  0.0064  0.2682  1.0318
 8287SOL     OW36496   1.361   2.134   4.329 -0.2904  0.0050  0.2914
 8287SOL    HW136497   1.318   2.218   4.342 -0.7098  0.1242 -1.9337
 8287SOL    HW236498   1.415   2.156   4.253 -0.5041  1.1628  0.4770
 8288SOL     OW36499   0.084   3.464  16.866 -0.8350  0.2905 -0.4243
 8288SOL    HW136500   0.078   3.464  16.771 -1.7640 -3.5801 -0.3939
 8288SOL    HW236501   0.005   3.511  16.891  0.0841  2.3932 -1.4613
 8289SOL     OW36502   4.363   3.957   7.815 -0.1727 -0.2216 -0.7739
 8289SOL    HW136503   4.275   3.989   7.838  0.5993  1.4951 -0.1868
 8289SOL    HW236504   4.369   3.964   7.720 -2.5823  2.1855 -0.7677
 8290SOL     OW36505   3.086   2.726  13.336  0.3879 -0.0089  0.5621
 8290SOL    HW136506   3.128   2.810  13.319 -0.4081  0.0756 -0.9504
 8290SOL    HW236507   2.994   2.752  13.326  0.0988 -0.8312  1.0194
 8291SOL     OW36508   0.410   1.885   9.001  0.3196  0.0649 -0.0073
 8291SOL    HW136509   0.473   1.924   9.061  1.6418  0.1242 -1.4521
 8291SOL    HW236510   0.465   1.845   8.933 -2.5253 -1.7933 -1.2564
 8292SOL     OW36511   1.695   2.748   1.410 -0.5293 -0.0501  0.1514
 8292SOL    HW136512   1.750   2.790   1.344  0.0883  0.4773  1.0067
 8292SOL    HW236513   1.623   2.811   1.418 -0.2213  0.2612  0.4314
 8293SOL     OW36514   0.601   0.986   6.350  0.4250 -0.0849  0.0794
 8293SOL    HW136515   0.681   1.012   6.398  0.1899  2.2307 -0.7869
 8293SOL    HW236516   0.648   0.950   6.275 -2.4568  0.4080 -1.9312
 8294SOL     OW36517   1.412   3.254  10.742  0.2042  0.1066  0.0404
 8294SOL    HW136518   1.480   3.309  10.780  0.4224 -1.7368  2.3361
 8294SOL    HW236519   1.404   3.287  10.652  2.9808 -1.6867 -0.8706
 8295SOL     OW36520   3.821   3.507   9.353 -0.8177  0.7726 -0.0030
 8295SOL    HW136521   3.861   3.554   9.426  0.8672  2.0850 -1.7777
 8295SOL    HW236522   3.835   3.417   9.380  0.8945  0.1553 -2.9588
 8296SOL     OW36523   1.563   0.499  11.864 -0.3420 -0.3107 -0.2642
 8296SOL    HW136524   1.527   0.516  11.777  0.4948 -0.2968 -0.6011
 8296SOL    HW236525   1.508   0.422  11.882  1.0202 -0.9592  1.1306
 8297SOL     OW36526   0.060   2.508   8.142  0.4037  0.4887  0.2698
 8297SOL    HW136527   0.016   2.475   8.064 -1.0697 -1.8944  2.0916
 8297SOL    HW236528   0.014   2.591   8.147 -1.1896 -0.4023  0.4685
 8298SOL     OW36529   0.165   4.653   2.710  0.0995 -0.0751  0.5768
 8298SOL    HW136530   0.145   4.700   2.791  0.3993 -1.1274  1.2579
 8298SOL    HW236531   0.094   4.682   2.652  0.4820 -2.6383 -1.1330
 8299SOL     OW36532   4.710   3.468   4.640 -0.0288  0.6066 -0.3008
 8299SOL    HW136533   4.649   3.418   4.694  0.0915  0.9522  0.1627
 8299SOL    HW236534   0.046   3.410   4.641  0.2942  1.0283  0.1535
 8300SOL     OW36535   2.963   1.128   8.418 -0.1623 -0.0425  0.0558
 8300SOL    HW136536   2.980   1.148   8.326 -0.2205  0.4996  0.1582
 8300SOL    HW236537   2.887   1.183   8.440  1.3179  1.8796  0.3483
 8301SOL     OW36538   4.108   4.513   1.070 -0.4990  0.0498  0.1910
 8301SOL    HW136539   4.068   4.555   1.146 -1.0194  1.4331 -0.8600
 8301SOL    HW236540   4.108   4.422   1.099  2.8778  0.3623  1.2623
 8302SOL     OW36541   4.311   4.625   3.806 -0.1533  0.3003 -0.0695
 8302SOL    HW136542   4.331   4.712   3.773  0.1012  0.7600  1.3003
 8302SOL    HW236543   4.351   4.564   3.745 -1.5944 -1.5460  0.8052
 8303SOL     OW36544   2.559   2.612   3.041  0.3248  0.6194 -0.0583
 8303SOL    HW136545   2.611   2.532   3.045  2.1171  1.8259  0.5047
 8303SOL    HW236546   2.515   2.605   3.126 -0.1645  0.3056 -0.3357
 8304SOL     OW36547   0.378   4.566   3.171  0.2993 -0.0779 -0.3905
 8304SOL    HW136548   0.419   4.597   3.251  1.3148  2.9531 -2.1085
 8304SOL    HW236549   0.458   4.538   3.125  1.1423  1.1305  0.3583
 8305SOL     OW36550   3.028   1.218   5.524  0.2225  0.2303 -0.0651
 8305SOL    HW136551   3.119   1.204   5.500 -0.5324 -1.3955 -1.9245
 8305SOL    HW236552   3.027   1.178   5.611  0.6149  0.0682 -0.1390
 8306SOL     OW36553   0.709   3.029  11.619  0.5396 -0.1841 -0.0107
 8306SOL    HW136554   0.764   2.984  11.683  3.1002  2.2537 -0.5037
 8306SOL    HW236555   0.669   3.088  11.683 -2.5171 -1.6096 -0.5963
 8307SOL     OW36556   0.480   2.626   9.965  0.3100 -0.6181  0.1362
 8307SOL    HW136557   0.514   2.691  10.027  1.7560 -1.0924 -0.1767
 8307SOL    HW236558   0.395   2.621  10.008  0.2795  1.9964  0.3949
 8308SOL     OW36559   0.459   1.553   4.359 -0.0997 -0.0676 -0.1446
 8308SOL    HW136560   0.403   1.478   4.379  1.6395 -1.3387 -0.0788
 8308SOL    HW236561   0.444   1.610   4.435 -0.1157  1.4744 -1.3119
 8309SOL     OW36562   4.486   1.097   6.471  0.0626 -0.3528 -0.3182
 8309SOL    HW136563   4.469   1.075   6.379  2.6311  0.1276 -0.9062
 8309SOL    HW236564   4.522   1.182   6.447  2.4996 -0.9505  1.1627
 8310SOL     OW36565   3.869   2.923   4.370 -0.1820 -0.2452 -0.5462
 8310SOL    HW136566   3.931   2.854   4.394 -2.4311 -1.1582  2.6634
 8310SOL    HW236567   3.886   2.946   4.279 -0.4835 -0.1370 -0.5777
 8311SOL     OW36568   2.094   3.373   6.380  0.3485  0.4266 -0.6329
 8311SOL    HW136569   2.175   3.323   6.373 -0.4720 -1.1353  1.0645
 8311SOL    HW236570   2.105   3.454   6.330 -0.8699  0.1496 -1.3411
 8312SOL     OW36571   3.478   4.513   5.763 -0.2726  0.3993 -0.0925
 8312SOL    HW136572   3.463   4.509   5.857 -0.6082  1.4196 -0.1009
 8312SOL    HW236573   3.457   4.425   5.733  0.2077  1.2555 -2.9473
 8313SOL     OW36574   4.191   1.222   9.221 -0.2835  0.0458 -0.3221
 8313SOL    HW136575   4.165   1.293   9.280 -0.4530 -0.4044  0.1464
 8313SOL    HW236576   4.266   1.190   9.270 -0.9042 -0.4604  0.2914
 8314SOL     OW36577   3.757   4.233   3.358  0.1905  0.5232 -0.1562
 8314SOL    HW136578   3.753   4.137   3.358  1.8858  0.4635  0.0055
 8314SOL    HW236579   3.764   4.251   3.264  0.7383  0.6919 -0.0807
 8315SOL     OW36580   3.561   0.644   0.577  0.3729  0.2872 -0.8740
 8315SOL    HW136581   3.585   0.667   0.487 -1.7977 -0.3549 -1.6319
 8315SOL    HW236582   3.488   0.584   0.559  0.6807 -0.1594 -0.6149
 8316SOL     OW36583   3.838   4.530   9.308 -0.3653 -0.1429  0.2514
 8316SOL    HW136584   3.747   4.519   9.280 -0.1331 -0.4605 -0.3777
 8316SOL    HW236585   3.887   4.522   9.226 -1.8033 -0.0666 -0.6252
 8317SOL     OW36586   1.216   4.501  16.305  0.1386  0.5394 -0.5683
 8317SOL    HW136587   1.210   4.433  16.372 -0.3278  1.3167  0.1839
 8317SOL    HW236588   1.221   4.584  16.353  0.2383 -0.5139  1.2369
 8318SOL     OW36589   0.119   3.304   9.551  0.4034 -0.4707 -0.4440
 8318SOL    HW136590   0.168   3.361   9.610  1.6389  1.1145 -3.0219
 8318SOL    HW236591   0.174   3.226   9.542  2.1470  0.8742 -1.4631
 8319SOL     OW36592   0.570   1.134   8.074 -0.2094 -0.2724  0.4894
 8319SOL    HW136593   0.476   1.139   8.091 -0.3774 -1.8237  0.0729
 8319SOL    HW236594   0.587   1.040   8.076  0.6307 -0.2028 -2.9259
 8320SOL     OW36595   0.597   2.513   5.576  0.2741 -0.0813  1.1299
 8320SOL    HW136596   0.645   2.453   5.634 -2.1193 -1.0384  2.0950
 8320SOL    HW236597   0.638   2.494   5.491 -1.8121 -1.0309  0.3465
 8321SOL     OW36598   4.708   3.637  11.545 -0.3291 -0.5294 -0.0583
 8321SOL    HW136599   0.034   3.570  11.563 -0.6506 -0.8669 -0.1436
 8321SOL    HW236600   0.019   3.687  11.481 -2.0973  2.1279  0.6309
 8322SOL     OW36601   3.336   0.634   7.638 -0.0187 -0.3427 -0.2592
 8322SOL    HW136602   3.397   0.647   7.710 -2.0312  1.7011  1.0922
 8322SOL    HW236603   3.299   0.547   7.650 -3.3013  0.8273 -1.6210
 8323SOL     OW36604   3.798   3.955   6.589  0.6483  0.6112 -0.2237
 8323SOL    HW136605   3.850   4.034   6.574 -0.1965  1.2693  0.2858
 8323SOL    HW236606   3.780   3.963   6.683 -2.7060  2.2256 -0.9826
 8324SOL     OW36607   2.624   1.385   7.764 -0.2488 -0.7421 -0.0444
 8324SOL    HW136608   2.643   1.436   7.843 -0.7191  0.0792 -0.4538
 8324SOL    HW236609   2.532   1.412   7.761  0.1103  0.3542 -1.2846
 8325SOL     OW36610   2.904   1.595   7.903 -0.0383  0.2522 -0.3392
 8325SOL    HW136611   2.827   1.551   7.938  1.5653 -1.3476  1.1866
 8325SOL    HW236612   2.950   1.526   7.854  0.0728  1.0101 -1.2931
 8326SOL     OW36613   1.039   0.192  10.831  0.2853  0.3828 -0.0564
 8326SOL    HW136614   1.113   0.219  10.777  0.8616 -2.0054 -0.4753
 8326SOL    HW236615   0.964   0.223  10.780  0.1384 -0.5838 -0.4218
 8327SOL     OW36616   4.594   4.047  12.806 -0.2753  0.4092  0.1483
 8327SOL    HW136617   4.503   4.021  12.791  0.4995 -1.5722 -1.0295
 8327SOL    HW236618   4.643   3.975  12.766  0.4452  1.6290 -1.1637
 8328SOL     OW36619   0.777   1.934   3.568  0.3450  0.3033 -0.1424
 8328SOL    HW136620   0.767   2.025   3.541 -0.8038  0.5148  1.0447
 8328SOL    HW236621   0.720   1.884   3.510  1.6508 -0.6234 -0.6372
 8329SOL     OW36622   2.620   1.024   3.306 -0.3709  0.5252  0.0676
 8329SOL    HW136623   2.531   1.060   3.312 -0.7290 -0.0054 -1.8531
 8329SOL    HW236624   2.608   0.955   3.241  3.0590 -1.2194  1.2852
 8330SOL     OW36625   1.606   2.124  12.791  0.4921  0.2893 -0.0205
 8330SOL    HW136626   1.667   2.195  12.809 -0.8015  0.7919  2.4698
 8330SOL    HW236627   1.649   2.054  12.842 -3.1551 -0.4428  2.0658
 8331SOL     OW36628   1.985   2.170  15.267 -0.2264  0.4318 -0.5273
 8331SOL    HW136629   1.901   2.209  15.243 -0.3398  0.8516  0.5169
 8331SOL    HW236630   2.031   2.184  15.184 -0.0993 -3.0515 -1.0589
 8332SOL     OW36631   0.851   1.534   0.893 -0.6606  0.4218  0.1218
 8332SOL    HW136632   0.886   1.582   0.817  2.5847 -1.1058  0.6322
 8332SOL    HW236633   0.787   1.482   0.845  0.1042 -0.1302 -0.3066
 8333SOL     OW36634   1.857   1.923  15.120  0.0926 -0.1171  0.5323
 8333SOL    HW136635   1.922   1.961  15.179  1.1283 -1.6088  0.3641
 8333SOL    HW236636   1.823   1.995  15.067  2.1247 -0.2153 -0.8856
 8334SOL     OW36637   4.435   1.294  13.882 -0.7490  0.0129 -0.7762
 8334SOL    HW136638   4.512   1.350  13.878 -0.0081 -1.0609 -1.7152
 8334SOL    HW236639   4.477   1.208  13.886  0.3287  0.5656 -0.4098
 8335SOL     OW36640   2.495   4.357  15.268  0.2410  0.4307 -0.2159
 8335SOL    HW136641   2.543   4.274  15.270 -1.8275 -0.7881 -0.9236
 8335SOL    HW236642   2.457   4.362  15.180  1.9179  0.0509 -0.9706
 8336SOL     OW36643   4.266   1.604   4.781 -0.0750 -0.1162 -0.2124
 8336SOL    HW136644   4.254   1.607   4.876  0.6891 -0.9520 -0.0837
 8336SOL    HW236645   4.301   1.518   4.757  2.0136  0.6068  0.2180
 8337SOL     OW36646   4.154   1.851   2.449  0.4229 -0.1921  0.4771
 8337SOL    HW136647   4.059   1.837   2.439 -0.1317  3.6044  0.4758
 8337SOL    HW236648   4.154   1.863   2.543  1.4929 -2.1819  0.7360
 8338SOL     OW36649   1.263   1.694   6.157 -0.5430  0.2091  0.3153
 8338SOL    HW136650   1.249   1.788   6.169 -0.5797  0.2962 -0.3919
 8338SOL    HW236651   1.329   1.682   6.225  1.7662  1.6056 -1.6791
 8339SOL     OW36652   0.100   1.141   5.479 -0.4177 -0.7351  0.1881
 8339SOL    HW136653   0.020   1.093   5.460  0.3269 -1.9514  0.1175
 8339SOL    HW236654   0.132   1.103   5.562 -0.6238 -2.0068 -0.3174
 8340SOL     OW36655   4.717   2.487   5.894 -0.6534  0.5585 -0.6288
 8340SOL    HW136656   0.060   2.461   5.855 -0.8822 -2.1759  0.7001
 8340SOL    HW236657   4.657   2.439   5.837 -0.1221 -1.4582  0.5163
 8341SOL     OW36658   4.531   0.151   8.711  0.0004  0.0081  0.1515
 8341SOL    HW136659   4.491   0.233   8.739  0.9129  1.0325 -1.5143
 8341SOL    HW236660   4.457   0.092   8.702 -0.0972 -0.0940  1.7406
 8342SOL     OW36661   2.542   0.662   2.932  0.5426  0.2692  0.4240
 8342SOL    HW136662   2.580   0.672   2.844  2.3370  1.2556  1.3122
 8342SOL    HW236663   2.616   0.618   2.973  0.4775 -0.1925  0.0478
 8343SOL     OW36664   2.438   2.983   3.764 -0.2739 -0.1130  0.1277
 8343SOL    HW136665   2.438   3.008   3.671 -0.1613 -0.6577 -0.0181
 8343SOL    HW236666   2.406   3.067   3.795 -1.5371 -0.5283 -0.0551
 8344SOL     OW36667   3.844   1.448   6.181 -0.5412 -0.1967 -0.2707
 8344SOL    HW136668   3.875   1.533   6.150 -0.5026  0.4373  1.4756
 8344SOL    HW236669   3.753   1.478   6.187 -0.5650 -0.5903  1.4960
 8345SOL     OW36670   2.839   0.143   7.709 -0.8182  0.6000 -0.2893
 8345SOL    HW136671   2.843   0.076   7.641 -0.4357  0.4246 -0.0949
 8345SOL    HW236672   2.810   0.217   7.656  1.7280  0.9381 -1.2428
 8346SOL     OW36673   3.101   0.202  11.836  0.4592 -0.0938 -0.3973
 8346SOL    HW136674   3.139   0.162  11.914  1.5177  0.6339 -0.5486
 8346SOL    HW236675   3.011   0.191  11.867  0.2352 -0.7001 -1.2555
 8347SOL     OW36676   1.210   0.043   5.909  0.3971  0.3902 -0.1149
 8347SOL    HW136677   1.131   0.002   5.943 -0.7110  2.1850 -0.4958
 8347SOL    HW236678   1.200   0.126   5.955 -0.8015 -0.3714  1.0025
 8348SOL     OW36679   0.977   4.366   5.628  0.1223  0.7982 -0.4704
 8348SOL    HW136680   0.916   4.368   5.702 -0.7106  2.5316 -1.1983
 8348SOL    HW236681   1.045   4.422   5.666 -0.1166  1.2825 -0.7564
 8349SOL     OW36682   2.579   1.932   5.117  0.6553  0.1797 -0.0902
 8349SOL    HW136683   2.633   2.002   5.155 -0.0122  1.8877 -2.2604
 8349SOL    HW236684   2.526   1.987   5.060  0.3647  0.4747  0.4766
 8350SOL     OW36685   1.669   2.691   3.751  0.2141 -0.0680  0.5477
 8350SOL    HW136686   1.591   2.744   3.769 -0.9880 -0.9813 -2.0751
 8350SOL    HW236687   1.685   2.663   3.841 -0.5789 -0.3409  0.6043
 8351SOL     OW36688   1.065   1.986  17.267 -0.3576 -0.5007 -0.3793
 8351SOL    HW136689   1.001   2.039  17.313 -0.6815  0.2882 -1.7375
 8351SOL    HW236690   1.013   1.911  17.239  1.2398 -1.2389 -1.3718
 8352SOL     OW36691   3.237   0.535  10.199  0.7824  0.1766  0.7668
 8352SOL    HW136692   3.274   0.615  10.236 -3.3337  2.3895  0.1894
 8352SOL    HW236693   3.283   0.531  10.115 -0.1933  0.7754  0.2059
 8353SOL     OW36694   0.752   0.685   9.116  0.0580 -0.0213  0.4133
 8353SOL    HW136695   0.803   0.604   9.118  1.1359  0.6405 -0.6245
 8353SOL    HW236696   0.768   0.729   9.200 -0.0210  0.5634  0.1216
 8354SOL     OW36697   3.431   3.500   8.080 -0.1644 -0.9905  0.1733
 8354SOL    HW136698   3.431   3.405   8.068  2.3894 -1.1114  1.0026
 8354SOL    HW236699   3.354   3.511   8.135 -0.1294 -0.1227  0.0514
 8355SOL     OW36700   2.239   2.834   4.810 -0.2086  0.4474  0.8899
 8355SOL    HW136701   2.237   2.919   4.767  2.8455  0.0221 -0.0396
 8355SOL    HW236702   2.253   2.782   4.731 -0.1484  1.7091  0.0808
 8356SOL     OW36703   1.730   2.592  16.517  0.1264  0.0192 -0.2569
 8356SOL    HW136704   1.662   2.581  16.451  0.3731  3.1798 -1.0235
 8356SOL    HW236705   1.802   2.579  16.455 -1.8736 -0.4932 -2.4517
 8357SOL     OW36706   0.784   2.832   2.670 -0.0854  0.2174 -0.3235
 8357SOL    HW136707   0.854   2.860   2.611 -0.2735  1.9189  0.2471
 8357SOL    HW236708   0.709   2.888   2.650  0.1605  0.2995 -1.0035
 8358SOL     OW36709   4.727   0.775  10.366  0.0322 -0.3761  0.5694
 8358SOL    HW136710   0.049   0.726  10.311 -2.5811 -0.6833 -2.1021
 8358SOL    HW236711   0.027   0.759  10.451 -0.2020 -0.9723  0.5693
 8359SOL     OW36712   3.407   0.263  12.133 -0.2390 -0.3617  1.1339
 8359SOL    HW136713   3.381   0.182  12.088 -0.4987 -0.2006  0.9950
 8359SOL    HW236714   3.497   0.239  12.157 -0.0379 -0.4592  0.2859
 8360SOL     OW36715   1.480   1.862   3.437 -0.0096  0.3102  0.0070
 8360SOL    HW136716   1.415   1.932   3.430  1.1574  1.4759  0.6484
 8360SOL    HW236717   1.481   1.826   3.348 -1.4559  0.9230 -0.2520
 8361SOL     OW36718   2.380   4.402   7.056 -0.4442  0.7513  0.1773
 8361SOL    HW136719   2.291   4.416   7.024 -0.4403 -3.1510 -1.4449
 8361SOL    HW236720   2.362   4.333   7.120  2.0903  0.2625  0.3641
 8362SOL     OW36721   4.261   4.059  15.433 -0.5111 -0.0688 -1.1207
 8362SOL    HW136722   4.272   4.121  15.506  0.3104 -1.4772 -0.0422
 8362SOL    HW236723   4.166   4.054  15.443 -0.1063 -1.0695  2.3489
 8363SOL     OW36724   0.609   1.816   6.758  0.1592 -0.3135  0.0993
 8363SOL    HW136725   0.626   1.889   6.697 -0.0482 -0.5697 -0.2651
 8363SOL    HW236726   0.532   1.853   6.799  0.6407  1.7221 -0.8134
 8364SOL     OW36727   2.114   0.673   6.758  0.1072 -0.3806  0.2518
 8364SOL    HW136728   2.043   0.737   6.764  0.1259 -0.6156  3.2815
 8364SOL    HW236729   2.191   0.713   6.720 -0.1387 -0.7046 -0.5962
 8365SOL     OW36730   0.443   4.427   6.022 -0.2615 -0.1226  0.3828
 8365SOL    HW136731   0.428   4.430   6.116  4.4318 -1.0234  1.1732
 8365SOL    HW236732   0.356   4.425   5.982  0.1639  0.0032 -0.5506
 8366SOL     OW36733   1.076   0.193   9.729  0.2756  0.4988  0.5680
 8366SOL    HW136734   1.036   0.122   9.780 -1.6315  1.0304 -0.1703
 8366SOL    HW236735   1.165   0.200   9.764  1.4046 -1.6284 -1.9043
 8367SOL     OW36736   2.709   0.704   9.015 -0.6508  0.1634  0.2482
 8367SOL    HW136737   2.635   0.680   9.070 -1.2059 -1.0362 -1.0144
 8367SOL    HW236738   2.756   0.748   9.085 -0.1249  1.2955 -0.7999
 8368SOL     OW36739   2.359   1.878   1.576  0.2359 -0.2799  0.3036
 8368SOL    HW136740   2.265   1.862   1.576 -0.1469  2.0123 -1.6360
 8368SOL    HW236741   2.395   1.789   1.575 -0.1703 -0.4436  0.3055
 8369SOL     OW36742   4.612   1.932   5.333  0.6806 -0.0542  0.0193
 8369SOL    HW136743   4.528   1.954   5.293 -0.5977 -3.0549  1.0580
 8369SOL    HW236744   4.591   1.860   5.393 -2.4502 -0.0389 -1.0498
 8370SOL     OW36745   4.534   1.171   7.538 -0.4896 -0.0703 -0.2867
 8370SOL    HW136746   4.570   1.210   7.618  1.3420 -0.4280 -0.9425
 8370SOL    HW236747   4.541   1.078   7.559  1.2345  0.3616  1.0141
 8371SOL     OW36748   1.649   1.118  10.458  0.0275  0.3115 -0.9925
 8371SOL    HW136749   1.703   1.069  10.396  1.8108  1.6842 -0.5358
 8371SOL    HW236750   1.717   1.168  10.504  0.0392  0.0426 -0.7177
 8372SOL     OW36751   4.366   0.032  16.863 -0.1137 -0.4935 -0.5924
 8372SOL    HW136752   4.399   4.683  16.852 -2.9438 -1.3363 -2.4216
 8372SOL    HW236753   4.379   0.060  16.773  0.0177 -1.9318 -1.0136
 8373SOL     OW36754   4.688   3.646  14.525 -0.7262 -0.6890  0.5849
 8373SOL    HW136755   4.705   3.737  14.502  0.9022 -1.1713 -0.1546
 8373SOL    HW236756   4.607   3.630  14.477 -0.0097 -3.4367  0.2992
 8374SOL     OW36757   3.240   4.155   1.624  0.1879 -0.2378  0.0274
 8374SOL    HW136758   3.171   4.207   1.583  2.6122  1.9577 -1.2162
 8374SOL    HW236759   3.224   4.065   1.593  1.7964 -0.5272  0.0688
 8375SOL     OW36760   2.382   0.822   1.933 -0.7164 -0.2537  0.5048
 8375SOL    HW136761   2.347   0.901   1.973  0.0054  0.9022 -1.1854
 8375SOL    HW236762   2.335   0.751   1.976  0.4697 -1.6912 -0.5330
 8376SOL     OW36763   4.536   3.127  13.342 -0.3107  0.8516 -0.2832
 8376SOL    HW136764   4.620   3.172  13.349  1.0329 -1.6820 -0.1200
 8376SOL    HW236765   4.537   3.098  13.251  1.6999 -1.8159  0.5914
 8377SOL     OW36766   4.548   2.119   3.558  0.4708 -0.7412  0.4030
 8377SOL    HW136767   4.546   2.131   3.653  1.3655  0.8340  0.2290
 8377SOL    HW236768   4.521   2.029   3.539  2.9243 -1.3550 -0.2380
 8378SOL     OW36769   4.376   4.263  17.608 -0.1521  0.1123 -0.9145
 8378SOL    HW136770   4.308   4.328  17.624 -0.7509 -0.9192  0.6340
 8378SOL    HW236771   4.421   4.288  17.526  2.6423  0.0135  0.5798
 8379SOL     OW36772   2.962   2.257   3.346 -0.0794  0.3993 -0.3779
 8379SOL    HW136773   2.889   2.224   3.399 -1.0304  0.0001 -1.9627
 8379SOL    HW236774   2.932   2.346   3.329 -0.2757  0.4878  0.3971
 8380SOL     OW36775   0.490   3.478  11.757  0.1487 -0.0867  0.1622
 8380SOL    HW136776   0.462   3.504  11.669 -2.1838 -1.6318  0.4368
 8380SOL    HW236777   0.407   3.507  11.796  0.7952  0.2682  1.2840
 8381SOL     OW36778   2.661   2.825   5.473  0.0788 -0.4579 -0.5118
 8381SOL    HW136779   2.571   2.794   5.472  0.1058 -0.4230 -2.7125
 8381SOL    HW236780   2.666   2.870   5.389  2.1070 -0.6411 -0.4886
 8382SOL     OW36781   0.402   1.429   2.625 -0.5056 -0.4027  0.2032
 8382SOL    HW136782   0.442   1.456   2.542 -1.6979 -1.0723 -0.5813
 8382SOL    HW236783   0.310   1.449   2.610 -0.2218  0.2053 -0.7928
 8383SOL     OW36784   3.777   4.225   1.259 -0.3033  0.2590 -0.2127
 8383SOL    HW136785   3.756   4.248   1.169 -1.9313  0.4045  0.2163
 8383SOL    HW236786   3.697   4.185   1.293 -0.3460 -1.8915 -2.7926
 8384SOL     OW36787   2.788   3.777   4.868  0.7724 -0.7102 -0.6191
 8384SOL    HW136788   2.881   3.763   4.888  0.5562 -1.6000 -0.2658
 8384SOL    HW236789   2.765   3.832   4.943 -1.9873  0.1188 -2.0918
 8385SOL     OW36790   4.540   3.518   5.910  0.5511  0.1308  0.1794
 8385SOL    HW136791   4.635   3.531   5.906  0.3376  1.6203 -0.1348
 8385SOL    HW236792   4.523   3.470   5.991  0.7268 -1.5906 -0.7938
 8386SOL     OW36793   2.510   0.093  13.825  0.0545  0.2902 -0.0501
 8386SOL    HW136794   2.449   0.166  13.836  0.6899  0.5456  1.8955
 8386SOL    HW236795   2.582   0.139  13.781  0.0052  1.6501  1.2736
 8387SOL     OW36796   3.773   4.662  14.725  0.4925  0.1548  0.6561
 8387SOL    HW136797   3.711   4.735  14.726 -1.2186 -1.2785 -0.1800
 8387SOL    HW236798   3.841   4.694  14.666  0.8931  0.2815  1.1867
 8388SOL     OW36799   4.280   1.858  17.623 -0.1279 -0.0176 -0.1002
 8388SOL    HW136800   4.197   1.905  17.615 -0.0460  0.0877 -0.3504
 8388SOL    HW236801   4.302   1.831  17.534  0.3184  0.9385 -0.2766
 8389SOL     OW36802   1.239   1.668   0.361  0.7178 -0.5290 -0.1970
 8389SOL    HW136803   1.265   1.759   0.380  0.4684 -0.7789  1.3513
 8389SOL    HW236804   1.145   1.680   0.349  0.5891 -2.4657 -1.0830
 8390SOL     OW36805   3.034   4.210   4.477  0.5506  0.1602  0.9513
 8390SOL    HW136806   2.939   4.193   4.477  0.7627 -0.9505 -1.9464
 8390SOL    HW236807   3.042   4.228   4.571  2.4320  1.2550  0.5600
 8391SOL     OW36808   2.751   3.625   6.621  0.5339 -0.5604 -0.3454
 8391SOL    HW136809   2.827   3.568   6.621  0.9660  0.0286  2.0586
 8391SOL    HW236810   2.757   3.660   6.532 -2.4198  2.1942  0.4997
 8392SOL     OW36811   4.201   1.184   9.874  0.8713 -0.0978 -0.4642
 8392SOL    HW136812   4.184   1.278   9.883  1.2724  0.1589 -2.3812
 8392SOL    HW236813   4.296   1.186   9.867  0.7506  2.6984 -1.1571
 8393SOL     OW36814   4.344   4.041  14.776  0.6618 -0.1154 -0.3489
 8393SOL    HW136815   4.336   4.083  14.690  1.4164  0.1610 -0.2890
 8393SOL    HW236816   4.412   3.980  14.746  0.5350 -0.3469 -0.1638
 8394SOL     OW36817   0.926   4.577   8.451 -0.4832 -0.0914  0.1384
 8394SOL    HW136818   0.840   4.595   8.413 -0.4547  0.6977  0.4464
 8394SOL    HW236819   0.970   4.659   8.424 -0.8806 -0.6158 -2.1186
 8395SOL     OW36820   3.186   2.323   5.736  0.0380 -0.3876 -1.0945
 8395SOL    HW136821   3.260   2.384   5.743 -0.8413  0.1706  3.4891
 8395SOL    HW236822   3.195   2.273   5.817  1.3584  0.1368 -0.9206
 8396SOL     OW36823   0.014   4.388   3.067  0.0544 -0.4531  0.0778
 8396SOL    HW136824   0.104   4.358   3.076 -0.6865 -3.2693 -2.0036
 8396SOL    HW236825   4.735   4.375   2.974 -1.3971  0.2280  0.2763
 8397SOL     OW36826   0.128   2.207   7.023 -0.2443  0.0723 -0.1883
 8397SOL    HW136827   0.108   2.154   6.945 -1.1058 -0.3292  0.3098
 8397SOL    HW236828   0.198   2.267   6.998 -0.6455  0.9478  0.8266
 8398SOL     OW36829   3.201   4.097   0.482  0.3785 -0.1807 -0.6249
 8398SOL    HW136830   3.215   4.075   0.390  0.7480  1.5919 -0.9894
 8398SOL    HW236831   3.149   4.025   0.517  0.2632  0.0778 -0.2673
 8399SOL     OW36832   0.623   3.859   8.431 -0.6718  0.4069  0.4571
 8399SOL    HW136833   0.701   3.826   8.476 -0.7115 -0.5632 -0.1938
 8399SOL    HW236834   0.663   3.888   8.349 -2.5716 -0.0218 -0.6132
 8400SOL     OW36835   1.753   4.203  10.100 -0.4843 -0.2248  0.0069
 8400SOL    HW136836   1.738   4.160  10.184 -2.0630 -0.9020 -0.6306
 8400SOL    HW236837   1.668   4.240  10.077 -0.2974  1.1288  1.4286
 8401SOL     OW36838   1.066   1.310  10.429 -0.0265 -0.1357  0.5717
 8401SOL    HW136839   1.103   1.309  10.341  0.8296  2.3824  0.9142
 8401SOL    HW236840   1.119   1.368  10.483  0.5045  0.8836 -1.0512
 8402SOL     OW36841   0.114   1.437   4.655  0.1010  0.2542 -1.0420
 8402SOL    HW136842   0.163   1.364   4.618 -1.2541 -0.9511 -0.4454
 8402SOL    HW236843   0.119   1.423   4.749  2.5646 -0.0433 -1.2199
 8403SOL     OW36844   2.176   1.876  12.606  0.3799 -0.1867 -0.6825
 8403SOL    HW136845   2.104   1.912  12.554  0.5716  1.8919  0.4638
 8403SOL    HW236846   2.128   1.823  12.670 -1.0518  0.9304 -0.8401
 8404SOL     OW36847   0.346   3.364   7.493 -0.2851  0.2692  0.4091
 8404SOL    HW136848   0.363   3.433   7.558  1.6704  0.1011  0.0709
 8404SOL    HW236849   0.304   3.298   7.549 -0.4980  0.7839  0.8525
 8405SOL     OW36850   2.651   4.128   1.342 -0.3411 -0.6932  0.3308
 8405SOL    HW136851   2.561   4.115   1.311 -0.7519 -0.4503  1.4251
 8405SOL    HW236852   2.661   4.045   1.390 -2.1510 -0.5826  0.9202
 8406SOL     OW36853   2.610   0.951  10.040  0.3322 -0.5929  0.3255
 8406SOL    HW136854   2.654   1.034  10.054 -0.3924  0.3298 -2.9887
 8406SOL    HW236855   2.604   0.907  10.125  1.0855 -0.0654  0.6461
 8407SOL     OW36856   0.637   2.401  17.404  0.0191  0.2823 -0.1591
 8407SOL    HW136857   0.654   2.387  17.311 -0.0272  1.0460 -0.2782
 8407SOL    HW236858   0.671   2.323  17.448  1.2094  0.3423 -0.9942
 8408SOL     OW36859   1.727   0.699  16.388 -0.2082 -0.1484  0.0381
 8408SOL    HW136860   1.762   0.612  16.408 -0.4966 -0.6227 -1.5313
 8408SOL    HW236861   1.635   0.697  16.416  0.0835 -1.9335  0.8636
 8409SOL     OW36862   2.148   4.046   4.810 -0.5557  0.2100 -0.0408
 8409SOL    HW136863   2.186   4.088   4.732 -2.1582  0.7450 -0.5254
 8409SOL    HW236864   2.064   4.089   4.798 -1.4850 -1.3777  0.8370
 8410SOL     OW36865   1.023   2.814  17.111 -0.2252  0.3291 -0.3455
 8410SOL    HW136866   1.022   2.732  17.061  1.7486  1.1124 -1.6692
 8410SOL    HW236867   1.114   2.842  17.113  0.0375 -0.4627 -0.9893
 8411SOL     OW36868   1.035   4.417   9.955 -0.1096 -0.3787  0.2933
 8411SOL    HW136869   1.122   4.388   9.927 -1.0012 -0.6948 -2.1490
 8411SOL    HW236870   0.978   4.369   9.895  0.2875 -0.3468 -0.1083
 8412SOL     OW36871   3.815   2.446   0.052  0.6564 -0.5275 -0.0889
 8412SOL    HW136872   3.749   2.377   0.050 -1.5039  1.5265  0.2495
 8412SOL    HW236873   3.758   2.520   0.074  1.4938 -0.6351  2.4249
 8413SOL     OW36874   0.822   0.011   4.101 -0.3197 -0.2490  0.1539
 8413SOL    HW136875   0.875   4.711   4.032 -0.5438 -1.8475  0.9168
 8413SOL    HW236876   0.884   0.081   4.121 -1.4498  0.1058  2.3330
 8414SOL     OW36877   2.512   1.168   5.262 -0.0800  0.2435 -0.4393
 8414SOL    HW136878   2.512   1.196   5.354 -0.8994  1.0029 -0.6706
 8414SOL    HW236879   2.584   1.227   5.237 -0.0894  0.3653 -0.1784
 8415SOL     OW36880   1.480   0.616   7.969 -0.0947 -0.1064 -0.6026
 8415SOL    HW136881   1.401   0.662   7.939 -1.5562  0.2812  3.9285
 8415SOL    HW236882   1.548   0.658   7.916  0.5827 -1.2235 -0.6256
 8416SOL     OW36883   1.583   3.260   9.290 -0.3333 -0.4381 -0.0396
 8416SOL    HW136884   1.607   3.186   9.346  0.9024 -0.6387 -0.8273
 8416SOL    HW236885   1.501   3.283   9.334 -0.8248 -1.2454 -0.5427
 8417SOL     OW36886   2.298   0.312   4.421  0.7049  0.1899 -0.4746
 8417SOL    HW136887   2.206   0.304   4.394  0.6713  1.2527 -0.6460
 8417SOL    HW236888   2.287   0.267   4.506  0.8650  1.9686  0.4869
 8418SOL     OW36889   3.271   3.764   5.060 -0.2179  0.4056  0.5387
 8418SOL    HW136890   3.217   3.734   5.132  1.0361 -0.6866  1.0145
 8418SOL    HW236891   3.323   3.685   5.048  2.6809  2.3768 -0.1053
 8419SOL     OW36892   3.352   3.028  10.515 -0.7451 -0.0644 -0.4581
 8419SOL    HW136893   3.403   2.958  10.555 -2.0201  0.7627  2.6173
 8419SOL    HW236894   3.278   2.970  10.495 -1.5315 -0.1671  2.8501
 8420SOL     OW36895   3.874   0.617   2.378 -0.5140 -0.0750 -0.1713
 8420SOL    HW136896   3.960   0.652   2.352 -0.5853  1.7487  2.0767
 8420SOL    HW236897   3.812   0.690   2.381 -1.0721 -0.5135 -0.8789
 8421SOL     OW36898   2.799   0.440   8.814 -0.3247 -0.5532  0.3131
 8421SOL    HW136899   2.847   0.439   8.896  1.1358  1.3903 -0.5109
 8421SOL    HW236900   2.761   0.528   8.819 -2.2896 -1.3878  0.1709
 8422SOL     OW36901   0.042   3.538   4.382  0.4776  0.2035 -0.7402
 8422SOL    HW136902   0.012   3.552   4.472  0.4943  0.4584 -0.7750
 8422SOL    HW236903   0.072   3.624   4.354  0.0692  0.6756  0.2737
 8423SOL     OW36904   1.865   0.222   0.160 -0.5085 -0.7269  0.5865
 8423SOL    HW136905   1.781   0.250   0.196 -0.8883  0.8370 -1.5304
 8423SOL    HW236906   1.846   0.241   0.068 -3.2320 -3.8120  0.4964
 8424SOL     OW36907   3.411   2.421   5.200 -0.1799  0.0683 -0.7692
 8424SOL    HW136908   3.348   2.486   5.169 -0.6074 -0.8128 -1.7351
 8424SOL    HW236909   3.449   2.477   5.269 -0.3668  1.1607 -1.5514
 8425SOL     OW36910   3.646   3.956   4.934 -0.1697 -0.0182 -0.2851
 8425SOL    HW136911   3.561   3.944   4.892 -0.4471  0.2494  0.1980
 8425SOL    HW236912   3.622   3.924   5.021 -1.8444  0.5578 -0.5375
 8426SOL     OW36913   2.676   1.977   0.048 -0.5242 -0.7028  0.3616
 8426SOL    HW136914   2.610   1.971   0.117 -2.1916 -0.6479 -1.2328
 8426SOL    HW236915   2.697   2.071   0.050 -1.0710 -0.5705 -0.4092
 8427SOL     OW36916   0.384   1.761   8.263 -0.3172  0.1143 -0.1127
 8427SOL    HW136917   0.414   1.852   8.265  0.5810 -0.1633 -0.9053
 8427SOL    HW236918   0.292   1.771   8.235  0.1207 -1.7643 -2.2360
 8428SOL     OW36919   1.622   3.930   2.480 -0.0160  0.0927  0.2777
 8428SOL    HW136920   1.682   3.872   2.528  1.2828  1.1535 -0.0482
 8428SOL    HW236921   1.658   3.917   2.392 -2.1779  1.2031 -0.7574
 8429SOL     OW36922   1.827   4.580   5.912 -0.4736  0.5035 -0.4455
 8429SOL    HW136923   1.782   4.614   5.834 -0.2500  3.1483  0.5802
 8429SOL    HW236924   1.777   4.500   5.922  1.3645 -0.7620 -1.4181
 8430SOL     OW36925   4.079   2.952   8.311 -0.0688 -0.1340 -0.2120
 8430SOL    HW136926   4.142   3.014   8.348  0.6541 -1.8738  1.5425
 8430SOL    HW236927   4.144   2.895   8.270 -0.8848 -1.1177 -0.1591
 8431SOL     OW36928   1.707   1.156  16.982 -0.0776  0.2241  0.1073
 8431SOL    HW136929   1.719   1.077  17.035 -2.1639 -0.1547  0.0282
 8431SOL    HW236930   1.731   1.221  17.048 -3.0164  0.0648  1.3525
 8432SOL     OW36931   1.744   4.222   4.991  0.1064 -0.4341 -0.0049
 8432SOL    HW136932   1.682   4.250   5.058  0.2883  0.5244 -0.2477
 8432SOL    HW236933   1.783   4.308   4.982 -1.0209  0.0868  0.0875
 8433SOL     OW36934   4.228   3.623   9.652 -0.5140  0.0556  0.1235
 8433SOL    HW136935   4.262   3.689   9.713 -0.6426 -0.1348  0.3995
 8433SOL    HW236936   4.276   3.549   9.689 -2.7540 -0.2730  2.3362
 8434SOL     OW36937   4.163   0.366   0.373  0.6107 -0.1799 -0.4842
 8434SOL    HW136938   4.199   0.423   0.441 -0.9545 -0.9940  1.0229
 8434SOL    HW236939   4.119   0.427   0.314  0.7109  1.1238  0.8134
 8435SOL     OW36940   4.484   1.458   0.890 -0.4795 -0.0787 -0.0890
 8435SOL    HW136941   4.417   1.493   0.831  0.3017  2.3164  0.4114
 8435SOL    HW236942   4.525   1.534   0.933  0.4961  0.3524 -1.7610
 8436SOL     OW36943   2.709   4.554  13.451  0.0349 -0.2245  0.2699
 8436SOL    HW136944   2.789   4.588  13.412  0.2440  0.0146  0.8918
 8436SOL    HW236945   2.694   4.641  13.488  1.5748 -0.5895  1.7718
 8437SOL     OW36946   2.967   4.373   1.967  0.0262  0.3606 -0.3287
 8437SOL    HW136947   2.877   4.366   1.936  0.7505 -0.2311 -2.2577
 8437SOL    HW236948   3.006   4.397   1.883  1.6163 -2.0071 -0.2621
 8438SOL     OW36949   1.923   3.768  10.068  0.1629 -0.0540  0.2150
 8438SOL    HW136950   1.827   3.766  10.072  0.1136  0.5253 -0.5908
 8438SOL    HW236951   1.952   3.813  10.148 -0.7712  0.3678  0.3187
 8439SOL     OW36952   1.729   3.119   6.449  0.3463 -0.3513  0.0195
 8439SOL    HW136953   1.732   3.074   6.365  2.8530  0.6455 -0.4351
 8439SOL    HW236954   1.674   3.195   6.430  0.1397 -0.7789 -1.0728
 8440SOL     OW36955   2.609   2.651   1.737 -0.5741 -0.1460 -0.3612
 8440SOL    HW136956   2.645   2.565   1.716 -0.4291 -0.8997  2.9525
 8440SOL    HW236957   2.690   2.701   1.748 -0.2644 -0.3655 -1.6422
 8441SOL     OW36958   2.118   0.587   3.242  0.5560 -0.1508 -0.2324
 8441SOL    HW136959   2.137   0.555   3.154 -0.3171  1.3656 -0.9577
 8441SOL    HW236960   2.202   0.629   3.259 -1.4281  2.6551  2.6740
 8442SOL     OW36961   2.982   4.047   4.862 -0.3849  0.3473 -0.0322
 8442SOL    HW136962   2.971   4.061   4.956  0.5507  2.6480 -0.2780
 8442SOL    HW236963   2.995   3.952   4.869 -0.6716  0.3446  0.4968
 8443SOL     OW36964   1.031   1.294  17.650 -0.2216 -0.6762  0.3863
 8443SOL    HW136965   0.971   1.233  17.607 -1.5608  1.4043 -0.7242
 8443SOL    HW236966   1.071   1.341  17.576  0.9404 -0.8620  0.8946
 8444SOL     OW36967   3.747   0.038   4.156  0.5311 -0.5760  0.1551
 8444SOL    HW136968   3.718   0.017   4.067  1.4411  2.4233 -0.8389
 8444SOL    HW236969   3.843   0.041   4.148  0.4282 -0.3432 -1.0933
 8445SOL     OW36970   2.184   4.407   5.630  0.4217 -0.4076 -0.2477
 8445SOL    HW136971   2.279   4.413   5.621  0.5384 -1.4675  0.2863
 8445SOL    HW236972   2.167   4.498   5.652  4.7894 -0.2203  2.4246
 8446SOL     OW36973   3.344   3.361   7.372  0.4277 -0.3816 -0.1610
 8446SOL    HW136974   3.327   3.396   7.285  0.5442 -0.7290 -0.3195
 8446SOL    HW236975   3.299   3.424   7.429  0.4433  0.0253 -0.6008
 8447SOL     OW36976   2.149   2.041   2.929  0.3135  0.3289  0.2728
 8447SOL    HW136977   2.064   2.051   2.887  0.6047  1.3125 -0.0763
 8447SOL    HW236978   2.142   1.954   2.970  1.0307 -0.0476 -0.4051
 8448SOL     OW36979   3.969   2.294  16.417 -0.0149 -0.0055 -0.3765
 8448SOL    HW136980   3.955   2.381  16.380 -0.5353  0.5114  1.0539
 8448SOL    HW236981   4.049   2.276  16.369  0.2397  2.8618 -1.0239
 8449SOL     OW36982   2.630   3.569   1.268 -0.1469 -0.1907 -0.4771
 8449SOL    HW136983   2.646   3.565   1.362  0.9508 -0.7905 -0.6892
 8449SOL    HW236984   2.720   3.563   1.236 -0.0096 -0.3651 -0.0474
 8450SOL     OW36985   4.208   2.105   1.689 -0.1197 -0.6220 -0.6677
 8450SOL    HW136986   4.133   2.101   1.749  1.9992 -0.2896  1.9991
 8450SOL    HW236987   4.245   2.024   1.722  0.4233 -0.0670  0.0929
 8451SOL     OW36988   2.175   4.680  10.049 -0.0254  0.5588 -0.6780
 8451SOL    HW136989   2.160   4.607   9.988 -1.2094 -0.5619  0.9270
 8451SOL    HW236990   2.205   4.623  10.120  0.6585  2.1923  0.3431
 8452SOL     OW36991   0.899   1.049   9.241  0.3910  0.6455  0.2660
 8452SOL    HW136992   0.947   1.129   9.222  0.8923  0.3626  0.3493
 8452SOL    HW236993   0.923   1.015   9.155 -1.4900  1.6434 -0.6462
 8453SOL     OW36994   4.709   1.309  17.746  0.3713 -0.5028  0.5508
 8453SOL    HW136995   4.730   1.226  17.703 -2.3119 -1.5885  1.3264
 8453SOL    HW236996   0.043   1.363  17.719  0.7852 -1.2973  0.0998
 8454SOL     OW36997   3.755   0.134   3.077 -0.5443 -0.1314  0.3155
 8454SOL    HW136998   3.725   0.084   3.153  1.3611  0.8742  1.7221
 8454SOL    HW236999   3.684   0.108   3.019 -0.7479  0.4859  0.2872
 8455SOL     OW37000   3.631   1.028   3.215 -0.1174 -0.9533  0.4461
 8455SOL    HW137001   3.587   1.073   3.287  2.0781  1.2458  0.4507
 8455SOL    HW237002   3.557   1.031   3.155 -0.4632  1.6212  0.9884
 8456SOL     OW37003   0.164   4.664   0.662 -0.4259  0.4673 -0.0445
 8456SOL    HW137004   0.106   4.738   0.641  1.0993  0.7957 -3.0071
 8456SOL    HW237005   0.178   4.618   0.579  0.0422  1.1577 -0.3489
 8457SOL     OW37006   2.156   4.355  13.627 -0.3542 -0.5800 -0.0230
 8457SOL    HW137007   2.130   4.384  13.714 -1.1797 -0.3521 -0.3458
 8457SOL    HW237008   2.079   4.351  13.571  0.9820  3.4904 -2.1747
 8458SOL     OW37009   4.411   0.301   1.761  0.1495 -0.4215  0.0057
 8458SOL    HW137010   4.399   0.332   1.671  1.2373 -1.5554 -0.5245
 8458SOL    HW237011   4.432   0.208   1.757  0.2165 -0.4783  1.5795
 8459SOL     OW37012   3.888   2.197   5.899  0.5511  0.7263  0.0925
 8459SOL    HW137013   3.902   2.183   5.993 -0.2108  2.1548  0.4242
 8459SOL    HW237014   3.939   2.275   5.878 -0.9335  1.5471 -0.4690
 8460SOL     OW37015   3.454   2.097   7.730 -0.2924 -0.1581  0.6212
 8460SOL    HW137016   3.527   2.075   7.672  1.8377 -1.6379  3.8401
 8460SOL    HW237017   3.387   2.036   7.700  2.1347 -2.8617  0.6134
 8461SOL     OW37018   4.339   1.226   3.661 -0.3587 -0.3875 -0.3349
 8461SOL    HW137019   4.282   1.256   3.590  1.3015  1.9607 -0.6848
 8461SOL    HW237020   4.271   1.211   3.727 -0.2013  0.2987 -0.0191
 8462SOL     OW37021   0.869   4.195   9.707  0.0164  0.2435  0.6135
 8462SOL    HW137022   0.788   4.147   9.727 -0.3416  0.3448 -0.5986
 8462SOL    HW237023   0.837   4.285   9.702  0.1522  0.2272 -0.5601
 8463SOL     OW37024   1.490   1.619   8.660 -0.5950 -0.3925 -0.6129
 8463SOL    HW137025   1.503   1.553   8.592  1.4751  1.0839 -1.6444
 8463SOL    HW237026   1.522   1.699   8.618 -1.8086  0.6413  0.4239
 8464SOL     OW37027   1.631   3.086   1.383 -0.4090  0.3313  0.6365
 8464SOL    HW137028   1.622   3.119   1.293  1.0335  2.4008  1.2385
 8464SOL    HW237029   1.563   3.020   1.389 -0.9514  0.8194 -0.0167
 8465SOL     OW37030   3.211   0.715  16.652  0.2628 -0.9000  0.2684
 8465SOL    HW137031   3.240   0.677  16.735 -0.1129  1.2693  1.3923
 8465SOL    HW237032   3.144   0.650  16.635 -2.0749  1.0670  1.9717
 8466SOL     OW37033   0.600   2.956  11.380 -0.4510  0.0324  0.3941
 8466SOL    HW137034   0.514   2.929  11.411  0.2379 -2.0475  0.4870
 8466SOL    HW237035   0.640   3.001  11.455  0.2763 -2.8404  1.7025
 8467SOL     OW37036   0.002   3.916  14.477  0.2604 -0.2791 -0.1071
 8467SOL    HW137037   0.092   3.946  14.494  0.6102 -1.2003 -0.3148
 8467SOL    HW237038   4.712   3.987  14.420  0.8509 -0.4545 -0.6444
 8468SOL     OW37039   2.689   4.356  11.838 -0.2834  0.0075  0.2800
 8468SOL    HW137040   2.690   4.451  11.843 -1.3582 -0.0467  1.7155
 8468SOL    HW237041   2.770   4.344  11.790  0.5745 -2.2880  2.2538
 8469SOL     OW37042   0.591   3.035  15.514 -0.5604  0.2523  0.0647
 8469SOL    HW137043   0.535   3.109  15.538  1.2584  1.9994 -1.0691
 8469SOL    HW237044   0.626   3.060  15.429  0.6358 -0.1527  0.4406
 8470SOL     OW37045   2.267   2.270  13.375  0.2572  0.0684  0.4540
 8470SOL    HW137046   2.360   2.276  13.353 -0.0378 -0.2220 -0.8488
 8470SOL    HW237047   2.235   2.360  13.368 -2.6501 -1.1392 -2.2115
 8471SOL     OW37048   4.446   1.166   9.553  0.0933  0.4853 -0.4997
 8471SOL    HW137049   4.455   1.236   9.489 -0.0769  0.8851 -0.0817
 8471SOL    HW237050   4.440   1.215   9.635 -1.1610  2.1222 -1.5791
 8472SOL     OW37051   1.567   0.271   3.426 -0.0073  0.2011  0.0525
 8472SOL    HW137052   1.510   0.259   3.502  1.5269  1.2353  1.3727
 8472SOL    HW237053   1.524   0.346   3.386  2.4344  1.0322 -1.0203
 8473SOL     OW37054   2.706   0.966   8.168 -0.3051 -0.1867 -0.0775
 8473SOL    HW137055   2.701   1.002   8.257 -1.6109 -0.7300  0.0687
 8473SOL    HW237056   2.631   0.906   8.173 -0.1270 -0.5991 -2.6466
 8474SOL     OW37057   0.909   3.788   7.428 -0.3115  0.1216 -0.7999
 8474SOL    HW137058   0.860   3.845   7.486 -2.9728 -1.4128 -1.4899
 8474SOL    HW237059   0.883   3.818   7.341  0.7135  0.6942 -0.9037
 8475SOL     OW37060   4.645   0.436   8.033 -0.2578 -0.5486  0.6064
 8475SOL    HW137061   4.716   0.437   8.098 -0.2291 -0.7498  0.5786
 8475SOL    HW237062   4.691   0.408   7.954 -1.2291 -0.1372 -0.0891
 8476SOL     OW37063   4.021   0.371   2.295 -0.3387  0.6129  0.0516
 8476SOL    HW137064   4.028   0.374   2.200 -0.5898 -0.7652 -0.0071
 8476SOL    HW237065   3.949   0.429   2.320  0.6005  1.4718  0.7700
 8477SOL     OW37066   1.012   1.887   0.032  0.4555 -0.2825  0.7189
 8477SOL    HW137067   0.917   1.888   0.042  0.0221 -1.8981 -3.1258
 8477SOL    HW237068   1.029   1.793   0.037  1.7452  0.0038  1.6992
 8478SOL     OW37069   2.958   1.773   3.204  0.3160 -0.4927 -0.3800
 8478SOL    HW137070   2.941   1.831   3.130 -1.2657 -2.1289 -1.2884
 8478SOL    HW237071   3.033   1.822   3.239  0.6236 -1.4588  0.3050
 8479SOL     OW37072   2.122   1.032  13.738  0.0238  0.4370 -0.0491
 8479SOL    HW137073   2.066   1.097  13.696  0.1476  0.7868  0.3220
 8479SOL    HW237074   2.063   0.957  13.746  0.0432  0.5165  0.8606
 8480SOL     OW37075   1.870   1.168  13.623  0.5013 -0.3635 -0.3711
 8480SOL    HW137076   1.823   1.210  13.551  0.1918  1.9975  1.2165
 8480SOL    HW237077   1.856   1.074  13.615  3.2592 -0.9701  1.9094
 8481SOL     OW37078   0.754   2.861   1.939  0.3933 -0.1839  0.1386
 8481SOL    HW137079   0.773   2.785   1.994 -0.6874 -1.4434 -1.2006
 8481SOL    HW237080   0.774   2.926   2.005 -0.5055  0.1765  0.0495
 8482SOL     OW37081   1.565   3.267   2.822 -0.2654  0.6321 -0.4876
 8482SOL    HW137082   1.627   3.314   2.766  0.3251 -2.7635 -2.7240
 8482SOL    HW237083   1.620   3.224   2.887 -0.3649  1.0872 -0.1020
 8483SOL     OW37084   0.493   3.278  16.172  0.0265  0.7427  0.0441
 8483SOL    HW137085   0.505   3.253  16.263  0.6061 -1.1607 -0.5595
 8483SOL    HW237086   0.551   3.215  16.130 -0.3696  0.1660  0.3720
 8484SOL     OW37087   4.689   4.363   3.904  0.5782 -0.1943 -0.4896
 8484SOL    HW137088   0.032   4.363   3.951  0.1670 -0.5380  0.2480
 8484SOL    HW237089   4.700   4.434   3.842 -0.4455 -1.2780 -1.9104
 8485SOL     OW37090   4.456   4.505   6.188  0.1447 -0.1370  0.7591
 8485SOL    HW137091   4.489   4.562   6.118 -0.6950  2.2279  2.3044
 8485SOL    HW237092   4.366   4.496   6.158  0.0172 -0.5139  1.2672
 8486SOL     OW37093   0.026   1.205   6.133  0.0241  0.1742 -0.2604
 8486SOL    HW137094   0.001   1.256   6.057  0.4746 -1.8451 -1.7517
 8486SOL    HW237095   0.038   1.113   6.109  1.6796  0.5460 -0.8361
 8487SOL     OW37096   2.158   1.423   5.680  0.1441  0.1478  0.0186
 8487SOL    HW137097   2.118   1.479   5.613  1.2139  0.5797 -0.2607
 8487SOL    HW237098   2.095   1.445   5.748 -0.3303  1.8338 -0.9642
 8488SOL     OW37099   3.339   4.448   7.961  0.3105  0.3799  0.4367
 8488SOL    HW137100   3.291   4.463   8.043 -3.1212 -2.0022 -1.1006
 8488SOL    HW237101   3.368   4.536   7.937  1.0038 -0.5720 -2.1771
 8489SOL     OW37102   1.508   3.772   0.920 -0.7358  0.4197 -0.0360
 8489SOL    HW137103   1.536   3.850   0.873  0.0597  0.1734  0.0315
 8489SOL    HW237104   1.596   3.747   0.947 -0.4824  0.5308 -0.7585
 8490SOL     OW37105   1.202   2.236   1.956 -0.9293  0.1679 -0.1652
 8490SOL    HW137106   1.270   2.221   1.890  0.5914  1.8851  1.0218
 8490SOL    HW237107   1.133   2.174   1.933 -0.6340 -0.6378  1.1441
 8491SOL     OW37108   2.662   2.242   0.653  0.3249  0.6421 -0.3212
 8491SOL    HW137109   2.720   2.247   0.729 -3.1392  0.2514  2.3258
 8491SOL    HW237110   2.605   2.318   0.667  0.3642  0.6227 -0.0508
 8492SOL     OW37111   4.089   1.760  11.158  0.3179 -0.1735 -0.5183
 8492SOL    HW137112   4.058   1.675  11.128 -0.4387 -0.1607  0.2208
 8492SOL    HW237113   4.174   1.743  11.199 -0.4771 -1.6585  0.4974
 8493SOL     OW37114   3.992   1.255   2.709 -0.5658  0.3915  0.0216
 8493SOL    HW137115   3.937   1.324   2.746  2.7154  1.8777  2.0850
 8493SOL    HW237116   3.954   1.242   2.622 -3.2839  0.9110  1.1139
 8494SOL     OW37117   1.329   1.897   2.185 -0.3194  0.8923 -0.2707
 8494SOL    HW137118   1.383   1.900   2.106 -0.1386 -1.1153 -0.2383
 8494SOL    HW237119   1.318   1.990   2.203 -1.3194  1.0022 -1.4326
 8495SOL     OW37120   2.383   1.440   4.417  0.1261 -0.0211  0.1951
 8495SOL    HW137121   2.369   1.495   4.340  1.2676 -0.0252 -0.0215
 8495SOL    HW237122   2.477   1.425   4.403 -0.1870 -1.4189 -0.4457
 8496SOL     OW37123   4.404   0.844  11.249  0.6129 -0.3377  0.0091
 8496SOL    HW137124   4.356   0.925  11.231  1.7899  0.2961 -0.2731
 8496SOL    HW237125   4.421   0.815  11.160 -0.4255  0.4716 -0.4621
 8497SOL     OW37126   3.592   3.345   5.100 -0.7408 -0.1062 -0.8796
 8497SOL    HW137127   3.584   3.250   5.106 -1.1189  0.1682  2.8658
 8497SOL    HW237128   3.606   3.360   5.006 -0.1189  2.4857 -0.3655
 8498SOL     OW37129   0.873   0.628   4.039 -0.5314  0.1204  0.3302
 8498SOL    HW137130   0.955   0.675   4.049 -0.2461 -0.4352  0.5521
 8498SOL    HW237131   0.885   0.553   4.097 -0.2118 -0.3160 -0.3038
 8499SOL     OW37132   3.399   3.686   3.937 -0.4931  0.1149  0.0863
 8499SOL    HW137133   3.321   3.640   3.968  0.3629 -0.2372  1.7261
 8499SOL    HW237134   3.417   3.745   4.010 -2.5829  0.0238  0.6668
 8500SOL     OW37135   4.114   1.040   6.697  0.1470  0.0314 -0.1653
 8500SOL    HW137136   4.059   1.109   6.661 -1.7668 -1.5883 -0.3151
 8500SOL    HW237137   4.121   0.985   6.619  0.9588 -0.6149  0.3522
 8501SOL     OW37138   1.362   3.187   9.022 -0.1300 -0.1462 -0.5046
 8501SOL    HW137139   1.339   3.105   9.065 -1.6444  0.6333  0.1732
 8501SOL    HW237140   1.438   3.151   8.976  0.2273 -0.5571  0.4218
 8502SOL     OW37141   4.281   2.076   3.762  0.1899 -0.6035 -0.3359
 8502SOL    HW137142   4.252   2.127   3.686  1.0304  0.7073  0.2194
 8502SOL    HW237143   4.339   2.134   3.812 -0.6111  2.1781 -2.6230
 8503SOL     OW37144   3.104   2.713   5.586 -0.3299  0.0979  0.1592
 8503SOL    HW137145   3.182   2.723   5.640  0.2865  0.9639 -0.9014
 8503SOL    HW237146   3.124   2.778   5.519  1.9446  1.2124  1.9186
 8504SOL     OW37147   1.533   1.200  15.095  0.6634  0.3125  0.0035
 8504SOL    HW137148   1.562   1.272  15.152  1.0485 -0.5102  0.8379
 8504SOL    HW237149   1.469   1.246  15.040  1.9172 -0.6686 -2.2837
 8505SOL     OW37150   1.421   2.005   9.615 -0.7594 -0.0979 -0.0455
 8505SOL    HW137151   1.408   2.048   9.530 -0.4043  0.4461  0.1732
 8505SOL    HW237152   1.330   1.976   9.626 -0.2007 -0.9641  2.2821
 8506SOL     OW37153   0.801   0.234  16.152  0.6649 -0.7614  0.1217
 8506SOL    HW137154   0.794   0.159  16.093  0.6574 -1.2978  0.8166
 8506SOL    HW237155   0.840   0.190  16.227  1.4583  0.6517  0.5372
 8507SOL     OW37156   3.467   2.113  15.850 -0.1614  0.2050 -0.0557
 8507SOL    HW137157   3.451   2.024  15.817 -1.0246  1.0385 -1.8687
 8507SOL    HW237158   3.557   2.102  15.882 -0.9827  0.0132  2.2472
 8508SOL     OW37159   2.596   3.515   2.005 -0.6195  0.1101 -0.3428
 8508SOL    HW137160   2.569   3.533   1.915  0.7448 -0.4734 -0.8766
 8508SOL    HW237161   2.517   3.521   2.059 -0.3563  2.6410 -0.2462
 8509SOL     OW37162   0.841   4.396   6.740  0.3687  0.5192 -0.3469
 8509SOL    HW137163   0.779   4.467   6.757 -0.4603 -0.2513 -0.1092
 8509SOL    HW237164   0.888   4.413   6.821  1.0629 -2.3053 -0.1483
 8510SOL     OW37165   3.762   0.674   7.708 -0.1359  0.0705  0.3220
 8510SOL    HW137166   3.805   0.643   7.788  3.2168  2.2350 -0.6351
 8510SOL    HW237167   3.702   0.737   7.747 -1.0226 -0.9463  0.5848
 8511SOL     OW37168   3.202   2.110   2.196 -0.5485  0.1957  0.3034
 8511SOL    HW137169   3.208   2.114   2.292  0.3908  1.6424  0.2026
 8511SOL    HW237170   3.297   2.106   2.179 -0.7381 -1.7486 -0.2448
 8512SOL     OW37171   4.049   0.216   9.070  0.0155 -0.2047  0.1835
 8512SOL    HW137172   4.006   0.250   8.992  0.6516  1.5448  0.5914
 8512SOL    HW237173   3.981   0.233   9.135 -0.2970 -0.6099 -0.0422
 8513SOL     OW37174   0.235   1.628   6.581  0.1205  0.6857 -0.2113
 8513SOL    HW137175   0.322   1.666   6.572  0.1167  0.7458  0.0062
 8513SOL    HW237176   0.215   1.607   6.490 -1.7643  0.6949  0.2017
 8514SOL     OW37177   0.112   1.036   1.556 -0.4496  0.1174  0.4172
 8514SOL    HW137178   0.072   0.970   1.500  1.6761 -0.2963 -0.5866
 8514SOL    HW237179   0.096   0.995   1.640 -0.8788 -0.3142  0.1227
 8515SOL     OW37180   1.905   3.260  15.656 -0.6510 -0.1098  0.4073
 8515SOL    HW137181   1.973   3.290  15.596 -1.7982  1.3934 -0.1420
 8515SOL    HW237182   1.836   3.242  15.591 -0.7167 -0.6566  0.6289
 8516SOL     OW37183   2.956   2.872   0.502 -0.2705 -0.2857 -0.0437
 8516SOL    HW137184   2.931   2.826   0.422 -0.5051  0.4827 -0.4186
 8516SOL    HW237185   3.051   2.858   0.495  0.1280  1.0420  2.8003
 8517SOL     OW37186   0.265   0.448  13.502  0.4093  0.7444  0.4723
 8517SOL    HW137187   0.194   0.393  13.467  0.7119 -0.1552  1.2433
 8517SOL    HW237188   0.332   0.381  13.513 -0.4518 -0.1596  0.2646
 8518SOL     OW37189   2.946   3.437   6.621  0.0640  0.2563  0.1482
 8518SOL    HW137190   3.025   3.397   6.584 -0.1458  0.6131 -0.6957
 8518SOL    HW237191   2.883   3.365   6.620  0.8905 -0.4675 -0.4280
 8519SOL     OW37192   1.715   0.036   2.229 -0.3927  0.6233  0.3225
 8519SOL    HW137193   1.796   0.024   2.278 -0.2425 -2.5237 -0.7233
 8519SOL    HW237194   1.747   0.045   2.140  0.0946  0.0570  0.4444
 8520SOL     OW37195   1.767   2.183  15.042  0.4790 -0.3233  0.0899
 8520SOL    HW137196   1.745   2.198  15.133 -0.9500  0.5669 -0.3973
 8520SOL    HW237197   1.684   2.191  14.994 -0.8168 -2.0745  2.0628
 8521SOL     OW37198   1.131   1.475   4.787  0.3247 -0.2675 -0.0743
 8521SOL    HW137199   1.162   1.468   4.877 -0.7786 -0.1497  0.3203
 8521SOL    HW237200   1.104   1.565   4.769  0.1718 -0.6258 -1.6935
 8522SOL     OW37201   1.787   2.640  13.511 -0.3978  0.0010 -0.2617
 8522SOL    HW137202   1.709   2.632  13.456 -1.0401  0.8085  0.5390
 8522SOL    HW237203   1.761   2.599  13.593  0.0088 -0.5428 -0.4125
 8523SOL     OW37204   0.298   3.151   8.477 -0.0085  0.5032  0.2553
 8523SOL    HW137205   0.269   3.198   8.555  0.0935 -0.2840  0.7659
 8523SOL    HW237206   0.368   3.213   8.455  0.6116 -0.6507 -1.0249
 8524SOL     OW37207   1.937   3.061   9.255 -0.0275  0.0343  0.0640
 8524SOL    HW137208   1.939   2.991   9.190  1.0953  0.5685 -0.4728
 8524SOL    HW237209   1.856   3.037   9.300  0.1183  2.0984  1.4465
 8525SOL     OW37210   0.886   1.907   5.806 -0.3956  0.3585  0.1416
 8525SOL    HW137211   0.868   1.963   5.882 -1.2354 -1.1652  1.0555
 8525SOL    HW237212   0.924   1.832   5.850  0.4983  0.2126 -0.8859
 8526SOL     OW37213   4.360   1.807   9.904  0.2671  0.1179 -0.8447
 8526SOL    HW137214   4.281   1.779   9.858 -0.2533 -2.2825  1.4900
 8526SOL    HW237215   4.429   1.748   9.873 -0.5265 -0.4273 -1.5611
 8527SOL     OW37216   3.519   2.308   6.790  0.0246 -0.1692 -0.1529
 8527SOL    HW137217   3.565   2.258   6.857  0.2912 -0.4402 -0.5342
 8527SOL    HW237218   3.499   2.238   6.728 -0.9529 -1.2677  1.4048
 8528SOL     OW37219   4.094   2.567   7.816  0.2925  0.4720 -0.1706
 8528SOL    HW137220   4.160   2.507   7.781 -1.5569 -1.5563 -0.1868
 8528SOL    HW237221   4.072   2.534   7.903  1.3278  1.0813  0.3279
 8529SOL     OW37222   4.573   0.139   9.492 -0.1098 -0.4512  0.2452
 8529SOL    HW137223   4.497   0.102   9.447  0.6427 -0.8598 -0.6850
 8529SOL    HW237224   4.531   0.163   9.574  2.5684 -0.9677  1.7716
 8530SOL     OW37225   4.138   2.535   3.484  0.6869  1.0755  0.4815
 8530SOL    HW137226   4.050   2.547   3.518  0.0812 -2.2827  0.1347
 8530SOL    HW237227   4.118   2.466   3.421  2.8244 -0.0632  1.0255
 8531SOL     OW37228   2.999   4.392   3.161 -0.0215  0.2836 -0.1660
 8531SOL    HW137229   3.050   4.321   3.199 -1.3808 -0.7107 -0.1809
 8531SOL    HW237230   2.919   4.383   3.213  0.1899  0.7438  0.2310
 8532SOL     OW37231   4.261   3.062  10.192 -0.4195  0.7525  0.3494
 8532SOL    HW137232   4.302   2.992  10.243 -0.2015 -0.0873 -0.9794
 8532SOL    HW237233   4.193   3.009  10.149 -0.1135 -1.7888  3.0714
 8533SOL     OW37234   1.700   2.585   7.135 -0.4800  0.1533  0.3823
 8533SOL    HW137235   1.779   2.619   7.176 -1.5510  1.6226  1.2499
 8533SOL    HW237236   1.729   2.495   7.122 -3.6390 -0.6333 -1.2213
 8534SOL     OW37237   2.198   0.884   0.598 -0.2760 -0.2287 -0.2577
 8534SOL    HW137238   2.293   0.873   0.602 -0.3356 -1.5453 -2.6645
 8534SOL    HW237239   2.175   0.903   0.507 -1.4828 -0.1836  0.0581
 8535SOL     OW37240   3.074   1.983   3.872 -0.1930  0.1564  0.2598
 8535SOL    HW137241   3.037   2.071   3.866 -0.6504  0.1509  2.7683
 8535SOL    HW237242   3.164   2.004   3.897  0.0708  0.2291 -0.7728
 8536SOL     OW37243   2.463   3.224   9.119 -0.2285 -0.6519 -0.4411
 8536SOL    HW137244   2.460   3.128   9.123 -1.7210 -0.5312  1.4735
 8536SOL    HW237245   2.546   3.248   9.160  0.4538 -0.6706 -1.8020
 8537SOL     OW37246   4.675   3.871   8.697  0.2765  0.9783 -0.0594
 8537SOL    HW137247   4.597   3.923   8.677  0.0094  1.2799  1.7221
 8537SOL    HW237248   4.642   3.785   8.723 -0.5459  1.8505  1.7673
 8538SOL     OW37249   2.606   2.557   6.314  0.3446  1.1563 -0.6646
 8538SOL    HW137250   2.599   2.525   6.223  1.1286 -0.1873 -0.2544
 8538SOL    HW237251   2.690   2.604   6.309  0.4330  1.0278 -0.3598
 8539SOL     OW37252   1.131   2.686  11.856  0.5651  0.2214 -0.0112
 8539SOL    HW137253   1.051   2.708  11.903 -1.2837 -0.2729 -2.8743
 8539SOL    HW237254   1.113   2.602  11.812 -3.6658  0.8833  0.3795
 8540SOL     OW37255   3.773   1.935   7.930 -0.0050 -0.6998 -0.1092
 8540SOL    HW137256   3.709   1.942   8.001 -0.3037  0.6658 -0.5071
 8540SOL    HW237257   3.795   1.842   7.928  0.9708 -0.4191 -2.5633
 8541SOL     OW37258   3.785   1.551   7.949  0.1598 -0.2414 -0.5670
 8541SOL    HW137259   3.841   1.476   7.965 -0.4498 -0.0346  2.4370
 8541SOL    HW237260   3.773   1.528   7.857 -0.3042  0.9239 -0.8075
 8542SOL     OW37261   1.945   1.688   6.338 -0.5760 -0.6982  0.3019
 8542SOL    HW137262   2.009   1.759   6.342 -0.5064 -0.6773 -1.2050
 8542SOL    HW237263   1.940   1.676   6.243 -2.0998  1.9614  0.0475
 8543SOL     OW37264   2.992   2.297   8.481  0.1769 -0.4259 -0.1647
 8543SOL    HW137265   2.939   2.224   8.449 -0.2745  0.4800 -1.4457
 8543SOL    HW237266   3.038   2.264   8.558  0.7124 -1.2544 -0.8518
 8544SOL     OW37267   0.297   1.169   6.307  0.5184  0.4888  0.5748
 8544SOL    HW137268   0.317   1.197   6.218  1.2459 -0.5038  0.4210
 8544SOL    HW237269   0.238   1.096   6.287  0.4926  0.4268  0.8684
 8545SOL     OW37270   4.453   0.658   3.866  0.2585  0.2135  0.2081
 8545SOL    HW137271   4.542   0.642   3.897 -0.7993 -1.4426  2.3773
 8545SOL    HW237272   4.446   0.605   3.786  1.6673 -1.2717  1.0611
 8546SOL     OW37273   2.282   3.619   2.549 -0.1499  0.4083 -0.4967
 8546SOL    HW137274   2.295   3.623   2.644  0.8946  0.1369 -0.6257
 8546SOL    HW237275   2.200   3.569   2.553 -0.7313  1.5570  2.2467
 8547SOL     OW37276   1.179   4.521  16.978  0.0826  0.0136 -0.1300
 8547SOL    HW137277   1.228   4.448  17.015  0.6718  0.0860 -0.7721
 8547SOL    HW237278   1.192   4.583  17.050  0.1611 -0.4599  0.2602
 8548SOL     OW37279   2.331   2.361  15.036 -0.3302 -0.2330 -0.2603
 8548SOL    HW137280   2.253   2.307  15.053  0.4437 -0.8499  1.3201
 8548SOL    HW237281   2.317   2.378  14.943  0.7500  1.2985 -0.1278
 8549SOL     OW37282   1.205   2.637   6.009 -0.0482 -0.2543 -0.0775
 8549SOL    HW137283   1.188   2.725   6.041 -1.6495 -0.5513 -0.0884
 8549SOL    HW237284   1.125   2.592   6.037 -2.2267  2.8947 -1.2541
 8550SOL     OW37285   0.838   1.884  10.400 -0.3070 -0.2883  0.2678
 8550SOL    HW137286   0.760   1.869  10.346  0.7294 -1.3729 -0.9452
 8550SOL    HW237287   0.872   1.968  10.370 -0.1564  0.5420  2.7880
 8551SOL     OW37288   4.190   0.220   4.254 -0.2720  0.1278  0.0519
 8551SOL    HW137289   4.137   0.160   4.306 -1.2768  1.3218  0.4172
 8551SOL    HW237290   4.280   0.200   4.280 -0.7123 -0.1730  1.3736
 8552SOL     OW37291   2.551   0.674   9.259  0.1672 -0.2647  0.4677
 8552SOL    HW137292   2.558   0.769   9.261  1.1826 -0.3821  2.5051
 8552SOL    HW237293   2.480   0.643   9.315 -0.6252 -1.0422 -0.9627
 8553SOL     OW37294   1.148   1.160   5.301 -0.4530  0.3309  0.5442
 8553SOL    HW137295   1.211   1.167   5.372  1.3172  0.7557 -1.0859
 8553SOL    HW237296   1.207   1.204   5.240  0.0660  3.4564  3.2824
 8554SOL     OW37297   3.647   1.923   8.657 -0.1606  0.3073  0.2738
 8554SOL    HW137298   3.590   1.848   8.674  1.1792 -0.7666  0.0740
 8554SOL    HW237299   3.574   1.982   8.641 -1.3972 -0.9526  1.3561
 8555SOL     OW37300   0.777   1.277  14.327 -0.3216 -0.1787  0.1876
 8555SOL    HW137301   0.717   1.278  14.252  2.7515 -0.5145 -2.3223
 8555SOL    HW237302   0.822   1.198  14.294 -1.6451 -0.1456 -1.6923
 8556SOL     OW37303   1.229   3.819  11.548 -0.1373  0.4265 -0.0650
 8556SOL    HW137304   1.177   3.854  11.476  1.0069  2.1690 -0.0710
 8556SOL    HW237305   1.188   3.733  11.548  3.3881 -1.2634  0.0936
 8557SOL     OW37306   1.355   0.976   3.410 -0.3086  0.1052 -0.5931
 8557SOL    HW137307   1.408   0.946   3.336 -1.1746 -0.0484 -1.1541
 8557SOL    HW237308   1.380   1.067   3.425  0.8576 -0.1281 -1.0876
 8558SOL     OW37309   1.979   3.317   9.340  0.3819  0.1718  0.2142
 8558SOL    HW137310   1.972   3.230   9.300  0.5427 -1.2641  3.2896
 8558SOL    HW237311   2.065   3.304   9.380  0.2434 -1.4139 -0.0219
 8559SOL     OW37312   4.691   1.777   6.425  0.5396 -0.0528 -0.0004
 8559SOL    HW137313   0.012   1.753   6.495  0.6087  0.6443  0.1817
 8559SOL    HW237314   4.625   1.717   6.460  0.0522  0.1414 -0.5881
 8560SOL     OW37315   4.688   0.293   2.997  0.2793  0.2343 -0.3008
 8560SOL    HW137316   4.604   0.248   2.991 -0.0849  0.9536 -0.6504
 8560SOL    HW237317   4.649   0.381   2.995 -1.2846 -0.4508  0.0354
 8561SOL     OW37318   1.657   2.834   6.955 -0.4452 -0.1022 -0.3059
 8561SOL    HW137319   1.637   2.852   6.863  0.9713  2.1848 -0.1763
 8561SOL    HW237320   1.576   2.854   7.002 -1.4615  0.5713 -2.3690
 8562SOL     OW37321   1.575   0.813   5.459  0.1092 -0.4946  0.3533
 8562SOL    HW137322   1.623   0.754   5.401  0.7278  0.3248  0.0280
 8562SOL    HW237323   1.645   0.875   5.481 -0.9219  0.8193 -0.0606
 8563SOL     OW37324   1.339   3.956   2.496  0.1572  0.0485  0.1625
 8563SOL    HW137325   1.311   4.012   2.569 -0.0161 -0.2165  0.2986
 8563SOL    HW237326   1.433   3.975   2.491  0.3848 -1.2390 -0.3391
 8564SOL     OW37327   1.531   1.945  12.597  0.7455 -0.5952 -0.3624
 8564SOL    HW137328   1.507   1.992  12.516 -0.7905  0.3873  0.6569
 8564SOL    HW237329   1.540   2.021  12.655  0.0095 -0.1553 -0.8171
 8565SOL     OW37330   1.781   2.583   1.818 -0.5068 -0.3798 -0.0113
 8565SOL    HW137331   1.771   2.659   1.876 -1.0852  1.2900 -2.2448
 8565SOL    HW237332   1.801   2.513   1.879 -1.0261 -2.6125 -2.4313
 8566SOL     OW37333   4.266   2.241   5.801 -0.0935  0.2767 -0.2093
 8566SOL    HW137334   4.356   2.237   5.770  0.1203  1.2123  0.3094
 8566SOL    HW237335   4.231   2.309   5.743  1.4925 -1.0391 -2.7198
 8567SOL     OW37336   1.434   2.110   6.852  0.1605  0.0232  0.2494
 8567SOL    HW137337   1.422   2.024   6.891  1.8488 -0.1875  0.2793
 8567SOL    HW237338   1.524   2.106   6.821  0.2906 -0.4834  0.6975
 8568SOL     OW37339   1.969   2.341   5.635 -0.1228  0.3977  0.6664
 8568SOL    HW137340   2.052   2.297   5.654  0.4723  1.2684  0.0860
 8568SOL    HW237341   1.915   2.294   5.698 -2.0787  1.2943 -0.3345
 8569SOL     OW37342   4.011   2.406   8.566 -0.2432  0.5326  0.1541
 8569SOL    HW137343   4.081   2.394   8.629 -0.5597 -1.5524  0.1042
 8569SOL    HW237344   4.050   2.387   8.480 -0.0353  1.3482  0.0691
 8570SOL     OW37345   3.053   2.227   0.940  0.4320 -0.2160 -1.1045
 8570SOL    HW137346   2.965   2.256   0.915  0.7842  1.4660 -0.3884
 8570SOL    HW237347   3.061   2.147   0.888  0.7239 -0.8180 -0.1386
 8571SOL     OW37348   4.071   0.321   8.266 -0.5559 -0.1844 -0.3087
 8571SOL    HW137349   4.158   0.301   8.300 -1.1519 -3.0348 -0.4687
 8571SOL    HW237350   4.069   0.414   8.285 -1.2128  0.2440 -2.4383
 8572SOL     OW37351   3.325   3.096   9.185 -0.1055  0.6645 -0.2749
 8572SOL    HW137352   3.294   3.121   9.272 -1.2128 -2.8381  0.3499
 8572SOL    HW237353   3.389   3.167   9.184  1.2111 -0.5194 -1.1647
 8573SOL     OW37354   0.529   1.045   5.634 -0.1120 -0.2079  0.0182
 8573SOL    HW137355   0.478   1.005   5.564  0.6538 -3.1982  1.1466
 8573SOL    HW237356   0.486   1.130   5.625 -1.1183 -0.9872 -2.3864
 8574SOL     OW37357   4.050   3.505   7.922 -0.4381 -0.3394 -0.0807
 8574SOL    HW137358   3.994   3.545   7.989 -0.3552  0.9073 -0.7386
 8574SOL    HW237359   4.097   3.440   7.974  1.4154  1.0060 -0.0388
 8575SOL     OW37360   0.374   3.345   4.451 -0.1649  0.9001  0.0764
 8575SOL    HW137361   0.404   3.389   4.530 -0.7175  0.4285  0.5519
 8575SOL    HW237362   0.447   3.286   4.432 -0.1578  1.1293 -0.5864
 8576SOL     OW37363   3.405   1.476  10.942  0.0134  0.2671  0.1438
 8576SOL    HW137364   3.311   1.468  10.928  0.2571 -1.4730 -0.4007
 8576SOL    HW237365   3.425   1.390  10.978  1.1236  0.6945  0.5666
 8577SOL     OW37366   1.629   4.549   8.008  0.1876 -0.1536 -0.4249
 8577SOL    HW137367   1.603   4.467   8.049 -0.2137  0.4339  0.4959
 8577SOL    HW237368   1.664   4.597   8.082 -0.2636 -0.2878 -0.1255
 8578SOL     OW37369   1.350   2.620   4.058  0.0941  0.0681 -0.3240
 8578SOL    HW137370   1.272   2.676   4.057 -1.2957 -1.8144  1.9488
 8578SOL    HW237371   1.317   2.536   4.090 -0.6519  0.5053  0.0736
 8579SOL     OW37372   3.440   4.706  15.285  0.2491 -0.5317  0.2022
 8579SOL    HW137373   3.530   4.685  15.263  0.6703 -0.2405  1.6047
 8579SOL    HW237374   3.402   0.008  15.208 -0.8470  0.3141  1.1943
 8580SOL     OW37375   4.180   3.714   7.793 -0.2358  0.2182 -0.3459
 8580SOL    HW137376   4.143   3.658   7.861 -0.4135  0.3512 -0.3320
 8580SOL    HW237377   4.238   3.767   7.847 -2.0288  2.0981 -0.2499
 8581SOL     OW37378   1.601   3.106   3.517 -0.0294  0.0219 -0.7144
 8581SOL    HW137379   1.598   3.194   3.478  1.4399  0.0796 -0.7006
 8581SOL    HW237380   1.526   3.059   3.480  0.4393  0.0313 -1.7029
 8582SOL     OW37381   1.116   4.679  16.755 -0.2192 -0.2409  0.0247
 8582SOL    HW137382   1.160   4.734  16.820  0.8164 -1.2321  0.1666
 8582SOL    HW237383   1.156   4.600  16.791 -0.7852 -0.6518 -0.2489
 8583SOL     OW37384   1.634   4.519  10.247 -0.2831 -0.4206  0.3479
 8583SOL    HW137385   1.654   4.480  10.332  1.5876  2.7510  1.3279
 8583SOL    HW237386   1.553   4.472  10.224 -0.2092  0.9618 -2.6669
 8584SOL     OW37387   1.282   2.538   2.743 -0.3293 -0.3207 -0.4272
 8584SOL    HW137388   1.351   2.548   2.678  0.5694 -0.4576  0.5190
 8584SOL    HW237389   1.279   2.446   2.771  0.8433  0.3955  1.9760
 8585SOL     OW37390   1.961   1.288   1.788  0.1593  0.5789  0.8191
 8585SOL    HW137391   1.867   1.293   1.769 -0.1154 -2.0653  1.4346
 8585SOL    HW237392   1.999   1.307   1.702 -0.7122 -1.1927  0.0405
 8586SOL     OW37393   2.565   2.896  16.183 -0.1649  0.1453 -0.5164
 8586SOL    HW137394   2.608   2.945  16.113  0.5045 -2.3809 -1.8342
 8586SOL    HW237395   2.568   2.968  16.247 -2.2887  1.0319 -1.4071
 8587SOL     OW37396   1.516   0.162   2.944  0.4931 -0.0486  0.7159
 8587SOL    HW137397   1.487   0.081   2.902  0.3337  0.1551  0.4346
 8587SOL    HW237398   1.451   0.191   3.008 -0.9501  3.3753 -2.2838
 8588SOL     OW37399   3.458   1.293  11.955  0.6085 -0.3725  0.2004
 8588SOL    HW137400   3.383   1.238  11.931  0.7932 -0.7828  0.5732
 8588SOL    HW237401   3.433   1.345  12.031  1.0261  1.3147 -0.8205
 8589SOL     OW37402   2.045   3.577   8.517  0.0619  0.2447 -0.1933
 8589SOL    HW137403   2.061   3.587   8.423  0.0698 -3.2222 -0.5478
 8589SOL    HW237404   1.959   3.536   8.528  0.0129  0.6375  0.8632
 8590SOL     OW37405   2.282   0.218   4.675  0.5875 -0.0162 -0.0791
 8590SOL    HW137406   2.242   0.137   4.706 -1.2833  0.9467  0.0189
 8590SOL    HW237407   2.262   0.283   4.742  0.1712 -0.0752 -0.1468
 8591SOL     OW37408   1.530   4.504   8.968 -0.8861 -0.0149 -0.0893
 8591SOL    HW137409   1.604   4.515   9.028 -0.7556 -0.6462 -0.1328
 8591SOL    HW237410   1.518   4.411   8.990 -0.3903 -0.8159 -3.1841
 8592SOL     OW37411   3.651   3.238   2.256  0.7607 -0.1484  0.3545
 8592SOL    HW137412   3.564   3.233   2.295  0.4077 -0.5443 -0.4853
 8592SOL    HW237413   3.693   3.164   2.299  1.0570 -0.8941 -1.2303
 8593SOL     OW37414   0.140   2.362   8.713 -0.5424  0.3138 -0.1500
 8593SOL    HW137415   0.089   2.409   8.779  0.6562 -0.6770  1.5082
 8593SOL    HW237416   0.189   2.295   8.762 -1.2722 -1.6764 -2.1271
 8594SOL     OW37417   3.134   0.365   7.002 -0.2343  0.1340 -0.0592
 8594SOL    HW137418   3.132   0.455   7.034  2.0810  0.0076  0.4643
 8594SOL    HW237419   3.178   0.325   7.078 -1.9945  0.2421  1.0275
 8595SOL     OW37420   0.112   3.872   9.401 -0.4014 -0.0747  0.0443
 8595SOL    HW137421   0.041   3.823   9.441  0.7254 -1.6617  0.1141
 8595SOL    HW237422   0.066   3.955   9.392 -1.4965 -0.4974  1.8012
 8596SOL     OW37423   2.432   1.731   2.494 -0.6907 -0.0334 -0.0483
 8596SOL    HW137424   2.430   1.823   2.467 -1.2768  0.0873  0.4004
 8596SOL    HW237425   2.488   1.690   2.429 -2.0185  0.1872 -1.3274
 8597SOL     OW37426   4.524   3.979   6.562 -0.3155  0.1920  0.4702
 8597SOL    HW137427   4.499   4.056   6.613 -1.3930 -0.2962  0.6787
 8597SOL    HW237428   4.461   3.992   6.491 -1.7568 -1.5934  1.4234
 8598SOL     OW37429   2.276   0.076  11.474  0.3763  0.2198 -0.0488
 8598SOL    HW137430   2.222   4.738  11.486 -0.5593  0.8747 -0.0086
 8598SOL    HW237431   2.224   0.143  11.519 -0.6059 -1.8216  1.8357
 8599SOL     OW37432   0.190   3.867   7.771 -0.2579 -0.2006 -0.1579
 8599SOL    HW137433   0.267   3.850   7.825 -1.2557  2.0848  1.9450
 8599SOL    HW237434   0.146   3.782   7.768  2.1807 -1.4502 -1.0290
 8600SOL     OW37435   4.506   3.288   1.442 -0.4764  0.2757  0.3864
 8600SOL    HW137436   4.591   3.247   1.458 -0.3788  0.3944  0.1802
 8600SOL    HW237437   4.533   3.353   1.377 -0.2418  0.2527  0.4600
 8601SOL     OW37438   2.886   1.816   7.544 -0.0061  0.6045  0.0328
 8601SOL    HW137439   2.844   1.895   7.509 -0.4066  1.5279  2.5712
 8601SOL    HW237440   2.975   1.850   7.533 -0.2585 -0.2420 -4.4925
 8602SOL     OW37441   1.497   3.816   4.718 -0.0008 -0.5193  0.0480
 8602SOL    HW137442   1.497   3.905   4.682  1.3511 -1.1353 -1.4682
 8602SOL    HW237443   1.568   3.781   4.666 -0.0370 -0.7059  0.1257
 8603SOL     OW37444   1.991   0.553   2.126  0.5193 -0.4363 -0.5944
 8603SOL    HW137445   1.990   0.618   2.196 -0.1433 -1.9168  0.7961
 8603SOL    HW237446   2.083   0.545   2.104  0.1437 -0.2402 -2.2416
 8604SOL     OW37447   2.255   0.226  15.431  0.2567  0.2063 -0.4392
 8604SOL    HW137448   2.236   0.288  15.362 -2.7755 -2.5886 -2.1050
 8604SOL    HW237449   2.264   0.149  15.375 -1.2695 -0.2076 -0.0971
 8605SOL     OW37450   3.807   0.755   5.944 -0.8040 -0.3952 -0.3892
 8605SOL    HW137451   3.713   0.749   5.963 -0.8098 -1.2633 -0.6934
 8605SOL    HW237452   3.819   0.761   5.849 -2.2989  0.1646 -0.5441
 8606SOL     OW37453   0.750   3.526  11.839  0.2006  0.1703 -0.6567
 8606SOL    HW137454   0.797   3.480  11.770  1.4147  0.0926  0.2172
 8606SOL    HW237455   0.663   3.502  11.809 -0.3202  1.0600  0.1420
 8607SOL     OW37456   4.651   0.678  10.736  0.6907  0.1714  0.6661
 8607SOL    HW137457   4.652   0.582  10.736 -2.8880  0.1235  0.6622
 8607SOL    HW237458   4.557   0.696  10.743  0.8580  0.7398  1.4979
 8608SOL     OW37459   2.528   1.700   1.337 -0.0840 -0.0405 -0.2768
 8608SOL    HW137460   2.473   1.675   1.410  0.0736 -0.1882 -0.2083
 8608SOL    HW237461   2.561   1.617   1.303 -2.1646 -1.1572  0.4612
 8609SOL     OW37462   1.535   2.547  16.332  0.1096  0.6005 -0.4509
 8609SOL    HW137463   1.499   2.636  16.325  0.0324  0.5805 -0.2979
 8609SOL    HW237464   1.501   2.510  16.251 -0.4005  2.4600 -1.0824
 8610SOL     OW37465   0.099   1.637   4.925 -0.3469 -0.2008 -0.5640
 8610SOL    HW137466   0.033   1.618   4.993  1.3413 -0.6659  0.9610
 8610SOL    HW237467   0.050   1.676   4.853 -3.6601 -1.0149  1.2306
 8611SOL     OW37468   2.179   0.764   9.085  0.4340  0.3863  0.2246
 8611SOL    HW137469   2.150   0.761   8.994 -0.7312 -2.5542  0.6748
 8611SOL    HW237470   2.103   0.783   9.139 -0.3814 -0.6015 -0.5864
 8612SOL     OW37471   2.085   2.080  13.464  0.0338  0.5303 -0.3280
 8612SOL    HW137472   2.161   2.126  13.429  0.0565  0.4280 -0.4167
 8612SOL    HW237473   2.129   1.995  13.473 -0.1784  0.3178 -1.2405
 8613SOL     OW37474   1.706   1.874  13.718  0.0944 -0.0711 -0.6162
 8613SOL    HW137475   1.724   1.963  13.748 -0.5837 -0.1873  0.1447
 8613SOL    HW237476   1.793   1.836  13.719 -0.5133 -1.4029  0.9342
 8614SOL     OW37477   1.247   0.811   5.182 -0.4328  0.6356 -0.2263
 8614SOL    HW137478   1.336   0.793   5.153 -0.3936 -0.6334  0.6768
 8614SOL    HW237479   1.208   0.847   5.102  2.4225  1.4069 -1.2544
 8615SOL     OW37480   1.810   2.254   8.892  0.4075  0.2332  0.0362
 8615SOL    HW137481   1.886   2.302   8.860 -1.4517  1.7068 -2.1536
 8615SOL    HW237482   1.753   2.271   8.817  0.3322 -2.9850 -0.6205
 8616SOL     OW37483   2.050   1.291   1.544  0.5388 -0.0657 -0.4128
 8616SOL    HW137484   2.034   1.299   1.450 -0.8778 -2.2788 -0.3702
 8616SOL    HW237485   2.086   1.202   1.545  2.4965  0.7509  0.5477
 8617SOL     OW37486   1.886   4.087   3.727 -0.1374 -0.4124  0.1750
 8617SOL    HW137487   1.888   4.028   3.652  0.1709  0.1842 -0.2919
 8617SOL    HW237488   1.867   4.167   3.677  0.4246 -0.6814 -0.4696
 8618SOL     OW37489   1.055   0.774   1.220  0.1308  0.2951 -0.1183
 8618SOL    HW137490   0.965   0.793   1.195  0.1386 -0.1133 -0.4738
 8618SOL    HW237491   1.076   0.708   1.153  0.8309 -0.1196  0.5124
 8619SOL     OW37492   1.300   1.404   8.547  0.5678  0.1300 -0.2863
 8619SOL    HW137493   1.264   1.479   8.499 -1.1597  0.3360  1.3230
 8619SOL    HW237494   1.383   1.391   8.502 -0.6507 -2.2949 -1.8381
 8620SOL     OW37495   0.261   0.171   8.022  0.7104 -0.0858  0.0153
 8620SOL    HW137496   0.220   0.158   8.107 -1.1381 -1.0061 -1.0081
 8620SOL    HW237497   0.290   0.082   8.004 -2.2870 -1.1305  0.3337
 8621SOL     OW37498   0.014   4.622   3.802  0.1609 -0.0441 -0.1277
 8621SOL    HW137499   4.700   4.663   3.869 -0.1029 -1.0238  0.2544
 8621SOL    HW237500   0.100   4.662   3.815 -0.8337  1.1438  2.7030
 8622SOL     OW37501   1.875   1.229   2.805 -0.3782  0.0547 -0.2094
 8622SOL    HW137502   1.786   1.230   2.768 -0.2203  0.5234 -0.5758
 8622SOL    HW237503   1.914   1.158   2.754  3.2820  0.2981  2.2987
 8623SOL     OW37504   0.768   0.922   0.039 -0.0234  0.6175  0.0683
 8623SOL    HW137505   0.829   0.896   0.108  0.7439 -1.0552 -1.2366
 8623SOL    HW237506   0.800   0.870  17.723 -1.1110 -0.3769  0.3109
 8624SOL     OW37507   2.900   0.254   6.968  0.6470  0.3557  0.0278
 8624SOL    HW137508   2.986   0.294   6.978 -0.9169  3.8418 -0.5831
 8624SOL    HW237509   2.916   0.188   6.900 -1.8575 -0.8855  0.6576
 8625SOL     OW37510   4.438   0.196   3.051 -0.4614  0.7314  0.3197
 8625SOL    HW137511   4.375   0.229   2.985  1.7474 -0.8586 -2.5746
 8625SOL    HW237512   4.383   0.144   3.109  2.1926 -2.1749  0.1981
 8626SOL     OW37513   3.674   2.350   6.426  0.4923 -0.1472  0.6493
 8626SOL    HW137514   3.596   2.308   6.462 -1.1359  0.7242 -1.8965
 8626SOL    HW237515   3.645   2.440   6.444 -0.7388 -0.2332 -0.9547
 8627SOL     OW37516   2.635   0.586   6.796 -0.2637  0.3658 -0.5992
 8627SOL    HW137517   2.664   0.676   6.811 -0.6600  0.2987  0.6195
 8627SOL    HW237518   2.694   0.562   6.724  0.8608  0.3522  0.3239
 8628SOL     OW37519   1.911   4.281   2.713 -0.0219  0.1889 -0.2147
 8628SOL    HW137520   1.954   4.345   2.656  1.2248 -0.6281 -0.1787
 8628SOL    HW237521   1.830   4.261   2.666 -1.2842  1.3484  1.4508
 8629SOL     OW37522   0.061   2.634   0.888  0.3166 -0.0423 -0.4954
 8629SOL    HW137523   0.029   2.635   0.798  0.3479 -0.4530 -0.5113
 8629SOL    HW237524   0.085   2.723   0.915 -0.4724 -0.6320  2.1978
 8630SOL     OW37525   1.877   3.865   9.128  0.5096  0.5759 -0.3059
 8630SOL    HW137526   1.960   3.860   9.082  0.5341  1.4493 -0.3626
 8630SOL    HW237527   1.836   3.781   9.109 -0.9415  1.0037  0.8993
 8631SOL     OW37528   3.258   0.057  12.004  0.9133 -0.5563 -0.4148
 8631SOL    HW137529   3.231   4.739  12.075 -3.1351 -0.1237 -1.6117
 8631SOL    HW237530   3.316   0.004  11.949 -1.1982 -1.2503 -1.9617
 8632SOL     OW37531   3.623   0.094   4.393  0.4692  0.2813  0.3637
 8632SOL    HW137532   3.666   0.178   4.405 -0.5385  0.7353  0.7521
 8632SOL    HW237533   3.657   0.071   4.306 -1.2549  0.0184 -0.2396
 8633SOL     OW37534   3.376   0.908   5.381 -0.5856 -0.0309  0.0061
 8633SOL    HW137535   3.338   0.884   5.296 -0.4258 -2.7345  0.6883
 8633SOL    HW237536   3.470   0.904   5.365 -0.5156 -1.1062  0.6922
 8634SOL     OW37537   1.841   2.406   2.011  0.4870  0.3818  0.1991
 8634SOL    HW137538   1.926   2.366   1.990 -1.6552 -1.2805 -5.2503
 8634SOL    HW237539   1.861   2.460   2.087  0.9969 -3.4588  2.7699
 8635SOL     OW37540   0.869   0.946   0.493 -0.1072  0.3956 -0.0669
 8635SOL    HW137541   0.817   0.870   0.467  0.2490  0.5956 -1.4025
 8635SOL    HW237542   0.804   1.016   0.500 -0.0032  0.7342 -2.4155
 8636SOL     OW37543   3.619   4.381   9.239  0.0464 -0.7192 -0.1608
 8636SOL    HW137544   3.532   4.410   9.265  0.6790 -0.8465  2.0569
 8636SOL    HW237545   3.621   4.288   9.261 -2.7318 -1.3641 -2.5139
 8637SOL     OW37546   3.859   4.243  10.857  0.5174 -0.3863 -0.4347
 8637SOL    HW137547   3.769   4.215  10.846  0.4811 -0.2397 -0.5119
 8637SOL    HW237548   3.866   4.320  10.800 -0.0912 -1.3067 -1.7667
 8638SOL     OW37549   0.604   3.262   2.620  0.3793 -0.0390  0.1672
 8638SOL    HW137550   0.547   3.316   2.565  0.6398 -1.7283 -1.8122
 8638SOL    HW237551   0.560   3.178   2.608 -0.2306  0.3033  0.0353
 8639SOL     OW37552   0.719   0.039  10.685  0.6427  0.4127 -0.2153
 8639SOL    HW137553   0.732   0.134  10.683  0.5039  0.4358  0.0070
 8639SOL    HW237554   0.777   4.736  10.621  0.0746  0.0879 -0.5059
 8640SOL     OW37555   2.604   1.597   2.312 -0.8034  0.6902  0.1546
 8640SOL    HW137556   2.599   1.594   2.217  1.4636  0.4905  0.0313
 8640SOL    HW237557   2.692   1.569   2.336 -1.6898 -1.0027  1.4615
 8641SOL     OW37558   3.979   2.691   7.337  0.2975 -0.1657  0.4416
 8641SOL    HW137559   3.936   2.611   7.365 -1.8329  0.7942 -0.1452
 8641SOL    HW237560   3.978   2.745   7.415  2.0525 -0.1992  0.4995
 8642SOL     OW37561   3.604   1.016   8.648  0.2484 -0.3534  0.2094
 8642SOL    HW137562   3.570   0.968   8.724  2.8394  0.4052  1.8335
 8642SOL    HW237563   3.593   1.105   8.682 -0.4473 -0.8366  1.2522
 8643SOL     OW37564   4.118   0.101   5.660  0.6310 -0.0322 -0.3760
 8643SOL    HW137565   4.051   0.147   5.610  1.0510  0.9450 -0.0464
 8643SOL    HW237566   4.124   0.019   5.610 -1.6690 -0.4109 -0.0058
 8644SOL     OW37567   2.746   0.783   2.459 -0.0671 -0.7483  0.3442
 8644SOL    HW137568   2.821   0.725   2.447 -0.3178 -0.6279 -1.9279
 8644SOL    HW237569   2.782   0.872   2.457 -0.2196 -0.6936 -0.0322
 8645SOL     OW37570   4.039   2.585   3.119  0.1498 -0.5714  0.4959
 8645SOL    HW137571   4.082   2.573   3.034  0.3503  0.3534  0.4696
 8645SOL    HW237572   4.111   2.597   3.181  1.9305 -3.6181 -0.9620
 8646SOL     OW37573   1.922   3.575  15.185 -0.2368 -0.5356 -0.1519
 8646SOL    HW137574   1.952   3.511  15.249 -2.4503  0.0418  1.4673
 8646SOL    HW237575   2.003   3.623  15.172 -0.0207 -0.7242  0.5152
 8647SOL     OW37576   0.833   1.244   3.073 -0.1456  0.3469 -0.4320
 8647SOL    HW137577   0.782   1.297   3.135 -0.7366 -0.4701 -0.2236
 8647SOL    HW237578   0.776   1.168   3.074  0.1756  0.1217  2.5668
 8648SOL     OW37579   1.464   4.093   7.293 -0.7743 -0.5177 -0.5694
 8648SOL    HW137580   1.468   4.052   7.380 -0.3859  0.8214  0.0479
 8648SOL    HW237581   1.395   4.155   7.316 -0.0907  0.3164 -0.7391
 8649SOL     OW37582   0.535   2.119   4.667 -0.2340  0.4863 -0.2425
 8649SOL    HW137583   0.616   2.169   4.656  0.1024 -0.0963 -0.4288
 8649SOL    HW237584   0.472   2.189   4.649 -1.8000 -0.8198  0.1619
 8650SOL     OW37585   4.111   0.894   6.468  0.2253 -0.2627  0.3387
 8650SOL    HW137586   4.110   0.984   6.437 -1.1435 -1.2552 -2.4601
 8650SOL    HW237587   4.099   0.854   6.382  0.0541 -0.6446  0.5368
 8651SOL     OW37588   3.771   0.616  17.501 -0.0080 -0.0085 -0.3173
 8651SOL    HW137589   3.767   0.652  17.589  2.5949  0.5399 -0.4266
 8651SOL    HW237590   3.711   0.680  17.461  1.2286  0.3423 -1.6268
 8652SOL     OW37591   0.681   3.031   7.535  0.2431 -0.9211 -0.2407
 8652SOL    HW137592   0.768   3.046   7.571  0.2084 -0.4427 -0.3553
 8652SOL    HW237593   0.665   3.115   7.492  1.4793  0.7249  2.5334
 8653SOL     OW37594   0.983   1.647   2.573 -0.0053 -1.0531  0.0398
 8653SOL    HW137595   0.956   1.671   2.485  0.3546 -0.5373  0.0706
 8653SOL    HW237596   0.903   1.624   2.619 -0.2071  1.1344  0.7811
 8654SOL     OW37597   3.379   1.706   1.843 -0.4968  0.4864 -0.0758
 8654SOL    HW137598   3.373   1.626   1.897  0.7728 -0.9439 -2.0611
 8654SOL    HW237599   3.420   1.769   1.902  0.1167  0.0984 -0.0783
 8655SOL     OW37600   4.707   4.510   6.328  0.3082 -0.0440 -0.1187
 8655SOL    HW137601   4.688   4.581   6.390 -0.3052  0.3248 -0.7206
 8655SOL    HW237602   4.627   4.509   6.276  1.3365 -0.2644 -1.6888
 8656SOL     OW37603   1.106   4.210   4.183  0.2177  0.4938  0.7078
 8656SOL    HW137604   1.089   4.158   4.105 -1.7056 -0.0250  1.4746
 8656SOL    HW237605   1.020   4.250   4.199 -0.0500  0.1332  0.1698
 8657SOL     OW37606   3.568   3.069  13.006  0.1276 -0.0941  0.6585
 8657SOL    HW137607   3.535   3.132  13.070  0.4999  0.8990 -0.1267
 8657SOL    HW237608   3.485   3.026  12.984 -0.9661  1.7522  1.2288
 8658SOL     OW37609   3.640   0.436  17.361  0.3826  0.4107 -0.0343
 8658SOL    HW137610   3.693   0.502  17.406  3.9815 -3.5527  1.6091
 8658SOL    HW237611   3.610   0.481  17.282  0.2203  1.2546  0.5099
 8659SOL     OW37612   2.469   0.787   8.515  0.9407 -0.1994 -0.1493
 8659SOL    HW137613   2.461   0.774   8.610  0.1743 -1.2741 -0.3548
 8659SOL    HW237614   2.524   0.716   8.484 -0.7602 -1.9896  0.9119
 8660SOL     OW37615   1.296   0.035   8.258 -0.0704 -0.4732 -0.0716
 8660SOL    HW137616   1.386   0.035   8.225 -0.0251 -2.2419  0.0297
 8660SOL    HW237617   1.271   4.701   8.202  1.9106 -1.1573 -0.0686
 8661SOL     OW37618   0.983   4.090   0.493  0.1095 -0.5262  0.2939
 8661SOL    HW137619   1.017   4.169   0.451  0.7408 -1.9477 -1.8954
 8661SOL    HW237620   1.046   4.028   0.455  0.0808 -0.7965  0.6822
 8662SOL     OW37621   0.699   4.702   1.497 -0.0272 -0.3938 -0.5723
 8662SOL    HW137622   0.791   4.729   1.505  0.6518 -2.4762 -1.5544
 8662SOL    HW237623   0.686   4.669   1.586 -1.1586  1.0575 -0.1929
 8663SOL     OW37624   4.620   2.440  13.925  0.4001 -0.0141 -0.6049
 8663SOL    HW137625   4.568   2.508  13.969  1.2723 -0.5364  1.2085
 8663SOL    HW237626   4.645   2.486  13.845  2.0075  0.1191 -0.0085
 8664SOL     OW37627   1.487   4.193  11.400 -0.4589  0.3613  0.4465
 8664SOL    HW137628   1.454   4.190  11.310  0.8833 -1.9793  0.0424
 8664SOL    HW237629   1.478   4.107  11.440  3.1926 -0.5042 -0.5985
 8665SOL     OW37630   4.169   1.729   2.037 -0.0801  0.4422  0.0174
 8665SOL    HW137631   4.082   1.753   2.006 -0.3689  0.5957  0.9517
 8665SOL    HW237632   4.196   1.807   2.085  0.7980 -0.4124  0.9317
 8666SOL     OW37633   3.845   0.271   9.221 -1.1560  0.2277 -0.0278
 8666SOL    HW137634   3.842   0.355   9.174 -0.4566 -2.1860 -4.3645
 8666SOL    HW237635   3.796   0.299   9.298 -0.5379 -2.5921  1.3906
 8667SOL     OW37636   3.412   2.595   6.000 -0.3556  0.2341  0.5173
 8667SOL    HW137637   3.426   2.687   5.976  1.5222 -0.1320  0.2276
 8667SOL    HW237638   3.368   2.612   6.083  0.5827 -1.6165  1.3908
 8668SOL     OW37639   1.457   0.446   5.317  0.2754 -0.1138 -0.7011
 8668SOL    HW137640   1.377   0.407   5.281  0.0261 -0.9024  0.6991
 8668SOL    HW237641   1.481   0.387   5.388 -2.2791  0.8886  1.0070
 8669SOL     OW37642   4.470   1.403   9.334  0.2235  0.1406  0.5958
 8669SOL    HW137643   4.542   1.354   9.295 -0.7214  0.1667 -1.1705
 8669SOL    HW237644   4.498   1.487   9.300  0.5684 -0.9337 -1.7472
 8670SOL     OW37645   4.720   2.863   7.408 -0.3740  0.5868  0.1320
 8670SOL    HW137646   4.673   2.946   7.415 -2.8212 -0.8846  1.4646
 8670SOL    HW237647   4.649   2.805   7.438 -0.3412  0.1175 -0.7082
 8671SOL     OW37648   3.510   2.220   5.059  0.9113  0.5964  0.4779
 8671SOL    HW137649   3.482   2.293   5.115  0.1487 -1.0131  2.1954
 8671SOL    HW237650   3.423   2.189   5.032  2.3462 -3.6303  0.6752
 8672SOL     OW37651   4.257   1.686   6.373  0.1934 -0.1762  0.1135
 8672SOL    HW137652   4.328   1.739   6.335 -0.6553  3.1940  3.1457
 8672SOL    HW237653   4.296   1.600   6.360  0.6874  0.2833 -1.4807
 8673SOL     OW37654   1.930   2.338   4.806 -0.3990  0.0422  0.0985
 8673SOL    HW137655   1.986   2.415   4.804  1.7248 -1.5526 -1.3985
 8673SOL    HW237656   1.971   2.282   4.872 -1.8313 -0.9731  0.1459
 8674SOL     OW37657   0.901   4.531   7.458  0.3882  0.6457 -0.1566
 8674SOL    HW137658   0.814   4.494   7.469  0.8737 -0.3878  0.1721
 8674SOL    HW237659   0.871   4.622   7.458 -0.3546  0.4014 -0.1320
 8675SOL     OW37660   2.987   3.591   1.767  0.1793 -0.3679  0.2309
 8675SOL    HW137661   3.009   3.528   1.698  0.6035 -1.9392  1.8069
 8675SOL    HW237662   2.942   3.528   1.823 -0.0214 -0.1700  0.2947
 8676SOL     OW37663   0.358   0.713   3.591  0.1613 -0.5451  1.1390
 8676SOL    HW137664   0.418   0.784   3.567 -2.6566  1.5220  0.0534
 8676SOL    HW237665   0.306   0.747   3.664  1.3401  0.0985  1.6614
 8677SOL     OW37666   3.950   4.200   1.521  0.0496 -0.3198  0.6208
 8677SOL    HW137667   3.921   4.287   1.495  2.6397 -0.2160 -1.9277
 8677SOL    HW237668   3.951   4.157   1.435  1.2240  0.6580  0.1388
 8678SOL     OW37669   2.482   4.001   3.170 -0.2573 -0.0918 -0.6307
 8678SOL    HW137670   2.419   3.970   3.235  2.2633 -0.7727  1.4963
 8678SOL    HW237671   2.460   4.093   3.159  0.0442  0.2891  1.8479
 8679SOL     OW37672   1.470   0.509   3.295 -0.0139  0.0576  0.1886
 8679SOL    HW137673   1.548   0.554   3.263 -0.2407 -0.7184 -1.4581
 8679SOL    HW237674   1.431   0.574   3.354  2.3451 -0.9733  2.8771
 8680SOL     OW37675   1.688   0.808   7.861  0.3517  0.0666  0.2508
 8680SOL    HW137676   1.694   0.878   7.796  2.0554  1.2941  1.7211
 8680SOL    HW237677   1.775   0.797   7.899  0.7959  1.1016 -0.4508
 8681SOL     OW37678   4.309   2.839   9.132 -0.2762  0.0553 -0.1537
 8681SOL    HW137679   4.276   2.749   9.128 -1.0000  0.3566 -0.8030
 8681SOL    HW237680   4.268   2.865   9.214  0.6546 -0.4600  0.4805
 8682SOL     OW37681   0.469   0.707  14.676  0.5715  0.2649  1.2526
 8682SOL    HW137682   0.434   0.766  14.742  1.9756  0.7715  1.5417
 8682SOL    HW237683   0.449   0.755  14.595  3.3518 -2.6265 -1.1355
 8683SOL     OW37684   1.390   2.110  17.439 -0.0263 -0.4076 -0.2850
 8683SOL    HW137685   1.395   2.051  17.365  0.2433 -1.6504  0.7257
 8683SOL    HW237686   1.311   2.074  17.480  0.1868 -0.5598 -0.0081
 8684SOL     OW37687   1.173   2.892  16.143 -0.4350 -0.1928 -0.0135
 8684SOL    HW137688   1.149   2.984  16.131 -0.5557 -0.4640 -1.7690
 8684SOL    HW237689   1.126   2.851  16.071  1.0481 -0.9898 -0.5063
 8685SOL     OW37690   1.351   1.639   3.225 -0.1356  0.0164  0.3129
 8685SOL    HW137691   1.292   1.604   3.158 -0.4883  0.0177  0.6244
 8685SOL    HW237692   1.294   1.693   3.280  0.4178  2.0306 -1.0704
 8686SOL     OW37693   2.806   3.186   9.431  0.5129 -0.0748 -0.4177
 8686SOL    HW137694   2.855   3.111   9.465 -0.4826 -0.7804 -0.5568
 8686SOL    HW237695   2.866   3.257   9.408  0.2379  0.0359 -0.7865
 8687SOL     OW37696   0.375   4.739   8.634 -0.3347  0.3891 -0.4713
 8687SOL    HW137697   0.310   0.061   8.668  1.7594  2.3688 -0.1084
 8687SOL    HW237698   0.338   4.655   8.662  0.4553  1.2399  3.0092
 8688SOL     OW37699   0.223   4.112   3.603 -0.3221 -0.6442  0.7167
 8688SOL    HW137700   0.227   4.151   3.516 -0.1694 -1.1712  0.4837
 8688SOL    HW237701   0.275   4.033   3.588 -1.8193 -1.6433  0.8457
 8689SOL     OW37702   4.672   1.493   8.820  0.0158 -0.2667  0.0745
 8689SOL    HW137703   4.692   1.586   8.832  2.0439 -0.9189  1.8863
 8689SOL    HW237704   4.646   1.503   8.729  2.1578 -0.6914 -0.5859
 8690SOL     OW37705   1.966   1.143  14.928  0.3250  0.1311  0.1603
 8690SOL    HW137706   1.976   1.092  14.848  0.5254  0.9876 -0.3595
 8690SOL    HW237707   2.030   1.098  14.982  2.6239  1.3939 -1.5429
 8691SOL     OW37708   2.816   3.244   8.028 -0.1426 -0.0281  0.4763
 8691SOL    HW137709   2.877   3.310   7.995  0.3949  0.4682  2.4368
 8691SOL    HW237710   2.851   3.236   8.117  0.6815 -2.5344 -0.0659
 8692SOL     OW37711   4.385   3.311   3.601 -0.4558 -0.8325 -0.5647
 8692SOL    HW137712   4.479   3.295   3.607 -0.2271 -0.3777 -3.2000
 8692SOL    HW237713   4.344   3.228   3.574  0.5194 -1.4259 -0.2273
 8693SOL     OW37714   3.525   1.777  12.975 -0.2683  0.1093  0.3267
 8693SOL    HW137715   3.559   1.718  13.043 -1.5725 -2.0533 -0.8761
 8693SOL    HW237716   3.513   1.863  13.014 -2.0361 -0.1498  0.3340
 8694SOL     OW37717   1.950   3.554   2.043  0.0980 -0.1408  0.3521
 8694SOL    HW137718   1.874   3.511   2.083 -1.4327  3.5370  1.3795
 8694SOL    HW237719   1.914   3.634   2.005 -1.5394 -1.7456 -1.4888
 8695SOL     OW37720   3.777   3.950  16.575 -0.1007  0.2437  0.2624
 8695SOL    HW137721   3.835   3.986  16.643  0.6958 -1.0468  0.2722
 8695SOL    HW237722   3.692   3.943  16.619 -0.2174 -1.5548 -0.2287
 8696SOL     OW37723   0.536   2.154  17.555 -0.2454  0.2252  0.2666
 8696SOL    HW137724   0.541   2.211  17.633 -0.4217 -2.1183  1.9953
 8696SOL    HW237725   0.626   2.122  17.549 -0.4183 -0.2580  0.2809
 8697SOL     OW37726   0.972   4.364   3.800  0.1895  0.4596 -0.0806
 8697SOL    HW137727   0.954   4.276   3.833 -0.4451  0.0119 -1.5917
 8697SOL    HW237728   0.948   4.356   3.707 -2.1196 -1.2972  0.6454
 8698SOL     OW37729   4.276   3.170   7.869 -0.5053 -0.4691 -0.0253
 8698SOL    HW137730   4.281   3.120   7.950  0.1681  1.6726  1.2646
 8698SOL    HW237731   4.196   3.137   7.828  0.8600 -2.4891 -1.0308
 8699SOL     OW37732   0.689   2.200   3.612 -0.0812  0.0487 -0.2473
 8699SOL    HW137733   0.712   2.270   3.551 -0.1434  1.7513  1.6616
 8699SOL    HW237734   0.691   2.250   3.694 -0.4368  0.4530 -0.4878
 8700SOL     OW37735   1.139   2.217   5.289  0.0377  0.2755 -0.0983
 8700SOL    HW137736   1.210   2.228   5.225  0.9073 -1.5216  0.5264
 8700SOL    HW237737   1.152   2.282   5.358 -0.7023  1.6776 -1.3087
 8701SOL     OW37738   3.942   1.517   9.621  0.2212 -0.1999  0.2673
 8701SOL    HW137739   3.905   1.478   9.700 -0.5061 -0.6304 -0.2775
 8701SOL    HW237740   4.011   1.566   9.665 -1.2630  2.0086  0.1466
 8702SOL     OW37741   3.885   4.419  10.670  0.0629 -0.1331 -0.4453
 8702SOL    HW137742   3.975   4.409  10.638  0.3265 -0.2819  0.3529
 8702SOL    HW237743   3.856   4.495  10.620 -3.1039  0.5152  2.3934
 8703SOL     OW37744   2.034   1.037   3.805  0.5379 -0.0472  0.1745
 8703SOL    HW137745   2.081   1.025   3.887 -0.4849 -1.2816  0.5770
 8703SOL    HW237746   1.954   0.985   3.813  0.1429  0.4249 -0.7854
 8704SOL     OW37747   3.887   2.177   4.820 -0.1299  0.2257 -0.6455
 8704SOL    HW137748   3.800   2.215   4.836  0.3025  1.3176 -0.8723
 8704SOL    HW237749   3.882   2.134   4.735  0.5872  1.1078 -1.1466
 8705SOL     OW37750   4.182   3.996   9.623 -0.4626  0.4895 -0.1924
 8705SOL    HW137751   4.260   4.042   9.592 -2.0822  2.2454 -1.6580
 8705SOL    HW237752   4.119   4.018   9.554 -0.9345  0.2981  0.1740
 8706SOL     OW37753   3.756   1.871  17.497  0.0163  0.0272 -0.2890
 8706SOL    HW137754   3.722   1.940  17.554 -0.9166  0.6108 -1.5637
 8706SOL    HW237755   3.691   1.802  17.505 -0.5549  0.5042 -0.8568
 8707SOL     OW37756   1.130   0.516   6.144  0.1137 -1.2264  0.4082
 8707SOL    HW137757   1.056   0.561   6.186  1.8030  0.3714  1.6906
 8707SOL    HW237758   1.163   0.474   6.224 -0.6981 -0.4079  1.1818
 8708SOL     OW37759   2.012   0.548  12.068 -0.6052  0.1694  0.5802
 8708SOL    HW137760   2.003   0.453  12.076 -0.0615 -0.0593 -1.5006
 8708SOL    HW237761   1.935   0.567  12.014 -0.1725 -0.2743 -0.1924
 8709SOL     OW37762   0.210   2.432   3.496 -0.4373  0.0475 -0.0749
 8709SOL    HW137763   0.131   2.486   3.502  0.0914  0.6788  1.2110
 8709SOL    HW237764   0.193   2.385   3.414  0.3208 -2.0063  0.9352
 8710SOL     OW37765   0.130   1.186   3.766 -0.1990  0.5587 -0.0947
 8710SOL    HW137766   0.084   1.262   3.801 -1.9821 -0.4814 -0.1733
 8710SOL    HW237767   0.068   1.125   3.806  2.1201 -2.0025 -0.4282
 8711SOL     OW37768   3.444   4.631   9.483  0.2407 -1.1241  0.0141
 8711SOL    HW137769   3.525   4.678   9.501  0.6286 -2.2583  1.1876
 8711SOL    HW237770   3.392   4.648   9.563 -0.2930  0.1367 -0.5932
 8712SOL     OW37771   3.222   3.356  16.517 -0.3839 -0.2332  0.2844
 8712SOL    HW137772   3.246   3.330  16.428  0.0938  1.4474 -0.0892
 8712SOL    HW237773   3.305   3.342  16.563  0.9662  4.3523 -0.6861
 8713SOL     OW37774   4.163   2.785   8.057 -0.0607  0.3565 -0.0090
 8713SOL    HW137775   4.227   2.715   8.066 -0.4584  0.1030  0.8566
 8713SOL    HW237776   4.084   2.731   8.061  1.7191 -2.1750  0.6540
 8714SOL     OW37777   0.052   2.907   2.906  0.6112 -0.0650 -0.4950
 8714SOL    HW137778   0.111   2.909   2.982 -2.5241  0.2580  1.9140
 8714SOL    HW237779   4.708   2.929   2.946  2.2385 -1.7587  3.9277
 8715SOL     OW37780   0.497   4.154   4.021 -0.0897  0.2998 -0.0804
 8715SOL    HW137781   0.576   4.133   3.970  1.3177 -2.3609  3.2161
 8715SOL    HW237782   0.434   4.144   3.949 -2.0501 -1.3317  1.8664
 8716SOL     OW37783   2.288   0.538  14.591  0.1779 -0.0697 -0.3518
 8716SOL    HW137784   2.328   0.558  14.506 -1.0010 -0.7766 -1.0703
 8716SOL    HW237785   2.298   0.443  14.602  0.5219  0.1974  1.5479
 8717SOL     OW37786   1.258   2.614   2.280  0.6280  0.1197 -0.1811
 8717SOL    HW137787   1.231   2.555   2.210 -0.2785  1.3548 -0.8860
 8717SOL    HW237788   1.175   2.626   2.327  0.1091 -2.0025 -0.5758
 8718SOL     OW37789   2.404   2.030   3.004  0.0580  0.0912  0.2547
 8718SOL    HW137790   2.465   2.057   2.936 -1.1524 -0.4463 -1.0447
 8718SOL    HW237791   2.326   2.071   2.967  1.8300  1.1060 -2.3521
 8719SOL     OW37792   1.504   3.007   6.136  0.3100 -0.0455  0.9277
 8719SOL    HW137793   1.503   2.930   6.079  1.4708 -0.2746  1.2081
 8719SOL    HW237794   1.580   2.991   6.192  1.2593 -0.2505 -0.4217
 8720SOL     OW37795   2.141   2.874   8.702 -0.8632  0.3777 -0.3339
 8720SOL    HW137796   2.148   2.790   8.658 -2.7793  0.2559 -0.4086
 8720SOL    HW237797   2.218   2.920   8.670 -0.0394  0.0342  1.1780
 8721SOL     OW37798   2.738   1.805   6.632  0.1017  0.8393  0.2232
 8721SOL    HW137799   2.770   1.886   6.593  2.0790  0.4018  0.9364
 8721SOL    HW237800   2.744   1.825   6.725 -1.2346  0.3282  0.4174
 8722SOL     OW37801   1.252   2.583  13.641  0.0010  0.4438  0.1981
 8722SOL    HW137802   1.307   2.583  13.720 -1.1612 -1.0288  1.0073
 8722SOL    HW237803   1.166   2.610  13.674 -1.0227 -0.0240 -2.1029
 8723SOL     OW37804   1.235   0.347  10.459 -0.6316  0.1476 -0.1742
 8723SOL    HW137805   1.325   0.331  10.432 -0.2892  3.2085 -0.7833
 8723SOL    HW237806   1.246   0.305  10.544 -0.7669 -0.9701 -0.7053
 8724SOL     OW37807   1.383   3.859   7.150  0.4245 -0.1832  0.0956
 8724SOL    HW137808   1.440   3.911   7.206  1.4897 -0.6106 -0.6049
 8724SOL    HW237809   1.298   3.888   7.186  0.4912 -2.0558  1.7784
 8725SOL     OW37810   4.701   2.293   4.980  0.0293 -0.3609 -0.0292
 8725SOL    HW137811   4.678   2.376   5.023  0.4119  2.1784 -4.7700
 8725SOL    HW237812   4.613   2.267   4.952 -0.0513  1.3840 -1.3887
 8726SOL     OW37813   2.925   3.271  15.528  0.0636  0.2554 -0.2214
 8726SOL    HW137814   2.959   3.186  15.502 -0.8158 -0.9050  2.4925
 8726SOL    HW237815   2.867   3.286  15.453 -1.5096  0.5123  1.0354
 8727SOL     OW37816   1.779   3.389   3.136  0.2791 -0.0519 -0.3422
 8727SOL    HW137817   1.744   3.303   3.113  0.5682 -0.2780  0.0557
 8727SOL    HW237818   1.820   3.421   3.056  1.7674 -0.1634  0.3620
 8728SOL     OW37819   0.432   2.855   7.522  0.1386 -0.1822  0.3840
 8728SOL    HW137820   0.486   2.796   7.468 -0.5213  0.9227 -1.4750
 8728SOL    HW237821   0.440   2.939   7.477 -1.4170  0.0169  0.5113
 8729SOL     OW37822   3.663   3.374   3.239  0.1489 -0.5952 -0.0891
 8729SOL    HW137823   3.598   3.421   3.187  1.6131  0.0548 -1.3388
 8729SOL    HW237824   3.671   3.433   3.314 -1.0118 -0.8789  0.2519
 8730SOL     OW37825   4.164   2.364   6.779 -0.0154 -0.4320 -0.1694
 8730SOL    HW137826   4.152   2.430   6.848  0.0105 -1.3771  0.7279
 8730SOL    HW237827   4.184   2.418   6.702  1.7136 -1.8594 -0.7155
 8731SOL     OW37828   0.645   1.982  12.122  0.0948  0.5092  0.0493
 8731SOL    HW137829   0.704   2.043  12.077  0.0133  1.3420  1.0918
 8731SOL    HW237830   0.681   1.895  12.107  0.7770  0.8329 -0.1925
 8732SOL     OW37831   0.193   1.537  11.930 -0.4135 -0.2601 -0.5473
 8732SOL    HW137832   0.142   1.556  12.008 -1.4603 -1.0517 -1.0288
 8732SOL    HW237833   0.139   1.472  11.886 -0.0978  0.1943 -1.6203
 8733SOL     OW37834   2.463   2.757   6.461  0.3063  0.0714  0.3482
 8733SOL    HW137835   2.524   2.696   6.420  1.2202  0.9576  0.3758
 8733SOL    HW237836   2.428   2.809   6.388  1.3816 -0.9760 -0.9063
 8734SOL     OW37837   1.169   4.586   4.472 -0.7042 -0.1675  0.2130
 8734SOL    HW137838   1.165   4.547   4.384 -2.2883 -0.3551  0.3624
 8734SOL    HW237839   1.164   4.674   4.436 -2.1456  0.2018  1.3328
 8735SOL     OW37840   1.621   1.201   8.692 -0.1101  0.1583  0.1681
 8735SOL    HW137841   1.595   1.258   8.619  1.0051 -0.1295 -0.4519
 8735SOL    HW237842   1.533   1.212   8.729 -0.7650 -2.0314 -0.7123
 8736SOL     OW37843   4.506   0.515   1.916 -0.3992  0.3137 -0.2625
 8736SOL    HW137844   4.416   0.548   1.920 -1.3401 -2.1906 -0.8636
 8736SOL    HW237845   4.495   0.433   1.868 -1.2886  0.9295 -1.1158
 8737SOL     OW37846   0.877   2.254  15.283  0.9030  0.2842 -0.4677
 8737SOL    HW137847   0.854   2.167  15.250 -1.0955 -0.3352  2.5074
 8737SOL    HW237848   0.885   2.300  15.199  1.4322 -0.0188 -0.5792
 8738SOL     OW37849   1.593   3.456   4.679  0.7204 -0.2562  0.5924
 8738SOL    HW137850   1.616   3.542   4.713 -0.1621 -0.0113  0.5613
 8738SOL    HW237851   1.674   3.437   4.631  0.5124  0.4600 -0.0342
 8739SOL     OW37852   1.539   3.735  13.681  0.1657 -0.3334  0.2092
 8739SOL    HW137853   1.583   3.705  13.760 -2.0627  0.1283  1.6115
 8739SOL    HW237854   1.467   3.778  13.728  0.6071  0.1145  0.4736
 8740SOL     OW37855   2.700   2.753  13.525  0.4834 -0.7950  0.1517
 8740SOL    HW137856   2.703   2.758  13.621  2.0149 -0.7154  0.0985
 8740SOL    HW237857   2.784   2.791  13.498  0.4142  0.3000  1.4802
 8741SOL     OW37858   4.730   0.949   3.894  0.5362  0.5659 -0.4379
 8741SOL    HW137859   4.683   0.909   3.967  0.9201  0.2819 -0.3471
 8741SOL    HW237860   4.665   0.951   3.823 -1.2966  0.9413  1.2653
 8742SOL     OW37861   2.566   3.846  11.777  0.1057 -0.0934 -0.4062
 8742SOL    HW137862   2.475   3.822  11.792  0.0401  0.8567  0.6435
 8742SOL    HW237863   2.564   3.940  11.792  3.1050 -0.4899  2.4000
 8743SOL     OW37864   1.672   1.193   6.817  0.2516  0.0699 -0.2963
 8743SOL    HW137865   1.707   1.244   6.744 -0.1869 -0.3161 -0.7789
 8743SOL    HW237866   1.588   1.164   6.780  0.5774 -0.5745 -0.5197
 8744SOL     OW37867   0.306   1.840  11.487  0.0378  0.2782 -0.2100
 8744SOL    HW137868   0.347   1.883  11.413 -0.4700  0.9998 -0.0693
 8744SOL    HW237869   0.237   1.795  11.438  0.0742  0.4714 -0.4359
 8745SOL     OW37870   0.093   3.518   8.036 -0.1477  0.0748 -0.0434
 8745SOL    HW137871   0.163   3.580   8.014 -1.3126  1.1632 -0.7140
 8745SOL    HW237872   0.125   3.463   8.107 -0.8965 -0.7470 -0.3374
 8746SOL     OW37873   0.357   3.782   5.814 -1.0050  0.3450  0.6616
 8746SOL    HW137874   0.404   3.716   5.763 -0.8220  0.9531  0.0310
 8746SOL    HW237875   0.427   3.835   5.852 -0.4297  0.9623 -1.2389
 8747SOL     OW37876   2.215   1.476   1.729 -0.2091 -0.6786  0.2184
 8747SOL    HW137877   2.236   1.397   1.779 -1.3861  0.6522  2.8346
 8747SOL    HW237878   2.153   1.447   1.663 -0.8974 -0.7626  0.8959
 8748SOL     OW37879   3.228   1.506   2.019  0.1201 -0.7538 -0.2557
 8748SOL    HW137880   3.146   1.496   1.972 -1.7874 -0.0722  2.9693
 8748SOL    HW237881   3.211   1.590   2.061  0.1120 -1.5714  1.3757
 8749SOL     OW37882   0.348   1.762   2.377  0.0488  0.1974 -0.1657
 8749SOL    HW137883   0.321   1.689   2.322 -1.4876  0.0088  0.8301
 8749SOL    HW237884   0.280   1.757   2.444 -0.6725 -1.5815 -1.0349
 8750SOL     OW37885   2.752   2.711  17.667  0.4484  0.2804 -0.4114
 8750SOL    HW137886   2.680   2.767  17.699  0.6412  0.9967 -1.2202
 8750SOL    HW237887   2.706   2.627  17.663  1.5741 -0.2820 -1.4108
 8751SOL     OW37888   4.647   1.904   8.246 -0.1463 -0.1981  0.1909
 8751SOL    HW137889   4.561   1.887   8.206 -0.2554  0.5012  0.1402
 8751SOL    HW237890   4.626   1.858   8.327  0.7228 -0.2947  0.3621
 8752SOL     OW37891   4.116   1.343   6.136  0.2777  0.4292  0.2120
 8752SOL    HW137892   4.159   1.428   6.120  0.4597  0.2818 -0.0697
 8752SOL    HW237893   4.031   1.368   6.173  0.6365  0.3950  1.0586
 8753SOL     OW37894   1.203   2.478  14.951  0.2253  0.0845 -0.7685
 8753SOL    HW137895   1.297   2.484  14.972 -0.5889  1.5296  2.6196
 8753SOL    HW237896   1.190   2.446  14.862 -3.1112 -2.4447  0.6626
 8754SOL     OW37897   2.349   1.440   7.884  0.1475  0.0197 -0.3575
 8754SOL    HW137898   2.256   1.418   7.886  0.0259  0.3345 -2.7980
 8754SOL    HW237899   2.380   1.354   7.913  0.8359  0.3135 -0.2208
 8755SOL     OW37900   1.618   3.305   5.582  0.6071  0.6314 -0.0128
 8755SOL    HW137901   1.679   3.264   5.520  0.9000 -0.1380  0.7757
 8755SOL    HW237902   1.660   3.386   5.611 -1.3267  1.3513  0.7649
 8756SOL     OW37903   1.931   1.201   6.951 -0.0962  0.1411  0.3567
 8756SOL    HW137904   1.862   1.204   6.885  0.2316 -2.4833 -0.1135
 8756SOL    HW237905   1.983   1.279   6.932 -1.3077  1.4784  2.6334
 8757SOL     OW37906   3.426   3.434  13.773 -0.5966  0.1779  0.1837
 8757SOL    HW137907   3.443   3.486  13.694 -0.0171 -1.5963 -0.8768
 8757SOL    HW237908   3.442   3.349  13.732  0.1385  0.8088 -0.8535
 8758SOL     OW37909   1.983   1.598   7.713 -0.1239  0.2140 -0.4198
 8758SOL    HW137910   1.970   1.507   7.742  0.4328  0.4286  0.5100
 8758SOL    HW237911   2.017   1.637   7.794 -1.0029 -1.9633  0.9978
 8759SOL     OW37912   0.114   2.102  11.364 -0.5382 -0.6618 -0.8508
 8759SOL    HW137913   0.129   2.196  11.352 -0.6094 -0.7025 -1.2510
 8759SOL    HW237914   0.199   2.070  11.334 -1.1722 -2.5123 -0.6496
 8760SOL     OW37915   0.628   1.981   8.296  0.3265  0.1054 -0.7088
 8760SOL    HW137916   0.580   2.061   8.276 -1.8240 -1.0913 -0.2774
 8760SOL    HW237917   0.661   1.954   8.210 -0.4066 -0.4379 -0.8190
 8761SOL     OW37918   2.121   1.931   6.336  0.1960  0.0667 -0.3340
 8761SOL    HW137919   2.058   1.985   6.383 -1.3918 -1.1311 -1.0895
 8761SOL    HW237920   2.196   1.930   6.396 -0.9840  2.5823  1.1741
 8762SOL     OW37921   3.997   1.719   7.906  0.5599  0.2117 -0.0763
 8762SOL    HW137922   4.006   1.706   7.811 -1.5704 -2.1512  0.0482
 8762SOL    HW237923   3.936   1.649   7.928  2.5761 -1.7929 -0.8237
 8763SOL     OW37924   3.028   1.252   2.629 -0.0309  0.2779  0.4084
 8763SOL    HW137925   2.959   1.275   2.691  1.2628  0.7462  1.6655
 8763SOL    HW237926   3.057   1.166   2.660 -0.3912  0.6044  1.6196
 8764SOL     OW37927   0.095   0.742   3.399  0.3008 -0.3150 -0.7834
 8764SOL    HW137928   0.070   0.653   3.425  2.6685 -0.9808 -0.8153
 8764SOL    HW237929   0.170   0.750   3.458  0.1270  0.2552 -0.6423
 8765SOL     OW37930   2.331   2.447   5.821  0.1926 -0.3388  0.0514
 8765SOL    HW137931   2.278   2.372   5.794  1.4185 -0.8462 -0.9057
 8765SOL    HW237932   2.253   2.495   5.850  1.1489  1.0587  0.3153
 8766SOL     OW37933   2.183   0.272   2.191 -0.8203 -0.4216 -0.0425
 8766SOL    HW137934   2.241   0.330   2.240 -1.7598 -1.5005  2.3487
 8766SOL    HW237935   2.251   0.214   2.157 -1.3730  0.1006 -2.0549
 8767SOL     OW37936   3.391   0.393   4.602  0.0850  0.3161  0.0779
 8767SOL    HW137937   3.458   0.330   4.627 -0.7652 -1.8227 -3.0658
 8767SOL    HW237938   3.393   0.468   4.661  2.5597 -1.0936  1.7667
 8768SOL     OW37939   3.007   3.161   2.783 -0.7200 -0.7880  0.6255
 8768SOL    HW137940   3.011   3.194   2.873  0.8929  0.8020 -0.0199
 8768SOL    HW237941   2.938   3.217   2.746 -1.1239 -1.3750  0.5032
 8769SOL     OW37942   4.090   3.224   2.124 -0.0878  0.4937 -0.5554
 8769SOL    HW137943   4.099   3.309   2.082 -0.1553  1.0603  0.5836
 8769SOL    HW237944   4.102   3.238   2.217 -1.2020 -0.8944 -0.1942
 8770SOL     OW37945   0.811   2.035   4.864  0.0722 -0.2585 -0.6516
 8770SOL    HW137946   0.723   2.067   4.887  1.0394  1.5335  0.5485
 8770SOL    HW237947   0.817   1.978   4.940  2.1308 -1.4882 -1.7391
 8771SOL     OW37948   0.794   3.472   4.789  0.1646 -0.5151  0.0998
 8771SOL    HW137949   0.731   3.528   4.833  3.0968  1.5196  1.7322
 8771SOL    HW237950   0.735   3.420   4.735  0.6337 -0.3429 -0.5842
 8772SOL     OW37951   0.637   3.706   9.918  0.1321 -0.4782 -0.1333
 8772SOL    HW137952   0.725   3.724   9.952  0.2763 -1.4513 -0.0032
 8772SOL    HW237953   0.587   3.690   9.997 -1.0349  0.9488 -0.5959
 8773SOL     OW37954   1.767   0.932   2.348 -0.1824  0.0559  0.2511
 8773SOL    HW137955   1.702   0.933   2.419  0.4688  0.1691  0.8540
 8773SOL    HW237956   1.759   1.026   2.332  2.7303 -0.0131 -1.4861
 8774SOL     OW37957   1.208   1.847   1.032 -0.1268 -0.0351  0.2120
 8774SOL    HW137958   1.120   1.852   1.069 -0.0570 -0.2834  0.4084
 8774SOL    HW237959   1.204   1.753   1.012  0.3262 -0.4923  2.3472
 8775SOL     OW37960   4.638   2.012   1.497 -0.2179 -0.1990 -0.0968
 8775SOL    HW137961   4.717   1.962   1.516  0.0772  0.0429 -0.6969
 8775SOL    HW237962   4.681   2.094   1.472  0.6041 -0.7348 -0.4480
 8776SOL     OW37963   3.140   2.805   3.689 -0.0973 -0.4145 -0.9504
 8776SOL    HW137964   3.074   2.854   3.739  2.4175  0.5648  1.3656
 8776SOL    HW237965   3.175   2.745   3.755 -0.2315 -1.8237 -2.1462
 8777SOL     OW37966   0.444   1.274   5.137  0.3917  0.4655 -0.3125
 8777SOL    HW137967   0.538   1.285   5.149  0.5772  0.2010 -1.5295
 8777SOL    HW237968   0.446   1.225   5.055  0.3325  0.6576 -0.4291
 8778SOL     OW37969   4.395   2.087   2.767  0.0943 -0.2330 -0.5737
 8778SOL    HW137970   4.344   2.164   2.742  0.8011  0.1468 -0.8244
 8778SOL    HW237971   4.340   2.016   2.733 -0.1289 -0.0605 -0.5760
 8779SOL     OW37972   4.339   1.528   8.825  0.5185  0.1841  0.1656
 8779SOL    HW137973   4.254   1.559   8.857  0.6245  0.7700 -0.1293
 8779SOL    HW237974   4.328   1.445   8.873 -0.0252  1.1503  1.7154
 8780SOL     OW37975   4.530   0.095   2.784  0.4554 -0.3692  0.3713
 8780SOL    HW137976   4.500   0.007   2.763  1.7273 -0.8678  0.6474
 8780SOL    HW237977   4.519   0.097   2.879 -0.9631  0.8586  0.1866
 8781SOL     OW37978   2.456   3.779   5.116  0.0210 -0.2568 -0.1206
 8781SOL    HW137979   2.546   3.758   5.139 -1.5307 -2.4879  3.9654
 8781SOL    HW237980   2.438   3.854   5.172  0.3117 -1.0721  1.0453
 8782SOL     OW37981   3.965   3.562   1.087  0.1582  0.2094  0.0576
 8782SOL    HW137982   4.055   3.576   1.056  0.8647 -1.7322  1.2465
 8782SOL    HW237983   3.991   3.536   1.175 -1.0804 -0.0261  0.3495
 8783SOL     OW37984   1.472   3.146   4.304 -0.1244  0.5258 -0.7089
 8783SOL    HW137985   1.547   3.134   4.363 -1.5497  1.9901  1.3949
 8783SOL    HW237986   1.429   3.220   4.346 -0.2226 -1.1362  2.1863
 8784SOL     OW37987   2.248   0.519  11.195 -0.0729 -0.1679  0.0892
 8784SOL    HW137988   2.287   0.452  11.251  3.9408  2.0343 -0.0706
 8784SOL    HW237989   2.168   0.474  11.168 -0.1413  0.8479 -1.4021
 8785SOL     OW37990   3.016   2.889   6.436  0.1768 -0.0053  0.2645
 8785SOL    HW137991   2.971   2.918   6.356  1.2224 -0.2084 -0.3999
 8785SOL    HW237992   3.091   2.844   6.397  1.0507  0.7672  1.0548
 8786SOL     OW37993   4.628   3.739   4.664 -0.4112  0.0022 -0.4645
 8786SOL    HW137994   4.640   3.646   4.681  0.6997  0.7205  2.5820
 8786SOL    HW237995   4.717   3.775   4.658 -0.9561  1.5774  1.3536
 8787SOL     OW37996   1.813   0.272   7.872 -0.3316 -0.3833  0.0376
 8787SOL    HW137997   1.787   0.266   7.964 -2.7402  1.5015 -0.5232
 8787SOL    HW237998   1.884   0.334   7.889  0.0142 -0.2050 -1.9762
 8788SOL     OW37999   4.219   2.348   9.337 -0.1044  1.1401  0.2810
 8788SOL    HW138000   4.256   2.264   9.310 -2.5759 -0.6694  2.5447
 8788SOL    HW238001   4.274   2.386   9.406  1.3998 -0.7117  0.0848
 8789SOL     OW38002   4.196   0.542   8.864 -0.8157 -0.0666 -0.0528
 8789SOL    HW138003   4.149   0.618   8.829  0.6551 -0.4253 -2.7713
 8789SOL    HW238004   4.179   0.546   8.958 -0.0330 -0.5292  0.1016
 8790SOL     OW38005   3.397   2.159   0.621  0.0120  0.3837  0.2929
 8790SOL    HW138006   3.456   2.119   0.685 -2.2536 -0.3081  1.9961
 8790SOL    HW238007   3.317   2.117   0.653 -0.0079  1.0301  1.1096
 8791SOL     OW38008   1.006   2.681  13.763 -0.1659  0.9827 -0.2064
 8791SOL    HW138009   0.947   2.610  13.788 -0.2133  1.5048  1.1541
 8791SOL    HW238010   1.004   2.753  13.826 -1.0006  0.8890 -0.1297
 8792SOL     OW38011   0.804   0.468  15.205  0.2866 -0.4906  0.1841
 8792SOL    HW138012   0.884   0.435  15.165 -1.3630 -1.7890 -2.0013
 8792SOL    HW238013   0.736   0.401  15.194  0.3170 -0.2263 -1.5311
 8793SOL     OW38014   1.669   2.876  15.673  0.7473 -0.3291  0.6271
 8793SOL    HW138015   1.725   2.811  15.716 -0.6093 -1.3218  0.9206
 8793SOL    HW238016   1.681   2.951  15.731  0.9273 -1.1140  1.6121
 8794SOL     OW38017   0.703   4.488   9.179  0.0994  0.0366 -0.1782
 8794SOL    HW138018   0.641   4.420   9.204 -1.6418  0.7394 -2.5403
 8794SOL    HW238019   0.663   4.566   9.217 -0.3356 -0.9173  1.3085
 8795SOL     OW38020   2.493   1.454  13.463 -0.7243  0.1346 -0.5142
 8795SOL    HW138021   2.485   1.459  13.558 -1.0725 -1.6098 -0.4640
 8795SOL    HW238022   2.588   1.441  13.466 -0.9242 -1.3532 -0.7081
 8796SOL     OW38023   0.197   3.005  10.522 -0.3243  0.2687 -0.1115
 8796SOL    HW138024   0.166   2.915  10.513  0.9127 -0.1360 -0.3199
 8796SOL    HW238025   0.158   3.025  10.607 -0.8403 -0.7306 -0.1147
 8797SOL     OW38026   1.748   3.728   9.462 -0.1414 -0.1136 -0.5671
 8797SOL    HW138027   1.701   3.790   9.406  1.2656  3.4056  2.1522
 8797SOL    HW238028   1.727   3.642   9.424  2.4484 -0.7548 -0.5035
 8798SOL     OW38029   2.295   0.802  11.145  0.2500  0.3157 -0.3202
 8798SOL    HW138030   2.290   0.718  11.190  3.6558  1.0054  1.3378
 8798SOL    HW238031   2.222   0.798  11.084 -2.6402 -0.4437  3.1758
 8799SOL     OW38032   1.941   3.394   1.032  0.2904  0.4541  0.1549
 8799SOL    HW138033   1.924   3.479   1.073  0.4571 -0.0602  1.3057
 8799SOL    HW238034   1.980   3.352   1.109  2.4099  1.4781 -0.3823
 8800SOL     OW38035   3.577   4.547   8.486  0.0462 -0.3279 -0.0472
 8800SOL    HW138036   3.603   4.601   8.561 -0.3946  0.7758 -0.7010
 8800SOL    HW238037   3.498   4.505   8.519 -0.9143  3.0190  1.9405
 8801SOL     OW38038   0.698   1.292   6.736  0.1878 -0.2171  0.2848
 8801SOL    HW138039   0.770   1.355   6.736 -1.4365  1.6235 -1.1915
 8801SOL    HW238040   0.663   1.314   6.822  0.8891  0.9799  0.2586
 8802SOL     OW38041   4.044   1.950   9.979  0.0856 -0.5539 -0.2200
 8802SOL    HW138042   4.105   1.993   9.919  0.5997 -1.3437 -0.2619
 8802SOL    HW238043   3.960   1.956   9.934  0.1503  0.0881 -0.2559
 8803SOL     OW38044   1.099   3.521   4.486 -0.8460  0.1378  0.2502
 8803SOL    HW138045   1.129   3.446   4.538  0.3796  1.8134  1.9964
 8803SOL    HW238046   1.102   3.583   4.559  2.0856  0.2626  0.0609
 8804SOL     OW38047   0.554   0.245   3.236 -0.2458 -0.1918  0.2082
 8804SOL    HW138048   0.494   0.193   3.183  1.3111 -0.0575 -1.7080
 8804SOL    HW238049   0.608   0.175   3.275  1.1379  0.6613 -0.1708
 8805SOL     OW38050   1.968   3.034   7.394 -0.0823 -0.1307 -0.2302
 8805SOL    HW138051   1.998   3.120   7.365  2.1733 -1.2459 -1.1253
 8805SOL    HW238052   1.908   3.007   7.325  0.3658  0.5637 -0.8906
 8806SOL     OW38053   2.755   1.572  12.655 -0.0445 -0.0534  0.1449
 8806SOL    HW138054   2.835   1.578  12.601  1.9999  0.1668  3.1877
 8806SOL    HW238055   2.684   1.587  12.592 -0.4469  1.2289  0.8940
 8807SOL     OW38056   3.817   0.535   9.077  0.2292  0.2567  0.0565
 8807SOL    HW138057   3.748   0.602   9.072 -0.5759 -0.3571  2.7554
 8807SOL    HW238058   3.881   0.579   9.133 -0.4457  0.0069  1.0450
 8808SOL     OW38059   3.419   2.329   9.056  0.1630  0.6855 -0.1263
 8808SOL    HW138060   3.458   2.354   9.140 -0.7131 -1.1970  0.8357
 8808SOL    HW238061   3.328   2.335   9.086 -0.1817  1.2675 -1.2922
 8809SOL     OW38062   0.204   4.033   7.024  0.4014 -0.4946 -0.6516
 8809SOL    HW138063   0.278   4.093   7.028 -0.0893  0.0510  0.3951
 8809SOL    HW238064   0.141   4.101   7.046 -0.0332 -1.4021  0.9469
 8810SOL     OW38065   2.834   0.849   9.207  0.4878  0.0437 -0.2128
 8810SOL    HW138066   2.910   0.907   9.197 -0.4432  1.3082 -0.0243
 8810SOL    HW238067   2.837   0.824   9.300  0.5720 -0.5312 -0.3701
 8811SOL     OW38068   2.220   1.538  10.241  0.0647  0.0468  0.3524
 8811SOL    HW138069   2.198   1.454  10.200  3.7456 -1.2092  0.9586
 8811SOL    HW238070   2.315   1.542  10.243  0.0303  0.9053  0.1916
 8812SOL     OW38071   1.970   4.236  11.767 -0.3826 -0.2803  0.3457
 8812SOL    HW138072   1.970   4.205  11.858 -1.0366 -0.4306  0.2890
 8812SOL    HW238073   1.992   4.158  11.717  1.9202  0.1779  0.6093
 8813SOL     OW38074   1.721   3.830   4.923 -0.2546 -0.3879  0.1786
 8813SOL    HW138075   1.783   3.775   4.875 -0.2936  1.5287 -2.0679
 8813SOL    HW238076   1.642   3.796   4.880 -0.6183  0.3632  0.2544
 8814SOL     OW38077   4.352   0.779   6.395  0.1871  0.1078  0.0903
 8814SOL    HW138078   4.311   0.827   6.324 -2.5341  0.1803  1.7279
 8814SOL    HW238079   4.285   0.713   6.415 -1.4542  1.3468 -1.4195
 8815SOL     OW38080   0.866   2.003  11.993 -0.5598  0.2678  0.2202
 8815SOL    HW138081   0.942   1.985  11.938 -0.3954 -1.6515  1.0529
 8815SOL    HW238082   0.793   1.962  11.946  0.7457 -1.3001 -0.4476
 8816SOL     OW38083   3.968   0.510   0.884 -0.3593 -0.1762 -0.1348
 8816SOL    HW138084   3.905   0.490   0.814 -1.7481 -0.6268  1.2397
 8816SOL    HW238085   3.904   0.558   0.936 -0.4842 -0.2895 -0.1837
 8817SOL     OW38086   3.979   3.710   9.030  1.0922  0.2267 -0.3150
 8817SOL    HW138087   3.923   3.674   8.961  1.2998 -1.1127  0.2002
 8817SOL    HW238088   3.939   3.797   9.034  0.3248 -0.2260  2.2355
 8818SOL     OW38089   1.827   2.441  14.676  0.1087  0.2381 -0.1540
 8818SOL    HW138090   1.864   2.395  14.751 -1.1472  0.0475  0.3294
 8818SOL    HW238091   1.893   2.505  14.650  0.6978 -1.4403 -2.8581
 8819SOL     OW38092   1.376   3.089   4.643  0.0174  0.0719 -0.0153
 8819SOL    HW138093   1.343   3.176   4.619  2.1973  0.9180  0.1039
 8819SOL    HW238094   1.469   3.100   4.625 -0.3132 -0.4944 -1.9926
 8820SOL     OW38095   4.677   1.966  11.522 -0.4963  0.0396 -0.4680
 8820SOL    HW138096   0.014   1.971  11.579  1.8829 -1.2633 -3.5755
 8820SOL    HW238097   4.707   2.026  11.454 -0.7006 -0.5425 -1.0636
 8821SOL     OW38098   2.492   2.294   5.022 -0.3698  0.3292  0.0312
 8821SOL    HW138099   2.442   2.243   4.959  1.4893 -0.6867 -0.6302
 8821SOL    HW238100   2.453   2.250   5.097 -1.5317 -0.3780 -1.0013
 8822SOL     OW38101   3.526   3.817  13.883  0.5756 -0.6797  0.2804
 8822SOL    HW138102   3.591   3.747  13.875 -0.3589 -1.6358  1.2107
 8822SOL    HW238103   3.479   3.783  13.959  0.0590 -1.0645 -0.2129
 8823SOL     OW38104   4.605   0.013  10.923  0.4175  0.0638 -0.4298
 8823SOL    HW138105   4.609   0.104  10.951 -1.4886 -0.0422  0.2393
 8823SOL    HW238106   4.683   0.000  10.869  0.1887  0.0622 -0.7642
 8824SOL     OW38107   0.888   2.551   8.024  0.2847 -0.1011 -0.1266
 8824SOL    HW138108   0.850   2.554   8.111 -0.1738  1.3983 -0.3787
 8824SOL    HW238109   0.821   2.515   7.965 -1.0764  0.6248  0.9923
 8825SOL     OW38110   3.689   1.636   3.537 -0.1464  0.0867  0.3775
 8825SOL    HW138111   3.628   1.564   3.530 -0.6829  0.8852 -3.0588
 8825SOL    HW238112   3.751   1.618   3.466  1.6602  2.1611  1.4040
 8826SOL     OW38113   2.264   0.141   9.043  0.5599  0.4032 -0.2364
 8826SOL    HW138114   2.240   0.136   8.950 -0.7890  0.6752  0.0928
 8826SOL    HW238115   2.353   0.174   9.035  1.0660 -0.3517  2.3725
 8827SOL     OW38116   0.770   3.964   5.475 -0.0813  0.4043 -0.1082
 8827SOL    HW138117   0.700   3.993   5.417  0.6210  2.7860  0.2628
 8827SOL    HW238118   0.839   4.021   5.440  1.2649 -0.9986  0.2419
 8828SOL     OW38119   0.129   1.892   9.444  0.0561 -0.1182 -0.3183
 8828SOL    HW138120   0.224   1.881   9.435  0.1846  0.7220  0.0169
 8828SOL    HW238121   0.109   1.952   9.372 -1.2577 -0.9175 -0.6209
 8829SOL     OW38122   4.690   2.493   2.753  0.4237 -0.6374  0.9211
 8829SOL    HW138123   4.652   2.579   2.736 -1.0401 -1.2248  1.2960
 8829SOL    HW238124   4.633   2.464   2.824 -1.5073  1.6565  0.3115
 8830SOL     OW38125   1.726   1.487   1.554 -0.4719 -0.4258 -0.2737
 8830SOL    HW138126   1.645   1.498   1.504 -0.5936  1.3355  0.3003
 8830SOL    HW238127   1.716   1.393   1.570 -2.5302 -0.7103 -3.1508
 8831SOL     OW38128   1.355   4.212  10.915 -0.4687  0.1519 -0.4534
 8831SOL    HW138129   1.285   4.152  10.889 -1.3132  1.5185 -1.3243
 8831SOL    HW238130   1.421   4.222  10.847 -0.5609  1.8084 -0.3117
 8832SOL     OW38131   2.031   0.283   4.368 -0.2692 -0.1036 -0.0396
 8832SOL    HW138132   2.016   0.361   4.420 -0.4761 -1.6828  2.2521
 8832SOL    HW238133   2.018   0.318   4.280  0.5131 -1.0646 -0.5439
 8833SOL     OW38134   1.548   2.980   7.276  0.1561  0.2111  0.1663
 8833SOL    HW138135   1.522   3.006   7.188 -0.3035  1.2541  0.6065
 8833SOL    HW238136   1.538   3.060   7.328  0.2299  0.2025  0.1936
 8834SOL     OW38137   2.043   3.219   3.268 -0.1818  0.4786  0.1032
 8834SOL    HW138138   2.044   3.203   3.173 -0.7227 -0.4167  0.2480
 8834SOL    HW238139   1.986   3.149   3.299  0.8207  0.5127  1.9794
 8835SOL     OW38140   3.215   4.191   9.454  0.1292 -0.1021 -0.0329
 8835SOL    HW138141   3.275   4.242   9.509  0.7644 -0.5308 -0.3323
 8835SOL    HW238142   3.216   4.238   9.372  1.6221  1.1639  0.7026
 8836SOL     OW38143   1.639   3.441  10.744 -0.5099 -0.3512 -0.4806
 8836SOL    HW138144   1.643   3.493  10.825  0.6495  2.2031 -2.1665
 8836SOL    HW238145   1.727   3.404  10.746 -0.1591  0.5804  2.1009
 8837SOL     OW38146   0.499   3.298   8.692  0.3431 -0.0251  0.2327
 8837SOL    HW138147   0.461   3.235   8.753  0.5074  1.1212  1.5176
 8837SOL    HW238148   0.559   3.334   8.757  0.1943  0.1934  0.2524
 8838SOL     OW38149   0.616   2.321   2.019  0.2801 -0.6372  0.0040
 8838SOL    HW138150   0.628   2.301   2.112  0.8145  0.7088  0.2270
 8838SOL    HW238151   0.529   2.285   2.008 -0.8713  2.1462 -0.1124
 8839SOL     OW38152   4.316   3.201   2.437  0.1923  0.3330 -0.0252
 8839SOL    HW138153   4.411   3.212   2.433  0.2010  0.6941  1.1038
 8839SOL    HW238154   4.305   3.120   2.388 -0.8158  0.0469  0.6648
 8840SOL     OW38155   0.965   2.862  16.771  0.2809 -0.3020 -0.3547
 8840SOL    HW138156   0.971   2.939  16.827  1.1512 -0.4051 -0.3177
 8840SOL    HW238157   0.869   2.857  16.767  0.2232  0.8557 -0.3665
 8841SOL     OW38158   3.676   1.755   2.264  0.1776  0.1788 -0.5351
 8841SOL    HW138159   3.699   1.821   2.329  0.7262 -0.7563  0.2098
 8841SOL    HW238160   3.631   1.810   2.199  2.1853  1.8931 -0.4984
 8842SOL     OW38161   4.475   0.158  14.517 -0.4818 -0.5220  0.0372
 8842SOL    HW138162   4.498   0.171  14.425  1.5423 -1.5097  0.4004
 8842SOL    HW238163   4.535   0.088  14.543  0.3900  0.1454 -0.1546
 8843SOL     OW38164   4.475   1.426  16.922 -0.2395  0.0803  0.1033
 8843SOL    HW138165   4.525   1.508  16.919  1.0817 -0.7609 -1.3665
 8843SOL    HW238166   4.545   1.373  16.962  0.4266  0.9775  0.1401
 8844SOL     OW38167   0.907   4.202   4.862 -0.1776 -0.1884  0.3620
 8844SOL    HW138168   0.990   4.169   4.827  0.3283  1.5003 -0.0281
 8844SOL    HW238169   0.848   4.146   4.813  1.4217 -0.1565 -1.6263
 8845SOL     OW38170   3.498   0.489  14.437 -0.1257  0.6214  0.0913
 8845SOL    HW138171   3.528   0.439  14.361  1.7639  0.5316  0.8929
 8845SOL    HW238172   3.473   0.574  14.402  1.4756  1.5811  1.2800
 8846SOL     OW38173   1.103   1.483   1.545  0.1253 -0.2266  0.0101
 8846SOL    HW138174   1.074   1.572   1.566 -0.3966 -0.5940  0.8434
 8846SOL    HW238175   1.097   1.440   1.631 -2.4011  0.6578  0.2675
 8847SOL     OW38176   2.942   4.289   7.336  0.1906 -0.3979  0.7308
 8847SOL    HW138177   2.981   4.337   7.263 -1.5361  0.2823  0.2474
 8847SOL    HW238178   2.851   4.292   7.307  0.8985  0.9767 -1.3284
 8848SOL     OW38179   1.404   0.542   2.220  0.0029 -0.3238  0.5061
 8848SOL    HW138180   1.410   0.483   2.145  1.0309  0.3290  0.0639
 8848SOL    HW238181   1.466   0.609   2.192 -0.3546 -1.7115 -3.6183
 8849SOL     OW38182   2.562   3.276   9.460  0.2724 -0.9784  0.3563
 8849SOL    HW138183   2.653   3.250   9.443  0.0518 -2.5422  1.5878
 8849SOL    HW238184   2.571   3.370   9.479 -2.4895 -1.0085  1.7498
 8850SOL     OW38185   1.602   4.411  12.686  0.2272  0.1272 -0.1049
 8850SOL    HW138186   1.600   4.486  12.627  0.8081 -0.9969 -1.5422
 8850SOL    HW238187   1.687   4.415  12.730 -0.2349  1.2679  0.6962
 8851SOL     OW38188   1.526   1.683   7.646  0.9394 -0.6660 -0.1472
 8851SOL    HW138189   1.468   1.759   7.656  1.4855 -0.3456  0.5852
 8851SOL    HW238190   1.460   1.614   7.646  1.4499 -1.1574 -1.4562
 8852SOL     OW38191   1.590   2.403   8.319  0.6384  0.5170  0.0701
 8852SOL    HW138192   1.581   2.320   8.367 -0.5765 -0.0368 -1.1445
 8852SOL    HW238193   1.588   2.365   8.232 -0.6608 -0.7368  0.6447
 8853SOL     OW38194   1.322   3.395  17.318 -0.4032 -0.0149  0.2579
 8853SOL    HW138195   1.344   3.461  17.252  0.6991  0.0677  0.7201
 8853SOL    HW238196   1.276   3.329  17.267 -0.1501  0.6047 -0.7795
 8854SOL     OW38197   2.129   3.188   1.826  0.5311 -0.4454 -0.4961
 8854SOL    HW138198   2.041   3.214   1.852  0.9579  0.3439  0.1750
 8854SOL    HW238199   2.146   3.263   1.768  0.2454 -1.3332 -1.7162
 8855SOL     OW38200   3.740   0.557   6.703  0.3415 -0.2148 -0.1885
 8855SOL    HW138201   3.779   0.499   6.638  1.3264  0.8677 -0.5489
 8855SOL    HW238202   3.718   0.632   6.648 -0.6599 -0.2169  0.2071
 8856SOL     OW38203   2.545   3.271   8.840  0.1376 -0.5428  0.7236
 8856SOL    HW138204   2.494   3.236   8.913 -1.3383  0.5793  0.2234
 8856SOL    HW238205   2.636   3.272   8.872  0.1823 -1.7850  0.6100
 8857SOL     OW38206   4.506   1.617  12.175 -0.0111  0.2525  0.6317
 8857SOL    HW138207   4.554   1.587  12.252 -0.7337 -1.0288  0.5763
 8857SOL    HW238208   4.575   1.671  12.136 -0.2938  0.7618  0.8395
 8858SOL     OW38209   1.553   2.389   3.031  0.1390 -0.0416  0.3326
 8858SOL    HW138210   1.526   2.307   2.989  1.2176  0.2483 -0.9651
 8858SOL    HW238211   1.564   2.372   3.124  1.5470 -2.3094 -0.2363
 8859SOL     OW38212   1.053   0.789  14.192  0.2003 -0.6491 -0.1870
 8859SOL    HW138213   1.006   0.718  14.237 -2.4342  1.8456  1.0190
 8859SOL    HW238214   1.080   0.844  14.265  1.3366  0.6071 -1.5735
 8860SOL     OW38215   4.512   4.577   1.197  0.0869 -0.3077  0.3422
 8860SOL    HW138216   4.458   4.656   1.194 -0.1607 -0.4800  0.3494
 8860SOL    HW238217   4.590   4.604   1.246 -0.7761  1.3871  0.8065
 8861SOL     OW38218   3.473   2.689   6.943  0.2771 -0.4201 -0.0116
 8861SOL    HW138219   3.516   2.685   7.029 -0.7945  0.3354  0.5506
 8861SOL    HW238220   3.501   2.778   6.920  0.4327 -0.1041  1.4007
 8862SOL     OW38221   1.915   1.700   1.978  0.0774  0.1822 -0.1257
 8862SOL    HW138222   2.009   1.708   1.960 -0.1208  1.3629 -0.6882
 8862SOL    HW238223   1.879   1.740   1.899 -2.4862  3.0593  2.5139
 8863SOL     OW38224   0.894   0.948  14.589  0.4203 -0.1364  0.1434
 8863SOL    HW138225   0.979   0.964  14.631 -0.0461  1.4241  0.5078
 8863SOL    HW238226   0.842   0.940  14.668  1.2162 -1.3899  0.5379
 8864SOL     OW38227   0.538   1.639   0.490 -0.1425 -0.2837 -0.4754
 8864SOL    HW138228   0.547   1.547   0.468  0.4412 -0.1196 -0.9163
 8864SOL    HW238229   0.554   1.671   0.401  0.5103 -4.3160 -1.7683
 8865SOL     OW38230   3.582   2.941   6.856  0.2408 -0.5112  0.6306
 8865SOL    HW138231   3.562   2.956   6.764  1.1399 -0.3544  0.4622
 8865SOL    HW238232   3.508   2.988   6.893 -0.4765  2.3756 -4.4645
 8866SOL     OW38233   3.854   3.526   4.829  0.1282  0.2767 -0.3110
 8866SOL    HW138234   3.785   3.461   4.840 -0.8525  1.2027 -1.0197
 8866SOL    HW238235   3.925   3.474   4.792 -1.2228 -2.8957  1.6276
 8867SOL     OW38236   2.665   4.571   8.266 -0.6948  1.1329 -0.4688
 8867SOL    HW138237   2.665   4.634   8.193 -0.8332 -1.2655 -2.5354
 8867SOL    HW238238   2.685   4.628   8.340 -1.2546 -1.1999  1.4768
 8868SOL     OW38239   0.819   0.864   6.175  0.4170 -0.1364 -0.7368
 8868SOL    HW138240   0.905   0.903   6.189 -0.6408  2.2483 -0.9441
 8868SOL    HW238241   0.836   0.815   6.094  0.4167 -0.9577 -0.2398
 8869SOL     OW38242   4.672   4.612   6.744 -0.7082 -0.1179 -0.2791
 8869SOL    HW138243   0.021   4.581   6.728 -0.8300 -0.9907  0.7063
 8869SOL    HW238244   4.653   4.639   6.654 -0.0332 -0.1910 -0.4418
 8870SOL     OW38245   1.522   4.198   2.853 -0.1959 -0.3884 -0.5423
 8870SOL    HW138246   1.588   4.233   2.913 -1.5661  3.2855 -1.1321
 8870SOL    HW238247   1.565   4.198   2.767 -0.0536  2.5452 -0.4919
 8871SOL     OW38248   4.467   3.142   0.201  0.5984 -0.1070  0.2868
 8871SOL    HW138249   4.446   3.114   0.112  1.1928 -1.9555  0.7337
 8871SOL    HW238250   4.504   3.228   0.182  2.2410 -0.7992  0.2838
 8872SOL     OW38251   4.281   4.092   3.748  0.0314 -0.2118 -0.4674
 8872SOL    HW138252   4.377   4.101   3.751 -0.0425  0.6707 -0.9691
 8872SOL    HW238253   4.249   4.136   3.826  0.7523 -0.0100 -0.2802
 8873SOL     OW38254   3.645   4.717   1.961  0.1845  0.2514 -0.3244
 8873SOL    HW138255   3.569   4.662   1.938 -0.2495  1.2624 -1.3483
 8873SOL    HW238256   3.616   0.008   2.047  0.9349  2.2935 -0.8195
 8874SOL     OW38257   0.404   4.487  13.307 -0.2880  0.1634  0.3824
 8874SOL    HW138258   0.469   4.458  13.244 -1.7334 -1.2782 -0.4480
 8874SOL    HW238259   0.377   4.574  13.277  0.4984 -0.1016 -1.0822
 8875SOL     OW38260   2.491   1.300   8.367 -0.7322 -0.0462 -0.5367
 8875SOL    HW138261   2.428   1.293   8.438 -1.9083  1.8524 -1.3780
 8875SOL    HW238262   2.462   1.382   8.328 -0.2988  0.5855  0.4577
 8876SOL     OW38263   3.911   1.562  17.650 -1.0858  0.1202 -0.2938
 8876SOL    HW138264   3.829   1.583  17.695 -0.3954  0.3777  0.8614
 8876SOL    HW238265   3.970   1.621  17.697 -2.5243 -0.2469  2.0043
 8877SOL     OW38266   4.652   3.252   9.391 -0.0429 -0.3620 -0.0106
 8877SOL    HW138267   4.723   3.256   9.455  0.8001 -4.8269 -0.6631
 8877SOL    HW238268   4.682   3.324   9.335  0.8762 -2.2946 -2.0361
 8878SOL     OW38269   1.247   0.368   5.147  0.1021  0.4077  0.2390
 8878SOL    HW138270   1.314   0.406   5.089  0.8721 -0.7099  0.3713
 8878SOL    HW238271   1.175   0.361   5.085  0.5874 -0.0380 -0.2836
 8879SOL     OW38272   0.539   2.276  10.138 -0.2066  0.8483 -0.0107
 8879SOL    HW138273   0.605   2.331  10.180  1.2871 -1.5266  0.7368
 8879SOL    HW238274   0.577   2.261  10.051 -0.0621 -0.5597  0.3019
 8880SOL     OW38275   2.015   0.778   7.648  0.0654  0.4914 -1.0019
 8880SOL    HW138276   1.974   0.791   7.733  1.8637  2.5385 -0.4545
 8880SOL    HW238277   1.998   0.685   7.637 -2.2709  0.5465  1.9408
 8881SOL     OW38278   0.489   3.909   7.250  0.0065 -0.1182  0.3131
 8881SOL    HW138279   0.514   3.943   7.164 -1.6751 -2.7835 -1.2378
 8881SOL    HW238280   0.417   3.853   7.221 -1.5740  1.8448  0.4033
 8882SOL     OW38281   4.305   3.030  12.505 -0.3155 -0.4636 -0.2899
 8882SOL    HW138282   4.338   3.119  12.517 -0.4586 -0.1954 -1.8947
 8882SOL    HW238283   4.229   3.045  12.449  0.2507 -0.4979 -1.0701
 8883SOL     OW38284   2.712   1.552   1.855 -0.0091  0.1565  0.0495
 8883SOL    HW138285   2.670   1.600   1.926 -2.6557 -1.4071 -0.4822
 8883SOL    HW238286   2.660   1.473   1.841 -0.1558  0.5498 -1.6742
 8884SOL     OW38287   4.127   2.136   5.599  0.4458 -0.0211  0.2802
 8884SOL    HW138288   4.151   2.122   5.691  1.8810  3.4339  0.4279
 8884SOL    HW238289   4.102   2.228   5.599 -1.4856 -0.5519  0.8609
 8885SOL     OW38290   4.377   4.670  10.696  0.6991  0.3424 -0.5741
 8885SOL    HW138291   4.420   4.646  10.778  3.5676  1.8677 -1.6204
 8885SOL    HW238292   4.407   0.020  10.682 -2.1175  1.6411  2.0114
 8886SOL     OW38293   0.522   4.080   3.504  0.0375  0.1845 -0.1766
 8886SOL    HW138294   0.453   4.144   3.487 -0.0533 -0.0243 -0.5877
 8886SOL    HW238295   0.559   4.064   3.417  0.1908  2.1632 -0.4598
 8887SOL     OW38296   0.556   0.531   0.280 -0.2840  0.0694 -0.5372
 8887SOL    HW138297   0.492   0.574   0.224 -0.1631 -0.2770 -0.9398
 8887SOL    HW238298   0.637   0.531   0.229 -1.0028 -1.4407 -1.6803
 8888SOL     OW38299   0.580   3.260   9.100 -0.0116 -0.0547  0.3979
 8888SOL    HW138300   0.645   3.286   9.166  0.2297  1.9314 -0.6089
 8888SOL    HW238301   0.624   3.287   9.019 -3.4669  2.0029 -0.8099
 8889SOL     OW38302   4.462   3.495   5.196 -0.5466  0.0730  0.0614
 8889SOL    HW138303   4.473   3.511   5.102 -1.2223 -2.4627 -0.4619
 8889SOL    HW238304   4.534   3.547   5.233 -2.0233  2.5778 -0.5845
 8890SOL     OW38305   3.129   1.590   6.987  0.5122  0.6705  0.4698
 8890SOL    HW138306   3.042   1.620   6.962  0.9361  1.5767  0.1035
 8890SOL    HW238307   3.126   1.600   7.082  3.2213  1.3193  0.4991
 8891SOL     OW38308   0.345   3.130   2.695  0.0580  0.8228 -0.0449
 8891SOL    HW138309   0.381   3.061   2.751 -0.9634 -1.6597 -2.4299
 8891SOL    HW238310   0.345   3.201   2.760  1.1805 -0.6134  1.5126
 8892SOL     OW38311   3.454   1.108  10.563  0.1179  0.8910  0.0188
 8892SOL    HW138312   3.437   1.096  10.470 -0.3736 -0.5544  0.2941
 8892SOL    HW238313   3.444   1.018  10.595 -0.4180  0.5551 -1.1121
 8893SOL     OW38314   1.059   2.869   6.063 -0.2976  0.3556 -0.3560
 8893SOL    HW138315   0.998   2.845   6.132  1.4559  0.0758  1.1101
 8893SOL    HW238316   1.006   2.906   5.993  0.0535  1.3567 -0.1028
 8894SOL     OW38317   1.491   2.637   8.524 -0.5775  0.6532  0.6958
 8894SOL    HW138318   1.554   2.622   8.594 -1.7795  0.7965  1.7913
 8894SOL    HW238319   1.502   2.730   8.503 -0.8744  0.5235 -0.0251
 8895SOL     OW38320   1.087   0.949  12.102  0.0565 -0.1605  0.3569
 8895SOL    HW138321   1.082   0.900  12.185 -0.5493 -1.0876 -0.2285
 8895SOL    HW238322   1.042   1.030  12.129  0.4952  0.0932  0.3197
 8896SOL     OW38323   3.929   2.121   6.153  0.7002  0.2685  0.1482
 8896SOL    HW138324   3.966   2.056   6.211  0.0280  0.2781  0.5829
 8896SOL    HW238325   4.013   2.127   6.108  0.5220  0.0977 -0.2109
 8897SOL     OW38326   1.072   4.614   2.200  0.2541  0.5701 -0.2390
 8897SOL    HW138327   1.094   4.522   2.186  2.1163  0.6281  2.3253
 8897SOL    HW238328   1.141   4.639   2.262 -0.3705 -0.3336  0.8141
 8898SOL     OW38329   0.571   2.248   3.100  0.3568 -0.0667 -0.1955
 8898SOL    HW138330   0.553   2.261   3.007  0.8374  2.2292  0.0327
 8898SOL    HW238331   0.623   2.168   3.105  0.6765  0.1854  0.4711
 8899SOL     OW38332   3.243   0.390   5.306 -0.0505  0.7914  0.1584
 8899SOL    HW138333   3.214   0.403   5.396  1.0665  2.0288  0.3397
 8899SOL    HW238334   3.218   0.298   5.296  0.7187  1.0368 -4.0170
 8900SOL     OW38335   1.334   0.833   2.315 -0.0764  0.0241 -0.0296
 8900SOL    HW138336   1.417   0.856   2.273 -0.4537 -1.6980 -1.7175
 8900SOL    HW238337   1.325   0.744   2.281 -0.6980  0.1374 -0.1635
 8901SOL     OW38338   1.914   2.597   2.192 -0.3724 -0.2555 -0.8412
 8901SOL    HW138339   1.849   2.597   2.261 -0.1728  0.3481 -0.6503
 8901SOL    HW238340   1.994   2.593   2.244 -0.6641  0.5630 -0.3282
 8902SOL     OW38341   0.694   4.067   9.429  0.1014 -0.1846  0.0865
 8902SOL    HW138342   0.716   3.974   9.437 -1.5584 -0.4771  1.1407
 8902SOL    HW238343   0.636   4.051   9.503  1.0531  0.2731  0.9266
 8903SOL     OW38344   0.315   0.963  14.114  0.2174  0.1393 -0.4642
 8903SOL    HW138345   0.390   0.998  14.161 -1.0502  2.1145  0.0599
 8903SOL    HW238346   0.298   0.882  14.163  0.2462  0.6676  0.4125
 8904SOL     OW38347   2.017   0.976   4.458  0.5331 -0.0531 -0.0434
 8904SOL    HW138348   1.991   0.984   4.367  2.0251  0.6077 -0.4201
 8904SOL    HW238349   2.061   1.059   4.479 -0.9274  0.8663 -0.5980
 8905SOL     OW38350   1.689   1.493   6.028  0.0733  0.3799 -0.8674
 8905SOL    HW138351   1.723   1.576   5.994  1.0313  0.7387  0.9821
 8905SOL    HW238352   1.595   1.508   6.037 -0.0718 -1.0799  0.1006
 8906SOL     OW38353   0.990   0.522   3.306  0.3318 -0.1161  0.4990
 8906SOL    HW138354   0.937   0.602   3.309 -0.3782 -0.5479 -0.4574
 8906SOL    HW238355   1.039   0.542   3.226  1.2320  1.7700  1.5122
 8907SOL     OW38356   0.877   2.194   9.992 -0.3732  0.2143  0.1958
 8907SOL    HW138357   0.929   2.239  10.058  0.4521  0.3807 -0.5540
 8907SOL    HW238358   0.896   2.103  10.017 -0.8706  0.0365 -0.0728
 8908SOL     OW38359   0.180   4.641   7.902 -0.5532 -0.5824  0.0794
 8908SOL    HW138360   0.193   4.547   7.919 -0.6572 -0.5240  0.4812
 8908SOL    HW238361   0.237   4.642   7.826 -1.5121  1.3943 -0.6103
 8909SOL     OW38362   1.245   2.552  12.819  0.6792  0.0305 -0.1716
 8909SOL    HW138363   1.150   2.549  12.801  0.6164  0.9650 -0.0015
 8909SOL    HW238364   1.247   2.527  12.911  1.2178 -2.4675 -0.8603
 8910SOL     OW38365   3.247   0.790   5.143  0.8365  0.5172 -0.3083
 8910SOL    HW138366   3.175   0.838   5.104  1.9402  1.6055 -0.9878
 8910SOL    HW238367   3.196   0.723   5.189  0.0829  1.0743 -0.3401
 8911SOL     OW38368   2.539   0.770   2.253 -0.5826 -0.3731  0.2524
 8911SOL    HW138369   2.612   0.766   2.314 -2.1031 -0.9474  2.0534
 8911SOL    HW238370   2.493   0.687   2.271 -1.7144  0.5383  1.5677
 8912SOL     OW38371   2.111   1.853   2.502 -0.0524 -0.1513  0.1461
 8912SOL    HW138372   2.177   1.798   2.545 -1.1312 -1.8892 -0.4408
 8912SOL    HW238373   2.158   1.929   2.468 -0.8425  1.1346  1.8746
 8913SOL     OW38374   0.221   2.215   9.952 -0.1507  0.2580 -0.0485
 8913SOL    HW138375   0.280   2.288   9.937  1.4234 -0.3540  3.2199
 8913SOL    HW238376   0.225   2.175   9.865  1.3257  2.9713 -1.1993
 8914SOL     OW38377   0.256   1.659   8.529  0.5280 -0.3121 -0.6547
 8914SOL    HW138378   0.270   1.625   8.441 -1.7220 -0.2090 -1.0625
 8914SOL    HW238379   0.206   1.586   8.567  2.1126 -2.1130 -2.0374
 8915SOL     OW38380   1.960   3.130  17.557  0.0764  0.1652  0.3554
 8915SOL    HW138381   1.934   3.199  17.496  0.5820 -1.6090 -1.8668
 8915SOL    HW238382   1.879   3.097  17.594 -0.0618  0.2279  0.1104
 8916SOL     OW38383   3.660   3.751  11.741 -0.1329 -0.0459 -0.0210
 8916SOL    HW138384   3.741   3.706  11.763 -0.8361 -0.5705  1.4901
 8916SOL    HW238385   3.617   3.685  11.687 -1.3900 -0.0483  0.9929
 8917SOL     OW38386   4.728   2.744   6.205 -0.0723  0.9649 -0.3118
 8917SOL    HW138387   0.082   2.739   6.191 -0.5050 -1.5941 -2.2334
 8917SOL    HW238388   4.726   2.801   6.282  0.7422  0.2506  0.2419
 8918SOL     OW38389   0.586   3.137  17.515 -0.1565 -0.9156 -0.3435
 8918SOL    HW138390   0.564   3.189  17.592 -0.8400  0.0774 -1.1988
 8918SOL    HW238391   0.592   3.205  17.447  0.7863  0.2632  0.9227
 8919SOL     OW38392   4.546   1.135  12.229  0.3895 -0.4528 -0.0544
 8919SOL    HW138393   4.452   1.125  12.241  0.5588 -1.4260  0.4540
 8919SOL    HW238394   4.584   1.088  12.303  1.5764 -0.0361 -0.3971
 8920SOL     OW38395   2.491   2.479  10.894 -0.4407  0.4667 -0.1612
 8920SOL    HW138396   2.440   2.460  10.815 -0.4884 -0.9356  0.2079
 8920SOL    HW238397   2.451   2.560  10.927  0.1926 -0.0394  1.8087
 8921SOL     OW38398   0.706   4.138  15.854  0.4763  0.0725  0.2749
 8921SOL    HW138399   0.664   4.121  15.939 -2.1847  0.5870 -0.9153
 8921SOL    HW238400   0.708   4.051  15.816 -1.5505 -0.6732  1.8669
 8922SOL     OW38401   1.224   4.110   7.869 -0.3180 -0.1135  0.0751
 8922SOL    HW138402   1.234   4.184   7.808  0.1352 -0.1726  0.0766
 8922SOL    HW238403   1.166   4.054   7.818 -1.5649 -0.8015  2.2625
 8923SOL     OW38404   2.402   2.362   8.329 -0.5602  0.1775  0.1835
 8923SOL    HW138405   2.474   2.307   8.299 -0.3274  1.4541 -1.6163
 8923SOL    HW238406   2.420   2.436   8.271  1.3435  0.2505  0.8423
 8924SOL     OW38407   4.296   0.149   1.396 -0.1146  0.0822  0.3512
 8924SOL    HW138408   4.345   0.126   1.317 -1.1110  1.1092 -0.5584
 8924SOL    HW238409   4.318   0.239   1.418 -0.6849  0.2101  0.3975
 8925SOL     OW38410   2.762   4.067  14.810 -0.4044  0.1380 -0.1589
 8925SOL    HW138411   2.765   4.123  14.888  2.0125  2.2120 -1.7756
 8925SOL    HW238412   2.848   4.087  14.774 -1.4847  1.1753 -2.1400
 8926SOL     OW38413   1.899   4.439   8.822  0.9507  0.2466  0.0618
 8926SOL    HW138414   1.814   4.397   8.832  2.3090 -2.2457  1.2473
 8926SOL    HW238415   1.952   4.359   8.832  0.7576  0.0442 -0.5539
 8927SOL     OW38416   0.700   3.137   4.796  0.3227 -0.4368  0.0741
 8927SOL    HW138417   0.673   3.150   4.887  1.6093  2.0395  0.0808
 8927SOL    HW238418   0.791   3.128   4.824  1.0672  0.5204 -2.0871
 8928SOL     OW38419   3.793   2.490   8.884 -0.0124 -0.0904  0.5848
 8928SOL    HW138420   3.884   2.469   8.865 -1.0188 -2.8572 -1.1860
 8928SOL    HW238421   3.803   2.577   8.923 -0.8519  0.4404 -0.3531
 8929SOL     OW38422   3.161   4.454   6.068 -0.2413 -0.2231  0.8650
 8929SOL    HW138423   3.094   4.386   6.070  0.0160 -0.4910  0.3393
 8929SOL    HW238424   3.143   4.484   5.979 -0.3405 -2.9123 -0.0010
 8930SOL     OW38425   1.441   0.250   0.469  0.3688  0.0716 -0.7784
 8930SOL    HW138426   1.354   0.213   0.480  0.5197  0.0544  0.4374
 8930SOL    HW238427   1.453   0.289   0.556 -0.2397 -2.4432  0.4148
 8931SOL     OW38428   3.030   0.836  10.333 -0.2668  0.2082 -0.4711
 8931SOL    HW138429   3.061   0.823  10.243  0.6264 -1.5405  0.0948
 8931SOL    HW238430   2.958   0.898  10.320  0.9628  2.1424  2.0063
 8932SOL     OW38431   0.331   0.473   3.441 -0.4957 -0.2021  0.0572
 8932SOL    HW138432   0.404   0.428   3.484 -0.6715 -0.4201  0.1272
 8932SOL    HW238433   0.322   0.558   3.485  3.2870  0.2064  0.0599
 8933SOL     OW38434   4.025   0.119   1.439  0.3356 -0.1362  0.1917
 8933SOL    HW138435   4.117   0.131   1.414  0.0740  0.3098 -0.5516
 8933SOL    HW238436   3.989   0.207   1.432  1.2531  0.3130  0.9517
 8934SOL     OW38437   4.164   0.563   3.871  0.2989  0.0934 -0.4798
 8934SOL    HW138438   4.256   0.589   3.862 -0.0595  0.9336 -1.7405
 8934SOL    HW238439   4.159   0.520   3.956 -0.8124  3.0761  0.9805
 8935SOL     OW38440   2.309   4.234   7.606  0.2842 -0.2821 -0.2886
 8935SOL    HW138441   2.249   4.300   7.641 -2.5952 -2.1250 -1.7535
 8935SOL    HW238442   2.242   4.182   7.561  1.2970 -1.2590 -0.6539
 8936SOL     OW38443   4.143   3.817   3.694 -0.5824  0.5209  0.2454
 8936SOL    HW138444   4.208   3.757   3.658 -0.5544  2.2552 -2.6017
 8936SOL    HW238445   4.190   3.901   3.698  0.1310  0.0667  1.5486
 8937SOL     OW38446   2.883   1.649   1.636  0.0822  0.0654  0.1870
 8937SOL    HW138447   2.863   1.743   1.637 -1.4446 -0.2778  1.5939
 8937SOL    HW238448   2.863   1.622   1.725  0.3120 -2.5584 -0.5619
 8938SOL     OW38449   2.627   0.703   0.374 -0.5538 -0.6410  0.2730
 8938SOL    HW138450   2.654   0.730   0.286  1.9601  0.5084  1.3822
 8938SOL    HW238451   2.573   0.625   0.360 -1.7337  0.4262 -1.0913
 8939SOL     OW38452   0.435   2.948   5.597  0.1474 -0.3711  0.2633
 8939SOL    HW138453   0.384   2.992   5.529 -0.0413  0.0280  0.6600
 8939SOL    HW238454   0.503   3.007   5.630  0.1831  0.2541 -0.9073
 8940SOL     OW38455   0.563   3.844   6.230 -0.0113  0.1364  0.8990
 8940SOL    HW138456   0.588   3.936   6.237 -1.1791  0.4095  1.6613
 8940SOL    HW238457   0.617   3.798   6.295 -1.1099 -0.5703  1.3224
 8941SOL     OW38458   0.326   2.702   2.443  0.1375 -0.4123  0.2924
 8941SOL    HW138459   0.295   2.619   2.479 -1.6812  0.4635  0.7576
 8941SOL    HW238460   0.412   2.680   2.409  0.4052  2.0690 -0.6123
 8942SOL     OW38461   0.601   2.852  12.839  0.3794 -0.2537 -0.7955
 8942SOL    HW138462   0.507   2.836  12.838  0.2029  0.4852  3.0502
 8942SOL    HW238463   0.610   2.945  12.818 -0.8446 -0.1266 -0.7069
 8943SOL     OW38464   2.679   1.641   7.472  0.6182 -0.5852  0.1126
 8943SOL    HW138465   2.742   1.701   7.511  1.4072  0.8048 -3.2492
 8943SOL    HW238466   2.611   1.639   7.539 -0.3326  1.9402 -0.7548
 8944SOL     OW38467   1.199   2.357   3.939 -0.4276  0.3112  0.4503
 8944SOL    HW138468   1.181   2.382   4.029 -0.9006  0.2589  0.3686
 8944SOL    HW238469   1.110   2.348   3.907 -0.7309 -0.2596  1.4725
 8945SOL     OW38470   4.187   4.640  12.697 -0.2221 -0.1311 -0.0476
 8945SOL    HW138471   4.141   4.607  12.774 -0.5874 -0.8043 -0.5428
 8945SOL    HW238472   4.131   4.713  12.670  1.6091  0.8034 -1.2832
 8946SOL     OW38473   4.370   0.777   8.355  0.3092  0.1250  0.1200
 8946SOL    HW138474   4.371   0.750   8.263 -0.7792 -0.0101  0.1503
 8946SOL    HW238475   4.439   0.725   8.398 -0.0549 -0.2318  0.2701
 8947SOL     OW38476   0.703   4.382   2.153 -0.2704 -0.2068  0.4001
 8947SOL    HW138477   0.639   4.404   2.220 -0.2101  1.0533  0.0280
 8947SOL    HW238478   0.662   4.347   2.074  1.7836  1.0776 -1.2650
 8948SOL     OW38479   2.334   1.013   4.429 -0.1028 -0.3771  0.2515
 8948SOL    HW138480   2.262   1.061   4.470  0.5805 -0.2190  1.2904
 8948SOL    HW238481   2.394   1.033   4.502  1.2780 -3.7226  0.0454
 8949SOL     OW38482   0.947   4.572   9.031 -0.6654 -0.1971 -0.4622
 8949SOL    HW138483   0.984   4.490   9.000  1.0794 -0.6280  2.7128
 8949SOL    HW238484   0.858   4.550   9.057 -0.4955  0.5889  0.8213
 8950SOL     OW38485   3.619   3.260  17.054  0.6845  0.0486 -0.5320
 8950SOL    HW138486   3.603   3.216  17.137 -2.2337  1.1697 -0.5009
 8950SOL    HW238487   3.712   3.237  17.047  0.8191  0.2243  0.7082
 8951SOL     OW38488   0.716   0.027   3.781  0.7775  0.5769 -0.9138
 8951SOL    HW138489   0.711   0.113   3.738 -1.7009 -0.5405 -2.8301
 8951SOL    HW238490   0.810   0.026   3.799  0.9811  1.0825 -1.9803
 8952SOL     OW38491   4.574   3.988   1.963  0.1827 -0.3566  0.2676
 8952SOL    HW138492   4.530   3.970   2.046  0.0174  1.8293  0.6418
 8952SOL    HW238493   4.538   3.919   1.906  0.4076 -1.6065  1.6260
 8953SOL     OW38494   3.569   0.821   4.561 -0.2078  0.0132  0.1862
 8953SOL    HW138495   3.494   0.812   4.620  0.0673  0.6692  0.6362
 8953SOL    HW238496   3.541   0.896   4.508  0.1976 -1.2423 -1.7943
 8954SOL     OW38497   0.964   3.193   6.337 -0.3728 -0.2735  0.2509
 8954SOL    HW138498   1.009   3.216   6.256 -0.4010 -2.6379 -0.4286
 8954SOL    HW238499   0.895   3.136   6.303  0.7588 -0.5062 -1.6782
 8955SOL     OW38500   4.303   1.300   8.997  0.6051  0.3259 -0.0439
 8955SOL    HW138501   4.245   1.270   8.927 -1.2452  1.0151  1.1847
 8955SOL    HW238502   4.259   1.258   9.071 -1.9690  0.0575 -1.7273
 8956SOL     OW38503   1.582   3.649   8.685 -0.2381 -0.1807 -0.5191
 8956SOL    HW138504   1.564   3.588   8.756  0.5852  3.9010  3.2035
 8956SOL    HW238505   1.668   3.615   8.659 -1.1999 -2.7132 -0.2821
 8957SOL     OW38506   2.570   2.265  12.682 -0.3362  0.1884 -0.8984
 8957SOL    HW138507   2.596   2.225  12.599 -0.1133 -0.1003 -0.6883
 8957SOL    HW238508   2.483   2.225  12.689 -0.3661  0.5385  0.5962
 8958SOL     OW38509   0.762   3.324   9.284 -0.1547 -0.2815 -0.1077
 8958SOL    HW138510   0.721   3.399   9.327  1.6925 -0.1354  1.3896
 8958SOL    HW238511   0.855   3.348   9.282 -0.8903  2.6763  1.7908
 8959SOL     OW38512   3.679   1.751   7.676  0.7023 -0.1285 -0.0376
 8959SOL    HW138513   3.744   1.682   7.661 -1.3048 -2.3427  1.4053
 8959SOL    HW238514   3.652   1.747   7.768 -0.8250  0.6304 -0.4696
 8960SOL     OW38515   2.460   0.183   6.612 -0.6442  0.3743  0.1989
 8960SOL    HW138516   2.408   0.189   6.532 -1.6779 -0.7904  0.7883
 8960SOL    HW238517   2.484   0.274   6.626  0.9532 -0.1448  0.7735
 8961SOL     OW38518   3.520   2.148  17.345  0.0030 -0.0295  0.2148
 8961SOL    HW138519   3.539   2.065  17.302  0.5345  1.5460 -2.5495
 8961SOL    HW238520   3.600   2.193  17.318 -0.7138  1.4757  0.5767
 8962SOL     OW38521   2.678   0.944   1.388  0.0331  0.3485  0.4455
 8962SOL    HW138522   2.655   0.951   1.296  0.1898 -3.4329  0.1026
 8962SOL    HW238523   2.614   0.881   1.421 -0.9429  0.2439 -1.6737
 8963SOL     OW38524   0.111   4.538   9.043 -0.0565  0.2236 -0.2697
 8963SOL    HW138525   0.190   4.516   9.092  0.0071  0.9614 -0.0453
 8963SOL    HW238526   0.069   4.454   9.024 -0.7624  0.4607  0.2466
 8964SOL     OW38527   1.319   1.250   3.345 -0.3773  0.0545  0.2338
 8964SOL    HW138528   1.276   1.232   3.261  0.2794  0.3799 -0.1767
 8964SOL    HW238529   1.251   1.291   3.398 -0.3261  1.4925 -0.8237
 8965SOL     OW38530   4.186   0.725  11.013  0.1462 -0.3311  0.1755
 8965SOL    HW138531   4.094   0.714  11.035  0.1389 -0.3643  0.1269
 8965SOL    HW238532   4.223   0.647  11.054  0.7214  0.7211  1.6952
 8966SOL     OW38533   4.415   3.831   2.899  0.3195 -0.3403 -0.3297
 8966SOL    HW138534   4.420   3.796   2.988  0.4024 -0.2447 -0.2957
 8966SOL    HW238535   4.502   3.872   2.895  1.6920 -3.2872 -0.9528
 8967SOL     OW38536   4.678   1.774  10.388  0.4166  0.3832 -0.4400
 8967SOL    HW138537   0.010   1.796  10.329  0.0085  0.5982 -0.8639
 8967SOL    HW238538   4.694   1.828  10.465  1.1670  0.4659 -0.6604
 8968SOL     OW38539   0.087   3.455   7.404  0.1395 -0.4613 -0.4098
 8968SOL    HW138540   0.072   3.370   7.364 -1.4373 -0.0439 -0.6907
 8968SOL    HW238541   0.171   3.451   7.451  0.1419 -0.0959 -0.3793
 8969SOL     OW38542   4.620   0.052   0.263 -0.1685 -0.0362 -0.2500
 8969SOL    HW138543   4.532   0.089   0.247  0.8087  1.2038 -2.7767
 8969SOL    HW238544   4.646   0.037   0.173  1.3886 -2.9822  0.6991
 8970SOL     OW38545   2.315   1.776  17.593 -0.1537  0.4218  0.1303
 8970SOL    HW138546   2.267   1.808  17.516  0.7375  0.0496 -0.5910
 8970SOL    HW238547   2.304   1.853  17.649  1.3088 -0.1929  1.2659
 8971SOL     OW38548   4.645   3.941   2.892 -0.2453  0.2478 -0.3337
 8971SOL    HW138549   4.694   4.010   2.846  0.6050  0.6413  1.1551
 8971SOL    HW238550   4.682   3.864   2.849  0.4139  0.0818  0.5228
 8972SOL     OW38551   3.131   2.670   4.099  0.1848 -0.2619  0.2083
 8972SOL    HW138552   3.204   2.611   4.123 -1.1379 -1.3659  1.5270
 8972SOL    HW238553   3.184   2.747   4.078 -0.9672  1.1625  2.5633
 8973SOL     OW38554   3.048   4.678   9.300 -0.0461 -0.4730  0.6756
 8973SOL    HW138555   3.063   4.680   9.395  1.1406 -2.1754  0.5291
 8973SOL    HW238556   3.025   4.586   9.304  0.8824 -0.6890  1.2275
 8974SOL     OW38557   3.073   2.251  14.597  0.2838  0.1967  0.0517
 8974SOL    HW138558   3.096   2.259  14.690 -1.1369 -0.4914  0.4621
 8974SOL    HW238559   2.982   2.280  14.604  0.1791  0.0754 -0.8776
 8975SOL     OW38560   2.694   1.006   8.963 -0.3555 -0.0857  0.2069
 8975SOL    HW138561   2.725   1.018   8.873 -1.7114 -0.9096 -0.3676
 8975SOL    HW238562   2.686   0.911   8.968  3.1039 -0.4368 -0.6143
 8976SOL     OW38563   1.251   2.401  15.239  0.1694  0.0767  0.2151
 8976SOL    HW138564   1.305   2.336  15.194  2.0614  0.1569  2.3179
 8976SOL    HW238565   1.195   2.427  15.166 -0.1206 -1.5652 -0.1423
 8977SOL     OW38566   0.779   3.979   8.215  0.0836 -0.6393  0.8333
 8977SOL    HW138567   0.773   4.060   8.265 -2.8828  0.2993 -1.1138
 8977SOL    HW238568   0.868   3.948   8.235 -0.5518 -2.1551  1.3332
 8978SOL     OW38569   1.343   0.672   3.517  0.5645 -0.0866  0.1890
 8978SOL    HW138570   1.265   0.617   3.524  0.9594 -0.6275  0.2443
 8978SOL    HW238571   1.321   0.743   3.456  1.6740  2.3032  2.5557
 8979SOL     OW38572   0.145   3.880   4.637  0.1557  0.2898 -0.2760
 8979SOL    HW138573   0.115   3.970   4.650 -0.5823 -0.0086  0.0684
 8979SOL    HW238574   0.208   3.890   4.566 -0.2324  0.0264 -0.6550
 8980SOL     OW38575   4.613   3.521  15.405  0.0397 -0.2969 -0.2665
 8980SOL    HW138576   4.659   3.475  15.475 -0.3515 -0.9161 -0.4144
 8980SOL    HW238577   4.647   3.610  15.406 -0.5239 -0.0880  0.6017
 8981SOL     OW38578   3.289   0.251  11.090 -0.1036  0.4315 -0.5517
 8981SOL    HW138579   3.210   0.223  11.137  2.8675 -3.1556  2.3658
 8981SOL    HW238580   3.270   0.344  11.078 -0.6262  0.4415  0.3069
 8982SOL     OW38581   3.042   1.034   3.146 -0.1111  0.1511  0.0291
 8982SOL    HW138582   2.991   0.984   3.082 -0.6134 -0.7051  1.1106
 8982SOL    HW238583   3.070   0.956   3.194  1.1695  1.1135  0.8375
 8983SOL     OW38584   1.539   2.593   9.253  0.0970  0.0865 -0.2149
 8983SOL    HW138585   1.584   2.514   9.284 -1.6928 -0.6537  0.4635
 8983SOL    HW238586   1.572   2.650   9.322  0.1674  1.5866 -1.4894
 8984SOL     OW38587   4.647   1.963   3.993  0.1166  0.5047  0.1868
 8984SOL    HW138588   4.679   1.905   3.925  1.2162  0.4324  0.7541
 8984SOL    HW238589   4.557   1.936   4.010  0.7474 -1.4786  0.2748
 8985SOL     OW38590   2.217   3.587   2.162  0.2810  0.1547 -0.2881
 8985SOL    HW138591   2.139   3.569   2.109  0.3926  0.3872 -0.5352
 8985SOL    HW238592   2.253   3.498   2.169  2.0008  0.9784  1.3587
 8986SOL     OW38593   4.011   0.738   7.587  0.4923  0.6031  0.1919
 8986SOL    HW138594   3.942   0.801   7.608 -1.8368 -1.8580 -0.0418
 8986SOL    HW238595   3.972   0.705   7.507  0.8879 -1.6337  0.9149
 8987SOL     OW38596   3.466   3.180   6.012 -0.0261  0.0237  0.3502
 8987SOL    HW138597   3.434   3.269   6.028 -1.3013 -0.4298  0.2799
 8987SOL    HW238598   3.559   3.183   6.034 -0.1937 -0.3344  1.0940
 8988SOL     OW38599   1.713   3.807   2.931  0.1406  0.1627 -0.3318
 8988SOL    HW138600   1.786   3.862   2.904 -0.3587  0.0847 -1.8425
 8988SOL    HW238601   1.657   3.862   2.987  1.7280  2.7154 -1.2207
 8989SOL     OW38602   0.682   2.849   9.450 -0.2893 -0.2720 -0.5411
 8989SOL    HW138603   0.740   2.818   9.381  2.3935  2.3724  0.5269
 8989SOL    HW238604   0.641   2.916   9.395 -0.2122 -0.3663 -0.7124
 8990SOL     OW38605   2.429   1.825   6.073  0.5898 -0.5870  0.7277
 8990SOL    HW138606   2.439   1.793   6.163 -0.6026  1.0847  1.4632
 8990SOL    HW238607   2.428   1.745   6.020  2.8985  1.6391 -2.6660
 8991SOL     OW38608   3.769   2.486   6.941  0.5656 -0.5937 -0.1445
 8991SOL    HW138609   3.717   2.505   7.019 -0.9213  1.6522 -1.7015
 8991SOL    HW238610   3.787   2.394   6.958 -0.6744 -0.8912 -0.4168
 8992SOL     OW38611   2.174   4.720   0.677  0.2893  0.3639 -0.1696
 8992SOL    HW138612   2.159   4.700   0.585 -2.3845 -1.7016  0.6962
 8992SOL    HW238613   2.269   4.718   0.689  0.0968  1.2506  1.4213
 8993SOL     OW38614   3.976   4.140   5.147 -0.0466 -0.5727 -0.0110
 8993SOL    HW138615   4.031   4.217   5.158 -0.3693 -0.5988  1.7749
 8993SOL    HW238616   3.906   4.175   5.092 -0.6943 -0.3107  0.9742
 8994SOL     OW38617   2.522   4.206  12.070  0.2615 -0.2523 -0.0795
 8994SOL    HW138618   2.611   4.241  12.071  0.7752 -1.6181  1.6896
 8994SOL    HW238619   2.465   4.282  12.082  0.6635  0.1461 -0.6714
 8995SOL     OW38620   3.760   2.491   8.596  0.5419 -0.3900  0.0224
 8995SOL    HW138621   3.743   2.476   8.689  1.7248 -1.8361  0.0081
 8995SOL    HW238622   3.847   2.452   8.589  0.1240 -1.5160  1.0632
 8996SOL     OW38623   1.398   1.812   4.624  0.1647  0.1808  0.2568
 8996SOL    HW138624   1.488   1.789   4.647  0.2265  0.6864  0.5163
 8996SOL    HW238625   1.412   1.826   4.530 -0.5733 -1.6933 -0.1209
 8997SOL     OW38626   0.340   3.203  14.300  0.0440 -0.3386 -0.1271
 8997SOL    HW138627   0.252   3.200  14.262  1.0813  2.0006 -2.7435
 8997SOL    HW238628   0.396   3.241  14.232 -1.4258  1.4911 -0.3209
 8998SOL     OW38629   1.334   1.781  12.731 -0.7332 -0.1962  0.3364
 8998SOL    HW138630   1.353   1.724  12.657  1.0707  0.3926  0.3412
 8998SOL    HW238631   1.392   1.851  12.701 -1.0211  0.0326  0.3076
 8999SOL     OW38632   3.148   1.686   6.175 -0.2879  0.0954  0.2567
 8999SOL    HW138633   3.205   1.735   6.116 -0.2474  0.3481  0.5028
 8999SOL    HW238634   3.095   1.757   6.212 -1.0354 -0.6400  0.5874
 9000SOL     OW38635   3.342   3.433   6.646 -0.3465 -0.2113 -0.1456
 9000SOL    HW138636   3.431   3.415   6.616  0.9097  1.2826  2.7521
 9000SOL    HW238637   3.307   3.493   6.580  1.4622  0.4328 -0.5288
 9001SOL     OW38638   0.099   4.187   6.222  0.9373 -0.2772  0.3087
 9001SOL    HW138639   0.064   4.194   6.311  0.9650  1.2815  0.1929
 9001SOL    HW238640   0.023   4.226   6.177 -0.0444 -0.8681  1.4419
 9002SOL     OW38641   1.257   3.670   7.009 -0.4484  0.2251  0.5073
 9002SOL    HW138642   1.323   3.725   7.052  0.4063  0.2283 -0.8107
 9002SOL    HW238643   1.273   3.581   7.040  1.5095  0.4164  0.0331
 9003SOL     OW38644   4.390   3.952   8.728  0.0457 -0.2700  0.0489
 9003SOL    HW138645   4.419   3.873   8.684  0.7076 -0.3302  0.5882
 9003SOL    HW238646   4.298   3.935   8.746  0.3035 -0.4251  1.2548
 9004SOL     OW38647   3.963   4.617   9.085  0.1451 -0.0298 -0.1993
 9004SOL    HW138648   4.027   4.655   9.026 -2.2598  0.7616 -2.2922
 9004SOL    HW238649   3.901   4.585   9.019 -1.4239  2.7764 -0.0651
 9005SOL     OW38650   2.032   2.749  14.897  0.4094 -0.6936  0.0690
 9005SOL    HW138651   2.121   2.761  14.930 -0.3368  1.7311  1.2340
 9005SOL    HW238652   2.009   2.673  14.951 -3.1113 -0.0306 -0.5047
 9006SOL     OW38653   0.208   2.553   2.692  0.8431  0.3359 -0.4304
 9006SOL    HW138654   0.129   2.512   2.727  0.0446  2.7187  0.4815
 9006SOL    HW238655   0.158   2.613   2.637  0.8504  0.9197  0.2043
 9007SOL     OW38656   4.711   2.765   0.424 -0.2321 -0.0125  0.2493
 9007SOL    HW138657   4.674   2.744   0.510  1.2290  1.1459  1.1488
 9007SOL    HW238658   4.642   2.826   0.398 -1.5850 -1.6349  0.0201
 9008SOL     OW38659   3.754   3.775   7.746  0.4642  0.2421  0.2201
 9008SOL    HW138660   3.692   3.724   7.800 -0.4148 -0.4935 -1.4998
 9008SOL    HW238661   3.777   3.702   7.689 -1.2264 -0.7059  0.7497
 9009SOL     OW38662   4.459   0.130   4.337 -0.2403 -0.0579 -0.0692
 9009SOL    HW138663   4.493   0.098   4.421 -0.4754 -1.9723 -0.7038
 9009SOL    HW238664   4.499   0.216   4.329  0.4939 -0.3048  0.9103
 9010SOL     OW38665   1.479   4.021   6.379  0.3902  0.4403  0.4342
 9010SOL    HW138666   1.441   4.075   6.310 -0.5578 -1.3863 -0.4900
 9010SOL    HW238667   1.433   4.045   6.460  1.0734 -1.6907  1.4649
 9011SOL     OW38668   1.605   1.210   2.751  0.1338 -0.0471  0.2032
 9011SOL    HW138669   1.600   1.296   2.792 -1.2919  0.8731 -1.9125
 9011SOL    HW238670   1.517   1.173   2.761  0.4798 -0.0950  2.9245
 9012SOL     OW38671   1.262   3.020   8.519 -0.0207 -0.4782 -0.1679
 9012SOL    HW138672   1.343   3.044   8.564  0.7649  0.4939 -2.1170
 9012SOL    HW238673   1.279   3.052   8.430  0.9239 -1.2357 -0.2483
 9013SOL     OW38674   2.863   1.850   4.615  0.0797 -0.1347 -0.0351
 9013SOL    HW138675   2.934   1.869   4.555 -1.8504  1.2176 -1.9011
 9013SOL    HW238676   2.838   1.939   4.643  0.9797 -0.0069  0.3765
 9014SOL     OW38677   1.266   0.606   9.855  0.3345  0.0366  0.3617
 9014SOL    HW138678   1.309   0.664   9.919 -0.5270  0.8745  0.1894
 9014SOL    HW238679   1.329   0.582   9.787  1.7882  0.6417  1.5041
 9015SOL     OW38680   2.184   0.488   8.130  0.1628  0.9322  0.1623
 9015SOL    HW138681   2.268   0.514   8.093  0.0485  2.6557  1.1030
 9015SOL    HW238682   2.208   0.505   8.221 -0.4102  2.2647  0.0618
 9016SOL     OW38683   1.564   4.415  14.159 -0.1650  0.2348 -0.2573
 9016SOL    HW138684   1.566   4.399  14.253  0.0401  0.7347 -0.1731
 9016SOL    HW238685   1.480   4.460  14.159  0.4038  1.2882  1.9510
 9017SOL     OW38686   2.393   0.604   2.656 -0.2719  0.3846 -0.5288
 9017SOL    HW138687   2.412   0.553   2.734 -4.1520 -0.1291  0.0860
 9017SOL    HW238688   2.476   0.599   2.608 -0.8429 -0.2923 -1.4482
 9018SOL     OW38689   0.382   4.331   4.515 -0.1607 -0.1026  0.2016
 9018SOL    HW138690   0.475   4.341   4.535  0.6900 -0.1285 -3.6142
 9018SOL    HW238691   0.402   4.271   4.443  0.1510  0.1924  0.0470
 9019SOL     OW38692   0.542   0.847   0.450  0.3722 -0.0120  0.7440
 9019SOL    HW138693   0.621   0.793   0.443  1.2065  1.1415  1.2919
 9019SOL    HW238694   0.545   0.867   0.357 -0.2801  2.2472  1.2286
 9020SOL     OW38695   0.969   1.041   1.890  0.1220 -0.0390  0.1751
 9020SOL    HW138696   0.915   1.010   1.962  1.1137 -1.1976  0.4244
 9020SOL    HW238697   1.038   1.089   1.937 -0.4214  0.2153  0.7101
 9021SOL     OW38698   2.528   3.857   1.270  0.4176 -0.2055 -0.3713
 9021SOL    HW138699   2.506   3.837   1.362  0.6784 -0.7548 -0.4304
 9021SOL    HW238700   2.525   3.766   1.240 -2.3198  0.2274 -1.3390
 9022SOL     OW38701   2.149   1.377  11.098  0.7351  0.7311  0.3109
 9022SOL    HW138702   2.104   1.460  11.115  0.6361  0.6072  0.6719
 9022SOL    HW238703   2.205   1.372  11.176  1.2966 -2.3468 -0.2878
 9023SOL     OW38704   4.018   0.923   4.256  0.3690  0.2559  0.0292
 9023SOL    HW138705   4.073   0.976   4.314 -1.2739  1.8922  0.0607
 9023SOL    HW238706   4.011   0.997   4.196  1.8784  0.1105 -0.3339
 9024SOL     OW38707   3.706   0.886  16.424  0.1756 -0.1066 -0.0860
 9024SOL    HW138708   3.612   0.871  16.426  0.5083 -1.9120  1.1817
 9024SOL    HW238709   3.702   0.951  16.353  0.6216  1.2179  1.0991
 9025SOL     OW38710   1.539   3.631   7.447 -0.2999 -0.3278  0.3907
 9025SOL    HW138711   1.567   3.573   7.376  2.7614  1.0418  0.4837
 9025SOL    HW238712   1.449   3.599   7.435 -0.7985  0.9972  0.5496
 9026SOL     OW38713   1.972   4.258   5.284  0.2633 -0.5148  0.1785
 9026SOL    HW138714   1.962   4.288   5.194  1.1347 -2.7115 -0.6321
 9026SOL    HW238715   1.963   4.338   5.336 -0.4013  0.5432 -1.5574
 9027SOL     OW38716   2.320   0.855   6.661 -0.2042 -0.3775 -0.0662
 9027SOL    HW138717   2.389   0.897   6.610 -2.3043  0.4018 -2.2534
 9027SOL    HW238718   2.245   0.839   6.604 -0.0910  0.3121 -0.4092
 9028SOL     OW38719   2.158   0.784   6.451 -0.0447 -0.0459  0.3223
 9028SOL    HW138720   2.109   0.783   6.369  2.3857  1.7313 -1.1376
 9028SOL    HW238721   2.203   0.699   6.455  2.1991  1.0275 -2.4619
 9029SOL     OW38722   2.532   1.151   6.115  0.3996 -0.0968 -0.0092
 9029SOL    HW138723   2.569   1.063   6.118  0.5095 -0.0837 -1.1125
 9029SOL    HW238724   2.598   1.213   6.146 -0.2649  1.1850 -1.1424
 9030SOL     OW38725   2.402   4.657   8.355  0.7496  0.1126  0.1564
 9030SOL    HW138726   2.457   4.595   8.306  0.0944  0.2570 -0.7524
 9030SOL    HW238727   2.387   4.736   8.303  2.3506  0.1633 -0.2291
 9031SOL     OW38728   4.236   1.663   3.804 -0.3941  0.5383 -0.3444
 9031SOL    HW138729   4.290   1.588   3.829 -2.4825 -0.8365  0.0548
 9031SOL    HW238730   4.178   1.675   3.879 -1.1712 -0.5818 -0.7613
 9032SOL     OW38731   4.291   3.448   1.322  0.1606  0.2937  0.0520
 9032SOL    HW138732   4.282   3.361   1.283 -0.6548  0.1698  0.5182
 9032SOL    HW238733   4.343   3.499   1.260 -0.1190 -0.5639 -0.8993
 9033SOL     OW38734   0.443   2.371   3.679 -0.4656 -0.6909 -0.1084
 9033SOL    HW138735   0.369   2.368   3.618 -0.1564  0.3453 -0.5441
 9033SOL    HW238736   0.474   2.462   3.678  1.6500 -1.4348 -3.8236
 9034SOL     OW38737   2.409   1.424   2.461  0.1506 -0.1254  0.0750
 9034SOL    HW138738   2.458   1.492   2.416  0.1091 -0.3265 -0.2767
 9034SOL    HW238739   2.461   1.349   2.433  0.1231  0.6663 -2.0833
 9035SOL     OW38740   2.416   0.197   1.881  0.3345  0.1068 -0.2189
 9035SOL    HW138741   2.376   0.148   1.954  0.9985  0.1479  0.1686
 9035SOL    HW238742   2.347   0.167   1.822  0.1951  0.7979 -0.3986
 9036SOL     OW38743   3.799   2.315   3.381  0.0366  0.1865 -0.0300
 9036SOL    HW138744   3.737   2.385   3.400  1.5275  1.1572  1.2190
 9036SOL    HW238745   3.736   2.245   3.367 -0.2163  0.6472 -1.2608
 9037SOL     OW38746   0.841   1.000   7.343  0.1206 -0.4211 -0.5516
 9037SOL    HW138747   0.780   1.018   7.272  1.2735  2.1016 -0.8816
 9037SOL    HW238748   0.813   1.060   7.412 -0.9330 -0.7014 -0.7380
 9038SOL     OW38749   2.160   3.304  11.500 -0.1152  0.8662 -0.2957
 9038SOL    HW138750   2.219   3.237  11.535 -0.8745 -0.0653 -0.7890
 9038SOL    HW238751   2.080   3.251  11.495 -0.8722  1.7996  1.7556
 9039SOL     OW38752   3.750   0.642  12.653  0.5848 -0.2883 -0.1886
 9039SOL    HW138753   3.678   0.624  12.714  0.6153  1.1064  0.2632
 9039SOL    HW238754   3.706   0.684  12.580 -0.8700 -0.9198  0.3165
 9040SOL     OW38755   0.624   1.854   4.546  0.2910  0.0752 -0.0712
 9040SOL    HW138756   0.581   1.938   4.560 -1.5965 -0.7931 -0.6287
 9040SOL    HW238757   0.599   1.812   4.628 -2.8245  1.8459 -0.1227
 9041SOL     OW38758   2.993   0.574  16.713  0.1682 -0.1604 -0.3607
 9041SOL    HW138759   2.974   0.561  16.621  2.1688  0.3879 -0.8580
 9041SOL    HW238760   2.910   0.606  16.749  0.0682 -1.1349  0.2756
 9042SOL     OW38761   0.354   1.433   6.095  0.0035 -0.0354 -0.0608
 9042SOL    HW138762   0.310   1.410   6.014 -1.4928  0.2998  0.6683
 9042SOL    HW238763   0.441   1.396   6.081  0.4349  1.7051 -2.0564
 9043SOL     OW38764   0.416   2.302  10.453 -0.0343  0.3263  0.4421
 9043SOL    HW138765   0.363   2.289  10.375  0.5846 -0.0474  0.0860
 9043SOL    HW238766   0.351   2.338  10.514 -0.7172  0.3635 -0.3124
 9044SOL     OW38767   2.307   1.081   5.062 -0.1560 -0.3509  0.2475
 9044SOL    HW138768   2.362   1.096   5.138 -0.5120  1.5786  0.1139
 9044SOL    HW238769   2.329   0.996   5.023  1.1262  0.3165 -0.4727
 9045SOL     OW38770   3.735   1.665  14.144  0.6722  0.0773  0.7003
 9045SOL    HW138771   3.708   1.690  14.232  1.9013 -2.2703  1.7234
 9045SOL    HW238772   3.685   1.727  14.091  0.9888 -0.1703  0.1112
 9046SOL     OW38773   3.483   4.641   6.868  0.5216 -0.1954  0.8085
 9046SOL    HW138774   3.459   4.621   6.778  0.3524 -3.6580  1.6290
 9046SOL    HW238775   3.448   4.729   6.877 -1.3111 -0.7522 -1.1943
 9047SOL     OW38776   2.817   2.868   0.736  0.3056  0.4828  0.8452
 9047SOL    HW138777   2.744   2.806   0.727  0.5603  0.4626 -1.1719
 9047SOL    HW238778   2.854   2.864   0.648 -3.6078 -1.2899 -0.7564
 9048SOL     OW38779   1.777   0.857   0.266 -0.0178  0.4672  0.4407
 9048SOL    HW138780   1.715   0.891   0.330 -1.1419 -0.8881  0.0594
 9048SOL    HW238781   1.854   0.885   0.316 -2.0153  1.8937  2.6818
 9049SOL     OW38782   1.168   0.680   1.782 -0.2164  0.5760 -0.1154
 9049SOL    HW138783   1.165   0.763   1.734 -2.3736 -1.8052 -4.1331
 9049SOL    HW238784   1.121   0.707   1.860  0.4621 -1.9594  1.1833
 9050SOL     OW38785   3.153   2.242   1.852 -0.0051  0.1065 -0.3624
 9050SOL    HW138786   3.245   2.262   1.873 -0.2034 -0.5377  1.1567
 9050SOL    HW238787   3.119   2.213   1.937  0.0666  0.1947 -0.3032
 9051SOL     OW38788   1.592   0.787  16.929 -0.0991  0.1276 -0.6196
 9051SOL    HW138789   1.629   0.726  16.865  0.8477 -0.9665  0.9367
 9051SOL    HW238790   1.511   0.811  16.886 -0.1060  1.5218  0.1583
 9052SOL     OW38791   4.639   1.353   5.919 -0.1689 -0.4515 -0.0895
 9052SOL    HW138792   4.578   1.283   5.895 -1.6063  1.3559 -1.6289
 9052SOL    HW238793   4.698   1.345   5.845 -2.2950  0.5854 -1.8758
 9053SOL     OW38794   3.673   2.818   3.286  0.4776 -0.5964  0.1356
 9053SOL    HW138795   3.687   2.840   3.378 -0.0875 -1.0252  0.3260
 9053SOL    HW238796   3.578   2.806   3.289  0.3413  0.3356 -0.4267
 9054SOL     OW38797   0.177   0.679  10.891 -0.4571  0.6647  0.2640
 9054SOL    HW138798   0.264   0.719  10.898  0.0082 -0.1811 -0.5907
 9054SOL    HW238799   0.123   0.756  10.874  0.5090  1.2376 -0.2036
 9055SOL     OW38800   1.331   3.315  15.944 -0.2283  0.3784 -0.0184
 9055SOL    HW138801   1.419   3.321  15.906 -1.0795  1.1574 -1.8718
 9055SOL    HW238802   1.301   3.229  15.915  2.5850  0.0407 -1.9975
 9056SOL     OW38803   3.195   0.521   2.485 -0.4184  0.0220  0.0986
 9056SOL    HW138804   3.233   0.598   2.443  2.4234 -0.7333  1.3260
 9056SOL    HW238805   3.222   0.536   2.575  0.4529 -0.0471 -0.1565
 9057SOL     OW38806   2.372   3.221   6.093  0.4555  0.2867 -0.0897
 9057SOL    HW138807   2.378   3.167   6.171 -0.7986 -0.4462 -0.4937
 9057SOL    HW238808   2.330   3.151   6.042 -1.3365  0.2194  1.4722
 9058SOL     OW38809   0.986   4.537   7.193 -0.0437 -0.1277 -0.0889
 9058SOL    HW138810   0.966   4.530   7.286 -2.2248 -0.1135 -0.5522
 9058SOL    HW238811   1.071   4.580   7.182  0.7353 -1.3463  1.2189
 9059SOL     OW38812   2.001   1.104   2.345 -0.2696  0.2116  0.0489
 9059SOL    HW138813   1.930   1.149   2.299  0.9937  0.3545 -1.7359
 9059SOL    HW238814   2.078   1.149   2.310  0.0040 -1.2921 -1.2484
 9060SOL     OW38815   2.852   2.958   3.581  0.4670  0.1967 -0.1211
 9060SOL    HW138816   2.804   3.040   3.577  0.2578  0.0174 -1.0915
 9060SOL    HW238817   2.902   2.971   3.662 -0.3555 -1.2951  0.6432
 9061SOL     OW38818   3.932   3.402   0.117 -0.4488  0.6018 -0.6446
 9061SOL    HW138819   3.964   3.449   0.194  0.1769  1.7385 -1.5964
 9061SOL    HW238820   4.010   3.395   0.062  1.3128 -0.2739  1.9826
 9062SOL     OW38821   0.957   0.511   7.248 -0.7700  0.0630 -0.2067
 9062SOL    HW138822   0.998   0.496   7.163 -1.3596  0.8493 -0.6231
 9062SOL    HW238823   1.031   0.561   7.283  0.0806 -2.0023  0.9811
 9063SOL     OW38824   2.556   2.043   3.290  0.6146  0.1147  0.0380
 9063SOL    HW138825   2.616   2.033   3.216  1.1439 -1.5638  0.7177
 9063SOL    HW238826   2.488   2.102   3.256  1.5441  0.0259 -1.9300
 9064SOL     OW38827   4.090   2.736   1.823  0.1872  0.1605 -0.1034
 9064SOL    HW138828   4.098   2.642   1.841 -0.4845  0.0080 -0.6040
 9064SOL    HW238829   4.001   2.738   1.787  0.3847  4.6723 -0.2928
 9065SOL     OW38830   1.069   3.619   5.121  0.1781 -0.3725  0.7521
 9065SOL    HW138831   1.079   3.530   5.087 -1.1267  0.2554 -1.2809
 9065SOL    HW238832   1.138   3.675   5.086  0.0189  0.1109  1.2125
 9066SOL     OW38833   2.735   3.979   3.749 -0.1804 -0.5167 -0.0567
 9066SOL    HW138834   2.802   3.915   3.726  3.4707  3.2295  0.2220
 9066SOL    HW238835   2.697   3.937   3.826 -0.8428 -0.8673 -0.5708
 9067SOL     OW38836   0.218   0.998   4.862 -0.4189  0.7617  0.1523
 9067SOL    HW138837   0.124   1.008   4.877 -0.5606 -1.6605  0.8698
 9067SOL    HW238838   0.227   0.929   4.796  1.8160  0.0911  1.1553
 9068SOL     OW38839   2.804   4.327   7.863  0.4310 -0.4457 -0.0166
 9068SOL    HW138840   2.892   4.321   7.825 -0.5723 -1.1163 -2.2069
 9068SOL    HW238841   2.755   4.380   7.800 -0.0381 -1.1766 -0.2767
 9069SOL     OW38842   2.751   3.694   5.156  0.6378  0.9409 -0.3364
 9069SOL    HW138843   2.823   3.731   5.207  1.1090  1.4542 -1.3709
 9069SOL    HW238844   2.799   3.629   5.105  1.0838  1.2805 -0.3462
 9070SOL     OW38845   0.490   2.793   6.008  0.5813 -0.0536 -0.5957
 9070SOL    HW138846   0.429   2.718   6.011  0.7943 -0.3157 -2.9342
 9070SOL    HW238847   0.442   2.842   5.942 -2.0281  0.1113  1.4173
 9071SOL     OW38848   1.661   4.480  10.867  0.2224 -0.2780  0.1736
 9071SOL    HW138849   1.685   4.482  10.959  1.3737 -1.6061 -0.0991
 9071SOL    HW238850   1.640   4.573  10.861 -1.1689 -0.3830  3.5650
 9072SOL     OW38851   0.413   1.239   9.560  0.3038 -0.7176 -0.5956
 9072SOL    HW138852   0.448   1.287   9.635 -2.7809  0.8059 -0.1279
 9072SOL    HW238853   0.431   1.146   9.572  2.4686 -0.0396  1.4898
 9073SOL     OW38854   4.460   4.011  13.431  0.8955 -0.3379 -0.9439
 9073SOL    HW138855   4.502   3.943  13.379  0.3361 -0.9753 -0.5558
 9073SOL    HW238856   4.520   4.084  13.417  1.5463 -0.5693  0.6357
 9074SOL     OW38857   2.674   3.599   2.818 -0.6535  0.1826  0.2104
 9074SOL    HW138858   2.679   3.505   2.839  0.4819 -0.2240 -1.8186
 9074SOL    HW238859   2.768   3.611   2.802 -0.9194 -1.3264 -2.4926
 9075SOL     OW38860   4.465   1.209   2.991 -0.5090 -0.0980  0.0577
 9075SOL    HW138861   4.437   1.124   3.027  1.7750 -1.7375 -2.0622
 9075SOL    HW238862   4.382   1.238   2.952  0.4835  0.5732 -1.5277
 9076SOL     OW38863   3.948   4.134   6.001 -0.2227  0.0471  0.7923
 9076SOL    HW138864   3.923   4.213   5.954 -0.0442  0.4116  1.3098
 9076SOL    HW238865   3.907   4.063   5.951  0.1236 -0.0874  0.6930
 9077SOL     OW38866   3.049   3.013   8.582 -0.2107 -0.0066  0.0968
 9077SOL    HW138867   3.020   3.104   8.578  1.3883  0.4136 -2.0845
 9077SOL    HW238868   3.145   3.021   8.582 -0.2343  0.3754 -3.1216
 9078SOL     OW38869   2.489   3.840   6.541 -0.5883 -0.0656 -0.7724
 9078SOL    HW138870   2.430   3.766   6.528  0.5762 -1.3404  1.1652
 9078SOL    HW238871   2.511   3.837   6.634 -0.8164  2.0034 -0.6508
 9079SOL     OW38872   2.239   2.234   5.695 -0.2737  0.0092 -0.0945
 9079SOL    HW138873   2.232   2.141   5.713 -3.0552 -0.2249 -2.3981
 9079SOL    HW238874   2.316   2.234   5.639  0.0570 -0.0719  0.3538
 9080SOL     OW38875   3.422   4.672   5.511  0.4398 -0.5367  0.4655
 9080SOL    HW138876   3.439   4.606   5.577  1.4459 -0.7274  0.0130
 9080SOL    HW238877   3.343   4.721   5.535 -0.0371 -1.3441  0.5218
 9081SOL     OW38878   3.098   1.464  12.842 -0.1213  0.3569  0.5013
 9081SOL    HW138879   3.149   1.509  12.773  1.6175  0.1101  1.6223
 9081SOL    HW238880   3.045   1.396  12.801 -0.3684  0.4547  0.6612
 9082SOL     OW38881   3.716   1.270   8.060 -0.0824  0.4323  0.1970
 9082SOL    HW138882   3.670   1.306   8.135  0.2916  0.5878  0.3516
 9082SOL    HW238883   3.804   1.289   8.091  1.0864  0.4927 -3.1305
 9083SOL     OW38884   4.270   3.057   4.132 -0.2027 -0.4414 -0.2609
 9083SOL    HW138885   4.354   3.100   4.149  0.1059 -1.5555  0.9960
 9083SOL    HW238886   4.274   2.995   4.205 -0.7418 -1.2151 -0.8929
 9084SOL     OW38887   1.946   1.748  13.616 -0.9139  0.5890 -0.4873
 9084SOL    HW138888   2.022   1.703  13.579 -0.9408  2.5025 -2.8018
 9084SOL    HW238889   1.934   1.809  13.544 -1.7382  1.3271  0.2668
 9085SOL     OW38890   1.498   4.301   3.309 -0.3025  0.4500  0.8556
 9085SOL    HW138891   1.529   4.351   3.234  1.3350  0.9122  1.8325
 9085SOL    HW238892   1.572   4.240   3.308  1.2483  2.3203  2.2753
 9086SOL     OW38893   0.771   2.481   5.344  0.0491 -0.2160  0.2440
 9086SOL    HW138894   0.750   2.526   5.262  2.3244  1.7939  0.7641
 9086SOL    HW238895   0.831   2.545   5.382  0.3753 -1.0303  1.0903
 9087SOL     OW38896   4.642   1.955  16.712 -0.3556 -0.4821  0.2449
 9087SOL    HW138897   4.612   1.972  16.802  0.7040 -1.3055  0.7604
 9087SOL    HW238898   4.694   2.030  16.685 -0.7678 -0.1236  0.4473
 9088SOL     OW38899   0.840   4.459   9.714  0.1578 -0.2395 -0.2571
 9088SOL    HW138900   0.826   4.452   9.619  0.0483  0.8951 -0.3238
 9088SOL    HW238901   0.785   4.534   9.735 -0.3584 -0.9257  0.8133
 9089SOL     OW38902   3.387   3.793   8.514 -0.7094 -0.4015  1.4813
 9089SOL    HW138903   3.430   3.810   8.598  0.3723  0.2983  0.7937
 9089SOL    HW238904   3.350   3.880   8.496 -1.2081 -0.9057  0.0748
 9090SOL     OW38905   4.476   3.656   2.044  0.7778 -0.7385 -0.3454
 9090SOL    HW138906   4.555   3.679   2.092 -0.3119 -0.5394  1.3790
 9090SOL    HW238907   4.433   3.612   2.118  1.0610  0.2723  0.4203
 9091SOL     OW38908   3.281   1.610   0.357 -0.5088  0.1773 -0.3352
 9091SOL    HW138909   3.291   1.653   0.272 -1.6902  0.6455 -0.2383
 9091SOL    HW238910   3.204   1.562   0.327  0.0923 -2.4050  2.2721
 9092SOL     OW38911   1.477   3.375  15.177  0.4395 -0.0421  0.0369
 9092SOL    HW138912   1.482   3.426  15.258 -1.0816 -1.3038  0.9335
 9092SOL    HW238913   1.421   3.432  15.123  1.1840  0.4476 -0.2152
 9093SOL     OW38914   1.027   4.145   5.462  0.2627 -0.9164  0.3885
 9093SOL    HW138915   0.991   4.215   5.516 -0.5896 -0.7258 -0.4478
 9093SOL    HW238916   1.055   4.194   5.385  1.1145 -2.5391 -0.3326
 9094SOL     OW38917   2.266   2.899   0.062  0.5068  0.2640  0.3262
 9094SOL    HW138918   2.232   2.811   0.073  1.8124 -0.3018 -0.1833
 9094SOL    HW238919   2.226   2.915  17.734  2.2923  1.4104 -0.3150
 9095SOL     OW38920   2.868   2.796  16.081  0.0616  1.0618  0.2865
 9095SOL    HW138921   2.837   2.775  15.993 -0.0125  1.1669  0.2868
 9095SOL    HW238922   2.925   2.872  16.069  2.4113 -0.7232  0.1397
 9096SOL     OW38923   0.296   0.111   9.326  0.1412 -0.1346  0.2851
 9096SOL    HW138924   0.354   0.090   9.399  0.6930 -3.0755 -1.0157
 9096SOL    HW238925   0.210   0.096   9.364 -0.7647 -1.8114 -2.4529
 9097SOL     OW38926   3.452   2.196   5.524 -0.1004 -0.1785  0.7617
 9097SOL    HW138927   3.512   2.164   5.591  0.1692 -3.3782 -1.0199
 9097SOL    HW238928   3.510   2.243   5.464  0.6183  0.2225  1.7701
 9098SOL     OW38929   4.206   4.284  13.277  0.4846 -0.5243 -0.9210
 9098SOL    HW138930   4.149   4.338  13.331 -0.5848 -2.9696  0.4235
 9098SOL    HW238931   4.284   4.292  13.332  0.3699 -0.9450 -0.6967
 9099SOL     OW38932   2.878   1.311   7.869 -0.4535 -0.1780  0.0810
 9099SOL    HW138933   2.808   1.314   7.805 -1.4793 -1.4985  1.1265
 9099SOL    HW238934   2.875   1.218   7.894 -1.8703 -0.0874  0.2463
 9100SOL     OW38935   1.564   1.552   7.990  0.6131  1.0992  0.5948
 9100SOL    HW138936   1.541   1.491   7.920 -1.4652  3.1343 -0.5041
 9100SOL    HW238937   1.480   1.559   8.035  1.4582  0.5216  2.2527
 9101SOL     OW38938   4.336   3.933   4.453 -0.2965  0.0007 -0.1088
 9101SOL    HW138939   4.367   4.017   4.419 -1.5434  1.2309  1.8444
 9101SOL    HW238940   4.255   3.962   4.496 -0.5977  0.8834 -1.2362
 9102SOL     OW38941   0.573   0.948  14.210  0.2802 -0.6218  0.1792
 9102SOL    HW138942   0.582   0.873  14.151 -3.0756  0.4323 -1.6359
 9102SOL    HW238943   0.662   0.984  14.204  1.1776 -2.9611 -1.1046
 9103SOL     OW38944   2.239   0.944   7.671  0.2948 -0.0108  0.2418
 9103SOL    HW138945   2.188   1.019   7.643 -0.0210  0.0830  1.0606
 9103SOL    HW238946   2.180   0.870   7.657 -1.8047  1.8627 -0.7017
 9104SOL     OW38947   2.089   1.837   3.142  0.3841 -0.3552 -0.3504
 9104SOL    HW138948   2.065   1.895   3.215 -0.8782 -1.2096 -0.0860
 9104SOL    HW238949   2.010   1.785   3.131 -1.4447  2.5557 -1.0871
 9105SOL     OW38950   3.369   4.326  12.057  0.0013  0.9458 -0.4404
 9105SOL    HW138951   3.429   4.379  12.004  1.1961  1.4041  1.4056
 9105SOL    HW238952   3.425   4.263  12.100 -2.0882 -0.5419  0.0995
 9106SOL     OW38953   1.824   3.815   1.957  0.0235  0.5810 -0.4252
 9106SOL    HW138954   1.898   3.868   1.929 -0.2234  1.3762  0.4150
 9106SOL    HW238955   1.748   3.873   1.956  0.6593  1.4429  0.7826
 9107SOL     OW38956   2.147   3.424  17.569  0.1231  0.3958  0.6964
 9107SOL    HW138957   2.077   3.359  17.574  1.9142 -1.8813 -3.4456
 9107SOL    HW238958   2.216   3.395  17.628  2.2204  0.9774 -1.4443
 9108SOL     OW38959   0.377   1.649  11.064  0.8326  0.2596 -0.2417
 9108SOL    HW138960   0.428   1.638  11.144 -0.3653  0.5188  0.5698
 9108SOL    HW238961   0.306   1.586  11.078  1.8657 -0.2783  2.5730
 9109SOL     OW38962   2.372   1.550  14.649  0.3553  0.1686 -0.2559
 9109SOL    HW138963   2.428   1.512  14.717 -0.8279  2.8888  2.2473
 9109SOL    HW238964   2.404   1.501  14.574  1.4926 -2.3987  1.9208
 9110SOL     OW38965   0.809   0.912   2.822  0.2000 -0.3379  0.5072
 9110SOL    HW138966   0.787   0.884   2.733  0.3781  0.2858  0.2736
 9110SOL    HW238967   0.724   0.929   2.863 -0.9872 -1.9712 -1.2359
 9111SOL     OW38968   3.449   1.634   5.054  0.5717 -0.0322 -0.2740
 9111SOL    HW138969   3.502   1.682   5.118  1.1980 -1.3553  0.2026
 9111SOL    HW238970   3.402   1.704   5.010  1.2092  1.9291  2.2043
 9112SOL     OW38971   2.078   1.124  16.957 -0.2825  0.1682 -0.0631
 9112SOL    HW138972   2.017   1.072  16.904  2.2929 -2.8778 -0.0214
 9112SOL    HW238973   2.083   1.207  16.910  0.9749 -0.9199 -1.8906
 9113SOL     OW38974   3.028   3.949  16.238  0.1398 -0.1124 -0.4847
 9113SOL    HW138975   2.968   4.013  16.199  0.6284  2.4334  2.9324
 9113SOL    HW238976   3.113   3.989  16.221  0.7911 -1.2794  0.0034
 9114SOL     OW38977   3.346   3.560   0.803 -0.4175  0.0526  0.1234
 9114SOL    HW138978   3.374   3.480   0.758  0.0849  0.7665 -0.8346
 9114SOL    HW238979   3.322   3.616   0.728 -0.7286  0.7303  0.7308
 9115SOL     OW38980   2.355   1.304   4.030 -0.1885  0.5540  0.5137
 9115SOL    HW138981   2.376   1.373   4.094 -1.3868  1.1374  0.2838
 9115SOL    HW238982   2.379   1.350   3.949  1.4711  1.6275  1.5960
 9116SOL     OW38983   2.548   1.043   2.154 -0.2045  0.2841 -0.2652
 9116SOL    HW138984   2.556   0.954   2.189 -0.5960 -0.3443 -1.7599
 9116SOL    HW238985   2.454   1.048   2.134 -0.3261 -2.2441 -0.4079
 9117SOL     OW38986   0.455   2.424  13.275 -0.4110 -0.4958 -0.6895
 9117SOL    HW138987   0.403   2.419  13.355  0.2713  2.5007 -0.0340
 9117SOL    HW238988   0.443   2.339  13.234 -1.7195 -0.1662 -0.9984
 9118SOL     OW38989   2.933   3.934   8.957 -0.3861  0.5313  0.0841
 9118SOL    HW138990   2.863   3.890   8.910 -0.2329  0.2546  0.1150
 9118SOL    HW238991   3.003   3.926   8.892 -0.3724 -1.1787  0.3261
 9119SOL     OW38992   1.390   0.070   4.920 -0.2150  0.0907  0.1642
 9119SOL    HW138993   1.296   0.075   4.937 -0.3148 -0.8641 -0.1113
 9119SOL    HW238994   1.379   0.032   4.832  0.6809  0.0408  0.0749
 9120SOL     OW38995   1.455   0.569  12.824  0.3820  0.2538  0.5702
 9120SOL    HW138996   1.442   0.649  12.874 -0.5384  2.4074 -3.0677
 9120SOL    HW238997   1.549   0.554  12.839  0.6095 -0.1817 -1.2265
 9121SOL     OW38998   4.446   2.862   3.372 -0.4424  0.0652  0.3832
 9121SOL    HW138999   4.383   2.792   3.389 -1.7165  0.6207 -1.9619
 9121SOL    HW239000   4.508   2.818   3.314 -1.4493  0.5030 -1.0484
 9122SOL     OW39001   2.496   1.142   2.432 -0.3919  0.6024 -0.5825
 9122SOL    HW139002   2.529   1.109   2.349  2.4702  1.7218  0.1226
 9122SOL    HW239003   2.420   1.089   2.458 -0.3929  1.0128  0.2610
 9123SOL     OW39004   3.148   0.159   9.662 -0.1612 -0.0500 -0.1100
 9123SOL    HW139005   3.092   0.201   9.597 -1.2891  0.5415  1.2330
 9123SOL    HW239006   3.084   0.140   9.731  1.2945 -0.7197  1.0325
 9124SOL     OW39007   3.139   4.432   5.739 -0.4421 -0.4353 -0.0968
 9124SOL    HW139008   3.127   4.462   5.649  4.5923  0.3779 -0.4961
 9124SOL    HW239009   3.226   4.392   5.738 -0.4146 -0.3475 -0.8077
 9125SOL     OW39010   4.517   2.730   2.780  0.1356 -0.1973  0.3447
 9125SOL    HW139011   4.457   2.801   2.756  0.6886 -0.0557 -0.6147
 9125SOL    HW239012   4.522   2.745   2.875  0.2970 -1.7675  0.5805
 9126SOL     OW39013   0.224   1.016   2.019 -0.0055  0.3833  0.6499
 9126SOL    HW139014   0.201   1.099   1.976  0.1713  0.3494  0.4891
 9126SOL    HW239015   0.175   1.026   2.101 -0.8543  0.4447  0.1351
 9127SOL     OW39016   4.302   2.585   2.942  0.1242 -0.2261 -0.5916
 9127SOL    HW139017   4.306   2.614   2.851 -1.7318 -0.8599 -0.8836
 9127SOL    HW239018   4.289   2.491   2.927 -0.5251 -0.2414  0.0562
 9128SOL     OW39019   2.948   0.791   8.669  0.2676 -0.0270  0.2015
 9128SOL    HW139020   2.995   0.775   8.751  0.4695  1.2453  0.3373
 9128SOL    HW239021   2.859   0.776   8.700 -0.0196 -0.1750 -0.7131
 9129SOL     OW39022   4.119   2.785   5.316  0.0341  0.1771  0.1527
 9129SOL    HW139023   4.199   2.836   5.325  1.1756 -1.1499 -2.4236
 9129SOL    HW239024   4.109   2.782   5.220  0.5341  2.1065  0.0464
 9130SOL     OW39025   2.542   0.417   7.489  0.0911  0.1462 -0.3798
 9130SOL    HW139026   2.513   0.385   7.404  0.5441  0.7112 -0.7428
 9130SOL    HW239027   2.479   0.488   7.498  0.6153  0.2542  2.6050
 9131SOL     OW39028   1.001   2.647   2.388 -0.3977  0.4383  0.0777
 9131SOL    HW139029   0.986   2.642   2.482 -0.3330  4.0919  0.3031
 9131SOL    HW239030   0.965   2.734   2.369 -2.1440 -0.5050 -0.9004
 9132SOL     OW39031   4.405   0.017   0.727  0.0887 -0.2739  0.0346
 9132SOL    HW139032   4.324   0.038   0.774  0.7304 -0.8644  1.4145
 9132SOL    HW239033   4.472   0.037   0.792 -0.8073  1.6021  0.3707
 9133SOL     OW39034   1.054   4.201  14.110 -0.0175 -0.6579 -0.0229
 9133SOL    HW139035   1.122   4.261  14.139  1.2692 -2.7403  1.2375
 9133SOL    HW239036   1.016   4.179  14.196  1.4792 -0.2130  0.7505
 9134SOL     OW39037   1.986   4.014   7.672 -0.0051  0.2561 -0.7573
 9134SOL    HW139038   2.032   4.066   7.737 -0.0107 -2.1589  1.1968
 9134SOL    HW239039   1.904   4.061   7.658 -0.1283 -0.0962 -1.2496
 9135SOL     OW39040   0.326   4.512   5.625  0.3920  0.6182  0.1467
 9135SOL    HW139041   0.384   4.541   5.554 -1.8665 -3.1855 -3.2315
 9135SOL    HW239042   0.326   4.417   5.623 -2.1563  0.6434 -0.8951
 9136SOL     OW39043   3.307   0.322   6.633 -0.2172 -0.3949 -0.2403
 9136SOL    HW139044   3.306   0.316   6.537  0.0732  0.2773 -0.2861
 9136SOL    HW239045   3.300   0.416   6.652 -0.9168 -0.4128 -0.3815
 9137SOL     OW39046   0.667   3.934   2.106  0.3793  0.4667  0.9454
 9137SOL    HW139047   0.618   3.899   2.181 -0.8346 -1.3302 -0.6943
 9137SOL    HW239048   0.751   3.932   2.153  0.9172 -1.2890 -0.0892
 9138SOL     OW39049   2.545   3.187  15.627  0.1560 -0.1178 -0.0203
 9138SOL    HW139050   2.547   3.248  15.553  1.1576 -0.4817 -0.3008
 9138SOL    HW239051   2.633   3.169  15.659  0.4498 -0.8495 -1.2164
 9139SOL     OW39052   1.077   0.441   4.890 -0.2207  0.2761  0.0285
 9139SOL    HW139053   0.995   0.436   4.841  0.0938  0.3481 -0.4967
 9139SOL    HW239054   1.113   0.355   4.867  2.5389  0.8318  2.2686
 9140SOL     OW39055   1.224   1.429   2.292  0.2069 -0.0706 -0.6204
 9140SOL    HW139056   1.206   1.523   2.295 -0.2536 -0.1890  0.4390
 9140SOL    HW239057   1.154   1.404   2.352  1.8131 -2.9914  0.0658
 9141SOL     OW39058   0.798   4.172   7.058  0.0647  0.4841  0.0158
 9141SOL    HW139059   0.880   4.202   7.019  0.7890 -0.6638  0.6365
 9141SOL    HW239060   0.758   4.254   7.087 -0.3622  0.6635 -1.0854
 9142SOL     OW39061   2.048   4.445  11.255  0.1302 -0.7773  0.1813
 9142SOL    HW139062   1.962   4.404  11.258 -0.4370  0.3941 -0.1388
 9142SOL    HW239063   2.106   4.370  11.240  2.2687  1.4829 -2.8479
 9143SOL     OW39064   1.482   4.314   9.159  0.3423  0.0248 -0.0835
 9143SOL    HW139065   1.531   4.335   9.239  1.2262  1.2845 -0.9559
 9143SOL    HW239066   1.518   4.230   9.130 -1.9462 -1.4862  1.4368
 9144SOL     OW39067   3.335   0.054   4.426  0.2769  0.0859 -0.0298
 9144SOL    HW139068   3.330   0.051   4.330 -1.6636 -3.1001  0.1754
 9144SOL    HW239069   3.425   0.084   4.437  0.4353  0.5996 -2.6701
 9145SOL     OW39070   4.077   0.082  16.938 -0.1855  0.4869 -0.1256
 9145SOL    HW139071   4.078   0.015  17.007 -1.2527 -0.8067 -1.3689
 9145SOL    HW239072   4.166   0.083  16.904 -1.1521 -1.8144 -2.7579
 9146SOL     OW39073   0.203   3.855   8.682  0.8075 -0.7562  0.0762
 9146SOL    HW139074   0.110   3.874   8.696  0.7663  0.3548 -1.5766
 9146SOL    HW239075   0.233   3.945   8.666  2.2549 -1.3247 -0.3399
 9147SOL     OW39076   0.210   1.535   6.876 -0.2843  0.0905  0.0876
 9147SOL    HW139077   0.176   1.521   6.788 -0.2654 -2.8283  0.5378
 9147SOL    HW239078   0.302   1.559   6.860 -0.3095  0.6489  0.8047
 9148SOL     OW39079   0.955   1.641   8.656 -0.1521 -0.5224  0.3978
 9148SOL    HW139080   0.968   1.547   8.664 -0.9440 -0.5722  1.0594
 9148SOL    HW239081   0.953   1.654   8.561  0.0940  0.1088  0.4812
 9149SOL     OW39082   0.470   3.931  13.588 -0.3531 -0.3567 -0.0963
 9149SOL    HW139083   0.407   3.865  13.619 -0.8639  0.7028  1.1245
 9149SOL    HW239084   0.449   3.928  13.495 -1.8802  0.8308  0.2018
 9150SOL     OW39085   1.327   0.971   4.429 -0.2706  0.3507 -0.2415
 9150SOL    HW139086   1.261   0.909   4.398 -0.5783 -0.2866  1.6910
 9150SOL    HW239087   1.295   1.050   4.385  2.9453  0.8672 -1.6420
 9151SOL     OW39088   0.898   0.340   5.272 -0.3146  0.4731 -0.0568
 9151SOL    HW139089   0.905   0.313   5.363 -1.0645  4.2813  1.1089
 9151SOL    HW239090   0.984   0.376   5.250 -0.4187  1.2941  0.9289
 9152SOL     OW39091   4.505   3.862  14.648 -0.0088 -0.3488  0.5658
 9152SOL    HW139092   4.428   3.828  14.602  0.1956 -1.5084  1.0958
 9152SOL    HW239093   4.580   3.854  14.589  0.1484 -0.6913  0.8139
 9153SOL     OW39094   0.130   4.660   3.146 -0.0217  0.1308 -0.5329
 9153SOL    HW139095   0.099   4.580   3.105 -3.0678  1.1947 -0.2807
 9153SOL    HW239096   0.221   4.635   3.164 -0.2171  1.2062  1.8753
 9154SOL     OW39097   3.305   2.383  13.838  0.8726 -0.1523  0.3945
 9154SOL    HW139098   3.342   2.359  13.753  0.6413 -0.4797  0.3859
 9154SOL    HW239099   3.234   2.437  13.805  0.1295 -1.1140  0.4390
 9155SOL     OW39100   2.354   2.026   5.894 -0.4882 -0.4623  0.0329
 9155SOL    HW139101   2.429   2.040   5.836 -0.9809  2.5407  0.1331
 9155SOL    HW239102   2.393   1.959   5.950  4.5897  1.6996 -0.8510
 9156SOL     OW39103   3.053   1.526   3.782  0.2668  0.3248  0.2928
 9156SOL    HW139104   3.138   1.567   3.764  1.3700 -2.3595 -0.5501
 9156SOL    HW239105   3.061   1.455   3.719  0.9700  0.6033  0.0704
 9157SOL     OW39106   3.125   4.494   5.490 -0.2093  0.3411 -0.0995
 9157SOL    HW139107   3.177   4.439   5.431 -0.4810 -0.5642  0.5096
 9157SOL    HW239108   3.062   4.540   5.433 -0.6923  0.6792  0.7040
 9158SOL     OW39109   0.593   1.206   7.738 -0.0878 -0.3968 -0.1467
 9158SOL    HW139110   0.620   1.297   7.753  1.4237 -0.9692  0.6875
 9158SOL    HW239111   0.648   1.154   7.797  0.4971  0.4187  0.0341
 9159SOL     OW39112   1.243   3.631  13.630 -0.1483 -0.3605 -0.1676
 9159SOL    HW139113   1.306   3.704  13.631  0.2181 -0.7047  1.1806
 9159SOL    HW239114   1.173   3.665  13.686  0.8138  2.9382 -0.9749
 9160SOL     OW39115   4.561   0.472   6.565 -0.4062 -0.0272 -0.0236
 9160SOL    HW139116   4.599   0.537   6.624 -1.7229 -0.0327  0.8359
 9160SOL    HW239117   4.469   0.489   6.587 -1.1515 -2.8987 -0.8662
 9161SOL     OW39118   4.015   2.929   2.541  0.1921 -0.5262 -0.0800
 9161SOL    HW139119   3.931   2.884   2.540 -1.1033  1.8254  1.4402
 9161SOL    HW239120   3.998   2.975   2.624  0.0650 -0.7749  0.0327
 9162SOL     OW39121   0.228   2.861   3.966 -0.2033  0.1429  0.4617
 9162SOL    HW139122   0.168   2.935   3.970 -4.3334 -3.2121  0.2041
 9162SOL    HW239123   0.295   2.888   3.903  0.5806 -0.1315  1.1776
 9163SOL     OW39124   4.227   2.826   3.134  0.4437  0.0889  0.2879
 9163SOL    HW139125   4.249   2.895   3.072  0.2885 -0.1781 -0.0664
 9163SOL    HW239126   4.269   2.750   3.093  1.7102  1.1370 -0.3566
 9164SOL     OW39127   0.949   1.426   7.584 -0.2647 -0.2025  0.2476
 9164SOL    HW139128   0.978   1.350   7.534  0.6184  0.6552 -0.5492
 9164SOL    HW239129   0.865   1.442   7.543  0.4433  2.2414 -0.2508
 9165SOL     OW39130   0.803   4.096   7.520 -0.0899  0.3729  0.0352
 9165SOL    HW139131   0.739   4.146   7.470  0.3852 -0.4927 -1.4709
 9165SOL    HW239132   0.743   4.050   7.579  0.5391 -1.2327 -0.5614
 9166SOL     OW39133   2.630   0.889  14.044 -0.3931 -0.0382  0.0759
 9166SOL    HW139134   2.574   0.949  14.093 -1.5409  1.1587 -2.6782
 9166SOL    HW239135   2.647   0.829  14.116 -0.6497 -2.2527 -1.7192
 9167SOL     OW39136   0.020   3.442  16.612 -0.0598  0.1583  0.0511
 9167SOL    HW139137   4.674   3.404  16.626 -0.0769 -0.0804 -0.7039
 9167SOL    HW239138   0.002   3.497  16.535  0.8775 -0.6541 -0.7480
 9168SOL     OW39139   2.031   3.663   3.190 -0.3897 -0.2556  0.0412
 9168SOL    HW139140   2.091   3.602   3.146 -1.0006 -0.3345 -0.6884
 9168SOL    HW239141   2.069   3.668   3.277 -1.6607  2.1718  0.4634
 9169SOL     OW39142   4.698   0.030   7.843 -0.0602 -0.2182 -0.3769
 9169SOL    HW139143   0.038   0.007   7.891 -0.4048  0.8912  0.7251
 9169SOL    HW239144   4.639   4.705   7.879 -0.5548  0.5613  0.2245
 9170SOL     OW39145   3.833   2.760   5.094 -0.2962  0.3501  0.2401
 9170SOL    HW139146   3.777   2.695   5.136 -0.4317  0.1853 -0.1957
 9170SOL    HW239147   3.906   2.703   5.073 -0.5297  1.2419 -2.9563
 9171SOL     OW39148   2.502   3.825   0.400  0.2279 -0.4705 -0.2259
 9171SOL    HW139149   2.434   3.765   0.370  0.3870 -1.2381  0.9518
 9171SOL    HW239150   2.453   3.904   0.377 -0.9562 -1.1736 -0.0928
 9172SOL     OW39151   2.497   3.948   5.990  0.3013  0.0812 -0.3132
 9172SOL    HW139152   2.555   3.970   5.917  0.8754  1.2626  0.5027
 9172SOL    HW239153   2.443   3.883   5.945 -1.0157 -0.1667  1.6112
 9173SOL     OW39154   1.248   1.105   2.373 -0.2201 -0.1820  0.1192
 9173SOL    HW139155   1.270   1.014   2.352 -1.4479 -0.3302 -0.5205
 9173SOL    HW239156   1.325   1.135   2.324 -1.4845 -0.8142 -2.2711
 9174SOL     OW39157   1.890   3.404   7.237 -0.1901  0.1628  0.0204
 9174SOL    HW139158   1.941   3.325   7.217  2.8539  2.5196 -1.5759
 9174SOL    HW239159   1.959   3.469   7.244 -0.8016  0.9074 -1.0179
 9175SOL     OW39160   0.753   4.246  11.078  0.6901  0.3196  0.7635
 9175SOL    HW139161   0.791   4.324  11.039 -0.1676 -0.4677 -1.6275
 9175SOL    HW239162   0.658   4.260  11.072  0.8105  1.3115  1.0861
 9176SOL     OW39163   0.589   0.314  11.341  0.2435  0.6029  0.5312
 9176SOL    HW139164   0.648   0.346  11.273 -1.4646 -0.2347 -1.3580
 9176SOL    HW239165   0.514   0.371  11.324 -1.4837 -1.6069  0.6562
 9177SOL     OW39166   2.412   4.299  14.573 -0.3737  0.6147 -0.1053
 9177SOL    HW139167   2.449   4.230  14.518  0.4105  1.3765 -0.5263
 9177SOL    HW239168   2.324   4.316  14.541  0.5295  0.5834 -2.5365
 9178SOL     OW39169   0.648   1.595   5.499 -0.4677  0.3566  0.0349
 9178SOL    HW139170   0.741   1.573   5.503 -1.1939 -2.5487  1.3056
 9178SOL    HW239171   0.637   1.585   5.404 -0.3076  1.1280 -0.0632
 9179SOL     OW39172   0.523   1.626  17.639 -0.1507  0.0598  0.4439
 9179SOL    HW139173   0.607   1.654  17.676  0.4596  0.3941 -1.1878
 9179SOL    HW239174   0.558   1.562  17.578  0.9968 -0.4891  1.6788
 9180SOL     OW39175   3.317   4.415   7.488 -0.0039 -0.3102  0.2031
 9180SOL    HW139176   3.404   4.447   7.511  0.5415 -2.0898  0.5898
 9180SOL    HW239177   3.341   4.413   7.395 -1.0942 -1.2409 -0.0494
 9181SOL     OW39178   3.647   2.232   6.146  0.1738  0.2352 -0.6730
 9181SOL    HW139179   3.634   2.273   6.232  0.4009  0.6449 -0.8368
 9181SOL    HW239180   3.733   2.191   6.150  0.5357  0.9693 -1.0056
 9182SOL     OW39181   3.835   0.734   4.553  0.2946 -0.1482  0.1466
 9182SOL    HW139182   3.851   0.822   4.587 -1.7414 -0.0430  0.8726
 9182SOL    HW239183   3.742   0.732   4.577 -0.3910  0.3637 -2.4788
 9183SOL     OW39184   0.160   3.094  11.038 -0.2745  0.3027 -0.6954
 9183SOL    HW139185   0.186   3.002  11.032 -1.6647 -0.2014  0.8399
 9183SOL    HW239186   0.103   3.079  11.114  2.5448 -1.6885  1.0283
 9184SOL     OW39187   2.303   2.552  13.384 -0.3074  0.0532 -0.3405
 9184SOL    HW139188   2.331   2.640  13.360 -0.3496  0.7409  2.1152
 9184SOL    HW239189   2.220   2.575  13.427 -1.4301 -1.9247 -1.4081
 9185SOL     OW39190   2.757   0.838   6.895 -0.2566  0.6563 -0.1736
 9185SOL    HW139191   2.847   0.814   6.915 -0.1728 -0.9793 -2.4538
 9185SOL    HW239192   2.736   0.908   6.956 -1.3019 -0.1744  0.4315
 9186SOL     OW39193   1.892   2.023   5.050 -0.0863 -0.2458  0.2436
 9186SOL    HW139194   1.957   1.957   5.026 -0.3736 -0.8304  1.0713
 9186SOL    HW239195   1.954   2.096   5.060  0.5679 -0.8087  0.3236
 9187SOL     OW39196   3.613   3.815   1.148  0.3348  0.3885  0.0460
 9187SOL    HW139197   3.609   3.720   1.139 -2.4821  0.2742  2.5456
 9187SOL    HW239198   3.524   3.837   1.119  0.1634  0.0610  0.3161
 9188SOL     OW39199   3.768   0.393   4.808  0.3151 -0.3567  0.0485
 9188SOL    HW139200   3.771   0.445   4.888 -0.4962  1.0000 -0.8114
 9188SOL    HW239201   3.808   0.455   4.747 -2.3912  0.8880 -0.4370
 9189SOL     OW39202   3.564   0.596   5.886  0.0886  0.3683 -0.2277
 9189SOL    HW139203   3.571   0.534   5.813  4.2523 -1.0455  1.4214
 9189SOL    HW239204   3.526   0.666   5.832  1.3090  0.2198 -1.2688
 9190SOL     OW39205   4.542   3.657  13.593  0.4439  0.2495 -0.4532
 9190SOL    HW139206   4.466   3.660  13.534 -0.9079 -1.3941  1.1816
 9190SOL    HW239207   4.542   3.745  13.629 -0.4852 -0.9244  2.4490
 9191SOL     OW39208   2.080   4.224  12.074  0.1327  0.5333 -0.3388
 9191SOL    HW139209   1.999   4.275  12.075  0.3537  0.8022  2.3641
 9191SOL    HW239210   2.140   4.279  12.124  0.7041  1.1117 -1.6511
 9192SOL     OW39211   0.366   1.153   0.253  0.2380  0.2609 -0.0544
 9192SOL    HW139212   0.407   1.074   0.220 -2.2985 -0.9336 -0.3411
 9192SOL    HW239213   0.286   1.146   0.201 -0.0817 -1.1207  0.6099
 9193SOL     OW39214   4.093   1.664   1.637 -1.0988  0.5605 -0.3746
 9193SOL    HW139215   4.061   1.590   1.689  1.6609 -0.7897 -0.6163
 9193SOL    HW239216   4.103   1.618   1.553 -0.8589  1.3227 -0.7580
 9194SOL     OW39217   1.517   4.628   8.482  0.0036 -0.1445  0.0677
 9194SOL    HW139218   1.608   4.634   8.511 -0.2204  0.3946  0.6421
 9194SOL    HW239219   1.496   4.535   8.473  2.2469 -0.3097 -3.5904
 9195SOL     OW39220   0.751   3.224   4.428  0.2936 -0.4105  0.4662
 9195SOL    HW139221   0.784   3.135   4.418 -0.2636 -0.5731  0.0831
 9195SOL    HW239222   0.658   3.204   4.418  0.7257 -0.5632 -3.0730
 9196SOL     OW39223   0.161   0.664   7.224  0.2046 -0.2369  0.4643
 9196SOL    HW139224   0.075   0.701   7.245  0.0252 -0.2214 -0.3032
 9196SOL    HW239225   0.151   0.570   7.241 -1.7328 -0.0273  0.4607
 9197SOL     OW39226   2.737   4.387   8.644  0.1749 -0.7152 -0.1800
 9197SOL    HW139227   2.733   4.293   8.632  1.6201 -0.9979  1.3899
 9197SOL    HW239228   2.704   4.411   8.558 -1.9916 -2.1949  0.2464
 9198SOL     OW39229   0.415   1.919   3.128  0.3815  0.0145 -0.6307
 9198SOL    HW139230   0.435   1.826   3.138 -0.2265 -0.0031  0.4402
 9198SOL    HW239231   0.500   1.947   3.095  0.1057 -1.1307 -2.3096
 9199SOL     OW39232   0.873   0.086   4.733 -0.0975  0.8125  0.0717
 9199SOL    HW139233   0.809   0.135   4.785  0.3011  1.4499 -0.0368
 9199SOL    HW239234   0.829   0.096   4.648  1.6807  2.8848 -0.6029
 9200SOL     OW39235   2.315   4.230   7.242 -0.2361  0.2210  0.1754
 9200SOL    HW139236   2.238   4.215   7.298  0.5085 -0.6354  0.9676
 9200SOL    HW239237   2.382   4.182   7.290  1.1021  1.9965  0.0557
 9201SOL     OW39238   0.568   2.319   8.980  0.1492  0.3679 -0.2408
 9201SOL    HW139239   0.569   2.237   8.931  1.2007  0.6918 -0.7469
 9201SOL    HW239240   0.600   2.380   8.914 -0.9028  0.2778 -0.8373
 9202SOL     OW39241   0.547   3.524  16.039  0.1760  0.2666  0.6941
 9202SOL    HW139242   0.495   3.502  15.961 -0.0401 -0.2514  0.9802
 9202SOL    HW239243   0.538   3.443  16.089  3.4987 -0.4900  0.0771
 9203SOL     OW39244   0.698   3.052  15.780  0.5712  0.5356 -0.0359
 9203SOL    HW139245   0.645   3.030  15.703  0.7901  1.4652 -0.4473
 9203SOL    HW239246   0.765   2.983  15.784  0.2103  0.2652  1.2948
 9204SOL     OW39247   4.094   4.207   6.341 -0.2569 -0.2696  0.3195
 9204SOL    HW139248   4.093   4.177   6.432 -0.3828 -0.5439  0.2271
 9204SOL    HW239249   4.006   4.177   6.319 -0.8693  1.6800  0.0457
 9205SOL     OW39250   2.960   2.348   8.198 -0.4898 -0.3239 -0.1258
 9205SOL    HW139251   2.871   2.337   8.231 -0.3532 -0.7787  0.0890
 9205SOL    HW239252   3.004   2.374   8.278  2.7307  0.5856 -2.2067
 9206SOL     OW39253   0.107   0.636   3.001  0.2397  0.2719  0.2583
 9206SOL    HW139254   0.023   0.667   3.033  1.1753  2.7927  0.2606
 9206SOL    HW239255   0.127   0.586   3.081  1.2588 -0.9538 -0.7521
 9207SOL     OW39256   3.726   0.467   8.818 -0.8710  0.4403 -0.0312
 9207SOL    HW139257   3.795   0.467   8.752 -0.7650  0.1811  0.0802
 9207SOL    HW239258   3.772   0.488   8.900 -0.2372  0.2822 -0.3432
 9208SOL     OW39259   0.590   3.649   0.819  0.1026  0.0507 -0.2631
 9208SOL    HW139260   0.512   3.672   0.768  0.6192  0.1371 -1.0187
 9208SOL    HW239261   0.653   3.693   0.761  0.7632 -1.5527 -0.7488
 9209SOL     OW39262   1.191   1.935   4.364  0.3035 -0.0182  0.2939
 9209SOL    HW139263   1.261   1.998   4.346  0.8972 -1.6046 -3.0337
 9209SOL    HW239264   1.144   1.946   4.281  0.0488 -2.3883  0.1153
 9210SOL     OW39265   3.331   2.492   6.841  0.1802 -0.1526  0.3574
 9210SOL    HW139266   3.379   2.563   6.883 -1.2380  0.9202  0.2036
 9210SOL    HW239267   3.400   2.431   6.815 -1.2775 -0.9271 -1.7093
 9211SOL     OW39268   3.124   1.761   7.960 -0.2185 -0.1501 -0.3485
 9211SOL    HW139269   3.057   1.695   7.946 -1.1492  0.9444 -1.0566
 9211SOL    HW239270   3.145   1.754   8.053 -0.5619 -2.8923 -0.4714
 9212SOL     OW39271   3.321   4.021   7.090 -0.1728  0.8587  0.3262
 9212SOL    HW139272   3.405   4.048   7.052 -0.4166  2.1798  0.7270
 9212SOL    HW239273   3.347   4.032   7.181  0.0061  2.2035  0.1043
 9213SOL     OW39274   3.321   1.196   4.927 -0.4849  0.0954 -0.0015
 9213SOL    HW139275   3.350   1.113   4.888  0.7674  0.5908 -0.1193
 9213SOL    HW239276   3.407   1.226   4.956 -1.4431  1.5477  1.3299
 9214SOL     OW39277   1.160   1.414   3.992 -0.1479 -0.1112 -0.0579
 9214SOL    HW139278   1.174   1.347   4.058  0.8069  1.1558  1.0162
 9214SOL    HW239279   1.189   1.498   4.028  2.8286 -1.0422 -0.3022
 9215SOL     OW39280   3.423   4.426  12.380  0.9327 -0.1557  0.4059
 9215SOL    HW139281   3.381   4.509  12.355 -1.1397 -1.1836  0.4860
 9215SOL    HW239282   3.409   4.434  12.475  0.6982  0.1891  0.3452
 9216SOL     OW39283   3.399   3.975   2.994 -0.0532 -0.1112 -0.1899
 9216SOL    HW139284   3.412   3.995   2.901 -0.5475  1.9347  0.1766
 9216SOL    HW239285   3.348   3.895   2.989  0.3638 -0.4498  0.9521
 9217SOL     OW39286   0.341   1.323   4.406 -0.0279 -0.6738  0.0033
 9217SOL    HW139287   0.260   1.296   4.362  0.7282 -0.6020 -1.4421
 9217SOL    HW239288   0.326   1.286   4.493  1.0172 -0.0075  0.4584
 9218SOL     OW39289   3.829   0.676   3.940  0.3210 -0.0561  0.0802
 9218SOL    HW139290   3.862   0.760   3.911  0.7446 -0.3115 -0.1755
 9218SOL    HW239291   3.846   0.666   4.034  1.3042 -0.7149 -0.1699
 9219SOL     OW39292   0.215   0.628  17.583 -0.2376 -0.1809 -0.5461
 9219SOL    HW139293   0.224   0.537  17.554 -0.7074 -0.0251 -1.2015
 9219SOL    HW239294   0.219   0.671  17.497  2.6179  1.4079  0.4009
 9220SOL     OW39295   2.456   0.681   7.804  0.1981 -0.6376 -0.0828
 9220SOL    HW139296   2.391   0.635   7.750  1.0153  1.3474 -2.7730
 9220SOL    HW239297   2.526   0.664   7.741 -1.7834  0.7026 -2.6666
 9221SOL     OW39298   0.752   1.542   3.491 -0.2482 -0.2277 -0.1642
 9221SOL    HW139299   0.676   1.511   3.540 -0.4537  1.3829  0.5325
 9221SOL    HW239300   0.767   1.464   3.436 -0.0684 -0.4579  0.2089
 9222SOL     OW39301   2.965   1.265  11.771 -0.4463 -0.6135 -0.7594
 9222SOL    HW139302   2.960   1.336  11.835  1.2050 -1.5579  0.4238
 9222SOL    HW239303   2.994   1.198  11.833 -0.8461 -0.5649 -0.5220
 9223SOL     OW39304   0.774   1.042   7.848 -0.4746 -0.0596 -0.1854
 9223SOL    HW139305   0.792   1.031   7.941  2.5529  0.3106 -0.7151
 9223SOL    HW239306   0.859   1.064   7.810 -1.0787  1.3446 -0.7452
 9224SOL     OW39307   2.561   4.187   5.033 -0.2304 -0.1609 -0.2845
 9224SOL    HW139308   2.544   4.251   5.103  0.3027  1.2924 -1.4757
 9224SOL    HW239309   2.483   4.199   4.978 -0.5627 -2.5333 -0.3105
 9225SOL     OW39310   1.099   3.701   8.801 -0.1555 -0.0227 -0.1330
 9225SOL    HW139311   1.175   3.716   8.745 -1.0322  1.1092 -0.9977
 9225SOL    HW239312   1.118   3.747   8.883 -1.2098 -0.6516  0.4691
 9226SOL     OW39313   2.707   0.851   4.572 -0.2275  0.4924  0.7006
 9226SOL    HW139314   2.790   0.811   4.599 -0.3780  1.3732  2.4928
 9226SOL    HW239315   2.696   0.808   4.488  1.3058 -0.2373  0.8642
 9227SOL     OW39316   2.700   2.724   9.882 -0.9335  0.0370  0.0439
 9227SOL    HW139317   2.636   2.784   9.920 -1.0271  0.6806 -1.1354
 9227SOL    HW239318   2.636   2.658   9.854 -1.3733  0.6230 -0.3288
 9228SOL     OW39319   4.058   1.475   8.624 -0.1517 -0.9644 -0.4264
 9228SOL    HW139320   4.130   1.479   8.563  0.1652  0.0050  0.0098
 9228SOL    HW239321   4.048   1.569   8.643  1.0645 -0.5400 -1.9356
 9229SOL     OW39322   4.395   1.898   3.294  0.2119 -0.4257  0.0980
 9229SOL    HW139323   4.477   1.918   3.338 -0.7551  2.0056  0.8270
 9229SOL    HW239324   4.387   1.806   3.317  2.8249 -0.0511  2.5331
 9230SOL     OW39325   3.372   2.513   8.017  0.1018 -0.2519  0.0311
 9230SOL    HW139326   3.311   2.574   8.058 -1.2191 -0.7857 -1.1485
 9230SOL    HW239327   3.320   2.432   8.013  1.6234 -1.2484  0.3276
 9231SOL     OW39328   2.232   0.840   1.196  0.0238  0.6731  0.2554
 9231SOL    HW139329   2.163   0.795   1.245 -0.5811  1.2020 -0.1144
 9231SOL    HW239330   2.264   0.904   1.258  3.0529 -1.6148  1.0476
 9232SOL     OW39331   3.297   3.082   5.829 -0.1416 -0.1020  0.1082
 9232SOL    HW139332   3.367   3.129   5.875 -2.5668  0.6157  3.0522
 9232SOL    HW239333   3.247   3.158   5.800 -0.0201 -1.1375 -2.7405
 9233SOL     OW39334   0.807   0.022  15.987 -0.2773 -0.1293 -0.1389
 9233SOL    HW139335   0.833   4.672  16.006  1.3182  0.2245 -0.6298
 9233SOL    HW239336   0.889   0.058  15.953 -1.2139  1.1607 -1.0303
 9234SOL     OW39337   2.362   3.138   7.908  0.3898  0.0975  0.3740
 9234SOL    HW139338   2.373   3.229   7.934 -0.3302  0.2796  0.0590
 9234SOL    HW239339   2.452   3.109   7.899 -0.5313 -3.4870  2.7402
 9235SOL     OW39340   2.056   2.834   8.390 -0.1525 -0.0740  0.1028
 9235SOL    HW139341   2.016   2.921   8.400 -0.3507  0.0355 -1.5463
 9235SOL    HW239342   2.079   2.837   8.297 -1.4404  1.6396 -0.1784
 9236SOL     OW39343   3.800   1.421   1.945  0.3897 -0.0608 -0.2921
 9236SOL    HW139344   3.828   1.490   2.004 -0.4296 -1.1070  1.3048
 9236SOL    HW239345   3.706   1.442   1.940  0.2149 -0.6051  0.7477
 9237SOL     OW39346   1.267   1.444   2.015  0.1497 -0.7726  0.2795
 9237SOL    HW139347   1.243   1.433   2.107  2.0769  0.3194  0.9283
 9237SOL    HW239348   1.243   1.535   1.998  0.2450 -0.5230  1.5032
 9238SOL     OW39349   3.185   2.814  16.068 -0.4215 -0.7559 -0.2804
 9238SOL    HW139350   3.276   2.784  16.078 -0.1782 -0.3783 -1.3299
 9238SOL    HW239351   3.144   2.729  16.084  0.0663 -0.7760  0.8638
 9239SOL     OW39352   2.870   3.842   7.920 -0.3313  0.3692 -0.3556
 9239SOL    HW139353   2.880   3.753   7.887  0.3315  0.3962 -0.2288
 9239SOL    HW239354   2.933   3.894   7.870 -0.2590  1.8353  1.2549
 9240SOL     OW39355   1.460   3.025   1.143  0.4442 -0.2638  0.2531
 9240SOL    HW139356   1.524   3.055   1.079  0.8408 -1.3520  0.1366
 9240SOL    HW239357   1.442   3.100   1.200 -0.0318  0.0899 -0.3663
 9241SOL     OW39358   3.807   1.154   6.138 -0.0352 -0.1474  0.4721
 9241SOL    HW139359   3.774   1.230   6.187 -0.6607 -0.5042  0.6086
 9241SOL    HW239360   3.807   1.200   6.054  0.2197 -3.5679 -1.3579
 9242SOL     OW39361   1.901   3.285   8.546  0.0333  0.0353  0.0479
 9242SOL    HW139362   1.874   3.287   8.638  0.6094 -2.0173  0.2495
 9242SOL    HW239363   1.861   3.367   8.518 -0.1277 -0.3985 -0.9759
 9243SOL     OW39364   1.489   3.908  11.778 -0.1342 -0.5755 -0.7297
 9243SOL    HW139365   1.454   3.848  11.843 -2.6660 -0.6736 -2.1944
 9243SOL    HW239366   1.411   3.952  11.745  0.4036  1.8838  1.2963
 9244SOL     OW39367   1.571   1.884   8.286  0.5341 -0.4974  0.3903
 9244SOL    HW139368   1.622   1.826   8.230 -0.7640 -1.8505  0.6393
 9244SOL    HW239369   1.582   1.961   8.229  1.3363 -0.3635  0.7254
 9245SOL     OW39370   0.244   0.503   5.828 -0.0178  0.0494 -0.2602
 9245SOL    HW139371   0.248   0.572   5.895 -0.5494  0.6331 -0.8222
 9245SOL    HW239372   0.300   0.437   5.869  0.2852 -0.0834 -0.9043
 9246SOL     OW39373   1.481   1.908  16.835  0.0088  0.0847  0.2894
 9246SOL    HW139374   1.401   1.953  16.808  2.4106  2.9458 -2.0555
 9246SOL    HW239375   1.510   1.952  16.915 -1.4574  1.2175  0.1976
 9247SOL     OW39376   1.628   2.762   8.978  0.3941  0.0683 -0.1811
 9247SOL    HW139377   1.698   2.823   8.953  0.4655  0.2428  0.4458
 9247SOL    HW239378   1.633   2.697   8.907  1.0836  0.3025 -0.3489
 9248SOL     OW39379   3.016   3.150   4.623 -0.0870  0.1579 -0.4625
 9248SOL    HW139380   3.012   3.221   4.687  0.2065 -1.0816  0.9339
 9248SOL    HW239381   2.976   3.081   4.675  0.6855  0.8586  1.0623
 9249SOL     OW39382   2.364   3.566   3.356 -0.1764  0.9880 -0.0499
 9249SOL    HW139383   2.389   3.606   3.440 -0.1803 -1.4147  1.0736
 9249SOL    HW239384   2.271   3.546   3.369  0.4179 -0.3115  2.2375
 9250SOL     OW39385   4.257   3.533   6.156  0.0187  0.3111 -0.3724
 9250SOL    HW139386   4.201   3.459   6.182 -0.5523  1.1605  0.8046
 9250SOL    HW239387   4.325   3.531   6.223 -1.6063 -1.5847  1.2217
 9251SOL     OW39388   2.495   1.513   0.590 -0.0231 -0.4966  0.2529
 9251SOL    HW139389   2.467   1.574   0.659  0.7812 -0.8136  0.8585
 9251SOL    HW239390   2.490   1.428   0.634 -1.9419  0.3833  1.7428
 9252SOL     OW39391   3.397   1.443   6.976 -0.6244 -0.2376 -0.2059
 9252SOL    HW139392   3.316   1.486   7.004 -0.6422  0.1487 -0.8613
 9252SOL    HW239393   3.350   1.385   6.916  1.4401 -2.5900  0.4492
 9253SOL     OW39394   3.957   3.092   9.109 -0.0270 -0.5804 -0.9669
 9253SOL    HW139395   4.007   3.164   9.147 -0.2589 -0.6894 -0.4594
 9253SOL    HW239396   3.877   3.085   9.161  0.3892  0.6374 -0.1677
 9254SOL     OW39397   3.620   0.117   5.836  0.2378  0.5230  0.5541
 9254SOL    HW139398   3.536   0.111   5.883 -1.5466 -0.8812 -2.8269
 9254SOL    HW239399   3.650   0.028   5.855 -0.0719  0.1382 -0.7362
 9255SOL     OW39400   0.761   2.460   7.422 -0.1111  0.0102  0.0557
 9255SOL    HW139401   0.823   2.444   7.351 -0.4830  0.3069 -0.3344
 9255SOL    HW239402   0.814   2.519   7.476  0.2039  0.7447 -1.0522
 9256SOL     OW39403   4.366   2.499   2.582 -0.2009 -0.1243  0.2149
 9256SOL    HW139404   4.454   2.507   2.546  0.2170  0.0891  1.2767
 9256SOL    HW239405   4.339   2.590   2.585 -2.4714 -0.7645 -0.1947
 9257SOL     OW39406   3.520   1.517  10.605  0.2045 -0.0079  0.5646
 9257SOL    HW139407   3.473   1.581  10.552  3.3743  2.2956  0.5120
 9257SOL    HW239408   3.545   1.452  10.540  0.6961 -2.0621  2.8225
 9258SOL     OW39409   2.431   0.160   3.358 -0.2585 -0.0129  0.2540
 9258SOL    HW139410   2.350   0.158   3.409 -0.0014  1.2755  0.7074
 9258SOL    HW239411   2.390   0.139   3.274 -0.7952  2.4994 -0.1081
 9259SOL     OW39412   1.361   4.395   7.033 -0.5347 -0.0032 -0.1322
 9259SOL    HW139413   1.324   4.308   7.019 -2.9840  1.4352 -2.5786
 9259SOL    HW239414   1.376   4.401   7.127  1.7242  0.7983 -0.5593
 9260SOL     OW39415   3.057   1.626   4.763  0.1268 -0.0950  1.0225
 9260SOL    HW139416   3.111   1.605   4.839  0.8616  0.1144  0.5553
 9260SOL    HW239417   3.016   1.709   4.786 -2.1855 -0.9567 -0.0411
 9261SOL     OW39418   3.093   3.630   0.913  0.2616  0.0986  1.0445
 9261SOL    HW139419   3.171   3.575   0.926  0.3932 -0.1689 -0.8757
 9261SOL    HW239420   3.124   3.703   0.860  0.2917  0.2416  1.2607
 9262SOL     OW39421   4.186   0.562   0.544 -0.3264  0.1418 -0.0014
 9262SOL    HW139422   4.266   0.589   0.589 -0.5271  0.0950  0.3834
 9262SOL    HW239423   4.130   0.639   0.551  0.7383  0.7937  1.4403
 9263SOL     OW39424   3.279   0.745   9.049  0.0298 -0.6530  0.6625
 9263SOL    HW139425   3.253   0.728   8.959  0.1798 -1.5747  0.7969
 9263SOL    HW239426   3.197   0.724   9.093 -1.0738  1.0698 -0.5615
 9264SOL     OW39427   4.367   0.078   9.321  0.8552 -0.2320  0.0328
 9264SOL    HW139428   4.341   4.729   9.295 -1.7566  0.1803  1.2453
 9264SOL    HW239429   4.414   0.095   9.239  0.5724 -0.6564 -0.2168
 9265SOL     OW39430   4.269   1.427  10.942 -0.1898  0.5877 -0.0901
 9265SOL    HW139431   4.189   1.448  10.991 -0.5178  0.5761 -0.6177
 9265SOL    HW239432   4.341   1.451  11.000 -0.1921 -0.8636  0.5163
 9266SOL     OW39433   2.027   0.460   1.099 -0.5037  0.1524  0.4222
 9266SOL    HW139434   1.939   0.441   1.068 -0.1436 -2.9568  1.2425
 9266SOL    HW239435   2.034   0.397   1.172  0.1423 -0.5113 -0.2124
 9267SOL     OW39436   1.694   2.269   7.882 -0.3325  0.2911  0.1213
 9267SOL    HW139437   1.650   2.258   7.797  2.0705 -1.8865 -0.8523
 9267SOL    HW239438   1.667   2.357   7.908 -1.7988 -0.2237  0.3540
 9268SOL     OW39439   2.741   3.928   4.037 -0.4043 -0.1821 -0.2977
 9268SOL    HW139440   2.810   3.870   4.069  1.4428  3.2628  1.9841
 9268SOL    HW239441   2.682   3.858   4.009  0.2116  0.2950 -2.8249
 9269SOL     OW39442   1.766   1.970   2.819  0.2519  0.2042  0.4542
 9269SOL    HW139443   1.834   1.905   2.807  1.7319  1.6524  1.0073
 9269SOL    HW239444   1.821   2.026   2.873 -1.1054 -0.7529  2.8192
 9270SOL     OW39445   2.372   1.485   2.996 -0.0465 -0.5358 -0.0985
 9270SOL    HW139446   2.351   1.471   2.904  0.7213  0.1588 -0.3798
 9270SOL    HW239447   2.294   1.530   3.028 -0.6057 -1.9024  0.4789
 9271SOL     OW39448   3.476   0.193   3.476  0.1553  0.7164 -0.2384
 9271SOL    HW139449   3.513   0.182   3.563  0.3303 -1.5843 -0.5856
 9271SOL    HW239450   3.509   0.112   3.437  0.1619  0.5662  0.0776
 9272SOL     OW39451   0.359   3.576  17.345 -0.7614  0.5734  0.1515
 9272SOL    HW139452   0.278   3.539  17.379  0.3558 -0.7910  1.3347
 9272SOL    HW239453   0.315   3.650  17.303  0.1799  1.1349  0.1619
 9273SOL     OW39454   3.387   0.680   3.412 -0.3606  0.1722  0.9866
 9273SOL    HW139455   3.344   0.614   3.466 -2.1430 -0.4493 -1.1851
 9273SOL    HW239456   3.477   0.653   3.430 -1.7281 -4.0266  1.4283
 9274SOL     OW39457   1.017   2.512   5.079 -0.1578  0.2245 -0.3134
 9274SOL    HW139458   0.940   2.567   5.087 -0.7273 -0.4965 -0.8847
 9274SOL    HW239459   1.064   2.523   5.162  0.2748 -1.3684 -0.3411
 9275SOL     OW39460   0.555   3.142   5.043 -0.1760  0.3454 -0.1564
 9275SOL    HW139461   0.485   3.205   5.058  0.4547  0.8313  0.7089
 9275SOL    HW239462   0.626   3.192   5.084 -0.3925  0.6711 -0.1838
 9276SOL     OW39463   2.065   1.875   9.147 -0.2683  0.2000 -0.0112
 9276SOL    HW139464   1.974   1.850   9.162  0.6606 -3.5158 -0.5745
 9276SOL    HW239465   2.067   1.970   9.146 -2.4353  0.2315 -2.2298
 9277SOL     OW39466   0.268   0.275   6.588  0.7349  0.0465  0.4262
 9277SOL    HW139467   0.180   0.241   6.604 -0.1122  1.6167 -0.9583
 9277SOL    HW239468   0.253   0.364   6.621  0.3876 -0.7047  2.3208
 9278SOL     OW39469   3.459   2.086   5.978  0.4351 -0.7957  0.1462
 9278SOL    HW139470   3.364   2.097   5.982  0.2364 -1.4234 -3.1218
 9278SOL    HW239471   3.501   2.170   5.996  0.7954 -1.0004  0.2672
 9279SOL     OW39472   0.892   1.521   2.194 -0.8985  0.3039 -0.1342
 9279SOL    HW139473   0.947   1.444   2.203  0.1249  1.2484  1.6385
 9279SOL    HW239474   0.806   1.483   2.216  0.0614 -0.6245  2.0149
 9280SOL     OW39475   1.384   1.216   0.402  0.6592 -0.4635  0.2776
 9280SOL    HW139476   1.354   1.287   0.346  0.7274 -0.1609  0.6280
 9280SOL    HW239477   1.473   1.249   0.419  0.3277  2.3259 -3.3705
 9281SOL     OW39478   0.299   0.342   7.318  0.0728 -0.4898  0.3671
 9281SOL    HW139479   0.341   0.288   7.385  1.2276  0.0639  0.0950
 9281SOL    HW239480   0.234   0.281   7.284  0.0634 -0.7421  0.8331
 9282SOL     OW39481   0.220   3.675  11.657  0.3499  0.4854  0.2829
 9282SOL    HW139482   0.203   3.761  11.618 -1.4275 -0.3602 -0.8333
 9282SOL    HW239483   0.285   3.628  11.604 -0.3719 -1.7657  1.3739
 9283SOL     OW39484   0.559   2.499  12.861  0.0592 -0.5629 -0.0795
 9283SOL    HW139485   0.470   2.512  12.894  0.3166  0.4877  0.1929
 9283SOL    HW239486   0.612   2.466  12.934  1.6221  0.2667 -0.8496
 9284SOL     OW39487   1.272   4.240   7.449  0.2833  0.4145  0.1971
 9284SOL    HW139488   1.278   4.276   7.537  0.5418  0.9081 -0.0235
 9284SOL    HW239489   1.188   4.274   7.417  0.5857 -0.0278 -1.0885
 9285SOL     OW39490   1.433   4.545   6.104 -0.1445  0.6517 -0.1247
 9285SOL    HW139491   1.442   4.607   6.177 -0.2538 -1.7063  1.8963
 9285SOL    HW239492   1.474   4.603   6.040 -1.6801  0.6945 -1.0778
 9286SOL     OW39493   3.935   0.202   7.132 -0.5489 -0.1249 -0.2737
 9286SOL    HW139494   3.994   0.239   7.198  0.0355  0.3725 -1.0622
 9286SOL    HW239495   3.985   0.207   7.050 -2.3949 -1.1972 -1.4590
 9287SOL     OW39496   0.342   3.462   6.549 -0.1408 -0.0452 -0.4646
 9287SOL    HW139497   0.255   3.495   6.526 -0.9479 -0.1574  2.4184
 9287SOL    HW239498   0.338   3.367   6.564  1.1812 -0.0891 -0.4060
 9288SOL     OW39499   3.018   4.028  11.010 -0.3211  0.0191 -0.2097
 9288SOL    HW139500   2.972   3.949  11.039  0.7988 -0.4273  0.3576
 9288SOL    HW239501   3.071   3.992  10.939 -2.0030 -0.0085 -1.4391
 9289SOL     OW39502   2.237   4.201   4.617 -0.1152 -0.0684 -0.1081
 9289SOL    HW139503   2.303   4.159   4.561  0.6041 -0.7164  1.2128
 9289SOL    HW239504   2.250   4.295   4.599  0.7027  0.1945  1.8263
 9290SOL     OW39505   3.286   4.245   3.946  0.1070 -0.0082 -0.1935
 9290SOL    HW139506   3.295   4.252   4.042  2.0028  0.9826 -0.4285
 9290SOL    HW239507   3.373   4.223   3.913  0.1238 -1.5161  0.8743
 9291SOL     OW39508   1.224   0.219   8.731  0.6424  0.0449 -0.4192
 9291SOL    HW139509   1.238   0.137   8.684 -0.3780 -0.6420  0.4755
 9291SOL    HW239510   1.149   0.187   8.781 -0.8863  0.7148 -2.2871
 9292SOL     OW39511   1.730   2.874   7.506  0.5600 -0.2502  0.3681
 9292SOL    HW139512   1.728   2.838   7.418 -0.9724 -1.7837  1.0193
 9292SOL    HW239513   1.804   2.934   7.497  0.1988  0.2395  0.6426
 9293SOL     OW39514   1.969   1.708  16.923 -0.1336 -0.0433 -0.5042
 9293SOL    HW139515   2.012   1.677  16.843 -2.8588 -1.3353 -1.4822
 9293SOL    HW239516   1.924   1.789  16.897 -1.1242 -1.5599 -3.5053
 9294SOL     OW39517   2.814   3.402   2.589  0.4954 -0.1735 -0.4184
 9294SOL    HW139518   2.898   3.403   2.544  0.5500 -2.3643 -0.3841
 9294SOL    HW239519   2.776   3.460   2.523  1.1530  2.3487  1.4560
 9295SOL     OW39520   2.920   1.733   8.461 -0.1127  0.0307  0.2237
 9295SOL    HW139521   2.976   1.672   8.415 -0.7972  1.0504 -1.9493
 9295SOL    HW239522   2.968   1.811   8.434 -0.4849  0.6578  1.3274
 9296SOL     OW39523   2.076   4.188   5.736 -0.1043 -0.2892 -0.0055
 9296SOL    HW139524   1.989   4.221   5.712 -0.6402 -1.6370  0.0271
 9296SOL    HW239525   2.134   4.249   5.692  0.2638 -0.0992  0.7409
 9297SOL     OW39526   2.153   4.727   7.434 -0.4352  0.6485 -0.1721
 9297SOL    HW139527   2.070   4.696   7.398  0.7292 -2.5205 -0.0863
 9297SOL    HW239528   2.212   4.688   7.370 -0.2350 -1.5835  1.3707
 9298SOL     OW39529   2.665   2.769   1.341 -0.7035  0.1526 -0.3366
 9298SOL    HW139530   2.695   2.731   1.259 -0.2099  0.4051 -0.2734
 9298SOL    HW239531   2.734   2.737   1.400 -1.3452 -2.4763 -1.0491
 9299SOL     OW39532   1.166   3.767   7.840 -0.3559 -0.0356  0.1914
 9299SOL    HW139533   1.207   3.682   7.824 -1.6230 -0.9077  1.5533
 9299SOL    HW239534   1.116   3.752   7.920 -0.0919  0.9604  0.5471
 9300SOL     OW39535   1.506   2.962   5.720 -0.1206 -0.1519  0.3890
 9300SOL    HW139536   1.540   2.979   5.632 -0.6549 -0.7890  0.0589
 9300SOL    HW239537   1.489   3.049   5.755 -1.3705 -0.3886  0.3788
 9301SOL     OW39538   4.340   3.295   1.871  0.5178 -0.0048  0.0588
 9301SOL    HW139539   4.324   3.335   1.786  1.1292  1.4961  0.6523
 9301SOL    HW239540   4.350   3.207   1.834  0.3438 -0.9698  2.3191
 9302SOL     OW39541   2.930   3.761   9.184 -0.1241 -0.5107  0.1342
 9302SOL    HW139542   2.910   3.791   9.095  0.1251  0.8341  0.5297
 9302SOL    HW239543   2.850   3.788   9.230  0.2922 -0.4230  0.8146
 9303SOL     OW39544   0.740   0.234  14.637  0.6994  0.4786 -0.4548
 9303SOL    HW139545   0.752   0.235  14.732  0.1708  0.3776 -0.3841
 9303SOL    HW239546   0.646   0.218  14.626  0.8764  0.0616 -1.2887
 9304SOL     OW39547   1.598   2.312  10.074 -0.5330 -0.6330 -0.0687
 9304SOL    HW139548   1.679   2.344  10.034 -0.8518  0.1005 -0.1186
 9304SOL    HW239549   1.566   2.246  10.012  0.2109  0.0960 -1.2318
 9305SOL     OW39550   3.394   0.045  10.922 -0.6866  0.2543  0.4279
 9305SOL    HW139551   3.314   0.018  10.967 -1.2768  1.8018  0.3016
 9305SOL    HW239552   3.391   0.140  10.935  0.1164  0.6476 -2.3729
 9306SOL     OW39553   0.959   0.531   1.138 -0.2321 -0.2945  0.2820
 9306SOL    HW139554   0.876   0.554   1.097  0.9071  0.2993 -1.6741
 9306SOL    HW239555   0.927   0.469   1.204 -0.5370  0.5704  0.9420
 9307SOL     OW39556   2.104   1.779   1.548  0.6703  0.4247  0.7684
 9307SOL    HW139557   2.041   1.715   1.517 -0.7471  2.6311 -0.8727
 9307SOL    HW239558   2.052   1.859   1.543  2.4180  1.4380 -1.0278
 9308SOL     OW39559   2.400   0.426  10.316 -0.3779  0.1474 -0.0067
 9308SOL    HW139560   2.414   0.508  10.364 -0.1556  0.2969 -0.3249
 9308SOL    HW239561   2.481   0.377  10.320 -0.3699  0.1944  0.3543
 9309SOL     OW39562   2.261   1.215   1.813 -0.1661  0.6059  0.3447
 9309SOL    HW139563   2.219   1.164   1.883  0.1069  1.6097  1.2499
 9309SOL    HW239564   2.243   1.170   1.731  1.0901 -0.1013  0.4489
 9310SOL     OW39565   4.436   3.500  14.748 -0.2017  0.5749  0.2671
 9310SOL    HW139566   4.460   3.584  14.788  0.5554 -0.4008  1.8712
 9310SOL    HW239567   4.435   3.515  14.654 -3.0447  1.0215  0.3636
 9311SOL     OW39568   4.535   0.928   5.832 -0.6500 -0.0158  0.3666
 9311SOL    HW139569   4.488   0.887   5.905  2.9170 -1.9166  1.6080
 9311SOL    HW239570   4.599   0.860   5.809 -0.4437 -0.6228  2.7088
 9312SOL     OW39571   2.774   3.220  15.757  0.1861  0.3535 -0.4527
 9312SOL    HW139572   2.835   3.251  15.690 -0.9605 -0.4535 -1.8678
 9312SOL    HW239573   2.759   3.306  15.796  0.1334  0.8809 -1.6443
 9313SOL     OW39574   3.935   4.499   5.416 -0.4393 -0.0196  0.5470
 9313SOL    HW139575   3.871   4.543   5.472 -0.9180  0.0192 -0.0394
 9313SOL    HW239576   3.936   4.413   5.459 -3.0751  0.3530  1.3713
 9314SOL     OW39577   3.501   0.120  11.265 -0.3743 -0.5033  0.3308
 9314SOL    HW139578   3.467   0.031  11.251 -4.0112  1.5137 -3.7494
 9314SOL    HW239579   3.456   0.165  11.193  2.9641 -0.8617 -1.9717
 9315SOL     OW39580   4.708   3.036   3.663 -0.1231  0.2897 -0.1728
 9315SOL    HW139581   0.000   3.057   3.750 -0.6754 -1.5950  0.4825
 9315SOL    HW239582   4.637   3.096   3.640  1.0358  1.5613 -0.4302
 9316SOL     OW39583   2.735   4.491   2.287 -0.2754  0.1098 -0.0317
 9316SOL    HW139584   2.683   4.547   2.229 -0.3302  0.3203  0.2188
 9316SOL    HW239585   2.822   4.529   2.302 -0.5507  1.0397 -0.8044
 9317SOL     OW39586   4.118   4.668   6.815 -0.1069  0.1248  0.5484
 9317SOL    HW139587   4.079   0.014   6.799  1.5005  0.7815  0.1337
 9317SOL    HW239588   4.213   4.683   6.820 -0.1594  0.3205  0.9515
 9318SOL     OW39589   4.419   2.558   7.461  0.4120 -0.6598  0.3054
 9318SOL    HW139590   4.489   2.518   7.409  2.5365  1.5275  1.4567
 9318SOL    HW239591   4.478   2.593   7.528 -0.9112  0.3475  0.9536
 9319SOL     OW39592   0.029   1.582   7.697 -0.1518  0.0589 -0.2079
 9319SOL    HW139593   0.044   1.573   7.603  0.3991 -0.7956 -0.0295
 9319SOL    HW239594   4.712   1.659   7.705  0.4110  0.3098  1.3605
 9320SOL     OW39595   1.736   0.973  16.579  0.4600  0.2801  0.2702
 9320SOL    HW139596   1.775   0.920  16.510  0.5519  0.9861 -0.2118
 9320SOL    HW239597   1.779   1.057  16.562  0.3402  0.8070  2.5543
 9321SOL     OW39598   0.075   0.319   2.626  0.0752  0.2418 -0.0963
 9321SOL    HW139599   0.122   0.344   2.705 -0.7875 -1.1181  0.8351
 9321SOL    HW239600   0.127   0.248   2.588  0.8572  0.6489  0.2268
 9322SOL     OW39601   1.226   3.275   5.408 -0.3116  0.0376 -1.0452
 9322SOL    HW139602   1.158   3.332   5.372  0.0304  2.8701  2.7719
 9322SOL    HW239603   1.288   3.348   5.414  0.0102 -0.1679 -1.7976
 9323SOL     OW39604   3.998   0.102  12.675 -0.2384 -0.0123  0.3511
 9323SOL    HW139605   3.960   0.158  12.607  1.2008  0.0963 -0.3498
 9323SOL    HW239606   4.047   0.168  12.724 -1.3395  0.7944  0.3879
 9324SOL     OW39607   2.885   1.004   6.069 -0.0374 -0.1419  0.5196
 9324SOL    HW139608   2.892   0.910   6.085 -3.1000 -0.1605  1.6888
 9324SOL    HW239609   2.814   1.011   6.006  0.2311  0.2016  0.2560
 9325SOL     OW39610   3.903   0.912   3.870  0.2957  0.0069 -0.1016
 9325SOL    HW139611   3.814   0.931   3.899  0.3075 -0.9021  0.5570
 9325SOL    HW239612   3.930   1.002   3.853  0.4993 -0.2870 -1.2939
 9326SOL     OW39613   0.013   0.842   1.372 -0.2112 -0.0687  0.1471
 9326SOL    HW139614   0.094   0.825   1.325 -0.4000 -1.1860  0.2372
 9326SOL    HW239615   4.697   0.805   1.304  0.2319 -1.5476  0.5787
 9327SOL     OW39616   1.638   3.324   0.076 -0.3287 -0.1053 -0.2181
 9327SOL    HW139617   1.553   3.335   0.118  0.1065  0.8998  0.3976
 9327SOL    HW239618   1.613   3.265   0.005  2.6264 -0.3992 -1.0377
 9328SOL     OW39619   3.571   3.630  10.980 -0.4023  0.0497 -0.3844
 9328SOL    HW139620   3.652   3.602  11.023  1.0553  0.5275 -2.8216
 9328SOL    HW239621   3.600   3.620  10.889  2.8498 -2.3968  0.9322
 9329SOL     OW39622   2.909   3.067   2.430 -0.7638 -0.3195 -0.6207
 9329SOL    HW139623   2.956   3.146   2.457  0.0860 -1.2863  0.7121
 9329SOL    HW239624   2.888   3.034   2.517 -5.1769  0.5529 -1.3410
 9330SOL     OW39625   4.018   4.262   7.372  0.3957  0.1293 -0.0159
 9330SOL    HW139626   4.072   4.245   7.450  2.0157 -1.1734 -1.4213
 9330SOL    HW239627   3.936   4.287   7.415  0.1198 -0.1053 -0.4107
 9331SOL     OW39628   1.349   1.239   1.658  0.4884  0.2826  0.3580
 9331SOL    HW139629   1.347   1.198   1.571  0.2107  0.7565  0.1396
 9331SOL    HW239630   1.316   1.322   1.624 -1.6563 -1.0387 -0.7784
 9332SOL     OW39631   3.892   4.344   7.634 -0.2422  0.3694 -0.0424
 9332SOL    HW139632   3.985   4.327   7.650  0.0380 -0.5160 -2.6574
 9332SOL    HW239633   3.899   4.438   7.614 -1.4678  0.2837 -0.8391
 9333SOL     OW39634   3.338   3.733   2.329  0.3727 -0.3759  0.4069
 9333SOL    HW139635   3.374   3.739   2.240 -0.4810 -2.2452 -0.0729
 9333SOL    HW239636   3.412   3.762   2.383 -0.1706 -0.4145  1.1687
 9334SOL     OW39637   3.735   4.568   5.624 -0.0253 -0.0415  0.1246
 9334SOL    HW139638   3.650   4.532   5.648  1.2176 -2.4771  0.8092
 9334SOL    HW239639   3.711   4.654   5.588  0.9023  0.4090  0.5914
 9335SOL     OW39640   3.195   3.747   0.629  0.2031  0.1409 -0.6131
 9335SOL    HW139641   3.111   3.776   0.591 -0.2449  0.8136  0.8704
 9335SOL    HW239642   3.230   3.816   0.686  2.3344 -0.7729 -0.8317
 9336SOL     OW39643   0.370   1.940   9.747 -0.3726  0.4301 -0.6841
 9336SOL    HW139644   0.329   2.026   9.739 -0.4154  0.5152  0.4255
 9336SOL    HW239645   0.461   1.964   9.729 -0.8050  2.2633 -0.3888
 9337SOL     OW39646   1.852   2.348   5.383  0.1906 -0.7151 -0.0587
 9337SOL    HW139647   1.895   2.336   5.467  2.4047 -0.2691 -1.1368
 9337SOL    HW239648   1.791   2.274   5.382  0.0166 -0.5448 -2.9143
 9338SOL     OW39649   4.605   1.437  11.588 -0.4796 -0.1154  0.6845
 9338SOL    HW139650   4.562   1.454  11.671  0.6895  0.2126  1.2213
 9338SOL    HW239651   4.585   1.521  11.547  0.9492  1.0957  2.4982
 9339SOL     OW39652   3.119   1.524   4.332  0.2799 -0.0118 -0.1321
 9339SOL    HW139653   3.136   1.572   4.251 -0.3730 -0.3874 -0.4971
 9339SOL    HW239654   3.032   1.500   4.300 -0.1666  0.7301  0.5278
 9340SOL     OW39655   0.284   3.027  17.494 -0.3320 -0.3882 -0.0363
 9340SOL    HW139656   0.303   2.936  17.474  0.3969  0.4674 -3.1369
 9340SOL    HW239657   0.374   3.055  17.508 -0.7699  1.1852 -0.3517
 9341SOL     OW39658   0.267   0.200   0.574  0.2936  0.1870 -0.4468
 9341SOL    HW139659   0.226   0.275   0.619 -0.2677 -0.8579  0.7735
 9341SOL    HW239660   0.185   0.158   0.548 -0.5628  1.0009  0.9158
 9342SOL     OW39661   2.740   3.264  13.989  0.1261 -0.1671 -0.5341
 9342SOL    HW139662   2.754   3.347  13.942 -1.3962 -0.5437 -1.6310
 9342SOL    HW239663   2.650   3.272  14.020  0.0121  4.3329 -1.8887
 9343SOL     OW39664   1.220   2.136  17.100  0.2232 -0.6608 -0.3894
 9343SOL    HW139665   1.166   2.090  17.163 -0.4333  2.2557  1.2093
 9343SOL    HW239666   1.187   2.225  17.115 -0.8505 -1.3018  0.9875
 9344SOL     OW39667   2.397   4.091   4.087 -0.1768  0.0013 -0.2573
 9344SOL    HW139668   2.467   4.115   4.147 -0.9234  0.6651  0.3507
 9344SOL    HW239669   2.346   4.171   4.101 -0.3243 -0.0211 -0.6767
 9345SOL     OW39670   0.298   3.832   6.564  0.7303 -0.1147  0.0815
 9345SOL    HW139671   0.243   3.824   6.485  1.2554  0.9733 -0.3983
 9345SOL    HW239672   0.307   3.927   6.571  0.7071 -0.0421 -0.8454
 9346SOL     OW39673   3.928   0.790  16.518 -0.0932 -0.2380 -0.2224
 9346SOL    HW139674   3.837   0.797  16.488 -0.1136 -0.1470 -0.1353
 9346SOL    HW239675   3.964   0.878  16.515  0.0560 -0.2154  2.4429
 9347SOL     OW39676   3.138   3.165   7.160 -0.0567  0.5440 -0.2259
 9347SOL    HW139677   3.050   3.147   7.127  0.6178 -1.4680 -0.9296
 9347SOL    HW239678   3.143   3.091   7.221 -0.6629 -0.4279 -1.3460
 9348SOL     OW39679   4.578   0.981   3.285  0.5388  0.1985 -0.4007
 9348SOL    HW139680   4.529   0.919   3.339 -1.1565  1.1003 -0.8892
 9348SOL    HW239681   4.651   0.926   3.258 -0.5817 -0.5401 -1.9501
 9349SOL     OW39682   3.862   4.532  13.131 -0.4784  0.1048  0.0741
 9349SOL    HW139683   3.802   4.584  13.185  1.0022  1.0552  0.8224
 9349SOL    HW239684   3.946   4.543  13.176  0.1408  0.7010 -1.2271
 9350SOL     OW39685   3.374   0.324  11.423 -0.3894 -0.2352  0.4290
 9350SOL    HW139686   3.341   0.293  11.507 -1.5389 -0.2668 -0.0362
 9350SOL    HW239687   3.424   0.245  11.400  0.1847 -0.2726  1.8386
 9351SOL     OW39688   2.606   3.607   6.213 -0.3222 -0.0219  0.0002
 9351SOL    HW139689   2.518   3.621   6.246 -0.2451 -1.1016  0.6631
 9351SOL    HW239690   2.604   3.513   6.196  1.0844  0.1539 -1.1526
 9352SOL     OW39691   1.429   2.249   7.191 -0.6439  0.2958  0.0428
 9352SOL    HW139692   1.364   2.318   7.203 -0.8878  0.2291 -0.8714
 9352SOL    HW239693   1.413   2.245   7.096  0.5862  0.8927 -0.1878
 9353SOL     OW39694   3.996   4.127  14.667 -0.3278  0.5148 -0.1884
 9353SOL    HW139695   4.056   4.111  14.740  2.3551 -0.4297 -2.5944
 9353SOL    HW239696   3.989   4.222  14.662  1.0416  0.5786 -1.0561
 9354SOL     OW39697   0.386   3.237   4.082  0.3503 -0.1605  0.2921
 9354SOL    HW139698   0.352   3.159   4.125 -2.7423  1.7601  1.3286
 9354SOL    HW239699   0.338   3.304   4.130  0.8660  1.9949 -2.1694
 9355SOL     OW39700   2.987   1.663  12.539 -0.6160 -0.2310  0.0833
 9355SOL    HW139701   3.016   1.715  12.464 -0.2502  2.4436  2.0866
 9355SOL    HW239702   2.977   1.721  12.614 -0.8957  0.9018 -0.8230
 9356SOL     OW39703   1.763   2.108   4.235  0.1897 -0.0428 -0.2694
 9356SOL    HW139704   1.765   2.016   4.207 -0.1049  0.4261 -1.8260
 9356SOL    HW239705   1.683   2.141   4.195 -1.1007 -0.8265  1.6873
 9357SOL     OW39706   0.490   3.059   9.265  0.7096 -0.0056  0.7310
 9357SOL    HW139707   0.503   3.131   9.204 -2.4660  0.1646  0.2752
 9357SOL    HW239708   0.486   2.984   9.205 -0.5916  0.2242  0.5279
 9358SOL     OW39709   1.134   1.899   5.361  0.3575 -0.5445  0.1512
 9358SOL    HW139710   1.094   1.921   5.277  0.4380 -1.5610 -0.1494
 9358SOL    HW239711   1.212   1.863   5.319 -0.7317 -2.1230 -0.4836
 9359SOL     OW39712   0.502   0.059   5.040 -0.5459  0.0715  0.1960
 9359SOL    HW139713   0.453   4.723   5.008 -0.6710 -0.1515  0.9178
 9359SOL    HW239714   0.467   0.071   5.128 -0.3409  4.0849 -0.2495
 9360SOL     OW39715   0.029   1.830   4.461 -0.3296  0.1357 -0.3030
 9360SOL    HW139716   0.081   1.765   4.413  0.9769  1.0959 -0.1834
 9360SOL    HW239717   0.013   1.892   4.390 -0.4641 -0.2946 -0.6504
 9361SOL     OW39718   0.971   3.127   4.882 -0.3556  0.0684  0.6238
 9361SOL    HW139719   1.004   3.059   4.940  0.7631  1.8374  2.0718
 9361SOL    HW239720   1.018   3.206   4.908  0.9144  0.3893 -2.7144
 9362SOL     OW39721   0.214   3.344  10.911  0.5443 -0.5142 -0.4495
 9362SOL    HW139722   0.188   3.267  10.961  2.9192 -0.9852  0.0667
 9362SOL    HW239723   0.283   3.372  10.971  0.1201 -0.7592  0.1558
 9363SOL     OW39724   0.076   0.539   2.470  0.6441 -0.4051  0.5503
 9363SOL    HW139725   0.080   0.463   2.528 -1.9349 -1.9079 -1.2727
 9363SOL    HW239726   0.116   0.513   2.387  1.5903  2.9556 -0.0417
 9364SOL     OW39727   0.900   0.055  16.595 -0.6582 -0.3891  0.1776
 9364SOL    HW139728   0.836   4.740  16.640  0.0429 -1.9779 -0.7816
 9364SOL    HW239729   0.975   0.034  16.650  2.6518  0.5991 -3.9530
 9365SOL     OW39730   4.717   0.406   9.485 -0.1234  1.2485 -0.0933
 9365SOL    HW139731   4.686   0.316   9.493  0.2315  1.1067 -0.2875
 9365SOL    HW239732   0.037   0.402   9.410 -0.4883  0.6914 -0.3559
 9366SOL     OW39733   1.350   1.353   6.190  0.0899 -0.2826  0.3063
 9366SOL    HW139734   1.386   1.364   6.102 -0.0327 -0.2781  0.2553
 9366SOL    HW239735   1.323   1.441   6.218 -1.8627  0.0994 -2.7386
 9367SOL     OW39736   3.188   0.569   2.153 -0.2897 -0.2813 -0.1983
 9367SOL    HW139737   3.137   0.503   2.202 -2.1608  1.9328  0.8227
 9367SOL    HW239738   3.268   0.587   2.203 -0.8224  0.4251  0.3990
 9368SOL     OW39739   0.828   3.553   7.229  0.9305 -0.3374 -0.1628
 9368SOL    HW139740   0.738   3.553   7.262  0.2306 -0.1092 -2.0984
 9368SOL    HW239741   0.831   3.468   7.187  2.4491  0.2933 -1.3119
 9369SOL     OW39742   3.258   0.034   2.329  0.8278 -0.3819 -0.3661
 9369SOL    HW139743   3.182   0.068   2.280  1.9111  2.3737 -0.1329
 9369SOL    HW239744   3.335   0.039   2.273  0.2200  1.6611 -1.0543
 9370SOL     OW39745   0.792   0.321   8.740 -0.6745  0.1679  0.3609
 9370SOL    HW139746   0.724   0.260   8.770 -0.1624  0.1302  1.4405
 9370SOL    HW239747   0.849   0.260   8.692  0.1961  1.1974  0.0841
 9371SOL     OW39748   3.962   4.540   5.769  0.3573  0.1841  0.2312
 9371SOL    HW139749   3.976   4.455   5.728  0.7457  1.0735 -1.5056
 9371SOL    HW239750   3.877   4.554   5.726  0.2652 -0.2680  0.2699
 9372SOL     OW39751   3.226   4.439   9.695 -0.4831 -0.1210  0.5135
 9372SOL    HW139752   3.285   4.511   9.718 -2.7510  1.2148  2.0509
 9372SOL    HW239753   3.293   4.378   9.663 -1.5322 -0.8166 -0.3229
 9373SOL     OW39754   2.436   2.771  13.488  0.0357 -0.0465 -0.2997
 9373SOL    HW139755   2.527   2.775  13.516  0.5587 -1.0974 -1.8628
 9373SOL    HW239756   2.389   2.827  13.550 -1.8048 -1.0923 -0.7245
 9374SOL     OW39757   3.793   4.050   0.487  1.1163 -0.2089 -0.1636
 9374SOL    HW139758   3.840   4.133   0.482  0.4073  0.2473  0.8886
 9374SOL    HW239759   3.823   4.020   0.401  1.1053 -0.7344  0.0157
 9375SOL     OW39760   0.532   4.551  17.318  0.3833 -0.4963  0.6374
 9375SOL    HW139761   0.593   4.624  17.311  1.4155 -1.2880  1.3047
 9375SOL    HW239762   0.446   4.590  17.302  0.5723 -0.6876 -0.8166
 9376SOL     OW39763   1.009   0.552   8.208  0.0972 -0.1084  0.1733
 9376SOL    HW139764   1.057   0.511   8.280  0.0548 -0.7041 -0.1382
 9376SOL    HW239765   1.021   0.489   8.137 -0.6285 -0.4217  0.3341
 9377SOL     OW39766   3.496   0.224   5.455 -0.1765  0.0007 -0.3701
 9377SOL    HW139767   3.504   0.131   5.433  1.3918 -0.2118  1.0987
 9377SOL    HW239768   3.401   0.238   5.454 -0.1909 -0.1175 -0.8106
 9378SOL     OW39769   2.095   0.185   9.882  0.1731  0.3179 -0.4955
 9378SOL    HW139770   2.175   0.154   9.925  0.0589 -0.6241 -0.9497
 9378SOL    HW239771   2.063   0.100   9.850  0.3261  0.0976 -0.0626
 9379SOL     OW39772   0.017   0.332   7.075 -0.0649  0.4983 -0.0020
 9379SOL    HW139773   0.005   0.421   7.041 -2.1354  0.2939  0.1936
 9379SOL    HW239774   4.688   0.327   7.141 -2.0290 -1.1162 -2.1704
 9380SOL     OW39775   4.647   0.643   0.604 -0.4757 -0.1934  0.7010
 9380SOL    HW139776   4.657   0.710   0.537  0.1389  0.5506  1.5365
 9380SOL    HW239777   4.698   0.672   0.679 -1.4669 -2.6011  2.3220
 9381SOL     OW39778   1.517   1.238  15.862 -0.1905 -0.2405 -0.2755
 9381SOL    HW139779   1.425   1.262  15.870  0.2353  1.1601  0.3314
 9381SOL    HW239780   1.545   1.329  15.875  3.3970 -1.5436  1.1433
 9382SOL     OW39781   3.974   0.930  14.779  0.1554  0.5730  0.0573
 9382SOL    HW139782   3.942   0.941  14.869  0.9566 -1.3085  0.5625
 9382SOL    HW239783   4.065   0.905  14.794 -0.0199 -0.2202 -0.1786
 9383SOL     OW39784   2.649   4.331  13.974 -0.4313  0.0276  1.0433
 9383SOL    HW139785   2.643   4.267  13.903 -0.8163 -0.2832  1.3573
 9383SOL    HW239786   2.563   4.321  14.015 -0.6271 -0.2373  0.5715
 9384SOL     OW39787   1.044   3.312   6.083  0.2184 -0.2733  0.1479
 9384SOL    HW139788   1.123   3.296   6.031 -0.3801  0.8477 -1.1026
 9384SOL    HW239789   1.035   3.404   6.059 -2.0537 -0.1804  1.3925
 9385SOL     OW39790   0.642   0.484   4.361  0.5955 -0.4375  0.2607
 9385SOL    HW139791   0.699   0.526   4.426  2.2519 -0.8670 -0.9191
 9385SOL    HW239792   0.582   0.435   4.418  0.5510 -1.1595 -0.4197
 9386SOL     OW39793   3.824   3.772  11.994  0.4115  0.5705  0.0255
 9386SOL    HW139794   3.885   3.845  11.997  1.1843 -0.0025 -1.8685
 9386SOL    HW239795   3.863   3.711  12.056  1.0567  0.8759 -0.0852
 9387SOL     OW39796   2.005   4.504   2.555 -0.4560  0.2934  0.0503
 9387SOL    HW139797   1.912   4.525   2.548 -0.4428  0.1009 -0.7119
 9387SOL    HW239798   2.040   4.593   2.557 -1.1724  0.5828 -0.3337
 9388SOL     OW39799   0.824   4.616   2.022  0.2806 -0.5387  0.7724
 9388SOL    HW139800   0.763   4.669   2.074 -0.9797 -0.5883 -0.6708
 9388SOL    HW239801   0.857   4.555   2.087  2.3840 -0.8532 -0.5920
 9389SOL     OW39802   0.602   3.421   5.891 -0.3808 -0.4255 -0.4661
 9389SOL    HW139803   0.665   3.371   5.944 -0.4477  1.7575  1.7017
 9389SOL    HW239804   0.582   3.498   5.945 -1.8894 -0.8071 -0.4692
 9390SOL     OW39805   2.989   0.397   9.381 -0.1919  0.4240 -0.5417
 9390SOL    HW139806   2.979   0.406   9.476 -2.0583  1.0295 -0.7972
 9390SOL    HW239807   2.984   0.305   9.354 -0.9443  0.2873  0.0550
 9391SOL     OW39808   0.142   1.714  11.344  0.1749 -0.3744 -0.9487
 9391SOL    HW139809   0.134   1.716  11.248 -0.0266  1.4301 -0.8973
 9391SOL    HW239810   0.079   1.645  11.367 -1.3872  0.6443 -2.1496
 9392SOL     OW39811   0.444   0.815   2.683 -0.9007 -0.0493 -0.3687
 9392SOL    HW139812   0.359   0.802   2.724  0.5485 -0.8056  2.3924
 9392SOL    HW239813   0.498   0.774   2.750 -1.2737 -1.0192 -0.6561
 9393SOL     OW39814   2.141   0.388  14.139  0.2722  0.3635  0.7661
 9393SOL    HW139815   2.102   0.336  14.069  0.8945  2.2954 -1.0370
 9393SOL    HW239816   2.175   0.315  14.191  0.3698 -0.6100 -0.6577
 9394SOL     OW39817   1.174   1.701   2.305  0.1162 -0.1193 -0.2536
 9394SOL    HW139818   1.095   1.729   2.258  0.5140 -0.6611 -1.2455
 9394SOL    HW239819   1.234   1.759   2.259 -0.0119  0.5141  0.3732
 9395SOL     OW39820   4.186   2.661   4.765  0.2034 -0.0805  0.1467
 9395SOL    HW139821   4.244   2.585   4.768  1.3035  0.8373  2.8139
 9395SOL    HW239822   4.126   2.630   4.698 -1.4888 -1.1743  2.1740
 9396SOL     OW39823   0.435   3.667  13.796 -0.4104  0.6472 -0.4286
 9396SOL    HW139824   0.348   3.685  13.760 -0.7664  1.2738  0.7471
 9396SOL    HW239825   0.410   3.598  13.858 -0.2557  0.1187 -0.9517
 9397SOL     OW39826   3.137   3.409  16.080  0.4837  0.0017 -0.5585
 9397SOL    HW139827   3.118   3.472  16.010  1.0982  1.4862  0.6188
 9397SOL    HW239828   3.176   3.341  16.026  0.5140  0.8284 -1.5680
 9398SOL     OW39829   1.293   3.640  16.639 -0.6004 -0.2920  0.0425
 9398SOL    HW139830   1.291   3.553  16.600  1.2768  0.6906 -2.2500
 9398SOL    HW239831   1.327   3.626  16.728  0.5634  0.3931 -0.2885
 9399SOL     OW39832   2.629   1.721   4.298 -0.2821 -0.0053  0.3316
 9399SOL    HW139833   2.699   1.747   4.238  1.2362 -0.8136  1.7594
 9399SOL    HW239834   2.546   1.760   4.269  0.6584  0.4112 -1.7716
 9400SOL     OW39835   0.324   0.666   0.765  0.0415  0.1280  0.0544
 9400SOL    HW139836   0.419   0.663   0.753 -0.1460 -0.4846 -1.3033
 9400SOL    HW239837   0.299   0.691   0.676 -0.0937 -0.7742 -0.1671
 9401SOL     OW39838   4.390   4.081   3.206 -0.2659  0.4026  0.5467
 9401SOL    HW139839   4.399   4.175   3.190  1.4916  0.3032  0.8963
 9401SOL    HW239840   4.298   4.069   3.230 -0.3360 -2.3825 -1.1060
 9402SOL     OW39841   0.345   0.503   6.954  1.2145  0.5368 -0.4315
 9402SOL    HW139842   0.249   0.496   6.964  1.3879 -0.5701  0.5292
 9402SOL    HW239843   0.366   0.517   7.047  0.8261 -0.7919 -0.1475
 9403SOL     OW39844   0.696   1.978   3.073 -0.1056 -0.1157 -0.3001
 9403SOL    HW139845   0.732   2.008   2.990  0.2371 -0.1017 -0.1442
 9403SOL    HW239846   0.757   1.910   3.102  0.0917  0.0009 -0.4439
 9404SOL     OW39847   1.149   1.889   4.091  0.3232 -0.0521  0.1249
 9404SOL    HW139848   1.211   1.955   4.058  0.2412  0.1044  0.2851
 9404SOL    HW239849   1.199   1.808   4.081  1.2049  0.3693  1.0401
 9405SOL     OW39850   3.103   0.144   7.742  0.5901 -0.1626  0.2784
 9405SOL    HW139851   3.139   0.077   7.683  3.2718  2.4290 -1.0062
 9405SOL    HW239852   3.009   0.136   7.728  0.4030  0.7044  1.1051
 9406SOL     OW39853   3.765   2.169  10.509 -0.2968 -0.3553  0.1484
 9406SOL    HW139854   3.855   2.139  10.523  0.3066  0.5949 -1.7289
 9406SOL    HW239855   3.736   2.175  10.600 -0.8476 -2.2225  0.1016
 9407SOL     OW39856   2.133   4.713   8.079 -0.2477  0.1831 -0.2548
 9407SOL    HW139857   2.156   4.632   8.126  1.8701  0.8804 -0.0868
 9407SOL    HW239858   2.054   0.010   8.117 -0.2308  0.2047 -0.2410
 9408SOL     OW39859   2.832   2.093   4.730 -0.5914  0.2933  0.2961
 9408SOL    HW139860   2.823   2.152   4.656  0.9942  0.4886  0.2655
 9408SOL    HW239861   2.791   2.135   4.806  1.9794 -0.8009  2.2943
 9409SOL     OW39862   3.307   1.881   6.427  0.0864 -0.3029 -0.0216
 9409SOL    HW139863   3.345   1.899   6.513  0.0108 -1.6735  0.2989
 9409SOL    HW239864   3.366   1.934   6.373 -0.2607  1.6089  1.5142
 9410SOL     OW39865   0.026   3.845   3.882  0.6020  0.1540  0.0164
 9410SOL    HW139866   4.727   3.871   3.799 -1.4910 -0.3689  0.8482
 9410SOL    HW239867   0.119   3.835   3.862  0.5535 -0.1882 -0.0442
 9411SOL     OW39868   4.102   3.245   7.430 -0.0738 -0.5943  0.1399
 9411SOL    HW139869   4.171   3.221   7.493 -1.3969  0.2867  1.9112
 9411SOL    HW239870   4.139   3.194   7.357  0.4111  0.5095 -0.3934
 9412SOL     OW39871   1.792   3.445   7.630 -0.7097 -0.3912  0.2858
 9412SOL    HW139872   1.770   3.454   7.538 -1.6833  1.1927  0.6747
 9412SOL    HW239873   1.785   3.539   7.651  0.4629 -0.2455  0.0509
 9413SOL     OW39874   3.491   2.578  12.272  0.2719  0.5676  0.4875
 9413SOL    HW139875   3.415   2.526  12.297 -0.9520  2.0924 -0.0360
 9413SOL    HW239876   3.559   2.513  12.256 -2.4350 -2.2054  0.1498
 9414SOL     OW39877   3.041   3.156   5.440  0.6348  0.2155 -0.1021
 9414SOL    HW139878   2.956   3.138   5.401  0.5488  1.5170 -0.4933
 9414SOL    HW239879   3.017   3.222   5.505 -0.9814  0.3715 -0.8614
 9415SOL     OW39880   3.534   3.814  17.393  0.2364  0.4622 -0.6319
 9415SOL    HW139881   3.541   3.726  17.430  1.0645  0.9589  0.3908
 9415SOL    HW239882   3.608   3.858  17.434  0.5609 -1.4717  0.8477
 9416SOL     OW39883   4.259   4.038  11.979  0.1261  0.4047  0.5057
 9416SOL    HW139884   4.294   3.972  11.919 -0.7591  0.3032  0.1046
 9416SOL    HW239885   4.323   4.056  12.048  0.4555  0.7978  0.0989
 9417SOL     OW39886   2.531   1.030  17.031 -0.5571  0.2480  0.1463
 9417SOL    HW139887   2.536   1.086  16.954 -0.7424  0.0844  0.0154
 9417SOL    HW239888   2.582   1.087  17.088 -0.3934  0.3300 -0.0816
 9418SOL     OW39889   1.155   2.359  13.532  0.7172 -0.1708 -0.1528
 9418SOL    HW139890   1.184   2.440  13.574  1.5993 -0.5137 -0.0965
 9418SOL    HW239891   1.191   2.299  13.597 -1.1158  2.0766  2.9542
 9419SOL     OW39892   4.670   0.688   3.208  0.4362  0.0574  0.2316
 9419SOL    HW139893   4.585   0.653   3.234 -0.6039  2.4168  0.0335
 9419SOL    HW239894   4.705   0.721   3.291  3.1984 -1.5762 -0.2860
 9420SOL     OW39895   1.218   4.268   2.574 -0.0004 -0.4680  0.7164
 9420SOL    HW139896   1.172   4.330   2.631 -1.9284 -0.1685 -1.1638
 9420SOL    HW239897   1.270   4.212   2.632  0.9199  1.3935  1.7079
 9421SOL     OW39898   2.300   4.023  10.928  0.1905 -0.0968  0.0942
 9421SOL    HW139899   2.357   3.948  10.945  0.7547  0.2294 -0.3732
 9421SOL    HW239900   2.336   4.091  10.985 -0.8910 -0.0845  0.7663
 9422SOL     OW39901   3.683   1.057   7.488  0.4073 -0.1763 -0.2390
 9422SOL    HW139902   3.625   1.131   7.508  2.8123  1.6447  0.0416
 9422SOL    HW239903   3.765   1.095   7.518 -0.2937 -0.6628  2.2854
 9423SOL     OW39904   1.586   2.967   7.722  0.1517  0.3813 -0.2564
 9423SOL    HW139905   1.641   3.044   7.713 -0.0689  0.2534 -2.7770
 9423SOL    HW239906   1.647   2.900   7.692  1.3378  0.4771  1.9355
 9424SOL     OW39907   2.887   1.540   3.401  0.0104  0.1139  0.0903
 9424SOL    HW139908   2.909   1.630   3.376 -0.6947  0.0458 -0.7468
 9424SOL    HW239909   2.854   1.503   3.319  0.1360 -1.3723  0.7089
 9425SOL     OW39910   2.505   1.747   4.937  0.6170 -0.1318 -0.0412
 9425SOL    HW139911   2.455   1.674   4.973  0.2640  0.6405  1.0116
 9425SOL    HW239912   2.544   1.788   5.014  0.6041 -0.4162  0.1192
 9426SOL     OW39913   1.311   3.567  14.386 -0.3141  0.1297 -0.5517
 9426SOL    HW139914   1.276   3.531  14.467  2.3443  1.0974  1.0398
 9426SOL    HW239915   1.232   3.591  14.339 -0.6510  1.2402  0.5879
 9427SOL     OW39916   0.576   2.325   0.013 -0.3016  1.0612 -0.0949
 9427SOL    HW139917   0.521   2.400   0.034 -1.1452  0.5668 -0.4801
 9427SOL    HW239918   0.663   2.346   0.045 -0.1080  0.4026 -0.1904
 9428SOL     OW39919   4.666   2.830   5.918  0.1155 -0.4362 -0.4245
 9428SOL    HW139920   4.703   2.754   5.873 -0.4171 -1.2574  0.4991
 9428SOL    HW239921   4.690   2.807   6.008  0.1900  1.9141  0.1573
 9429SOL     OW39922   0.800   4.144   3.909 -0.2948  0.3831 -0.0750
 9429SOL    HW139923   0.724   4.109   3.863  0.8512 -2.1046 -0.0861
 9429SOL    HW239924   0.867   4.079   3.887 -1.1875 -0.4998 -0.1802
 9430SOL     OW39925   1.624   4.015   4.338  0.2720  0.3200  0.0882
 9430SOL    HW139926   1.544   4.062   4.316 -0.0659 -0.7277 -0.9350
 9430SOL    HW239927   1.597   3.972   4.418  0.5821 -1.6934 -0.8877
 9431SOL     OW39928   4.389   2.779   6.798 -0.0113 -0.0545  0.3155
 9431SOL    HW139929   4.332   2.714   6.839 -0.4805 -0.8985 -1.6766
 9431SOL    HW239930   4.336   2.793   6.719 -0.0872 -0.1832  0.3433
 9432SOL     OW39931   0.437   1.424   0.355  0.4442 -0.4058  0.7226
 9432SOL    HW139932   0.430   1.328   0.357 -0.1026 -0.4044 -0.5055
 9432SOL    HW239933   0.406   1.453   0.269 -0.7075 -3.0079  0.2501
 9433SOL     OW39934   2.902   4.355   5.636 -0.1659  0.1966 -0.6905
 9433SOL    HW139935   2.982   4.390   5.676  0.9779 -2.4272 -0.6823
 9433SOL    HW239936   2.944   4.274   5.607  0.2703 -0.5160  1.9514
 9434SOL     OW39937   0.549   4.357   5.205 -0.2098 -0.6157  0.5554
 9434SOL    HW139938   0.618   4.403   5.157  0.7348 -0.3716  2.1274
 9434SOL    HW239939   0.532   4.429   5.266 -2.1759 -0.7782  0.1806
 9435SOL     OW39940   3.795   4.542   3.744 -0.4845 -0.0962 -0.0706
 9435SOL    HW139941   3.768   4.512   3.657  1.2356 -2.5179  0.2046
 9435SOL    HW239942   3.888   4.520   3.733 -1.0001 -1.8762 -0.8739
 9436SOL     OW39943   2.113   3.626   7.235  0.5226  0.0930 -0.5428
 9436SOL    HW139944   2.179   3.623   7.166 -0.5448  0.6109 -1.6031
 9436SOL    HW239945   2.096   3.720   7.238  0.9649  0.0604  2.1974
 9437SOL     OW39946   3.629   2.664   7.170  0.0463  0.0490 -0.6678
 9437SOL    HW139947   3.599   2.752   7.191 -1.5789 -0.4764 -0.8171
 9437SOL    HW239948   3.677   2.645   7.251  1.2612 -1.6020 -1.7762
 9438SOL     OW39949   4.464   1.233   9.845  0.5580  0.2473  0.2736
 9438SOL    HW139950   4.491   1.148   9.880  2.1389  1.6709  2.5034
 9438SOL    HW239951   4.548   1.269   9.816 -0.4137  0.0469 -2.7996
 9439SOL     OW39952   0.114   3.567   6.425 -0.4008  0.6507 -0.3912
 9439SOL    HW139953   0.029   3.527   6.447  0.2437 -1.0980 -1.1168
 9439SOL    HW239954   0.099   3.662   6.424 -0.9253  0.5830  0.8216
 9440SOL     OW39955   4.673   0.641   5.446  0.7830 -0.0121 -0.0707
 9440SOL    HW139956   4.583   0.655   5.417  0.7398  1.9757  0.9533
 9440SOL    HW239957   4.660   0.578   5.517  2.1707 -1.3862 -1.0379
 9441SOL     OW39958   3.977   1.584   3.001 -0.1595  0.3152 -0.7930
 9441SOL    HW139959   3.944   1.662   2.957 -1.2346 -0.3548 -1.1647
 9441SOL    HW239960   4.003   1.623   3.085 -0.7514  0.8317 -0.8543
 9442SOL     OW39961   1.059   2.306   4.367  0.7809  0.5959  0.0710
 9442SOL    HW139962   1.000   2.232   4.354 -1.2371  1.7369  2.8029
 9442SOL    HW239963   1.039   2.343   4.453 -0.6468  1.2481 -0.5406
 9443SOL     OW39964   3.077   4.484   1.730  0.3754 -0.5224  0.3068
 9443SOL    HW139965   3.028   4.421   1.677 -1.1550 -0.7047  1.9608
 9443SOL    HW239966   3.164   4.471   1.690  0.4023  3.8646 -1.0665
 9444SOL     OW39967   0.806   2.586   9.665  0.1900 -0.7485  0.7261
 9444SOL    HW139968   0.777   2.670   9.629  2.0161 -0.0075  0.9749
 9444SOL    HW239969   0.728   2.533   9.646 -1.5014  2.0104 -0.0364
 9445SOL     OW39970   2.805   1.139   4.794  0.4097  0.2926 -0.0707
 9445SOL    HW139971   2.770   1.206   4.736  1.2754 -0.0626 -0.9999
 9445SOL    HW239972   2.897   1.163   4.809  0.2676  1.4511 -1.1286
 9446SOL     OW39973   2.520   2.834   8.053 -0.3798  0.1856  0.4349
 9446SOL    HW139974   2.562   2.849   7.968  2.2915 -2.4754  1.2655
 9446SOL    HW239975   2.571   2.893   8.108  1.7977  1.7445 -3.2912
 9447SOL     OW39976   3.459   4.475   4.811 -0.4207  0.4700 -0.0719
 9447SOL    HW139977   3.409   4.493   4.732 -0.4548 -4.9809 -1.3373
 9447SOL    HW239978   3.505   4.396   4.783 -1.1189 -0.4802  1.3994
 9448SOL     OW39979   4.667   1.096  11.429 -0.1536 -0.6352 -0.3104
 9448SOL    HW139980   4.606   1.163  11.396  1.5585  0.5791 -0.9999
 9448SOL    HW239981   4.730   1.143  11.483 -2.7691 -0.9087  2.9991
 9449SOL     OW39982   2.579   4.487   4.646  0.1779  0.0508 -0.2040
 9449SOL    HW139983   2.549   4.577   4.658 -0.2547 -0.1010 -0.1581
 9449SOL    HW239984   2.669   4.491   4.680 -0.8039  0.3983  2.3340
 9450SOL     OW39985   0.866   4.164   5.989  0.3350  0.0400 -0.4266
 9450SOL    HW139986   0.892   4.117   5.911  0.1761  2.4321 -1.9317
 9450SOL    HW239987   0.903   4.118   6.064  1.9975 -2.0023 -2.5197
 9451SOL     OW39988   3.144   3.478   6.880  0.6887 -0.0637 -0.1234
 9451SOL    HW139989   3.183   3.471   6.793 -0.8711 -0.9170 -0.7413
 9451SOL    HW239990   3.076   3.410   6.878  1.9193 -1.3891  3.0980
 9452SOL     OW39991   4.670   1.738   8.945 -0.5609 -0.1476 -0.1167
 9452SOL    HW139992   0.024   1.746   8.955 -0.4668 -0.7250 -0.5056
 9452SOL    HW239993   4.648   1.711   9.034  0.1193  0.1417  0.1376
 9453SOL     OW39994   3.402   2.906   2.988 -0.1836 -0.3339 -0.7333
 9453SOL    HW139995   3.422   2.924   3.080  0.6573  4.1076 -1.7669
 9453SOL    HW239996   3.315   2.946   2.989 -1.1188 -2.2937 -3.1933
 9454SOL     OW39997   4.416   3.221   4.510 -0.2545  0.0318  0.6181
 9454SOL    HW139998   4.445   3.159   4.442 -0.2730  0.5911  0.0972
 9454SOL    HW239999   4.331   3.182   4.528  0.7548 -2.9030 -0.9957
 9455SOL     OW40000   3.382   2.792   3.837  0.1376  0.1136 -0.3627
 9455SOL    HW140001   3.374   2.796   3.932 -2.4731 -1.5733 -0.5180
 9455SOL    HW240002   3.379   2.887   3.824  2.0518  0.0973 -0.9299
 9456SOL     OW40003   1.028   2.036   3.461  0.2023  0.2469 -0.1718
 9456SOL    HW140004   0.967   1.989   3.518  0.2537 -0.3770 -0.6339
 9456SOL    HW240005   1.110   2.012   3.505 -0.2212 -1.6842 -0.4017
 9457SOL     OW40006   3.138   4.635   6.894 -0.3809 -0.4478 -0.3174
 9457SOL    HW140007   3.148   4.642   6.989 -2.8155 -0.9833 -0.0372
 9457SOL    HW240008   3.216   4.676   6.856  0.1456  0.1828  1.4810
 9458SOL     OW40009   3.461   1.448   8.636  0.3874 -0.3004  0.6509
 9458SOL    HW140010   3.397   1.401   8.689  0.2947 -0.9403 -0.0256
 9458SOL    HW240011   3.544   1.404   8.654  0.8037  0.4232  0.5261
 9459SOL     OW40012   0.620   3.587   6.110  0.2733 -0.1651 -0.1729
 9459SOL    HW140013   0.626   3.532   6.188 -1.3100  1.2379  0.9540
 9459SOL    HW240014   0.586   3.671   6.139  1.1293  0.3852 -0.7789
 9460SOL     OW40015   3.505   4.404   6.998  0.1592 -0.0513  0.1932
 9460SOL    HW140016   3.586   4.392   6.948 -0.1614 -1.7587  0.1144
 9460SOL    HW240017   3.478   4.486   6.955 -0.7974 -0.0696  0.7580
 9461SOL     OW40018   1.101   2.557   8.246 -0.4708 -0.3212 -0.3220
 9461SOL    HW140019   1.190   2.561   8.211  0.5800  1.9774  2.6560
 9461SOL    HW240020   1.059   2.509   8.174 -0.1520 -0.2510 -0.5556
 9462SOL     OW40021   0.874   1.159   8.760 -0.8649 -0.0779  0.0849
 9462SOL    HW140022   0.931   1.128   8.689  0.7200  1.0495  0.8687
 9462SOL    HW240023   0.799   1.200   8.717 -1.4664 -0.6205  0.6106
 9463SOL     OW40024   2.558   4.112  11.820 -0.3903 -0.0850 -0.1732
 9463SOL    HW140025   2.536   4.130  11.911 -1.7951 -0.5785 -0.4148
 9463SOL    HW240026   2.602   4.194  11.798 -0.7203  0.9991  3.2438
 9464SOL     OW40027   2.529   1.310   1.846 -0.4213 -0.2885  0.5922
 9464SOL    HW140028   2.435   1.294   1.833 -1.0031  2.3182  1.6980
 9464SOL    HW240029   2.565   1.221   1.851  1.7041  0.3946 -2.7659
 9465SOL     OW40030   3.744   4.165   7.500 -0.3659  0.1215  0.2236
 9465SOL    HW140031   3.687   4.127   7.567 -0.3055 -0.2997  0.0405
 9465SOL    HW240032   3.799   4.223   7.552  0.1497 -1.5845  1.5965
 9466SOL     OW40033   3.237   2.775   8.334 -0.3283  0.5962  0.1605
 9466SOL    HW140034   3.203   2.713   8.270  2.9463 -0.4411 -0.5747
 9466SOL    HW240035   3.213   2.855   8.287  2.0480  2.2176  1.6891
 9467SOL     OW40036   3.671   1.698  16.416  0.8259  0.0469  0.4117
 9467SOL    HW140037   3.760   1.698  16.453  1.0728  1.4082 -0.1827
 9467SOL    HW240038   3.669   1.783  16.372  1.1916 -1.9183 -3.4270
 9468SOL     OW40039   3.365   1.367   2.893  1.0961 -0.2621  0.4181
 9468SOL    HW140040   3.420   1.445   2.903 -1.2078  1.2846  1.2256
 9468SOL    HW240041   3.289   1.422   2.872  0.7677 -0.1283  1.9484
 9469SOL     OW40042   3.527   3.278  13.196 -0.5508 -0.3828 -0.6419
 9469SOL    HW140043   3.460   3.244  13.256  1.2079 -3.1404 -0.2261
 9469SOL    HW240044   3.476   3.346  13.152 -1.7770 -1.1261 -0.3749
 9470SOL     OW40045   0.457   2.174  11.611  0.0605  0.6580  1.1647
 9470SOL    HW140046   0.409   2.256  11.600 -2.0338 -0.3143  3.2329
 9470SOL    HW240047   0.473   2.159  11.517 -2.6230 -0.0180  0.8192
 9471SOL     OW40048   2.971   4.038   5.150  0.0714 -0.8361 -0.7193
 9471SOL    HW140049   3.010   3.984   5.219 -0.6394  2.1920  2.0322
 9471SOL    HW240050   2.985   4.124   5.190 -1.0605 -0.9669 -0.0324
 9472SOL     OW40051   1.567   2.874   5.456 -0.4141  0.1474 -0.4329
 9472SOL    HW140052   1.502   2.828   5.402 -1.3032  1.2011 -0.2510
 9472SOL    HW240053   1.550   2.960   5.419 -1.1271  0.4532  0.6090
 9473SOL     OW40054   4.517   4.502   2.672  0.1011 -0.1642 -0.3065
 9473SOL    HW140055   4.467   4.423   2.694  1.5998 -1.3530 -1.2099
 9473SOL    HW240056   4.470   4.528   2.592 -0.0119  2.6264  0.6534
 9474SOL     OW40057   0.264   2.602  14.437  0.2588  0.4926  0.0296
 9474SOL    HW140058   0.253   2.540  14.509  0.9431 -0.9975 -1.1628
 9474SOL    HW240059   0.197   2.567  14.379 -0.1544  0.0322  0.7914
 9475SOL     OW40060   0.546   0.589   6.045  0.0684 -0.3097  0.3900
 9475SOL    HW140061   0.556   0.638   5.963  3.1606  0.8616  1.4732
 9475SOL    HW240062   0.639   0.589   6.069  0.1249 -0.3563  0.1746
 9476SOL     OW40063   2.675   4.188   4.109 -0.7396  0.1738 -0.4077
 9476SOL    HW140064   2.670   4.097   4.079 -0.2981  0.3087 -0.8893
 9476SOL    HW240065   2.771   4.192   4.109 -0.8316  2.4113 -1.0366
 9477SOL     OW40066   0.717   2.332   5.771  0.7443 -0.5899  0.0886
 9477SOL    HW140067   0.762   2.363   5.850  1.3130 -0.1785 -0.3931
 9477SOL    HW240068   0.656   2.264   5.799 -2.0539  1.9749  0.2118
 9478SOL     OW40069   3.613   1.329   3.025 -0.5234 -0.6662 -0.5521
 9478SOL    HW140070   3.528   1.286   3.013  0.6621 -2.4667 -2.5318
 9478SOL    HW240071   3.589   1.417   3.051 -1.9856 -1.1828 -0.1331
 9479SOL     OW40072   2.823   4.282   5.321 -0.6536 -0.0488 -0.4594
 9479SOL    HW140073   2.864   4.346   5.379  2.2002  0.3369 -2.9229
 9479SOL    HW240074   2.753   4.334   5.280  0.6385  0.3229 -2.1957
 9480SOL     OW40075   0.819   2.985   4.218  0.1102  0.0037  0.0527
 9480SOL    HW140076   0.727   2.968   4.195  0.4753 -1.4708 -0.2959
 9480SOL    HW240077   0.824   3.061   4.160 -1.5660 -0.2638 -0.4522
 9481SOL     OW40078   4.388   2.431  10.521  0.5232 -0.0815  0.0409
 9481SOL    HW140079   4.451   2.451  10.452  0.5214  1.4497  0.4834
 9481SOL    HW240080   4.354   2.521  10.529  0.5665  0.0038 -0.7498
 9482SOL     OW40081   4.242   0.691   5.787  0.1935  0.0244  0.2790
 9482SOL    HW140082   4.303   0.619   5.805  0.7849  0.5340  0.2999
 9482SOL    HW240083   4.204   0.713   5.872 -0.3360 -0.3599  0.1401
 9483SOL     OW40084   3.973   3.093   1.680  0.3184  0.3480 -0.6020
 9483SOL    HW140085   3.880   3.080   1.700  0.7000  0.6711  1.4361
 9483SOL    HW240086   4.021   3.079   1.761 -1.0239 -0.2141  0.0989
 9484SOL     OW40087   4.197   3.085  11.199 -0.3273  0.2573  0.0104
 9484SOL    HW140088   4.191   3.139  11.278 -3.5341 -3.4695  2.3014
 9484SOL    HW240089   4.164   3.144  11.131  2.7837  0.6734 -1.1440
 9485SOL     OW40090   3.196   2.661  11.165  0.1883  0.6261 -0.2405
 9485SOL    HW140091   3.230   2.721  11.231 -2.6884 -1.3162  3.0190
 9485SOL    HW240092   3.136   2.718  11.117 -0.1409 -0.7057 -1.4156
 9486SOL     OW40093   1.846   1.725   5.151 -0.1722  0.0675  0.3327
 9486SOL    HW140094   1.914   1.732   5.084  0.0712  0.5004  0.6248
 9486SOL    HW240095   1.869   1.644   5.197  0.6679  0.0414 -0.1287
 9487SOL     OW40096   2.090   2.626   3.166 -0.9857  0.2701 -0.2544
 9487SOL    HW140097   2.136   2.619   3.083  2.0331  1.6639  1.3275
 9487SOL    HW240098   2.023   2.689   3.138 -1.6869  0.6074  2.1454
 9488SOL     OW40099   0.868   2.409   2.406 -0.1932 -0.1810  0.4338
 9488SOL    HW140100   0.957   2.374   2.417 -0.8233 -1.8010  0.3744
 9488SOL    HW240101   0.890   2.499   2.380 -0.3135 -0.4042 -0.4494
 9489SOL     OW40102   3.877   0.991   0.724 -0.2308  0.0746  0.1273
 9489SOL    HW140103   3.879   1.035   0.809  1.6557 -0.3106  0.2877
 9489SOL    HW240104   3.868   1.075   0.679 -0.2515 -0.2341 -0.4415
 9490SOL     OW40105   1.753   0.150   1.588  0.0330  0.4090 -0.0424
 9490SOL    HW140106   1.804   0.174   1.666 -1.3107  2.0628  0.3259
 9490SOL    HW240107   1.808   0.098   1.530  0.0212  0.4346 -0.0763
 9491SOL     OW40108   2.248   3.303   7.680  0.1520  0.3692 -0.0158
 9491SOL    HW140109   2.329   3.351   7.660  1.2020 -1.2423  0.3863
 9491SOL    HW240110   2.277   3.243   7.748 -0.5095  0.5257  0.3959
 9492SOL     OW40111   0.957   0.391   8.931  0.4850  0.4766 -1.2856
 9492SOL    HW140112   0.975   0.482   8.908  0.9960  0.6309 -0.2750
 9492SOL    HW240113   0.893   0.359   8.867  1.7657 -2.2534 -1.2279
 9493SOL     OW40114   2.966   0.035   7.336  0.4748  0.2068  0.8329
 9493SOL    HW140115   2.994   0.123   7.360 -0.5302  0.7284  0.0999
 9493SOL    HW240116   2.932   0.009   7.421  0.7106 -0.5674  0.6883
 9494SOL     OW40117   3.520   1.361   5.028  0.3278 -0.1077 -0.4012
 9494SOL    HW140118   3.502   1.452   5.005 -2.2236 -0.6855 -0.6615
 9494SOL    HW240119   3.598   1.346   4.976  1.6479  1.1718  1.1977
 9495SOL     OW40120   0.116   2.673  13.977  0.0136 -0.3048 -0.3969
 9495SOL    HW140121   0.101   2.768  13.975  2.4825  0.1097  0.4919
 9495SOL    HW240122   0.046   2.648  13.917 -0.5982 -1.6209  0.8517
 9496SOL     OW40123   4.428   4.199   4.838  0.4422 -0.4266  0.2571
 9496SOL    HW140124   4.485   4.202   4.915 -0.7768  0.8621  1.1234
 9496SOL    HW240125   4.474   4.122   4.805  0.5371  0.5807 -1.8924
 9497SOL     OW40126   4.615   1.294   7.324  0.4700  0.6872 -0.0750
 9497SOL    HW140127   4.530   1.318   7.287  0.4751  1.2986  0.3047
 9497SOL    HW240128   4.591   1.267   7.412  0.9859 -0.8247 -0.4034
 9498SOL     OW40129   3.347   2.873   5.674 -0.6696 -0.8526  0.3162
 9498SOL    HW140130   3.319   2.908   5.590 -1.5546 -1.8015  0.2210
 9498SOL    HW240131   3.327   2.952   5.725 -3.8569 -1.8025  0.5440
 9499SOL     OW40132   1.133   0.230   6.103  0.1967  0.2449  0.4404
 9499SOL    HW140133   1.145   0.254   6.195 -1.6769  3.0012 -0.0487
 9499SOL    HW240134   1.123   0.317   6.065 -0.8311  0.3898  1.0533
 9500SOL     OW40135   2.715   2.690   0.341  0.1608 -0.5018 -0.1307
 9500SOL    HW140136   2.778   2.729   0.281  0.7778 -0.2362  0.7018
 9500SOL    HW240137   2.672   2.771   0.369  1.5242 -0.4763  1.8285
 9501SOL     OW40138   3.560   0.653  12.443 -0.1177 -0.8210 -0.7682
 9501SOL    HW140139   3.515   0.735  12.459  0.9737 -0.7027  1.6768
 9501SOL    HW240140   3.506   0.620  12.371  1.4710  0.8349 -2.6947
 9502SOL     OW40141   1.752   2.172   6.952  0.2624  0.0533  0.6378
 9502SOL    HW140142   1.691   2.217   6.893 -0.1878 -2.2665 -0.6742
 9502SOL    HW240143   1.826   2.159   6.893  0.2886  0.3367  0.6110
 9503SOL     OW40144   2.445   4.298   8.658  0.1272  0.4746 -0.3657
 9503SOL    HW140145   2.367   4.253   8.624  1.3349 -0.4477 -1.9539
 9503SOL    HW240146   2.500   4.276   8.582  0.5883 -2.2401  0.7366
 9504SOL     OW40147   1.380   2.155   7.444 -0.1578  0.3966 -0.2939
 9504SOL    HW140148   1.299   2.182   7.487 -0.8637 -0.0623 -1.3581
 9504SOL    HW240149   1.373   2.172   7.350  0.5362 -0.4380 -0.4921
 9505SOL     OW40150   1.472   1.553   5.556  0.2797 -0.0495  0.1347
 9505SOL    HW140151   1.497   1.498   5.631 -1.3336 -0.8683  0.0645
 9505SOL    HW240152   1.411   1.610   5.602 -0.6977  0.3667 -1.6647
 9506SOL     OW40153   0.191   2.557  12.604  0.2394  0.5196  0.4572
 9506SOL    HW140154   0.194   2.642  12.647  2.4571  1.6028 -1.8402
 9506SOL    HW240155   0.137   2.571  12.526  2.0860 -1.3845 -1.1619
 9507SOL     OW40156   0.672   3.588   9.669  0.0489 -0.4701  0.0719
 9507SOL    HW140157   0.732   3.660   9.650  0.0798  0.0039  1.9832
 9507SOL    HW240158   0.660   3.609   9.761 -1.9700 -0.1945 -0.2661
 9508SOL     OW40159   4.738   0.278   8.466  0.1333  0.1013 -0.2719
 9508SOL    HW140160   0.069   0.339   8.487 -0.4404  0.6947 -0.0711
 9508SOL    HW240161   4.671   0.340   8.494 -1.2497 -1.1207 -0.8481
 9509SOL     OW40162   2.012   1.888   4.049  0.2194  0.3136 -0.7896
 9509SOL    HW140163   1.984   1.797   4.058  2.2007 -0.3565 -1.2808
 9509SOL    HW240164   2.089   1.883   3.992 -0.1399  0.5739 -1.2968
 9510SOL     OW40165   3.717   4.072   7.261 -0.8931 -0.2863 -0.1289
 9510SOL    HW140166   3.734   4.084   7.355  1.6076 -1.2239 -0.4608
 9510SOL    HW240167   3.791   4.120   7.223 -2.4818  0.6892 -1.9334
 9511SOL     OW40168   4.428   0.407   6.937 -0.0385 -0.2245  0.0828
 9511SOL    HW140169   4.406   0.442   6.851 -4.1866 -1.5778  0.5733
 9511SOL    HW240170   4.417   0.315   6.913 -1.4826 -0.3612  1.2534
 9512SOL     OW40171   0.335   2.682   6.412 -0.7984 -0.0406 -0.3550
 9512SOL    HW140172   0.431   2.679   6.411 -0.7660  0.2934  0.9299
 9512SOL    HW240173   0.317   2.765   6.456 -2.7924 -1.1598  0.9603
 9513SOL     OW40174   3.309   4.338   6.351 -0.3985  0.5144 -0.4688
 9513SOL    HW140175   3.321   4.432   6.337  2.5557  0.0157 -1.4298
 9513SOL    HW240176   3.390   4.310   6.395 -0.8836 -0.5954 -0.2981
 9514SOL     OW40177   2.495   2.847   5.745  0.1248  0.1468 -0.2604
 9514SOL    HW140178   2.449   2.906   5.686 -1.7416 -0.4376  0.6010
 9514SOL    HW240179   2.546   2.911   5.793  0.7566 -0.1983 -0.4777
 9515SOL     OW40180   3.109   0.030   4.843 -0.0585  0.0551 -0.4388
 9515SOL    HW140181   3.147   4.696   4.796  2.7710  1.0694  0.2992
 9515SOL    HW240182   3.102   0.077   4.759 -3.9548  2.8144  1.3949
 9516SOL     OW40183   4.514   1.614   7.160  0.7743  0.5833  0.1926
 9516SOL    HW140184   4.481   1.683   7.103  0.1503 -0.9309 -1.3127
 9516SOL    HW240185   4.607   1.618   7.140  0.7354  0.8890  0.0838
 9517SOL     OW40186   1.893   2.844   2.821 -0.4153  0.0714  0.2415
 9517SOL    HW140187   1.895   2.939   2.811 -3.8304 -0.3055 -3.6667
 9517SOL    HW240188   1.896   2.838   2.917 -1.3268 -3.5368  0.0510
 9518SOL     OW40189   2.957   2.028   7.256 -0.1852 -0.4033  0.3431
 9518SOL    HW140190   2.982   2.082   7.331  2.4094  0.4760 -1.1852
 9518SOL    HW240191   2.953   2.102   7.196 -0.4309 -0.2249  0.5767
 9519SOL     OW40192   1.180   4.514   7.503  0.0797  0.7020  0.2015
 9519SOL    HW140193   1.084   4.520   7.498  0.0470  1.6835  2.2556
 9519SOL    HW240194   1.220   4.587   7.456  1.3580  1.2422  2.1326
 9520SOL     OW40195   3.791   2.913   6.162  0.3162 -0.4648  0.7609
 9520SOL    HW140196   3.724   2.873   6.218 -0.0215 -1.3643 -0.2599
 9520SOL    HW240197   3.805   2.865   6.080  0.0364  0.2740  0.2762
 9521SOL     OW40198   0.293   2.656   4.314  0.1386 -0.4090 -0.5048
 9521SOL    HW140199   0.354   2.690   4.380  0.0780 -0.9409 -0.1727
 9521SOL    HW240200   0.228   2.726   4.308 -0.4304 -0.8477  0.6291
 9522SOL     OW40201   2.697   0.106   5.315  0.0278  0.6382  0.3517
 9522SOL    HW140202   2.718   0.199   5.306 -1.6917  1.0481  0.7304
 9522SOL    HW240203   2.735   0.069   5.235 -1.7178  1.3114 -0.7708
 9523SOL     OW40204   0.912   0.945   9.633  0.5171  0.0786  0.0748
 9523SOL    HW140205   0.881   0.856   9.621  1.3286 -0.4265  1.6267
 9523SOL    HW240206   0.996   0.921   9.672 -0.6107 -1.0119  1.8281
 9524SOL     OW40207   4.119   1.688   0.016  0.0767 -0.3355  0.1070
 9524SOL    HW140208   4.114   1.749   0.090  0.3407 -0.5885  0.3331
 9524SOL    HW240209   4.176   1.732  17.710  1.6932 -0.7726  1.2475
 9525SOL     OW40210   3.464   2.880   5.988 -0.7771  0.2256  0.4353
 9525SOL    HW140211   3.501   2.880   5.900 -2.2966  0.6489 -0.2182
 9525SOL    HW240212   3.463   2.971   6.016  0.5756  1.4730 -3.4859
 9526SOL     OW40213   4.033   0.603  13.772 -0.2706  0.1058  0.0223
 9526SOL    HW140214   4.015   0.590  13.679 -1.2209 -0.7739  0.3266
 9526SOL    HW240215   3.944   0.600  13.808 -0.8784 -0.2510 -1.4839
 9527SOL     OW40216   2.339   0.513  15.579  0.0564 -0.3079  0.3666
 9527SOL    HW140217   2.356   0.562  15.659 -1.1488  1.6101 -0.5524
 9527SOL    HW240218   2.253   0.545  15.553  0.0066  0.5589  1.6407
 9528SOL     OW40219   1.543   0.306   2.415 -0.1680  0.1122 -0.3163
 9528SOL    HW140220   1.604   0.379   2.426 -0.9788  0.8040 -0.4431
 9528SOL    HW240221   1.530   0.303   2.320  0.1435 -0.9821 -0.3222
 9529SOL     OW40222   0.540   0.634   8.153 -0.0373  0.5629  0.2510
 9529SOL    HW140223   0.512   0.664   8.239 -1.2153 -0.0673  0.0888
 9529SOL    HW240224   0.492   0.551   8.147  1.8424 -0.6243  1.2678
 9530SOL     OW40225   1.677   1.259   1.737  0.5643 -0.1525 -0.3843
 9530SOL    HW140226   1.675   1.180   1.790  0.4022  0.2212  0.1635
 9530SOL    HW240227   1.582   1.269   1.725  0.8075  1.1285 -1.2317
 9531SOL     OW40228   2.251   3.152   3.539 -0.6267  0.1180  0.0420
 9531SOL    HW140229   2.324   3.179   3.483 -1.0675 -2.2847 -1.7055
 9531SOL    HW240230   2.182   3.210   3.506 -0.3626 -0.3279 -1.2960
 9532SOL     OW40231   3.681   0.793   2.417 -0.2152 -0.1125 -0.1215
 9532SOL    HW140232   3.746   0.863   2.424 -0.8798  0.3083  1.6745
 9532SOL    HW240233   3.593   0.829   2.407 -0.4905 -0.6288  0.4385
 9533SOL     OW40234   3.062   4.448   7.535 -0.2479  0.3839  0.4986
 9533SOL    HW140235   3.019   4.387   7.475 -0.4116  1.3840 -0.3967
 9533SOL    HW240236   3.155   4.439   7.511 -0.5159 -0.8678 -0.0752
 9534SOL     OW40237   1.400   1.027   3.093  0.2065  0.3144  0.7560
 9534SOL    HW140238   1.440   1.001   3.010 -0.8460 -1.2833  0.7620
 9534SOL    HW240239   1.384   1.120   3.076  4.2940  0.6989 -0.9679
 9535SOL     OW40240   3.985   0.700   6.267  0.4117  0.1223 -0.1858
 9535SOL    HW140241   3.896   0.734   6.255  0.6154  0.4344 -0.7821
 9535SOL    HW240242   3.986   0.636   6.196 -0.1582  1.0201 -1.0059
 9536SOL     OW40243   3.929   0.787   7.191  0.1840 -0.1696  0.0123
 9536SOL    HW140244   3.844   0.746   7.177  0.8035 -0.3627 -3.1314
 9536SOL    HW240245   3.982   0.710   7.211  0.5701  0.8690  2.9730
 9537SOL     OW40246   3.437   0.857  12.825 -0.7445  0.3075  0.2562
 9537SOL    HW140247   3.489   0.796  12.878 -0.7248 -0.4522 -0.6314
 9537SOL    HW240248   3.497   0.905  12.769 -1.4012  0.9638  0.1159
 9538SOL     OW40249   2.699   4.533   5.594  0.0730  0.1953 -0.0103
 9538SOL    HW140250   2.746   4.616   5.584 -1.3914  0.7856 -1.9138
 9538SOL    HW240251   2.775   4.477   5.610 -1.3840 -1.6920  0.3289
 9539SOL     OW40252   1.858   0.104   3.764  0.2899  0.3611 -0.1787
 9539SOL    HW140253   1.910   0.095   3.685 -0.8628  2.5433 -1.1771
 9539SOL    HW240254   1.829   0.195   3.751  1.9204  0.7188 -1.2850
 9540SOL     OW40255   2.552   2.950   4.007 -0.0999 -0.5746  0.0270
 9540SOL    HW140256   2.537   2.966   3.913 -1.3101 -3.9398 -0.3373
 9540SOL    HW240257   2.626   2.890   3.997 -0.9772 -1.6335 -0.0452
 9541SOL     OW40258   3.995   2.032   4.118 -0.2590  0.1589  0.2382
 9541SOL    HW140259   3.964   2.117   4.088 -0.5749 -0.9295 -2.4931
 9541SOL    HW240260   4.084   2.047   4.149  0.5491 -2.6812 -0.6377
 9542SOL     OW40261   3.356   0.158   2.036 -0.0920  0.2206 -0.3438
 9542SOL    HW140262   3.312   0.074   2.046 -0.7501  0.5936 -0.1529
 9542SOL    HW240263   3.300   0.204   1.973 -0.5243  0.9021  0.5304
 9543SOL     OW40264   2.999   1.154   5.794 -0.4752  0.0360 -1.0458
 9543SOL    HW140265   2.946   1.158   5.874  2.0039  0.9397  0.5386
 9543SOL    HW240266   3.006   1.060   5.779 -1.0073 -0.2003  0.1711
 9544SOL     OW40267   3.417   4.614   1.851 -0.0426  0.1256  0.3693
 9544SOL    HW140268   3.351   4.647   1.912  0.2542  1.9878 -0.3128
 9544SOL    HW240269   3.359   4.602   1.776 -1.2178  1.5530  1.0313
 9545SOL     OW40270   3.849   3.969   3.300 -0.3940  0.7126  0.4901
 9545SOL    HW140271   3.820   3.878   3.294  1.2221  0.3159 -1.3687
 9545SOL    HW240272   3.944   3.963   3.295 -0.3470  1.4555  0.4159
 9546SOL     OW40273   0.541   2.297   0.790 -0.1207 -0.8400  0.2879
 9546SOL    HW140274   0.601   2.238   0.745 -1.7075 -2.7385  0.6673
 9546SOL    HW240275   0.518   2.230   0.855  0.2869 -2.4242 -1.2310
 9547SOL     OW40276   0.827   2.421   7.100 -0.7241 -0.1169  0.3098
 9547SOL    HW140277   0.752   2.453   7.050  0.8223  0.6418 -1.5024
 9547SOL    HW240278   0.901   2.470   7.064 -0.4630 -2.2702 -2.0301
 9548SOL     OW40279   2.132   3.694   5.554  0.1584 -0.0090  0.4747
 9548SOL    HW140280   2.120   3.780   5.596 -0.1220  0.8526 -1.3649
 9548SOL    HW240281   2.222   3.691   5.522 -0.7276 -2.3864 -1.7112
 9549SOL     OW40282   0.661   4.642   9.741  0.5209  0.1754 -0.2264
 9549SOL    HW140283   0.570   4.614   9.738  1.1288 -1.7096 -1.5132
 9549SOL    HW240284   0.661   4.683   9.828 -0.4464 -0.2625 -0.0234
 9550SOL     OW40285   1.490   0.458   4.494  0.0328  0.4047  0.6565
 9550SOL    HW140286   1.545   0.391   4.451 -1.6667 -1.4320  1.3445
 9550SOL    HW240287   1.415   0.451   4.435 -1.0854 -1.2183  2.2820
 9551SOL     OW40288   3.569   3.043   6.581 -0.2878 -0.3414 -0.2844
 9551SOL    HW140289   3.574   3.138   6.570  1.4458  0.0300  3.6928
 9551SOL    HW240290   3.644   3.017   6.527 -0.3836 -1.8470  0.3250
 9552SOL     OW40291   3.228   0.472   8.629  0.8857  0.0294 -0.1922
 9552SOL    HW140292   3.295   0.414   8.665  1.1914 -0.1728 -1.0836
 9552SOL    HW240293   3.148   0.425   8.653  1.3039 -0.0400  1.0458
 9553SOL     OW40294   0.132   2.707   9.101 -0.3224 -0.3397  0.3315
 9553SOL    HW140295   0.102   2.634   9.046  1.9927  0.2788 -1.7433
 9553SOL    HW240296   0.049   2.744   9.131  0.6003  1.6897  0.3197
 9554SOL     OW40297   0.454   0.956   6.591  0.7439 -0.0410  0.3985
 9554SOL    HW140298   0.463   1.038   6.640  2.1191 -1.6481  2.8438
 9554SOL    HW240299   0.459   0.993   6.503  0.5481  2.8050  1.5981
 9555SOL     OW40300   0.402   0.658   7.671 -0.4269 -0.1410  0.0569
 9555SOL    HW140301   0.416   0.730   7.732 -2.1542 -0.9479  1.3883
 9555SOL    HW240302   0.308   0.652   7.685 -0.3311 -1.4808  0.1597
 9556SOL     OW40303   3.161   3.215   3.839 -1.2105  0.1500 -0.3202
 9556SOL    HW140304   3.174   3.184   3.749 -4.6240  2.3150 -1.5573
 9556SOL    HW240305   3.085   3.273   3.834 -0.8635  0.7219  1.0652
 9557SOL     OW40306   3.334   0.939   9.268  0.0644  0.0123  0.1279
 9557SOL    HW140307   3.345   0.852   9.230 -0.4598 -1.9312  4.3333
 9557SOL    HW240308   3.392   0.994   9.215 -1.1879  1.8704  0.6630
 9558SOL     OW40309   1.411   3.767   5.498 -0.0253  0.0388 -0.0117
 9558SOL    HW140310   1.325   3.778   5.537  0.4335  1.4918  0.6005
 9558SOL    HW240311   1.456   3.849   5.519 -0.1567  0.0672  0.1573
 9559SOL     OW40312   1.402   0.264  15.847  0.1751 -0.3617 -0.1438
 9559SOL    HW140313   1.313   0.270  15.882  0.4066 -0.5620  0.4807
 9559SOL    HW240314   1.382   0.237  15.757  0.9390 -2.0286  0.1953
 9560SOL     OW40315   0.571   2.094   0.157  0.6953  0.0245  0.3476
 9560SOL    HW140316   0.573   2.174   0.105 -2.0432  0.2155  0.5426
 9560SOL    HW240317   0.561   2.130   0.245 -0.6419 -1.2593  0.7063
 9561SOL     OW40318   0.633   2.798  17.023  0.1951  0.3063 -0.1136
 9561SOL    HW140319   0.621   2.889  16.999 -1.2389  0.3263  0.6966
 9561SOL    HW240320   0.555   2.784  17.076  1.3273 -0.3666  1.3982
 9562SOL     OW40321   3.993   3.550   5.249 -0.3117  0.1883 -1.0670
 9562SOL    HW140322   3.970   3.459   5.229  0.4314  0.0702 -1.4015
 9562SOL    HW240323   4.051   3.544   5.326 -0.4201 -2.3409 -1.1552
 9563SOL     OW40324   2.520   1.688   8.919  0.5109  0.2901 -0.0843
 9563SOL    HW140325   2.443   1.701   8.975 -0.4586 -3.1803 -0.6475
 9563SOL    HW240326   2.507   1.600   8.885  2.3392  0.8615 -2.2938
 9564SOL     OW40327   3.823   4.155  17.326  0.1149 -0.3296 -0.4042
 9564SOL    HW140328   3.740   4.115  17.352 -0.1416  2.2019  2.7228
 9564SOL    HW240329   3.781   4.237  17.300  0.2077 -0.1045  0.1554
 9565SOL     OW40330   4.569   0.954   7.759 -0.1413 -0.0959  0.0668
 9565SOL    HW140331   4.568   0.866   7.796 -0.5831 -0.8119 -1.6199
 9565SOL    HW240332   4.541   1.001   7.837 -1.2368 -1.0721  0.2579
 9566SOL     OW40333   2.526   0.722  15.439 -0.5014  0.2726 -0.1020
 9566SOL    HW140334   2.474   0.801  15.456 -3.1349 -1.0396 -2.0486
 9566SOL    HW240335   2.454   0.660  15.443  0.0976 -0.3934  0.2573
 9567SOL     OW40336   4.506   4.633   3.040 -0.1383  0.1733  0.4976
 9567SOL    HW140337   4.476   4.661   3.126 -3.1987 -0.1633 -0.4262
 9567SOL    HW240338   4.561   4.556   3.055  1.0774  0.8488 -0.5617
 9568SOL     OW40339   2.117   3.853   8.015  0.0746 -0.7375 -0.0026
 9568SOL    HW140340   2.096   3.936   7.971 -1.0072 -1.0899 -0.1727
 9568SOL    HW240341   2.046   3.796   7.984  0.5950 -1.0155 -0.6950
 9569SOL     OW40342   2.546   3.701   7.017 -0.6236  0.1646  0.5889
 9569SOL    HW140343   2.559   3.658   6.933 -0.5894 -0.6271  0.9997
 9569SOL    HW240344   2.623   3.676   7.068 -0.0035 -2.9527 -1.9102
   4.74001   4.74001  17.75765
